<LesHouchesEvents version="3.0">
<header>
<!--
#*********************************************************************
#                                                                    *
#                        MadGraph5_aMC@NLO                           *
#                                                                    *
#                           Going Beyond                             *
#                                                                    *
#                   http://madgraph.hep.uiuc.edu                     *
#                   http://madgraph.phys.ucl.ac.be                   *
#                   http://amcatnlo.cern.ch                          *
#                                                                    *
#                     The MadGraph5_aMC@NLO team                     *
#                                                                    *
#....................................................................*
#                                                                    *
# This file contains all the information necessary to reproduce      *
# the events generated:                                              *
#                                                                    *
# 1. software version                                                *
# 2. proc_card          : code generation info including model       *
# 3. param_card         : model primary parameters in the LH format  *
# 4. run_card           : running parameters (collider and cuts)     *
# 5. pythia_card        : present only if pythia has been run        *
# 6. pgs_card           : present only if pgs has been run           *
# 7. delphes_cards      : present only if delphes has been run       *
#                                                                    *
#                                                                    *
#*********************************************************************
-->
<MGVersion>
#5.2.2.3
</MGVersion>
<MG5ProcCard>
#************************************************************
#*                     MadGraph5_aMC@NLO                    *
#*                                                          *
#*                *                       *                 *
#*                  *        * *        *                   *
#*                    * * * * 5 * * * *                     *
#*                  *        * *        *                   *
#*                *                       *                 *
#*                                                          *
#*                                                          *
#*         VERSION 2.2.3                 2015-02-10         *
#*                                                          *
#*    The MadGraph5_aMC@NLO Development Team - Find us at   *
#*    https://server06.fynu.ucl.ac.be/projects/madgraph     *
#*                                                          *
#************************************************************
#*                                                          *
#*               Command File for MadGraph5_aMC@NLO         *
#*                                                          *
#*     run as ./bin/mg5_aMC  filename                       *
#*                                                          *
#************************************************************
set group_subprocesses Auto
set ignore_six_quark_processes False
set loop_optimized_output True
set gauge unitary
set complex_mass_scheme False
import model sm
define p = g u c d s u~ c~ d~ s~
define j = g u c d s u~ c~ d~ s~
define l+ = e+ mu+
define l- = e- mu-
define vl = ve vm vt
define vl~ = ve~ vm~ vt~
import model Zprime_UFO
generate p p > zph, zph > j j
add process p p > zph, zph > b b~
output Dijet_signal
</MG5ProcCard>
<MGProcCard>
#*********************************************************************
#                        MadGraph/MadEvent                           *
#                   http://madgraph.hep.uiuc.edu                     *
#                                                                    *
#                          proc_card.dat                             *
#*********************************************************************
#                                                                    *
#            This Files is generated by MADGRAPH 5                   *
#                                                                    *
# WARNING: This Files is generated for MADEVENT (compatibility issue)*
#          This files is NOT a valid MG4 proc_card.dat               *
#          Running this in MG4 will NEVER reproduce the result of MG5*
#                                                                    *
#*********************************************************************
#*********************************************************************
# Process(es) requested : mg2 input                                  *
#*********************************************************************
# Begin PROCESS # This is TAG. Do not modify this line
p p > zph , zph > j j           #Process
# Be carefull the coupling are here in MG5 convention
          
end_coup           # End the couplings input

done               # this tells MG there are no more procs
# End PROCESS  # This is TAG. Do not modify this line
#*********************************************************************
# Model information                                                  *
#*********************************************************************
# Begin MODEL  # This is TAG. Do not modify this line
Zprime_UFO
# End   MODEL  # This is TAG. Do not modify this line
#*********************************************************************
# Start multiparticle definitions                                    *
#*********************************************************************
# Begin MULTIPARTICLES # This is TAG. Do not modify this line

# End  MULTIPARTICLES # This is TAG. Do not modify this line
</MGProcCard>
<MGRunCard>
#*********************************************************************
#                       MadGraph5_aMC@NLO                            *
#                                                                    *
#                     run_card.dat MadEvent                          *
#                                                                    *
#  This file is used to set the parameters of the run.               *
#                                                                    *
#  Some notation/conventions:                                        *
#                                                                    *
#   Lines starting with a '# ' are info or comments                  *
#                                                                    *
#   mind the format:   value    = variable     ! comment             *
#*********************************************************************
#
#*******************                                                 
# Running parameters
#*******************                                                 
#                                                                    
#*********************************************************************
# Tag name for the run (one word)                                    *
#*********************************************************************
  tag_1     = run_tag ! name of the run 
#*********************************************************************
# Run to generate the grid pack                                      *
#*********************************************************************
  .false.     = gridpack  !True = setting up the grid pack
#*********************************************************************
# Number of events and rnd seed                                      *
# Warning: Do not generate more than 1M events in a single run       *
# If you want to run Pythia, avoid more than 50k events in a run.    *
#*********************************************************************
  2000 = nevents ! Number of unweighted events requested 
 840 = iseed   ! rnd seed (0=assigned automatically=default))
#*********************************************************************
# Collider type and energy                                           *
# lpp: 0=No PDF, 1=proton, -1=antiproton, 2=photon from proton,      *
#                                         3=photon from electron     *
#*********************************************************************
        1     = lpp1    ! beam 1 type 
        1     = lpp2    ! beam 2 type
     4000     = ebeam1  ! beam 1 total energy in GeV
     4000     = ebeam2  ! beam 2 total energy in GeV
#*********************************************************************
# Beam polarization from -100 (left-handed) to 100 (right-handed)    *
#*********************************************************************
        0     = polbeam1 ! beam polarization for beam 1
        0     = polbeam2 ! beam polarization for beam 2
#*********************************************************************
# PDF CHOICE: this automatically fixes also alpha_s and its evol.    *
#*********************************************************************
 'nn23lo1'    = pdlabel     ! PDF set                                     
 230000    = lhaid     ! if pdlabel=lhapdf, this is the lhapdf number
#*********************************************************************
# Renormalization and factorization scales                           *
#*********************************************************************
 F        = fixed_ren_scale  ! if .true. use fixed ren scale
 F        = fixed_fac_scale  ! if .true. use fixed fac scale
 91.1880  = scale            ! fixed ren scale
 91.1880  = dsqrt_q2fact1    ! fixed fact scale for pdf1
 91.1880  = dsqrt_q2fact2    ! fixed fact scale for pdf2
 1        = scalefact        ! scale factor for event-by-event scales
#*********************************************************************
# Matching - Warning! ickkw > 1 is still beta
#*********************************************************************
 0        = ickkw            ! 0 no matching, 1 MLM, 2 CKKW matching
 1        = highestmult      ! for ickkw=2, highest mult group
 1        = ktscheme         ! for ickkw=1, 1 Durham kT, 2 Pythia pTE
 1        = alpsfact         ! scale factor for QCD emission vx
 F        = chcluster        ! cluster only according to channel diag
 T        = pdfwgt           ! for ickkw=1, perform pdf reweighting
 5        = asrwgtflavor     ! highest quark flavor for a_s reweight
 T        = clusinfo         ! include clustering tag in output
 3.0      = lhe_version       ! Change the way clustering information pass to shower.        
#*********************************************************************
#**********************************************************
#
#**********************************************************
# Automatic ptj and mjj cuts if xqcut > 0
# (turn off for VBF and single top processes)
#**********************************************************
   T  = auto_ptj_mjj  ! Automatic setting of ptj and mjj
#**********************************************************
#                                                                    
#**********************************
# BW cutoff (M+/-bwcutoff*Gamma)
#**********************************
  15  = bwcutoff      ! (M+/-bwcutoff*Gamma)
#**********************************************************
# Apply pt/E/eta/dr/mij cuts on decay products or not
# (note that etmiss/ptll/ptheavy/ht/sorted cuts always apply)
#**********************************************************
   T  = cut_decays    ! Cut decay products 
#*************************************************************
# Number of helicities to sum per event (0 = all helicities)
# 0 gives more stable result, but longer run time (needed for
# long decay chains e.g.).
# Use >=2 if most helicities contribute, e.g. pure QCD.
#*************************************************************
   0  = nhel          ! Number of helicities used per event
#*******************                                                 
# Standard Cuts
#*******************                                                 
#                                                                    
#*********************************************************************
# Minimum and maximum pt's (for max, -1 means no cut)                *
#*********************************************************************
 20  = ptj       ! minimum pt for the jets 
  0  = ptb       ! minimum pt for the b 
 10  = pta       ! minimum pt for the photons 
 10  = ptl       ! minimum pt for the charged leptons 
  0  = misset    ! minimum missing Et (sum of neutrino's momenta)
  0  = ptheavy   ! minimum pt for one heavy final state
 1.0 = ptonium   ! minimum pt for the quarkonium states
 -1  = ptjmax    ! maximum pt for the jets
 -1  = ptbmax    ! maximum pt for the b
 -1  = ptamax    ! maximum pt for the photons
 -1  = ptlmax    ! maximum pt for the charged leptons
 -1  = missetmax ! maximum missing Et (sum of neutrino's momenta)
#*********************************************************************
# Minimum and maximum E's (in the center of mass frame)              *
#*********************************************************************
  0  = ej     ! minimum E for the jets 
  0  = eb     ! minimum E for the b 
  0  = ea     ! minimum E for the photons 
  0  = el     ! minimum E for the charged leptons 
 -1   = ejmax ! maximum E for the jets
 -1   = ebmax ! maximum E for the b
 -1   = eamax ! maximum E for the photons
 -1   = elmax ! maximum E for the charged leptons
#*********************************************************************
# Maximum and minimum absolute rapidity (for max, -1 means no cut)   *
#*********************************************************************
   5  = etaj    ! max rap for the jets 
  -1  = etab    ! max rap for the b
 2.5  = etaa    ! max rap for the photons 
 2.5  = etal    ! max rap for the charged leptons 
 0.6  = etaonium ! max rap for the quarkonium states
   0  = etajmin ! min rap for the jets
   0  = etabmin ! min rap for the b
   0  = etaamin ! min rap for the photons
   0  = etalmin ! main rap for the charged leptons
#*********************************************************************
# Minimum and maximum DeltaR distance                                *
#*********************************************************************
 0.4 = drjj    ! min distance between jets 
 0   = drbb    ! min distance between b's 
 0.4 = drll    ! min distance between leptons 
 0.4 = draa    ! min distance between gammas 
 0   = drbj    ! min distance between b and jet 
 0.4 = draj    ! min distance between gamma and jet 
 0.4 = drjl    ! min distance between jet and lepton 
 0   = drab    ! min distance between gamma and b 
 0   = drbl    ! min distance between b and lepton 
 0.4 = dral    ! min distance between gamma and lepton 
 -1  = drjjmax ! max distance between jets
 -1  = drbbmax ! max distance between b's
 -1  = drllmax ! max distance between leptons
 -1  = draamax ! max distance between gammas
 -1  = drbjmax ! max distance between b and jet
 -1  = drajmax ! max distance between gamma and jet
 -1  = drjlmax ! max distance between jet and lepton
 -1  = drabmax ! max distance between gamma and b
 -1  = drblmax ! max distance between b and lepton
 -1  = dralmax ! maxdistance between gamma and lepton
#*********************************************************************
# Minimum and maximum invariant mass for pairs                       *
# WARNING: for four lepton final state mmll cut require to have      *
#          different lepton masses for each flavor!                  *           
#*********************************************************************
 0   = mmjj    ! min invariant mass of a jet pair 
 0   = mmbb    ! min invariant mass of a b pair 
 0   = mmaa    ! min invariant mass of gamma gamma pair
 0   = mmll    ! min invariant mass of l+l- (same flavour) lepton pair
 -1  = mmjjmax ! max invariant mass of a jet pair
 -1  = mmbbmax ! max invariant mass of a b pair
 -1  = mmaamax ! max invariant mass of gamma gamma pair
 -1  = mmllmax ! max invariant mass of l+l- (same flavour) lepton pair
#*********************************************************************
# Minimum and maximum invariant mass for all letpons                 *
#*********************************************************************
 0   = mmnl    ! min invariant mass for all letpons (l+- and vl) 
 -1  = mmnlmax ! max invariant mass for all letpons (l+- and vl) 
#*********************************************************************
# Minimum and maximum pt for 4-momenta sum of leptons                *
#*********************************************************************
 0   = ptllmin  ! Minimum pt for 4-momenta sum of leptons(l and vl)
 -1  = ptllmax  ! Maximum pt for 4-momenta sum of leptons(l and vl)
#*********************************************************************
# Inclusive cuts                                                     *
#*********************************************************************
 0  = xptj ! minimum pt for at least one jet  
 0  = xptb ! minimum pt for at least one b 
 0  = xpta ! minimum pt for at least one photon 
 0  = xptl ! minimum pt for at least one charged lepton 
#*********************************************************************
# Control the pt's of the jets sorted by pt                          *
#*********************************************************************
 0   = ptj1min ! minimum pt for the leading jet in pt
 0   = ptj2min ! minimum pt for the second jet in pt
 0   = ptj3min ! minimum pt for the third jet in pt
 0   = ptj4min ! minimum pt for the fourth jet in pt
 -1  = ptj1max ! maximum pt for the leading jet in pt 
 -1  = ptj2max ! maximum pt for the second jet in pt
 -1  = ptj3max ! maximum pt for the third jet in pt
 -1  = ptj4max ! maximum pt for the fourth jet in pt
 0   = cutuse  ! reject event if fails any (0) / all (1) jet pt cuts
#*********************************************************************
# Control the pt's of leptons sorted by pt                           *
#*********************************************************************
 0   = ptl1min ! minimum pt for the leading lepton in pt
 0   = ptl2min ! minimum pt for the second lepton in pt
 0   = ptl3min ! minimum pt for the third lepton in pt
 0   = ptl4min ! minimum pt for the fourth lepton in pt
 -1  = ptl1max ! maximum pt for the leading lepton in pt 
 -1  = ptl2max ! maximum pt for the second lepton in pt
 -1  = ptl3max ! maximum pt for the third lepton in pt
 -1  = ptl4max ! maximum pt for the fourth lepton in pt
#*********************************************************************
# Control the Ht(k)=Sum of k leading jets                            *
#*********************************************************************
 0   = htjmin ! minimum jet HT=Sum(jet pt)
 -1  = htjmax ! maximum jet HT=Sum(jet pt)
 0   = ihtmin  !inclusive Ht for all partons (including b)
 -1  = ihtmax  !inclusive Ht for all partons (including b)
 0   = ht2min ! minimum Ht for the two leading jets
 0   = ht3min ! minimum Ht for the three leading jets
 0   = ht4min ! minimum Ht for the four leading jets
 -1  = ht2max ! maximum Ht for the two leading jets
 -1  = ht3max ! maximum Ht for the three leading jets
 -1  = ht4max ! maximum Ht for the four leading jets
#***********************************************************************
# Photon-isolation cuts, according to hep-ph/9801442                   *
# When ptgmin=0, all the other parameters are ignored                  *
# When ptgmin>0, pta and draj are not going to be used                 *
#***********************************************************************
   0 = ptgmin ! Min photon transverse momentum
 0.4 = R0gamma ! Radius of isolation code
 1.0 = xn ! n parameter of eq.(3.4) in hep-ph/9801442
 1.0 = epsgamma ! epsilon_gamma parameter of eq.(3.4) in hep-ph/9801442
 .true. = isoEM ! isolate photons from EM energy (photons and leptons)
#*********************************************************************
# WBF cuts                                                           *
#*********************************************************************
 0   = xetamin ! minimum rapidity for two jets in the WBF case  
 0   = deltaeta ! minimum rapidity for two jets in the WBF case 
#*********************************************************************
# KT DURHAM CUT                                                      *
#*********************************************************************
 -1    =  ktdurham        
 0.4  =  dparameter 
#*********************************************************************
# maximal pdg code for quark to be considered as a light jet         *
# (otherwise b cuts are applied)                                     *
#*********************************************************************
 4 = maxjetflavor    ! Maximum jet pdg code
#*********************************************************************
# Jet measure cuts                                                   *
#*********************************************************************
 0   = xqcut   ! minimum kt jet measure between partons
#*********************************************************************
#
#*********************************************************************
# Store info for systematics studies                                 *
# WARNING: If use_syst is T, matched Pythia output is                *
#          meaningful ONLY if plotted taking matchscale              *
#          reweighting into account!                                 *
#*********************************************************************
   F  = use_syst      ! Enable systematics studies
#
#**************************************
# Parameter of the systematics study
#  will be used by SysCalc (if installed)
#**************************************                                  
#
0.5 1 2 = sys_scalefact  # factorization/renormalization scale factor
0.5 1 2 = sys_alpsfact  # \alpha_s emission scale factors
30 50 = sys_matchscale # variation of merging scale
# PDF sets and number of members (0 or none for all members).
CT10nlo.LHgrid = sys_pdf # matching scales
# MSTW2008nlo68cl.LHgrid 1  = sys_pdf
</MGRunCard>
<slha>
######################################################################
## PARAM_CARD AUTOMATICALY GENERATED BY MG5 FOLLOWING UFO MODEL   ####
######################################################################
##                                                                  ##
##  Width set on Auto will be computed following the information    ##
##        present in the decay.py files of the model.               ##
##        See  arXiv:1402.1178 for more details.                    ##
##                                                                  ##
######################################################################

###################################
## INFORMATION FOR CKMBLOCK
###################################
Block ckmblock 
    1 2.277360e-01 # cabi 

###################################
## INFORMATION FOR FRBLOCK
###################################
Block frblock 
    1 4.000000e-01 # gz 

###################################
## INFORMATION FOR MASS
###################################
Block mass 
    1 5.040000e-03 # MD 
    2 2.550000e-03 # MU 
    3 1.010000e-01 # MS 
    4 1.270000e+00 # MC 
    5 4.700000e+00 # MB 
    6 1.720000e+02 # MT 
   11 5.110000e-04 # Me 
   13 1.056600e-01 # MM 
   15 1.777000e+00 # MTA 
   23 9.118760e+01 # MZ 
   25 1.200000e+02 # MH 
  10030 7.000000e+02 # MZph 
  10031 3.000000e+02 # MZpl 
## Dependent parameters, given by model restrictions.
## Those values should be edited following the 
## analytical expression. MG5 ignores those values 
## but they are important for interfacing the output of MG5
## to external program such as Pythia.
  12 0.000000 # ve : 0.0 
  14 0.000000 # vm : 0.0 
  16 0.000000 # vt : 0.0 
  21 0.000000 # g : 0.0 
  22 0.000000 # a : 0.0 
  24 79.824360 # w+ : cmath.sqrt(MZ__exp__2/2. + cmath.sqrt(MZ__exp__4/4. - (aEW*cmath.pi*MZ__exp__2)/(Gf*sqrt__2))) 

###################################
## INFORMATION FOR SMINPUTS
###################################
Block sminputs 
    1 1.279000e+02 # aEWM1 
    2 1.166370e-05 # Gf 
    3 1.184000e-01 # aS 

###################################
## INFORMATION FOR YUKAWA
###################################
Block yukawa 
    1 5.040000e-03 # ymdo 
    2 2.550000e-03 # ymup 
    3 1.010000e-01 # yms 
    4 1.270000e+00 # ymc 
    5 4.700000e+00 # ymb 
    6 1.720000e+02 # ymt 
   11 5.110000e-04 # yme 
   13 1.056600e-01 # ymm 
   15 1.777000e+00 # ymtau 

###################################
## INFORMATION FOR DECAY
###################################
DECAY   6 1.508336e+00 # WT 
DECAY  23 2.495200e+00 # WZ 
DECAY  24 2.085000e+00 # WW 
DECAY  25 5.753088e-03 # WH 
## Dependent parameters, given by model restrictions.
## Those values should be edited following the 
## analytical expression. MG5 ignores those values 
## but they are important for interfacing the output of MG5
## to external program such as Pythia.
DECAY  1 0.000000 # d : 0.0 
DECAY  2 0.000000 # u : 0.0 
DECAY  3 0.000000 # s : 0.0 
DECAY  4 0.000000 # c : 0.0 
DECAY  5 0.000000 # b : 0.0 
DECAY  11 0.000000 # e- : 0.0 
DECAY  12 0.000000 # ve : 0.0 
DECAY  13 0.000000 # mu- : 0.0 
DECAY  14 0.000000 # vm : 0.0 
DECAY  15 0.000000 # ta- : 0.0 
DECAY  16 0.000000 # vt : 0.0 
DECAY  21 0.000000 # g : 0.0 
DECAY  22 0.000000 # a : 0.0 
DECAY  10030 0.308725 # zph : (gz__exp__2*MZph*(5 + cmath.sqrt(1 - (4*MT__exp__2)/MZph__exp__2)))/(144.*cmath.pi) 
DECAY  10031 0.132629 # zpl : (5*gz__exp__2*MZpl)/(144.*cmath.pi) 
#===========================================================
# QUANTUM NUMBERS OF NEW STATE(S) (NON SM PDG CODE)
#===========================================================

Block QNUMBERS 10030  # zph 
        1 0  # 3 times electric charge
        2 3  # number of spin states (2S+1)
        3 1  # colour rep (1: singlet, 3: triplet, 8: octet)
        4 0  # Particle/Antiparticle distinction (0=own anti)
Block QNUMBERS 10031  # zpl 
        1 0  # 3 times electric charge
        2 3  # number of spin states (2S+1)
        3 1  # colour rep (1: singlet, 3: triplet, 8: octet)
        4 0  # Particle/Antiparticle distinction (0=own anti)
</slha>
## END BANNER##
<MGGenerationInfo>
#  Number of Events        :         4141
#  Integrated weight (pb)  :  0.15854E+01
#  Max wgt                 :  0.51137E-03
#  Average wgt             :  0.38285E-03
</MGGenerationInfo>
</header>
<init>
     2212     2212  0.40000000000E+04  0.40000000000E+04 0 0  247000  247000 2   1
  0.15834567292E+01  0.34522632676E-02  0.51136830000E-03   0
</init>
<event>
 5   0  0.5072407E-03  0.6991094E+03  0.7818609E-02  0.9718756E-01
        2   -1    0    0  501    0  0.00000000000E+00  0.00000000000E+00  0.83656650644E+02  0.83656650683E+02  0.25500000920E-02 0. -1.
       -2   -1    0    0    0  501  0.00000000000E+00  0.00000000000E+00 -0.14605949878E+04  0.14605949879E+04  0.25500000920E-02 0.  1.
    10030    2    1    2    0    0  0.00000000000E+00  0.00000000000E+00 -0.13769383372E+04  0.15442516385E+04  0.69910938962E+03 0.  0.
        1    1    3    3  502    0  0.47644569885E+02 -0.99140324221E+02 -0.14213717172E+04  0.14256213970E+04  0.50400001928E-02 0.  1.
       -1    1    3    3    0  502 -0.47644569885E+02  0.99140324221E+02  0.44433380032E+02  0.11863024156E+03  0.50400001928E-02 0. -1.
</event>
<event>
 5   0  0.1981750E-03  0.7006709E+03  0.7818609E-02  0.9716086E-01
       -3   -1    0    0    0  501  0.00000000000E+00  0.00000000000E+00  0.16594721899E+03  0.16594724972E+03  0.10100000352E+00 0.  1.
        3   -1    0    0  501    0  0.00000000000E+00  0.00000000000E+00 -0.73960205434E+03  0.73960206124E+03  0.10100000352E+00 0. -1.
    10030    2    1    2    0    0  0.00000000000E+00  0.00000000000E+00 -0.57365483535E+03  0.90554931096E+03  0.70067088170E+03 0.  0.
        3    1    3    3  502    0  0.17665260684E+03 -0.34716202759E+02 -0.67524469575E+03  0.69883243169E+03  0.10100000352E+00 0. -1.
       -3    1    3    3    0  502 -0.17665260684E+03  0.34716202759E+02  0.10158986040E+03  0.20671687927E+03  0.10100000352E+00 0.  1.
</event>
<event>
 5   0  0.5072407E-03  0.6991165E+03  0.7818609E-02  0.9718744E-01
       -2   -1    0    0    0  501  0.00000000000E+00  0.00000000000E+00  0.66455245891E+03  0.66455245892E+03  0.25500000920E-02 0.  1.
        2   -1    0    0  501    0  0.00000000000E+00  0.00000000000E+00 -0.18386954261E+03  0.18386954263E+03  0.25500000920E-02 0. -1.
    10030    2    1    2    0    0  0.00000000000E+00  0.00000000000E+00  0.48068291630E+03  0.84842200154E+03  0.69911646145E+03 0.  0.
        1    1    3    3  502    0 -0.94769992625E+02 -0.59874913578E+02  0.64214744618E+03  0.65185864989E+03  0.50400001928E-02 0.  1.
       -1    1    3    3    0  502  0.94769992625E+02  0.59874913578E+02 -0.16146452988E+03  0.19656335165E+03  0.50400001928E-02 0. -1.
</event>
<event>
 5   0  0.5113683E-03  0.6997251E+03  0.7818609E-02  0.9717702E-01
       -2   -1    0    0    0  501  0.00000000000E+00  0.00000000000E+00  0.84190368011E+02  0.84190368050E+02  0.25500000920E-02 0. -1.
        2   -1    0    0  501    0  0.00000000000E+00  0.00000000000E+00 -0.14538932226E+04  0.14538932226E+04  0.25500000920E-02 0.  1.
    10030    2    1    2    0    0  0.00000000000E+00  0.00000000000E+00 -0.13697028546E+04  0.15380835906E+04  0.69972510456E+03 0.  0.
        3    1    3    3  502    0 -0.18639402086E+03 -0.21678037966E+03 -0.11281285517E+04  0.11637914346E+04  0.10100000352E+00 0.  1.
       -3    1    3    3    0  502  0.18639402086E+03  0.21678037966E+03 -0.24157430287E+03  0.37429215598E+03  0.10100000352E+00 0. -1.
</event>
<event>
 5   0  0.5072407E-03  0.6986408E+03  0.7818609E-02  0.9719559E-01
       -2   -1    0    0    0  501  0.00000000000E+00  0.00000000000E+00  0.19962747494E+03  0.19962747496E+03  0.25500000920E-02 0.  1.
        2   -1    0    0  501    0  0.00000000000E+00  0.00000000000E+00 -0.61126232336E+03  0.61126232336E+03  0.25500000920E-02 0. -1.
    10030    2    1    2    0    0  0.00000000000E+00  0.00000000000E+00 -0.41163484841E+03  0.81088979832E+03  0.69864083519E+03 0.  0.
        1    1    3    3  502    0 -0.28888039820E+03 -0.80758881310E+02  0.19740863805E+01  0.29996296174E+03  0.50400001928E-02 0.  1.
       -1    1    3    3    0  502  0.28888039820E+03  0.80758881310E+02 -0.41360893479E+03  0.51092683658E+03  0.50400001928E-02 0. -1.
</event>
<event>
 5   0  0.5113683E-03  0.7010800E+03  0.7818609E-02  0.9715387E-01
        2   -1    0    0  501    0  0.00000000000E+00  0.00000000000E+00  0.12313695854E+04  0.12313695854E+04  0.25500000920E-02 0.  1.
       -2   -1    0    0    0  501  0.00000000000E+00  0.00000000000E+00 -0.99789943154E+02  0.99789943187E+02  0.25500000920E-02 0. -1.
    10030    2    1    2    0    0  0.00000000000E+00  0.00000000000E+00  0.11315796423E+04  0.13311595286E+04  0.70108002669E+03 0.  0.
        3    1    3    3  502    0  0.10564891612E+03  0.35693755300E+01 -0.68805104298E+02  0.12612924521E+03  0.10100000352E+00 0. -1.
       -3    1    3    3    0  502 -0.10564891612E+03 -0.35693755300E+01  0.12003847466E+04  0.12050302834E+04  0.10100000352E+00 0.  1.
</event>
<event>
 5   0  0.2913582E-03  0.6986641E+03  0.7818609E-02  0.9719520E-01
        1   -1    0    0  501    0  0.00000000000E+00  0.00000000000E+00  0.52706892552E+03  0.52706892555E+03  0.50400001928E-02 0.  1.
       -1   -1    0    0    0  501  0.00000000000E+00  0.00000000000E+00 -0.23153114889E+03  0.23153114894E+03  0.50400001928E-02 0. -1.
    10030    2    1    2    0    0  0.00000000000E+00  0.00000000000E+00  0.29553777663E+03  0.75860007449E+03  0.69866407922E+03 0.  0.
        1    1    3    3  502    0  0.81667407136E+02  0.25025327068E+03  0.39711383223E+03  0.47644061608E+03  0.50400001928E-02 0.  1.
       -1    1    3    3    0  502 -0.81667407136E+02 -0.25025327068E+03 -0.10157605560E+03  0.28215945841E+03  0.50400001928E-02 0. -1.
</event>
<event>
 5   0  0.2937617E-03  0.7004647E+03  0.7818609E-02  0.9716438E-01
        1   -1    0    0  501    0  0.00000000000E+00  0.00000000000E+00  0.25594445411E+03  0.25594445416E+03  0.50400001928E-02 0. -1.
       -1   -1    0    0    0  501  0.00000000000E+00  0.00000000000E+00 -0.47925509284E+03  0.47925509287E+03  0.50400001928E-02 0.  1.
    10030    2    1    2    0    0  0.00000000000E+00  0.00000000000E+00 -0.22331063873E+03  0.73519954703E+03  0.70046465477E+03 0.  0.
        3    1    3    3  502    0  0.11157884474E+03 -0.24705969228E+02 -0.45913477703E+03  0.47314371726E+03  0.10100000352E+00 0.  1.
       -3    1    3    3    0  502 -0.11157884474E+03  0.24705969228E+02  0.23582413830E+03  0.26205582976E+03  0.10100000352E+00 0. -1.
</event>
<event>
 5   0  0.5072407E-03  0.7001521E+03  0.7818609E-02  0.9716972E-01
        2   -1    0    0  501    0  0.00000000000E+00  0.00000000000E+00  0.16079610631E+04  0.16079610631E+04  0.25500000920E-02 0. -1.
       -2   -1    0    0    0  501  0.00000000000E+00  0.00000000000E+00 -0.76216538159E+02  0.76216538202E+02  0.25500000920E-02 0.  1.
    10030    2    1    2    0    0  0.00000000000E+00  0.00000000000E+00  0.15317445250E+04  0.16841776013E+04  0.70015205710E+03 0.  0.
        1    1    3    3  502    0 -0.15228543550E+03  0.18859962935E+03  0.15832438900E+03  0.28952942205E+03  0.50400001928E-02 0.  1.
       -1    1    3    3    0  502  0.15228543550E+03 -0.18859962935E+03  0.13734201360E+04  0.13946481793E+04  0.50400001928E-02 0. -1.
</event>
<event>
 5   0  0.1981750E-03  0.7001266E+03  0.7818609E-02  0.9717016E-01
       -4   -1    0    0    0  501  0.00000000000E+00  0.00000000000E+00  0.86407954812E+03  0.86408048142E+03  0.12699999809E+01 0. -1.
        4   -1    0    0  501    0  0.00000000000E+00  0.00000000000E+00 -0.14181677302E+03  0.14182245947E+03  0.12699999809E+01 0.  1.
    10030    2    1    2    0    0  0.00000000000E+00  0.00000000000E+00  0.72226277509E+03  0.10059029409E+04  0.70012656728E+03 0.  0.
        5    1    3    3  502    0  0.16397497258E+03  0.30742937388E+03  0.40924840652E+03  0.53750066028E+03  0.46999998093E+01 0.  1.
       -5    1    3    3    0  502 -0.16397497258E+03 -0.30742937388E+03  0.31301436857E+03  0.46840228062E+03  0.46999998093E+01 0. -1.
</event>
<event>
 5   0  0.5072407E-03  0.6993941E+03  0.7818609E-02  0.9718269E-01
        2   -1    0    0  501    0  0.00000000000E+00  0.00000000000E+00  0.12377166949E+04  0.12377166949E+04  0.25500000920E-02 0.  1.
       -2   -1    0    0    0  501  0.00000000000E+00  0.00000000000E+00 -0.98801312107E+02  0.98801312140E+02  0.25500000920E-02 0. -1.
    10030    2    1    2    0    0  0.00000000000E+00  0.00000000000E+00  0.11389153828E+04  0.13365180070E+04  0.69939411921E+03 0.  0.
        1    1    3    3  502    0  0.18489646802E+01 -0.29325307302E+03  0.20543381809E+03  0.35805563415E+03  0.50400001928E-02 0. -1.
       -1    1    3    3    0  502 -0.18489646802E+01  0.29325307302E+03  0.93348156469E+03  0.97846237288E+03  0.50400001928E-02 0.  1.
</event>
<event>
 5   0  0.1981750E-03  0.6983741E+03  0.7818609E-02  0.9720017E-01
       -4   -1    0    0    0  501  0.00000000000E+00  0.00000000000E+00  0.16842276884E+03  0.16842755702E+03  0.12699999809E+01 0.  1.
        4   -1    0    0  501    0  0.00000000000E+00  0.00000000000E+00 -0.72394580816E+03  0.72394692212E+03  0.12699999809E+01 0. -1.
    10030    2    1    2    0    0  0.00000000000E+00  0.00000000000E+00 -0.55552303932E+03  0.89237447914E+03  0.69837408586E+03 0.  0.
        4    1    3    3  502    0 -0.17870198083E+02 -0.34276957790E+03 -0.19574728921E+03  0.39513154980E+03  0.12699999809E+01 0.  1.
       -4    1    3    3    0  502  0.17870198083E+02  0.34276957790E+03 -0.35977575011E+03  0.49724292934E+03  0.12699999809E+01 0. -1.
</event>
<event>
 5   0  0.5076796E-03  0.7039669E+03  0.7818609E-02  0.9710472E-01
       -2   -1    0    0    0  501  0.00000000000E+00  0.00000000000E+00  0.11717019559E+03  0.11717019562E+03  0.25500000920E-02 0.  1.
        2   -1    0    0  501    0  0.00000000000E+00  0.00000000000E+00 -0.10573709792E+04  0.10573709792E+04  0.25500000920E-02 0. -1.
    10030    2    1    2    0    0  0.00000000000E+00  0.00000000000E+00 -0.94020078357E+03  0.11745411748E+04  0.70396694372E+03 0.  0.
        5    1    3    3  502    0 -0.21760674220E+03  0.23821155501E+03 -0.70471251712E+03  0.77507371326E+03  0.46999998093E+01 0. -1.
       -5    1    3    3    0  502  0.21760674220E+03 -0.23821155501E+03 -0.23548826645E+03  0.39946746153E+03  0.46999998093E+01 0.  1.
</event>
<event>
 5   0  0.2934483E-03  0.6978695E+03  0.7818609E-02  0.9720883E-01
        1   -1    0    0  501    0  0.00000000000E+00  0.00000000000E+00  0.13425908464E+03  0.13425908474E+03  0.50400001928E-02 0. -1.
       -1   -1    0    0    0  501  0.00000000000E+00  0.00000000000E+00 -0.90686930992E+03  0.90686930994E+03  0.50400001928E-02 0.  1.
    10030    2    1    2    0    0  0.00000000000E+00  0.00000000000E+00 -0.77261022528E+03  0.10411283947E+04  0.69786945340E+03 0.  0.
        5    1    3    3  502    0  0.27628311792E+03 -0.12769052112E+03 -0.64078160183E+03  0.70940847307E+03  0.46999998093E+01 0.  1.
       -5    1    3    3    0  502 -0.27628311792E+03  0.12769052112E+03 -0.13182862345E+03  0.33171992160E+03  0.46999998093E+01 0. -1.
</event>
<event>
 5   0  0.1981750E-03  0.6996331E+03  0.7818609E-02  0.9717860E-01
        3   -1    0    0  501    0  0.00000000000E+00  0.00000000000E+00  0.19020728916E+03  0.19020731597E+03  0.10100000352E+00 0.  1.
       -3   -1    0    0    0  501  0.00000000000E+00  0.00000000000E+00 -0.64335919709E+03  0.64335920502E+03  0.10100000352E+00 0. -1.
    10030    2    1    2    0    0  0.00000000000E+00  0.00000000000E+00 -0.45315190793E+03  0.83356652099E+03  0.69963311332E+03 0.  0.
        2    1    3    3  502    0  0.34456533183E+02  0.34129415344E+03 -0.14487215950E+03  0.37236661297E+03  0.25500000920E-02 0.  1.
       -2    1    3    3    0  502 -0.34456533183E+02 -0.34129415344E+03 -0.30827974843E+03  0.46119990802E+03  0.25500000920E-02 0. -1.
</event>
<event>
 5   0  0.2913582E-03  0.7006105E+03  0.7818609E-02  0.9716189E-01
        1   -1    0    0  501    0  0.00000000000E+00  0.00000000000E+00  0.72948166839E+03  0.72948166841E+03  0.50400001928E-02 0. -1.
       -1   -1    0    0    0  501  0.00000000000E+00  0.00000000000E+00 -0.16822051400E+03  0.16822051407E+03  0.50400001928E-02 0.  1.
    10030    2    1    2    0    0  0.00000000000E+00  0.00000000000E+00  0.56126115440E+03  0.89770218249E+03  0.70061053732E+03 0.  0.
        1    1    3    3  502    0  0.32468643347E+03 -0.75663397660E+02  0.41843918178E+03  0.53501175566E+03  0.50400001928E-02 0. -1.
       -1    1    3    3    0  502 -0.32468643347E+03  0.75663397660E+02  0.14282197262E+03  0.36269042683E+03  0.50400001928E-02 0.  1.
</event>
<event>
 5   0  0.2937617E-03  0.7028642E+03  0.7818609E-02  0.9712346E-01
       -1   -1    0    0    0  501  0.00000000000E+00  0.00000000000E+00  0.42145042523E+03  0.42145042526E+03  0.50400001928E-02 0.  1.
        1   -1    0    0  501    0  0.00000000000E+00  0.00000000000E+00 -0.29304641153E+03  0.29304641157E+03  0.50400001928E-02 0. -1.
    10030    2    1    2    0    0  0.00000000000E+00  0.00000000000E+00  0.12840401370E+03  0.71449683684E+03  0.70286423946E+03 0.  0.
        3    1    3    3  502    0 -0.21609337083E+03 -0.26258061388E+03 -0.25919637839E+02  0.34105243223E+03  0.10100000352E+00 0. -1.
       -3    1    3    3    0  502  0.21609337083E+03  0.26258061388E+03  0.15432365154E+03  0.37344440461E+03  0.10100000352E+00 0.  1.
</event>
<event>
 5   0  0.2937617E-03  0.6999974E+03  0.7818609E-02  0.9717237E-01
        1   -1    0    0  501    0  0.00000000000E+00  0.00000000000E+00  0.28985632804E+03  0.28985632808E+03  0.50400001928E-02 0.  1.
       -1   -1    0    0    0  501  0.00000000000E+00  0.00000000000E+00 -0.42262000953E+03  0.42262000956E+03  0.50400001928E-02 0. -1.
    10030    2    1    2    0    0  0.00000000000E+00  0.00000000000E+00 -0.13276368149E+03  0.71247633764E+03  0.69999738326E+03 0.  0.
        3    1    3    3  502    0 -0.23917560280E+03 -0.66174448685E+02 -0.31759149267E+03  0.40304887179E+03  0.10100000352E+00 0. -1.
       -3    1    3    3    0  502  0.23917560280E+03  0.66174448685E+02  0.18482781118E+03  0.30942746585E+03  0.10100000352E+00 0.  1.
</event>
<event>
 5   0  0.5072407E-03  0.7004081E+03  0.7818609E-02  0.9716535E-01
       -2   -1    0    0    0  501  0.00000000000E+00  0.00000000000E+00  0.15755176515E+03  0.15755176517E+03  0.25500000920E-02 0.  1.
        2   -1    0    0  501    0  0.00000000000E+00  0.00000000000E+00 -0.77842913500E+03  0.77842913501E+03  0.25500000920E-02 0. -1.
    10030    2    1    2    0    0  0.00000000000E+00  0.00000000000E+00 -0.62087736985E+03  0.93598090018E+03  0.70040812182E+03 0.  0.
        1    1    3    3  502    0 -0.12342660430E+03  0.35516055291E+02  0.12494327182E+03  0.17918241551E+03  0.50400001928E-02 0.  1.
       -1    1    3    3    0  502  0.12342660430E+03 -0.35516055291E+02 -0.74582064167E+03  0.75679848467E+03  0.50400001928E-02 0. -1.
</event>
<event>
 5   0  0.2938783E-03  0.6992859E+03  0.7818609E-02  0.9718454E-01
        1   -1    0    0  501    0  0.00000000000E+00  0.00000000000E+00  0.16353551685E+04  0.16353551685E+04  0.50400001928E-02 0. -1.
       -1   -1    0    0    0  501  0.00000000000E+00  0.00000000000E+00 -0.74754528649E+02  0.74754528819E+02  0.50400001928E-02 0.  1.
    10030    2    1    2    0    0  0.00000000000E+00  0.00000000000E+00  0.15606006398E+04  0.17101096973E+04  0.69928593564E+03 0.  0.
        4    1    3    3  502    0  0.21971193385E+03  0.15326157512E+03  0.13297846262E+04  0.13564996164E+04  0.12699999809E+01 0. -1.
       -4    1    3    3    0  502 -0.21971193385E+03 -0.15326157512E+03  0.23081601364E+03  0.35361008093E+03  0.12699999809E+01 0.  1.
</event>
<event>
 5   0  0.2913582E-03  0.6943325E+03  0.7818609E-02  0.9726974E-01
        1   -1    0    0  501    0  0.00000000000E+00  0.00000000000E+00  0.41279376844E+03  0.41279376847E+03  0.50400001928E-02 0.  1.
       -1   -1    0    0    0  501  0.00000000000E+00  0.00000000000E+00 -0.29197246883E+03  0.29197246887E+03  0.50400001928E-02 0. -1.
    10030    2    1    2    0    0  0.00000000000E+00  0.00000000000E+00  0.12082129961E+03  0.70476623734E+03  0.69433253046E+03 0.  0.
        1    1    3    3  502    0  0.26087629846E+03 -0.51710813444E+02 -0.16608816277E+03  0.31355339124E+03  0.50400001928E-02 0.  1.
       -1    1    3    3    0  502 -0.26087629846E+03  0.51710813444E+02  0.28690946238E+03  0.39121284610E+03  0.50400001928E-02 0. -1.
</event>
<event>
 5   0  0.5023894E-03  0.6995064E+03  0.7818609E-02  0.9718077E-01
       -2   -1    0    0    0  501  0.00000000000E+00  0.00000000000E+00  0.17204266913E+03  0.17204266915E+03  0.25500000920E-02 0. -1.
        2   -1    0    0  501    0  0.00000000000E+00  0.00000000000E+00 -0.71102881166E+03  0.71102881166E+03  0.25500000920E-02 0.  1.
    10030    2    1    2    0    0  0.00000000000E+00  0.00000000000E+00 -0.53898614253E+03  0.88307148081E+03  0.69950638194E+03 0.  0.
        2    1    3    3  502    0  0.12153514829E+03  0.32524236229E+03 -0.21632269482E+03  0.40908299256E+03  0.25500000920E-02 0. -1.
       -2    1    3    3    0  502 -0.12153514829E+03 -0.32524236229E+03 -0.32266344771E+03  0.47398848825E+03  0.25500000920E-02 0.  1.
</event>
<event>
 5   0  0.2937617E-03  0.6995045E+03  0.7818609E-02  0.9718080E-01
        1   -1    0    0  501    0  0.00000000000E+00  0.00000000000E+00  0.96101013043E+03  0.96101013044E+03  0.50400001928E-02 0.  1.
       -1   -1    0    0    0  501  0.00000000000E+00  0.00000000000E+00 -0.12728962699E+03  0.12728962708E+03  0.50400001928E-02 0. -1.
    10030    2    1    2    0    0  0.00000000000E+00  0.00000000000E+00  0.83372050344E+03  0.10882997575E+04  0.69950445629E+03 0.  0.
        3    1    3    3  502    0 -0.11920395451E+03  0.28397036810E+03  0.15896135423E+03  0.34657968069E+03  0.10100000352E+00 0. -1.
       -3    1    3    3    0  502  0.11920395451E+03 -0.28397036810E+03  0.67475914921E+03  0.74172007683E+03  0.10100000352E+00 0.  1.
</event>
<event>
 5   0  0.1981750E-03  0.6995429E+03  0.7818609E-02  0.9718014E-01
       -3   -1    0    0    0  501  0.00000000000E+00  0.00000000000E+00  0.21042452947E+03  0.21042455371E+03  0.10100000352E+00 0.  1.
        3   -1    0    0  501    0  0.00000000000E+00  0.00000000000E+00 -0.58139630991E+03  0.58139631868E+03  0.10100000352E+00 0. -1.
    10030    2    1    2    0    0  0.00000000000E+00  0.00000000000E+00 -0.37097178044E+03  0.79182087239E+03  0.69954287365E+03 0.  0.
        4    1    3    3  502    0 -0.30219382607E+03  0.35814114885E+02  0.96981419640E+01  0.30446580464E+03  0.12699999809E+01 0.  1.
       -4    1    3    3    0  502  0.30219382607E+03 -0.35814114885E+02 -0.38066992240E+03  0.48735506775E+03  0.12699999809E+01 0. -1.
</event>
<event>
 5   0  0.5113683E-03  0.7111732E+03  0.7818609E-02  0.9698313E-01
        2   -1    0    0  501    0  0.00000000000E+00  0.00000000000E+00  0.18060511338E+04  0.18060511338E+04  0.25500000920E-02 0. -1.
       -2   -1    0    0    0  501  0.00000000000E+00  0.00000000000E+00 -0.70010101730E+02  0.70010101777E+02  0.25500000920E-02 0.  1.
    10030    2    1    2    0    0  0.00000000000E+00  0.00000000000E+00  0.17360410320E+04  0.18760612356E+04  0.71117318186E+03 0.  0.
        3    1    3    3  502    0  0.63411097502E+02 -0.32174533913E+03  0.12306904354E+04  0.12736325956E+04  0.10100000352E+00 0. -1.
       -3    1    3    3    0  502 -0.63411097502E+02  0.32174533913E+03  0.50535059667E+03  0.60242864000E+03  0.10100000352E+00 0.  1.
</event>
<event>
 5   0  0.2913582E-03  0.6952995E+03  0.7818609E-02  0.9725305E-01
       -1   -1    0    0    0  501  0.00000000000E+00  0.00000000000E+00  0.30953806783E+03  0.30953806787E+03  0.50400001928E-02 0. -1.
        1   -1    0    0  501    0  0.00000000000E+00  0.00000000000E+00 -0.39045386861E+03  0.39045386864E+03  0.50400001928E-02 0.  1.
    10030    2    1    2    0    0  0.00000000000E+00  0.00000000000E+00 -0.80915800775E+02  0.69999193652E+03  0.69529946381E+03 0.  0.
        1    1    3    3  502    0 -0.31253002929E+03 -0.15047865754E+03 -0.63884893974E+02  0.35270401938E+03  0.50400001928E-02 0. -1.
       -1    1    3    3    0  502  0.31253002929E+03  0.15047865754E+03 -0.17030906801E+02  0.34728791714E+03  0.50400001928E-02 0.  1.
</event>
<event>
 5   0  0.5023894E-03  0.6976195E+03  0.7818609E-02  0.9721312E-01
       -2   -1    0    0    0  501  0.00000000000E+00  0.00000000000E+00  0.11541024507E+03  0.11541024509E+03  0.25500000920E-02 0.  1.
        2   -1    0    0  501    0  0.00000000000E+00  0.00000000000E+00 -0.10542240123E+04  0.10542240123E+04  0.25500000920E-02 0. -1.
    10030    2    1    2    0    0  0.00000000000E+00  0.00000000000E+00 -0.93881376722E+03  0.11696342574E+04  0.69761952848E+03 0.  0.
        2    1    3    3  502    0 -0.18183669298E+03  0.29760619289E+03 -0.47921506207E+03  0.59268972041E+03  0.25500000920E-02 0. -1.
       -2    1    3    3    0  502  0.18183669298E+03 -0.29760619289E+03 -0.45959870515E+03  0.57694453697E+03  0.25500000920E-02 0.  1.
</event>
<event>
 5   0  0.3013140E-03  0.6999843E+03  0.7818609E-02  0.9717259E-01
        1   -1    0    0  501    0  0.00000000000E+00  0.00000000000E+00  0.18635133016E+03  0.18635133022E+03  0.50400001928E-02 0. -1.
       -1   -1    0    0    0  501  0.00000000000E+00  0.00000000000E+00 -0.65733093544E+03  0.65733093546E+03  0.50400001928E-02 0.  1.
    10030    2    1    2    0    0  0.00000000000E+00  0.00000000000E+00 -0.47097960528E+03  0.84368226568E+03  0.69998426899E+03 0.  0.
        2    1    3    3  502    0  0.18343744585E+03  0.25622059042E+03 -0.51920894272E+02  0.31936509948E+03  0.25500000920E-02 0. -1.
       -2    1    3    3    0  502 -0.18343744585E+03 -0.25622059042E+03 -0.41905871101E+03  0.52431716621E+03  0.25500000920E-02 0.  1.
</event>
<event>
 5   0  0.5113683E-03  0.6996532E+03  0.7818609E-02  0.9717825E-01
        2   -1    0    0  501    0  0.00000000000E+00  0.00000000000E+00  0.47617092795E+03  0.47617092796E+03  0.25500000920E-02 0. -1.
       -2   -1    0    0    0  501  0.00000000000E+00  0.00000000000E+00 -0.25700570324E+03  0.25700570325E+03  0.25500000920E-02 0.  1.
    10030    2    1    2    0    0  0.00000000000E+00  0.00000000000E+00  0.21916522471E+03  0.73317663121E+03  0.69965318325E+03 0.  0.
        3    1    3    3  502    0 -0.20410988706E+03  0.42815702571E+02  0.40390406852E+03  0.45456851755E+03  0.10100000352E+00 0. -1.
       -3    1    3    3    0  502  0.20410988706E+03 -0.42815702571E+02 -0.18473884381E+03  0.27860811366E+03  0.10100000352E+00 0.  1.
</event>
<event>
 5   0  0.5076796E-03  0.7002023E+03  0.7818609E-02  0.9716886E-01
       -2   -1    0    0    0  501  0.00000000000E+00  0.00000000000E+00  0.90264975684E+02  0.90264975720E+02  0.25500000920E-02 0. -1.
        2   -1    0    0  501    0  0.00000000000E+00  0.00000000000E+00 -0.13579000331E+04  0.13579000331E+04  0.25500000920E-02 0.  1.
    10030    2    1    2    0    0  0.00000000000E+00  0.00000000000E+00 -0.12676350574E+04  0.14481650088E+04  0.70020229504E+03 0.  0.
        5    1    3    3  502    0 -0.19346640483E+03 -0.29163722264E+03 -0.65077231504E+03  0.73892368716E+03  0.46999998093E+01 0.  1.
       -5    1    3    3    0  502  0.19346640483E+03  0.29163722264E+03 -0.61686274236E+03  0.70924132165E+03  0.46999998093E+01 0. -1.
</event>
<event>
 5   0  0.3013140E-03  0.7000210E+03  0.7818609E-02  0.9717196E-01
        1   -1    0    0  501    0  0.00000000000E+00  0.00000000000E+00  0.61019871265E+03  0.61019871267E+03  0.50400001928E-02 0. -1.
       -1   -1    0    0    0  501  0.00000000000E+00  0.00000000000E+00 -0.20076632130E+03  0.20076632136E+03  0.50400001928E-02 0.  1.
    10030    2    1    2    0    0  0.00000000000E+00  0.00000000000E+00  0.40943239135E+03  0.81096503403E+03  0.70002100207E+03 0.  0.
        2    1    3    3  502    0  0.24082113147E+03  0.61790030066E+02 -0.80691592695E+02  0.26138851987E+03  0.25500000920E-02 0.  1.
       -2    1    3    3    0  502 -0.24082113147E+03 -0.61790030066E+02  0.49012398405E+03  0.54957651417E+03  0.25500000920E-02 0. -1.
</event>
<event>
 5   0  0.5113683E-03  0.6997556E+03  0.7818609E-02  0.9717650E-01
       -2   -1    0    0    0  501  0.00000000000E+00  0.00000000000E+00  0.15170693693E+03  0.15170693695E+03  0.25500000920E-02 0.  1.
        2   -1    0    0  501    0  0.00000000000E+00  0.00000000000E+00 -0.80691419871E+03  0.80691419871E+03  0.25500000920E-02 0. -1.
    10030    2    1    2    0    0  0.00000000000E+00  0.00000000000E+00 -0.65520726177E+03  0.95862113566E+03  0.69975561867E+03 0.  0.
        3    1    3    3  502    0 -0.26720160586E+03  0.82706302398E+01 -0.63682536679E+03  0.69066030688E+03  0.10100000352E+00 0. -1.
       -3    1    3    3    0  502  0.26720160586E+03 -0.82706302398E+01 -0.18381894980E+02  0.26796082879E+03  0.10100000352E+00 0.  1.
</event>
<event>
 5   0  0.5072407E-03  0.6994070E+03  0.7818609E-02  0.9718247E-01
        2   -1    0    0  501    0  0.00000000000E+00  0.00000000000E+00  0.10219933867E+04  0.10219933867E+04  0.25500000920E-02 0.  1.
       -2   -1    0    0    0  501  0.00000000000E+00  0.00000000000E+00 -0.11966078984E+03  0.11966078986E+03  0.25500000920E-02 0. -1.
    10030    2    1    2    0    0  0.00000000000E+00  0.00000000000E+00  0.90233259684E+03  0.11416541765E+04  0.69940699418E+03 0.  0.
        1    1    3    3  502    0 -0.30193762622E+03 -0.15185793870E+03  0.59776050427E+03  0.68669118544E+03  0.50400001928E-02 0.  1.
       -1    1    3    3    0  502  0.30193762622E+03  0.15185793870E+03  0.30457209257E+03  0.45496299110E+03  0.50400001928E-02 0. -1.
</event>
<event>
 5   0  0.2937617E-03  0.6993884E+03  0.7818609E-02  0.9718279E-01
        1   -1    0    0  501    0  0.00000000000E+00  0.00000000000E+00  0.77182823735E+03  0.77182823737E+03  0.50400001928E-02 0. -1.
       -1   -1    0    0    0  501  0.00000000000E+00  0.00000000000E+00 -0.15843685771E+03  0.15843685779E+03  0.50400001928E-02 0.  1.
    10030    2    1    2    0    0  0.00000000000E+00  0.00000000000E+00  0.61339137964E+03  0.93026509516E+03  0.69938842045E+03 0.  0.
        3    1    3    3  502    0 -0.34185447666E+03 -0.43045588577E+02  0.22723749065E+03  0.41273998264E+03  0.10100000352E+00 0.  1.
       -3    1    3    3    0  502  0.34185447666E+03  0.43045588577E+02  0.38615388899E+03  0.51752511252E+03  0.10100000352E+00 0. -1.
</event>
<event>
 5   0  0.5113683E-03  0.6984468E+03  0.7818609E-02  0.9719892E-01
        2   -1    0    0  501    0  0.00000000000E+00  0.00000000000E+00  0.55712569921E+03  0.55712569922E+03  0.25500000920E-02 0.  1.
       -2   -1    0    0    0  501  0.00000000000E+00  0.00000000000E+00 -0.21890391011E+03  0.21890391012E+03  0.25500000920E-02 0. -1.
    10030    2    1    2    0    0  0.00000000000E+00  0.00000000000E+00  0.33822178911E+03  0.77602960934E+03  0.69844683115E+03 0.  0.
        3    1    3    3  502    0 -0.17308802334E+03 -0.28187897948E+03  0.29354063610E+03  0.44224578928E+03  0.10100000352E+00 0.  1.
       -3    1    3    3    0  502  0.17308802334E+03  0.28187897948E+03  0.44681153011E+02  0.33378382006E+03  0.10100000352E+00 0. -1.
</event>
<event>
 5   0  0.2938783E-03  0.7005148E+03  0.7818609E-02  0.9716352E-01
        1   -1    0    0  501    0  0.00000000000E+00  0.00000000000E+00  0.10240885550E+04  0.10240885551E+04  0.50400001928E-02 0. -1.
       -1   -1    0    0    0  501  0.00000000000E+00  0.00000000000E+00 -0.11979456488E+03  0.11979456498E+03  0.50400001928E-02 0.  1.
    10030    2    1    2    0    0  0.00000000000E+00  0.00000000000E+00  0.90429399017E+03  0.11438831200E+04  0.70051479046E+03 0.  0.
        4    1    3    3  502    0 -0.30178078660E+03 -0.13490889549E+03  0.26307670446E+03  0.42247250629E+03  0.12699999809E+01 0.  1.
       -4    1    3    3    0  502  0.30178078660E+03  0.13490889549E+03  0.64121728570E+03  0.72141061375E+03  0.12699999809E+01 0. -1.
</event>
<event>
 5   0  0.2913582E-03  0.7003944E+03  0.7818609E-02  0.9716558E-01
       -1   -1    0    0    0  501  0.00000000000E+00  0.00000000000E+00  0.60672900746E+03  0.60672900748E+03  0.50400001928E-02 0.  1.
        1   -1    0    0  501    0  0.00000000000E+00  0.00000000000E+00 -0.20212988896E+03  0.20212988903E+03  0.50400001928E-02 0. -1.
    10030    2    1    2    0    0  0.00000000000E+00  0.00000000000E+00  0.40459911850E+03  0.80885889651E+03  0.70039436589E+03 0.  0.
        1    1    3    3  502    0  0.17525392933E+03  0.29971827771E+03  0.25513473526E+03  0.43085811923E+03  0.50400001928E-02 0. -1.
       -1    1    3    3    0  502 -0.17525392933E+03 -0.29971827771E+03  0.14946438324E+03  0.37800077728E+03  0.50400001928E-02 0.  1.
</event>
<event>
 5   0  0.2937617E-03  0.7007213E+03  0.7818609E-02  0.9715999E-01
       -1   -1    0    0    0  501  0.00000000000E+00  0.00000000000E+00  0.94709652431E+02  0.94709652565E+02  0.50400001928E-02 0. -1.
        1   -1    0    0  501    0  0.00000000000E+00  0.00000000000E+00 -0.12960938069E+04  0.12960938070E+04  0.50400001928E-02 0.  1.
    10030    2    1    2    0    0  0.00000000000E+00  0.00000000000E+00 -0.12013841545E+04  0.13908034595E+04  0.70072132570E+03 0.  0.
        3    1    3    3  502    0 -0.10342229334E+02 -0.18602025321E+03 -0.11759479991E+02  0.18667831123E+03  0.10100000352E+00 0. -1.
       -3    1    3    3    0  502  0.10342229334E+02  0.18602025321E+03 -0.11896246745E+04  0.12041251483E+04  0.10100000352E+00 0.  1.
</event>
<event>
 5   0  0.4878235E-03  0.6994641E+03  0.7818609E-02  0.9718149E-01
       -2   -1    0    0    0  501  0.00000000000E+00  0.00000000000E+00  0.18171512338E+03  0.18171512340E+03  0.25500000920E-02 0.  1.
        2   -1    0    0  501    0  0.00000000000E+00  0.00000000000E+00 -0.67310034518E+03  0.67310034518E+03  0.25500000920E-02 0. -1.
    10030    2    1    2    0    0  0.00000000000E+00  0.00000000000E+00 -0.49138522180E+03  0.85481546859E+03  0.69946411569E+03 0.  0.
        4    1    3    3  502    0 -0.17811103962E+03 -0.17825447538E+02  0.12148628997E+03  0.21633728427E+03  0.12699999809E+01 0.  1.
       -4    1    3    3    0  502  0.17811103962E+03  0.17825447538E+02 -0.61287151177E+03  0.63847818432E+03  0.12699999809E+01 0. -1.
</event>
<event>
 5   0  0.4878235E-03  0.7006576E+03  0.7818609E-02  0.9716108E-01
        2   -1    0    0  501    0  0.00000000000E+00  0.00000000000E+00  0.14169101108E+04  0.14169101108E+04  0.25500000920E-02 0.  1.
       -2   -1    0    0    0  501  0.00000000000E+00  0.00000000000E+00 -0.86618250438E+02  0.86618250475E+02  0.25500000920E-02 0. -1.
    10030    2    1    2    0    0  0.00000000000E+00  0.00000000000E+00  0.13302918603E+04  0.15035283612E+04  0.70065761924E+03 0.  0.
        4    1    3    3  502    0 -0.75752759212E+02 -0.30047370569E+03  0.10158235352E+04  0.10620367206E+04  0.12699999809E+01 0.  1.
       -4    1    3    3    0  502  0.75752759212E+02  0.30047370569E+03  0.31446832508E+03  0.44149164059E+03  0.12699999809E+01 0. -1.
</event>
<event>
 5   0  0.1981750E-03  0.7014372E+03  0.7818609E-02  0.9714778E-01
        4   -1    0    0  501    0  0.00000000000E+00  0.00000000000E+00  0.23093447679E+03  0.23093796888E+03  0.12699999809E+01 0. -1.
       -4   -1    0    0    0  501  0.00000000000E+00  0.00000000000E+00 -0.53262566171E+03  0.53262717581E+03  0.12699999809E+01 0.  1.
    10030    2    1    2    0    0  0.00000000000E+00  0.00000000000E+00 -0.30169118492E+03  0.76356514470E+03  0.70143720969E+03 0.  0.
        1    1    3    3  502    0  0.37333660411E+02 -0.33738500216E+03 -0.54822047702E+02  0.34384284029E+03  0.50400001928E-02 0. -1.
       -1    1    3    3    0  502 -0.37333660411E+02  0.33738500216E+03 -0.24686913721E+03  0.41972230440E+03  0.50400001928E-02 0.  1.
</event>
<event>
 5   0  0.2937617E-03  0.6990070E+03  0.7818609E-02  0.9718932E-01
        1   -1    0    0  501    0  0.00000000000E+00  0.00000000000E+00  0.65705882560E+03  0.65705882562E+03  0.50400001928E-02 0.  1.
       -1   -1    0    0    0  501  0.00000000000E+00  0.00000000000E+00 -0.18590829618E+03  0.18590829625E+03  0.50400001928E-02 0. -1.
    10030    2    1    2    0    0  0.00000000000E+00  0.00000000000E+00  0.47115052942E+03  0.84296712187E+03  0.69900697219E+03 0.  0.
        3    1    3    3  502    0  0.14070366015E+03  0.31144161712E+03  0.32385930084E+03  0.47082720588E+03  0.10100000352E+00 0.  1.
       -3    1    3    3    0  502 -0.14070366015E+03 -0.31144161712E+03  0.14729122858E+03  0.37213991599E+03  0.10100000352E+00 0. -1.
</event>
<event>
 5   0  0.2934483E-03  0.7008863E+03  0.7818609E-02  0.9715718E-01
       -1   -1    0    0    0  501  0.00000000000E+00  0.00000000000E+00  0.11729862482E+03  0.11729862493E+03  0.50400001928E-02 0. -1.
        1   -1    0    0  501    0  0.00000000000E+00  0.00000000000E+00 -0.10469893147E+04  0.10469893147E+04  0.50400001928E-02 0.  1.
    10030    2    1    2    0    0  0.00000000000E+00  0.00000000000E+00 -0.92969068983E+03  0.11642879396E+04  0.70088631569E+03 0.  0.
        5    1    3    3  502    0 -0.17297535214E+03  0.28254848794E+03 -0.65449626252E+03  0.73358133028E+03  0.46999998093E+01 0.  1.
       -5    1    3    3    0  502  0.17297535214E+03 -0.28254848794E+03 -0.27519442731E+03  0.43070660931E+03  0.46999998093E+01 0. -1.
</event>
<event>
 5   0  0.5023894E-03  0.6995793E+03  0.7818609E-02  0.9717952E-01
       -2   -1    0    0    0  501  0.00000000000E+00  0.00000000000E+00  0.61894942636E+02  0.61894942688E+02  0.25500000920E-02 0.  1.
        2   -1    0    0  501    0  0.00000000000E+00  0.00000000000E+00 -0.19767819114E+04  0.19767819114E+04  0.25500000920E-02 0. -1.
    10030    2    1    2    0    0  0.00000000000E+00  0.00000000000E+00 -0.19148869688E+04  0.20386768541E+04  0.69957931091E+03 0.  0.
        2    1    3    3  502    0 -0.21870056316E+03  0.19023635568E+03 -0.38688809089E+03  0.48342755634E+03  0.25500000920E-02 0.  1.
       -2    1    3    3    0  502  0.21870056316E+03 -0.19023635568E+03 -0.15279988779E+04  0.15552492977E+04  0.25500000920E-02 0. -1.
</event>
<event>
 5   0  0.5113683E-03  0.7011488E+03  0.7818609E-02  0.9715270E-01
        2   -1    0    0  501    0  0.00000000000E+00  0.00000000000E+00  0.82417151908E+03  0.82417151909E+03  0.25500000920E-02 0. -1.
       -2   -1    0    0    0  501  0.00000000000E+00  0.00000000000E+00 -0.14912238837E+03  0.14912238839E+03  0.25500000920E-02 0.  1.
    10030    2    1    2    0    0  0.00000000000E+00  0.00000000000E+00  0.67504913072E+03  0.97329390747E+03  0.70114884400E+03 0.  0.
        3    1    3    3  502    0 -0.10251625372E+03  0.33449812531E+03  0.36868322971E+03  0.50825772220E+03  0.10100000352E+00 0.  1.
       -3    1    3    3    0  502  0.10251625372E+03 -0.33449812531E+03  0.30636590101E+03  0.46503618527E+03  0.10100000352E+00 0. -1.
</event>
<event>
 5   0  0.5072407E-03  0.7004677E+03  0.7818609E-02  0.9716433E-01
        2   -1    0    0  501    0  0.00000000000E+00  0.00000000000E+00  0.49152948578E+03  0.49152948578E+03  0.25500000920E-02 0. -1.
       -2   -1    0    0    0  501  0.00000000000E+00  0.00000000000E+00 -0.24955525105E+03  0.24955525106E+03  0.25500000920E-02 0.  1.
    10030    2    1    2    0    0  0.00000000000E+00  0.00000000000E+00  0.24197423473E+03  0.74108473685E+03  0.70046774153E+03 0.  0.
        1    1    3    3  502    0  0.10502937154E+03  0.44868221118E+02  0.47127371000E+03  0.48491569980E+03  0.50400001928E-02 0. -1.
       -1    1    3    3    0  502 -0.10502937154E+03 -0.44868221118E+02 -0.22929947528E+03  0.25616903704E+03  0.50400001928E-02 0.  1.
</event>
<event>
 5   0  0.5023894E-03  0.7010791E+03  0.7818609E-02  0.9715389E-01
        2   -1    0    0  501    0  0.00000000000E+00  0.00000000000E+00  0.10828703803E+04  0.10828703803E+04  0.25500000920E-02 0. -1.
       -2   -1    0    0    0  501  0.00000000000E+00  0.00000000000E+00 -0.11347432711E+03  0.11347432714E+03  0.25500000920E-02 0.  1.
    10030    2    1    2    0    0  0.00000000000E+00  0.00000000000E+00  0.96939605321E+03  0.11963447075E+04  0.70107913325E+03 0.  0.
        2    1    3    3  502    0  0.14258284942E+03  0.10356978797E+03 -0.32386198561E+02  0.17917989785E+03  0.25500000920E-02 0.  1.
       -2    1    3    3    0  502 -0.14258284942E+03 -0.10356978797E+03  0.10017822518E+04  0.10171648096E+04  0.25500000920E-02 0. -1.
</event>
<event>
 5   0  0.5113683E-03  0.6998313E+03  0.7818609E-02  0.9717521E-01
       -2   -1    0    0    0  501  0.00000000000E+00  0.00000000000E+00  0.14071028549E+03  0.14071028551E+03  0.25500000920E-02 0.  1.
        2   -1    0    0  501    0  0.00000000000E+00  0.00000000000E+00 -0.87016359548E+03  0.87016359548E+03  0.25500000920E-02 0. -1.
    10030    2    1    2    0    0  0.00000000000E+00  0.00000000000E+00 -0.72945330999E+03  0.10108738810E+04  0.69983131668E+03 0.  0.
        3    1    3    3  502    0 -0.26828023583E+03  0.11081446098E+03 -0.82459467851E+02  0.30175106253E+03  0.10100000352E+00 0.  1.
       -3    1    3    3    0  502  0.26828023583E+03 -0.11081446098E+03 -0.64699384214E+03  0.70912281846E+03  0.10100000352E+00 0. -1.
</event>
<event>
 5   0  0.2937617E-03  0.7000669E+03  0.7818609E-02  0.9717118E-01
        1   -1    0    0  501    0  0.00000000000E+00  0.00000000000E+00  0.11059864632E+04  0.11059864632E+04  0.50400001928E-02 0. -1.
       -1   -1    0    0    0  501  0.00000000000E+00  0.00000000000E+00 -0.11078202641E+03  0.11078202653E+03  0.50400001928E-02 0.  1.
    10030    2    1    2    0    0  0.00000000000E+00  0.00000000000E+00  0.99520443679E+03  0.12167684897E+04  0.70006691582E+03 0.  0.
        3    1    3    3  502    0  0.21875193298E+03 -0.24997251009E+03  0.30574565238E+03  0.45146326332E+03  0.10100000352E+00 0.  1.
       -3    1    3    3    0  502 -0.21875193298E+03  0.24997251009E+03  0.68945878441E+03  0.76530522642E+03  0.10100000352E+00 0. -1.
</event>
<event>
 5   0  0.5076796E-03  0.6996166E+03  0.7818609E-02  0.9717888E-01
        2   -1    0    0  501    0  0.00000000000E+00  0.00000000000E+00  0.11957774249E+04  0.11957774249E+04  0.25500000920E-02 0. -1.
       -2   -1    0    0    0  501  0.00000000000E+00  0.00000000000E+00 -0.10233163466E+03  0.10233163469E+03  0.25500000920E-02 0.  1.
    10030    2    1    2    0    0  0.00000000000E+00  0.00000000000E+00  0.10934457903E+04  0.12981090596E+04  0.69961663388E+03 0.  0.
        5    1    3    3  502    0 -0.16586566757E+03 -0.13012198065E+03  0.28851994139E+02  0.21283250948E+03  0.46999998093E+01 0.  1.
       -5    1    3    3    0  502  0.16586566757E+03  0.13012198065E+03  0.10645937961E+04  0.10852765501E+04  0.46999998093E+01 0. -1.
</event>
<event>
 5   0  0.2934483E-03  0.7000314E+03  0.7818609E-02  0.9717178E-01
       -1   -1    0    0    0  501  0.00000000000E+00  0.00000000000E+00  0.59700080873E+03  0.59700080875E+03  0.50400001928E-02 0. -1.
        1   -1    0    0  501    0  0.00000000000E+00  0.00000000000E+00 -0.20521078072E+03  0.20521078078E+03  0.50400001928E-02 0.  1.
    10030    2    1    2    0    0  0.00000000000E+00  0.00000000000E+00  0.39179002801E+03  0.80221158953E+03  0.70003143382E+03 0.  0.
        5    1    3    3  502    0  0.18005526788E+03 -0.20272905388E+03 -0.57697360831E+02  0.27725447557E+03  0.46999998093E+01 0.  1.
       -5    1    3    3    0  502 -0.18005526788E+03  0.20272905388E+03  0.44948738884E+03  0.52495711396E+03  0.46999998093E+01 0. -1.
</event>
<event>
 5   0  0.2937617E-03  0.7002437E+03  0.7818609E-02  0.9716816E-01
        1   -1    0    0  501    0  0.00000000000E+00  0.00000000000E+00  0.78693836051E+03  0.78693836053E+03  0.50400001928E-02 0.  1.
       -1   -1    0    0    0  501  0.00000000000E+00  0.00000000000E+00 -0.15577498702E+03  0.15577498711E+03  0.50400001928E-02 0. -1.
    10030    2    1    2    0    0  0.00000000000E+00  0.00000000000E+00  0.63116337349E+03  0.94271334763E+03  0.70024370884E+03 0.  0.
        3    1    3    3  502    0 -0.25947970611E+03 -0.16952910350E+03  0.96361729700E+02  0.32458500884E+03  0.10100000352E+00 0.  1.
       -3    1    3    3    0  502  0.25947970611E+03  0.16952910350E+03  0.53480164379E+03  0.61812833879E+03  0.10100000352E+00 0. -1.
</event>
<event>
 5   0  0.1981750E-03  0.6987956E+03  0.7818609E-02  0.9719294E-01
       -3   -1    0    0    0  501  0.00000000000E+00  0.00000000000E+00  0.12777049900E+04  0.12777049940E+04  0.10100000352E+00 0.  1.
        3   -1    0    0  501    0  0.00000000000E+00  0.00000000000E+00 -0.95545347940E+02  0.95545401323E+02  0.10100000352E+00 0. -1.
    10030    2    1    2    0    0  0.00000000000E+00  0.00000000000E+00  0.11821596421E+04  0.13732503953E+04  0.69879555588E+03 0.  0.
        5    1    3    3  502    0 -0.11806133691E+03  0.24948137427E+03  0.17016091038E+03  0.32427806093E+03  0.46999998093E+01 0. -1.
       -5    1    3    3    0  502  0.11806133691E+03 -0.24948137427E+03  0.10119987317E+04  0.10489723344E+04  0.46999998093E+01 0.  1.
</event>
<event>
 5   0  0.5113683E-03  0.6989194E+03  0.7818609E-02  0.9719082E-01
       -2   -1    0    0    0  501  0.00000000000E+00  0.00000000000E+00  0.92184460963E+02  0.92184460998E+02  0.25500000920E-02 0. -1.
        2   -1    0    0  501    0  0.00000000000E+00  0.00000000000E+00 -0.13247576227E+04  0.13247576227E+04  0.25500000920E-02 0.  1.
    10030    2    1    2    0    0  0.00000000000E+00  0.00000000000E+00 -0.12325731617E+04  0.14169420837E+04  0.69891935838E+03 0.  0.
        3    1    3    3  502    0 -0.11677814662E+02 -0.34793570724E+03 -0.67799312232E+03  0.76214848412E+03  0.10100000352E+00 0. -1.
       -3    1    3    3    0  502  0.11677814662E+02  0.34793570724E+03 -0.55458003941E+03  0.65479359958E+03  0.10100000352E+00 0.  1.
</event>
<event>
 5   0  0.2913582E-03  0.7025378E+03  0.7818609E-02  0.9712902E-01
        1   -1    0    0  501    0  0.00000000000E+00  0.00000000000E+00  0.14589188822E+03  0.14589188831E+03  0.50400001928E-02 0.  1.
       -1   -1    0    0    0  501  0.00000000000E+00  0.00000000000E+00 -0.84576225854E+03  0.84576225855E+03  0.50400001928E-02 0. -1.
    10030    2    1    2    0    0  0.00000000000E+00  0.00000000000E+00 -0.69987037032E+03  0.99165414686E+03  0.70253783652E+03 0.  0.
        1    1    3    3  502    0  0.55680833024E+02  0.32315479150E+03 -0.52770116695E+03  0.62128728947E+03  0.50400001928E-02 0. -1.
       -1    1    3    3    0  502 -0.55680833024E+02 -0.32315479150E+03 -0.17216920337E+03  0.37036685739E+03  0.50400001928E-02 0.  1.
</event>
<event>
 5   0  0.2937617E-03  0.6814063E+03  0.7818609E-02  0.9749569E-01
        1   -1    0    0  501    0  0.00000000000E+00  0.00000000000E+00  0.70455551840E+03  0.70455551841E+03  0.50400001928E-02 0. -1.
       -1   -1    0    0    0  501  0.00000000000E+00  0.00000000000E+00 -0.16475442665E+03  0.16475442673E+03  0.50400001928E-02 0.  1.
    10030    2    1    2    0    0  0.00000000000E+00  0.00000000000E+00  0.53980109175E+03  0.86930994514E+03  0.68140631203E+03 0.  0.
        3    1    3    3  502    0 -0.13498780158E+03  0.10519852033E+03  0.64574126300E+03  0.66803459806E+03  0.10100000352E+00 0. -1.
       -3    1    3    3    0  502  0.13498780158E+03 -0.10519852033E+03 -0.10594017126E+03  0.20127534708E+03  0.10100000352E+00 0.  1.
</event>
<event>
 5   0  0.3013140E-03  0.6991658E+03  0.7818609E-02  0.9718660E-01
        1   -1    0    0  501    0  0.00000000000E+00  0.00000000000E+00  0.80201765909E+03  0.80201765911E+03  0.50400001928E-02 0. -1.
       -1   -1    0    0    0  501  0.00000000000E+00  0.00000000000E+00 -0.15237595551E+03  0.15237595560E+03  0.50400001928E-02 0.  1.
    10030    2    1    2    0    0  0.00000000000E+00  0.00000000000E+00  0.64964170358E+03  0.95439361470E+03  0.69916580920E+03 0.  0.
        2    1    3    3  502    0 -0.52076874600E+02  0.29129715692E+03  0.70752889716E+02  0.30425648046E+03  0.25500000920E-02 0. -1.
       -2    1    3    3    0  502  0.52076874600E+02 -0.29129715692E+03  0.57888881386E+03  0.65013713424E+03  0.25500000920E-02 0.  1.
</event>
<event>
 5   0  0.2934483E-03  0.7011181E+03  0.7818609E-02  0.9715322E-01
       -1   -1    0    0    0  501  0.00000000000E+00  0.00000000000E+00  0.40879316800E+03  0.40879316803E+03  0.50400001928E-02 0.  1.
        1   -1    0    0  501    0  0.00000000000E+00  0.00000000000E+00 -0.30062062819E+03  0.30062062824E+03  0.50400001928E-02 0. -1.
    10030    2    1    2    0    0  0.00000000000E+00  0.00000000000E+00  0.10817253980E+03  0.70941379626E+03  0.70111813267E+03 0.  0.
        5    1    3    3  502    0 -0.10592918493E+03  0.25942124678E+03 -0.15899795255E+03  0.32221547824E+03  0.46999998093E+01 0. -1.
       -5    1    3    3    0  502  0.10592918493E+03 -0.25942124678E+03  0.26717049235E+03  0.38719831803E+03  0.46999998093E+01 0.  1.
</event>
<event>
 5   0  0.4878235E-03  0.7011103E+03  0.7818609E-02  0.9715335E-01
       -2   -1    0    0    0  501  0.00000000000E+00  0.00000000000E+00  0.72590358134E+02  0.72590358179E+02  0.25500000920E-02 0.  1.
        2   -1    0    0  501    0  0.00000000000E+00  0.00000000000E+00 -0.16929097749E+04  0.16929097749E+04  0.25500000920E-02 0. -1.
    10030    2    1    2    0    0  0.00000000000E+00  0.00000000000E+00 -0.16203194168E+04  0.17655001331E+04  0.70111033908E+03 0.  0.
        4    1    3    3  502    0  0.90095909562E+02  0.11771844980E+03 -0.16100928074E+04  0.16169030175E+04  0.12699999809E+01 0. -1.
       -4    1    3    3    0  502 -0.90095909562E+02 -0.11771844980E+03 -0.10226609346E+02  0.14859711566E+03  0.12699999809E+01 0.  1.
</event>
<event>
 5   0  0.5072407E-03  0.7035156E+03  0.7818609E-02  0.9711239E-01
       -2   -1    0    0    0  501  0.00000000000E+00  0.00000000000E+00  0.13373065592E+03  0.13373065594E+03  0.25500000920E-02 0.  1.
        2   -1    0    0  501    0  0.00000000000E+00  0.00000000000E+00 -0.92524453205E+03  0.92524453205E+03  0.25500000920E-02 0. -1.
    10030    2    1    2    0    0  0.00000000000E+00  0.00000000000E+00 -0.79151387613E+03  0.10589751880E+04  0.70351562362E+03 0.  0.
        1    1    3    3  502    0 -0.62710745887E+02 -0.21260032190E+03 -0.80689467594E+03  0.83678584633E+03  0.50400001928E-02 0. -1.
       -1    1    3    3    0  502  0.62710745887E+02  0.21260032190E+03  0.15380799809E+02  0.22218934167E+03  0.50400001928E-02 0.  1.
</event>
<event>
 5   0  0.2938783E-03  0.7010363E+03  0.7818609E-02  0.9715462E-01
       -1   -1    0    0    0  501  0.00000000000E+00  0.00000000000E+00  0.52491742325E+03  0.52491742327E+03  0.50400001928E-02 0. -1.
        1   -1    0    0  501    0  0.00000000000E+00  0.00000000000E+00 -0.23406155739E+03  0.23406155744E+03  0.50400001928E-02 0.  1.
    10030    2    1    2    0    0  0.00000000000E+00  0.00000000000E+00  0.29085586586E+03  0.75897898072E+03  0.70103634604E+03 0.  0.
        4    1    3    3  502    0  0.27772022666E+03  0.19651802806E+03  0.23674067878E+03  0.41448235371E+03  0.12699999809E+01 0. -1.
       -4    1    3    3    0  502 -0.27772022666E+03 -0.19651802806E+03  0.54115187082E+02  0.34449662701E+03  0.12699999809E+01 0.  1.
</event>
<event>
 5   0  0.5023894E-03  0.7001007E+03  0.7818609E-02  0.9717060E-01
        2   -1    0    0  501    0  0.00000000000E+00  0.00000000000E+00  0.67292690401E+03  0.67292690402E+03  0.25500000920E-02 0.  1.
       -2   -1    0    0    0  501  0.00000000000E+00  0.00000000000E+00 -0.18209295261E+03  0.18209295263E+03  0.25500000920E-02 0. -1.
    10030    2    1    2    0    0  0.00000000000E+00  0.00000000000E+00  0.49083395140E+03  0.85501985664E+03  0.70010069805E+03 0.  0.
        2    1    3    3  502    0  0.81024652448E+02  0.33149484871E+03  0.15017725541E+03  0.37283647498E+03  0.25500000920E-02 0. -1.
       -2    1    3    3    0  502 -0.81024652448E+02 -0.33149484871E+03  0.34065669599E+03  0.48218338167E+03  0.25500000920E-02 0.  1.
</event>
<event>
 5   0  0.2937617E-03  0.7008576E+03  0.7818609E-02  0.9715767E-01
        1   -1    0    0  501    0  0.00000000000E+00  0.00000000000E+00  0.80107619709E+03  0.80107619710E+03  0.50400001928E-02 0. -1.
       -1   -1    0    0    0  501  0.00000000000E+00  0.00000000000E+00 -0.15329422793E+03  0.15329422801E+03  0.50400001928E-02 0.  1.
    10030    2    1    2    0    0  0.00000000000E+00  0.00000000000E+00  0.64778196916E+03  0.95437042512E+03  0.70085763802E+03 0.  0.
        3    1    3    3  502    0  0.17450156797E+03  0.25231741448E+03  0.55452223992E+03  0.63372691251E+03  0.10100000352E+00 0. -1.
       -3    1    3    3    0  502 -0.17450156797E+03 -0.25231741448E+03  0.93259729238E+02  0.32064351260E+03  0.10100000352E+00 0.  1.
</event>
<event>
 5   0  0.5023894E-03  0.7021230E+03  0.7818609E-02  0.9713608E-01
       -2   -1    0    0    0  501  0.00000000000E+00  0.00000000000E+00  0.16799002780E+03  0.16799002782E+03  0.25500000920E-02 0.  1.
        2   -1    0    0  501    0  0.00000000000E+00  0.00000000000E+00 -0.73363988794E+03  0.73363988794E+03  0.25500000920E-02 0. -1.
    10030    2    1    2    0    0  0.00000000000E+00  0.00000000000E+00 -0.56564986013E+03  0.90162991577E+03  0.70212302393E+03 0.  0.
        2    1    3    3  502    0 -0.13420929375E+03  0.17859131683E+03  0.64933156533E+02  0.23264416563E+03  0.25500000920E-02 0.  1.
       -2    1    3    3    0  502  0.13420929375E+03 -0.17859131683E+03 -0.63058301667E+03  0.66898575014E+03  0.25500000920E-02 0. -1.
</event>
<event>
 5   0  0.3013140E-03  0.6981956E+03  0.7818609E-02  0.9720323E-01
       -1   -1    0    0    0  501  0.00000000000E+00  0.00000000000E+00  0.10573466591E+04  0.10573466591E+04  0.50400001928E-02 0. -1.
        1   -1    0    0  501    0  0.00000000000E+00  0.00000000000E+00 -0.11525952360E+03  0.11525952371E+03  0.50400001928E-02 0.  1.
    10030    2    1    2    0    0  0.00000000000E+00  0.00000000000E+00  0.94208713548E+03  0.11726061828E+04  0.69819559516E+03 0.  0.
        2    1    3    3  502    0 -0.17414301003E+03  0.30182118185E+03  0.43551714629E+03  0.55776070001E+03  0.25500000920E-02 0.  1.
       -2    1    3    3    0  502  0.17414301003E+03 -0.30182118185E+03  0.50656998919E+03  0.61484548279E+03  0.25500000920E-02 0. -1.
</event>
<event>
 5   0  0.3013140E-03  0.7036328E+03  0.7818609E-02  0.9711040E-01
        1   -1    0    0  501    0  0.00000000000E+00  0.00000000000E+00  0.44388819956E+03  0.44388819959E+03  0.50400001928E-02 0. -1.
       -1   -1    0    0    0  501  0.00000000000E+00  0.00000000000E+00 -0.27884227718E+03  0.27884227722E+03  0.50400001928E-02 0.  1.
    10030    2    1    2    0    0  0.00000000000E+00  0.00000000000E+00  0.16504592238E+03  0.72273047681E+03  0.70363284859E+03 0.  0.
        2    1    3    3  502    0  0.21031481048E+02  0.30342713154E+02  0.44189302142E+03  0.44343257190E+03  0.25500000920E-02 0. -1.
       -2    1    3    3    0  502 -0.21031481048E+02 -0.30342713154E+02 -0.27684709903E+03  0.27929790491E+03  0.25500000920E-02 0.  1.
</event>
<event>
 5   0  0.3013140E-03  0.7019562E+03  0.7818609E-02  0.9713893E-01
       -1   -1    0    0    0  501  0.00000000000E+00  0.00000000000E+00  0.13237922111E+03  0.13237922121E+03  0.50400001928E-02 0. -1.
        1   -1    0    0  501    0  0.00000000000E+00  0.00000000000E+00 -0.93055094715E+03  0.93055094716E+03  0.50400001928E-02 0.  1.
    10030    2    1    2    0    0  0.00000000000E+00  0.00000000000E+00 -0.79817172603E+03  0.10629301684E+04  0.70195615147E+03 0.  0.
        2    1    3    3  502    0 -0.62266990362E+02  0.27247432902E+03 -0.77630939365E+02  0.29007930092E+03  0.25500000920E-02 0. -1.
       -2    1    3    3    0  502  0.62266990362E+02 -0.27247432902E+03 -0.72054078667E+03  0.77285086745E+03  0.25500000920E-02 0.  1.
</event>
<event>
 5   0  0.5023894E-03  0.7000213E+03  0.7818609E-02  0.9717196E-01
        2   -1    0    0  501    0  0.00000000000E+00  0.00000000000E+00  0.15649155527E+04  0.15649155527E+04  0.25500000920E-02 0. -1.
       -2   -1    0    0    0  501  0.00000000000E+00  0.00000000000E+00 -0.78283746235E+02  0.78283746276E+02  0.25500000920E-02 0.  1.
    10030    2    1    2    0    0  0.00000000000E+00  0.00000000000E+00  0.14866318065E+04  0.16431992990E+04  0.70002129122E+03 0.  0.
        2    1    3    3  502    0  0.10308278382E+03 -0.17379983045E+03  0.72468733979E+02  0.21467221244E+03  0.25500000920E-02 0.  1.
       -2    1    3    3    0  502 -0.10308278382E+03  0.17379983045E+03  0.14141630725E+04  0.14285270865E+04  0.25500000920E-02 0. -1.
</event>
<event>
 5   0  0.2934483E-03  0.7000430E+03  0.7818609E-02  0.9717159E-01
       -1   -1    0    0    0  501  0.00000000000E+00  0.00000000000E+00  0.50656405600E+03  0.50656405602E+03  0.50400001928E-02 0. -1.
        1   -1    0    0  501    0  0.00000000000E+00  0.00000000000E+00 -0.24185497377E+03  0.24185497382E+03  0.50400001928E-02 0.  1.
    10030    2    1    2    0    0  0.00000000000E+00  0.00000000000E+00  0.26470908223E+03  0.74841902984E+03  0.70004296012E+03 0.  0.
        5    1    3    3  502    0 -0.24705948861E+03  0.24536460037E+03  0.94544374356E+02  0.36083639887E+03  0.46999998093E+01 0.  1.
       -5    1    3    3    0  502  0.24705948861E+03 -0.24536460037E+03  0.17016470787E+03  0.38758263097E+03  0.46999998093E+01 0. -1.
</event>
<event>
 5   0  0.5076796E-03  0.6992642E+03  0.7818609E-02  0.9718491E-01
       -2   -1    0    0    0  501  0.00000000000E+00  0.00000000000E+00  0.10367151310E+03  0.10367151313E+03  0.25500000920E-02 0.  1.
        2   -1    0    0  501    0  0.00000000000E+00  0.00000000000E+00 -0.11791339536E+04  0.11791339536E+04  0.25500000920E-02 0. -1.
    10030    2    1    2    0    0  0.00000000000E+00  0.00000000000E+00 -0.10754624405E+04  0.12828054667E+04  0.69926418795E+03 0.  0.
        5    1    3    3  502    0 -0.25273143925E+03  0.40376666975E+02 -0.10083694581E+03  0.27512476308E+03  0.46999998093E+01 0.  1.
       -5    1    3    3    0  502  0.25273143925E+03 -0.40376666975E+02 -0.97462549466E+03  0.10076807036E+04  0.46999998093E+01 0. -1.
</event>
<event>
 5   0  0.5076796E-03  0.6996771E+03  0.7818609E-02  0.9717785E-01
       -2   -1    0    0    0  501  0.00000000000E+00  0.00000000000E+00  0.17477668880E+03  0.17477668882E+03  0.25500000920E-02 0. -1.
        2   -1    0    0  501    0  0.00000000000E+00  0.00000000000E+00 -0.70024787234E+03  0.70024787234E+03  0.25500000920E-02 0.  1.
    10030    2    1    2    0    0  0.00000000000E+00  0.00000000000E+00 -0.52547118354E+03  0.87502456116E+03  0.69967708117E+03 0.  0.
        5    1    3    3  502    0 -0.26040098617E+03  0.23124809289E+03 -0.30384555821E+03  0.46219970500E+03  0.46999998093E+01 0. -1.
       -5    1    3    3    0  502  0.26040098617E+03 -0.23124809289E+03 -0.22162562533E+03  0.41282485616E+03  0.46999998093E+01 0.  1.
</event>
<event>
 5   0  0.4878235E-03  0.7026444E+03  0.7818609E-02  0.9712721E-01
        2   -1    0    0  501    0  0.00000000000E+00  0.00000000000E+00  0.81792604798E+03  0.81792604798E+03  0.25500000920E-02 0. -1.
       -2   -1    0    0    0  501  0.00000000000E+00  0.00000000000E+00 -0.15090276233E+03  0.15090276235E+03  0.25500000920E-02 0.  1.
    10030    2    1    2    0    0  0.00000000000E+00  0.00000000000E+00  0.66702328565E+03  0.96882881034E+03  0.70264443365E+03 0.  0.
        4    1    3    3  502    0 -0.33610585398E+03  0.10081703121E+03  0.35717251159E+03  0.50070453842E+03  0.12699999809E+01 0.  1.
       -4    1    3    3    0  502  0.33610585398E+03 -0.10081703121E+03  0.30985077406E+03  0.46812427191E+03  0.12699999809E+01 0. -1.
</event>
<event>
 5   0  0.2938783E-03  0.6984000E+03  0.7818609E-02  0.9719972E-01
       -1   -1    0    0    0  501  0.00000000000E+00  0.00000000000E+00  0.27129648295E+03  0.27129648299E+03  0.50400001928E-02 0.  1.
        1   -1    0    0  501    0  0.00000000000E+00  0.00000000000E+00 -0.44947378617E+03  0.44947378620E+03  0.50400001928E-02 0. -1.
    10030    2    1    2    0    0  0.00000000000E+00  0.00000000000E+00 -0.17817730323E+03  0.72077026920E+03  0.69840004981E+03 0.  0.
        4    1    3    3  502    0 -0.44049321374E+02 -0.12584345273E+03  0.24399055600E+03  0.27804661772E+03  0.12699999809E+01 0.  1.
       -4    1    3    3    0  502  0.44049321374E+02  0.12584345273E+03 -0.42216785923E+03  0.44272365147E+03  0.12699999809E+01 0. -1.
</event>
<event>
 5   0  0.3013140E-03  0.6986981E+03  0.7818609E-02  0.9719461E-01
        1   -1    0    0  501    0  0.00000000000E+00  0.00000000000E+00  0.21105686607E+03  0.21105686613E+03  0.50400001928E-02 0.  1.
       -1   -1    0    0    0  501  0.00000000000E+00  0.00000000000E+00 -0.57825534357E+03  0.57825534360E+03  0.50400001928E-02 0. -1.
    10030    2    1    2    0    0  0.00000000000E+00  0.00000000000E+00 -0.36719847750E+03  0.78931220973E+03  0.69869810544E+03 0.  0.
        2    1    3    3  502    0 -0.12733057887E+03  0.12311837922E+03 -0.52377202135E+03  0.55290898163E+03  0.25500000920E-02 0. -1.
       -2    1    3    3    0  502  0.12733057887E+03 -0.12311837922E+03  0.15657354384E+03  0.23640322810E+03  0.25500000920E-02 0.  1.
</event>
<event>
 5   0  0.1981750E-03  0.6965636E+03  0.7818609E-02  0.9723127E-01
        3   -1    0    0  501    0  0.00000000000E+00  0.00000000000E+00  0.40810649446E+03  0.40810650696E+03  0.10100000352E+00 0.  1.
       -3   -1    0    0    0  501  0.00000000000E+00  0.00000000000E+00 -0.29722684934E+03  0.29722686650E+03  0.10100000352E+00 0. -1.
    10030    2    1    2    0    0  0.00000000000E+00  0.00000000000E+00  0.11087964512E+03  0.70533337346E+03  0.69656361663E+03 0.  0.
        4    1    3    3  502    0 -0.22595213307E+03 -0.20056095517E+03  0.23088267409E+03  0.38024661113E+03  0.12699999809E+01 0.  1.
       -4    1    3    3    0  502  0.22595213307E+03  0.20056095517E+03 -0.12000302898E+03  0.32508676233E+03  0.12699999809E+01 0. -1.
</event>
<event>
 5   0  0.5023894E-03  0.6934452E+03  0.7818609E-02  0.9728508E-01
       -2   -1    0    0    0  501  0.00000000000E+00  0.00000000000E+00  0.84081212459E+02  0.84081212497E+02  0.25500000920E-02 0.  1.
        2   -1    0    0  501    0  0.00000000000E+00  0.00000000000E+00 -0.14297674018E+04  0.14297674018E+04  0.25500000920E-02 0. -1.
    10030    2    1    2    0    0  0.00000000000E+00  0.00000000000E+00 -0.13456861893E+04  0.15138486143E+04  0.69344524429E+03 0.  0.
        2    1    3    3  502    0 -0.25607369503E+03  0.23345008029E+03 -0.69903094244E+03  0.78020313750E+03  0.25500000920E-02 0.  1.
       -2    1    3    3    0  502  0.25607369503E+03 -0.23345008029E+03 -0.64665524689E+03  0.73364547679E+03  0.25500000920E-02 0. -1.
</event>
<event>
 5   0  0.3013140E-03  0.6955368E+03  0.7818609E-02  0.9724895E-01
        1   -1    0    0  501    0  0.00000000000E+00  0.00000000000E+00  0.94530315249E+02  0.94530315383E+02  0.50400001928E-02 0. -1.
       -1   -1    0    0    0  501  0.00000000000E+00  0.00000000000E+00 -0.12794081013E+04  0.12794081013E+04  0.50400001928E-02 0.  1.
    10030    2    1    2    0    0  0.00000000000E+00  0.00000000000E+00 -0.11848777860E+04  0.13739384167E+04  0.69553677471E+03 0.  0.
        2    1    3    3  502    0 -0.77487509885E+02 -0.33590611333E+03 -0.50179528660E+03  0.60879860449E+03  0.25500000920E-02 0. -1.
       -2    1    3    3    0  502  0.77487509885E+02  0.33590611333E+03 -0.68308249941E+03  0.76513981217E+03  0.25500000920E-02 0.  1.
</event>
<event>
 5   0  0.5113683E-03  0.7005749E+03  0.7818609E-02  0.9716249E-01
       -2   -1    0    0    0  501  0.00000000000E+00  0.00000000000E+00  0.33044020342E+03  0.33044020343E+03  0.25500000920E-02 0.  1.
        2   -1    0    0  501    0  0.00000000000E+00  0.00000000000E+00 -0.37132683463E+03  0.37132683464E+03  0.25500000920E-02 0. -1.
    10030    2    1    2    0    0  0.00000000000E+00  0.00000000000E+00 -0.40886631207E+02  0.70176703807E+03  0.70057494896E+03 0.  0.
        3    1    3    3  502    0  0.33727415153E+02  0.25224024930E+03  0.22067069400E+03  0.33683563839E+03  0.10100000352E+00 0.  1.
       -3    1    3    3    0  502 -0.33727415153E+02 -0.25224024930E+03 -0.26155732521E+03  0.36493139968E+03  0.10100000352E+00 0. -1.
</event>
<event>
 5   0  0.5076796E-03  0.6991928E+03  0.7818609E-02  0.9718614E-01
        2   -1    0    0  501    0  0.00000000000E+00  0.00000000000E+00  0.86109967559E+02  0.86109967596E+02  0.25500000920E-02 0.  1.
       -2   -1    0    0    0  501  0.00000000000E+00  0.00000000000E+00 -0.14193206272E+04  0.14193206272E+04  0.25500000920E-02 0. -1.
    10030    2    1    2    0    0  0.00000000000E+00  0.00000000000E+00 -0.13332106596E+04  0.15054305948E+04  0.69919282946E+03 0.  0.
        5    1    3    3  502    0  0.25625462072E+03 -0.22986116969E+03 -0.79744877447E+03  0.86859036713E+03  0.46999998093E+01 0. -1.
       -5    1    3    3    0  502 -0.25625462072E+03  0.22986116969E+03 -0.53576188517E+03  0.63684022767E+03  0.46999998093E+01 0.  1.
</event>
<event>
 5   0  0.2934483E-03  0.7000382E+03  0.7818609E-02  0.9717167E-01
        1   -1    0    0  501    0  0.00000000000E+00  0.00000000000E+00  0.25754063918E+03  0.25754063923E+03  0.50400001928E-02 0. -1.
       -1   -1    0    0    0  501  0.00000000000E+00  0.00000000000E+00 -0.47570498459E+03  0.47570498462E+03  0.50400001928E-02 0.  1.
    10030    2    1    2    0    0  0.00000000000E+00  0.00000000000E+00 -0.21816434541E+03  0.73324562385E+03  0.70003818702E+03 0.  0.
        5    1    3    3  502    0 -0.34278970137E+03 -0.27387891561E+02 -0.40907004137E+02  0.34633848899E+03  0.46999998093E+01 0. -1.
       -5    1    3    3    0  502  0.34278970137E+03  0.27387891561E+02 -0.17725734128E+03  0.38690713486E+03  0.46999998093E+01 0.  1.
</event>
<event>
 5   0  0.2937617E-03  0.7009642E+03  0.7818609E-02  0.9715585E-01
        1   -1    0    0  501    0  0.00000000000E+00  0.00000000000E+00  0.68960684759E+03  0.68960684761E+03  0.50400001928E-02 0. -1.
       -1   -1    0    0    0  501  0.00000000000E+00  0.00000000000E+00 -0.17812715032E+03  0.17812715039E+03  0.50400001928E-02 0.  1.
    10030    2    1    2    0    0  0.00000000000E+00  0.00000000000E+00  0.51147969727E+03  0.86773399799E+03  0.70096420062E+03 0.  0.
        3    1    3    3  502    0 -0.23482151339E+03 -0.15386578271E+03 -0.39918881319E+01  0.28076995497E+03  0.10100000352E+00 0.  1.
       -3    1    3    3    0  502  0.23482151339E+03  0.15386578271E+03  0.51547158540E+03  0.58696404302E+03  0.10100000352E+00 0. -1.
</event>
<event>
 5   0  0.5113683E-03  0.7022121E+03  0.7818609E-02  0.9713457E-01
       -2   -1    0    0    0  501  0.00000000000E+00  0.00000000000E+00  0.19489244783E+03  0.19489244784E+03  0.25500000920E-02 0.  1.
        2   -1    0    0  501    0  0.00000000000E+00  0.00000000000E+00 -0.63253069883E+03  0.63253069883E+03  0.25500000920E-02 0. -1.
    10030    2    1    2    0    0  0.00000000000E+00  0.00000000000E+00 -0.43763825100E+03  0.82742314667E+03  0.70221209397E+03 0.  0.
        3    1    3    3  502    0 -0.21516515478E+03 -0.22752537953E+03 -0.31725238300E+02  0.31475441714E+03  0.10100000352E+00 0.  1.
       -3    1    3    3    0  502  0.21516515478E+03  0.22752537953E+03 -0.40591301270E+03  0.51266872953E+03  0.10100000352E+00 0. -1.
</event>
<event>
 5   0  0.5072407E-03  0.7008987E+03  0.7818609E-02  0.9715697E-01
       -2   -1    0    0    0  501  0.00000000000E+00  0.00000000000E+00  0.56360291299E+02  0.56360291356E+02  0.25500000920E-02 0.  1.
        2   -1    0    0  501    0  0.00000000000E+00  0.00000000000E+00 -0.21791004766E+04  0.21791004766E+04  0.25500000920E-02 0. -1.
    10030    2    1    2    0    0  0.00000000000E+00  0.00000000000E+00 -0.21227401853E+04  0.22354607680E+04  0.70089867369E+03 0.  0.
        1    1    3    3  502    0 -0.16678411328E+01 -0.27285304161E+03 -0.17627756626E+04  0.17837683708E+04  0.50400001928E-02 0.  1.
       -1    1    3    3    0  502  0.16678411328E+01  0.27285304161E+03 -0.35996452267E+03  0.45169239712E+03  0.50400001928E-02 0. -1.
</event>
<event>
 5   0  0.5072407E-03  0.6995678E+03  0.7818609E-02  0.9717972E-01
        2   -1    0    0  501    0  0.00000000000E+00  0.00000000000E+00  0.28449309298E+03  0.28449309299E+03  0.25500000920E-02 0.  1.
       -2   -1    0    0    0  501  0.00000000000E+00  0.00000000000E+00 -0.43005884661E+03  0.43005884662E+03  0.25500000920E-02 0. -1.
    10030    2    1    2    0    0  0.00000000000E+00  0.00000000000E+00 -0.14556575363E+03  0.71455193961E+03  0.69956778497E+03 0.  0.
        1    1    3    3  502    0 -0.24350461523E+03  0.97232796543E+02  0.16369288126E+03  0.30910204425E+03  0.50400001928E-02 0.  1.
       -1    1    3    3    0  502  0.24350461523E+03 -0.97232796543E+02 -0.30925863490E+03  0.40544989535E+03  0.50400001928E-02 0. -1.
</event>
<event>
 5   0  0.5023894E-03  0.7006828E+03  0.7818609E-02  0.9716065E-01
        2   -1    0    0  501    0  0.00000000000E+00  0.00000000000E+00  0.68587515657E+03  0.68587515658E+03  0.25500000920E-02 0.  1.
       -2   -1    0    0    0  501  0.00000000000E+00  0.00000000000E+00 -0.17895253134E+03  0.17895253136E+03  0.25500000920E-02 0. -1.
    10030    2    1    2    0    0  0.00000000000E+00  0.00000000000E+00  0.50692262523E+03  0.86482768794E+03  0.70068279689E+03 0.  0.
        2    1    3    3  502    0 -0.70575678591E+02  0.16181163701E+03  0.62696679520E+03  0.65134575655E+03  0.25500000920E-02 0.  1.
       -2    1    3    3    0  502  0.70575678591E+02 -0.16181163701E+03 -0.12004416997E+03  0.21348193139E+03  0.25500000920E-02 0. -1.
</event>
<event>
 5   0  0.2913582E-03  0.7003667E+03  0.7818609E-02  0.9716605E-01
        1   -1    0    0  501    0  0.00000000000E+00  0.00000000000E+00  0.11598205259E+04  0.11598205259E+04  0.50400001928E-02 0.  1.
       -1   -1    0    0    0  501  0.00000000000E+00  0.00000000000E+00 -0.10573047493E+03  0.10573047505E+03  0.50400001928E-02 0. -1.
    10030    2    1    2    0    0  0.00000000000E+00  0.00000000000E+00  0.10540900510E+04  0.12655510009E+04  0.70036669000E+03 0.  0.
        1    1    3    3  502    0 -0.22196697414E+03  0.14217558679E+03  0.11047698547E+03  0.28581182521E+03  0.50400001928E-02 0. -1.
       -1    1    3    3    0  502  0.22196697414E+03 -0.14217558679E+03  0.94361306548E+03  0.97973917573E+03  0.50400001928E-02 0.  1.
</event>
<event>
 5   0  0.5072407E-03  0.6920188E+03  0.7818609E-02  0.9730979E-01
       -2   -1    0    0    0  501  0.00000000000E+00  0.00000000000E+00  0.12203976577E+03  0.12203976579E+03  0.25500000920E-02 0.  1.
        2   -1    0    0  501    0  0.00000000000E+00  0.00000000000E+00 -0.98101233790E+03  0.98101233790E+03  0.25500000920E-02 0. -1.
    10030    2    1    2    0    0  0.00000000000E+00  0.00000000000E+00 -0.85897257213E+03  0.11030521037E+04  0.69201883196E+03 0.  0.
        1    1    3    3  502    0 -0.26308263363E+03  0.16224737412E+03 -0.67737607778E+03  0.74456365296E+03  0.50400001928E-02 0. -1.
       -1    1    3    3    0  502  0.26308263363E+03 -0.16224737412E+03 -0.18159649435E+03  0.35848845074E+03  0.50400001928E-02 0.  1.
</event>
<event>
 5   0  0.4878235E-03  0.6954421E+03  0.7818609E-02  0.9725059E-01
        2   -1    0    0  501    0  0.00000000000E+00  0.00000000000E+00  0.10608472950E+04  0.10608472950E+04  0.25500000920E-02 0. -1.
       -2   -1    0    0    0  501  0.00000000000E+00  0.00000000000E+00 -0.11397485176E+03  0.11397485179E+03  0.25500000920E-02 0.  1.
    10030    2    1    2    0    0  0.00000000000E+00  0.00000000000E+00  0.94687244327E+03  0.11748221468E+04  0.69544205571E+03 0.  0.
        4    1    3    3  502    0 -0.39232520105E+02 -0.33534346743E+03  0.33297005420E+03  0.47419943239E+03  0.12699999809E+01 0.  1.
       -4    1    3    3    0  502  0.39232520105E+02  0.33534346743E+03  0.61390238906E+03  0.70062271443E+03  0.12699999809E+01 0. -1.
</event>
<event>
 5   0  0.5113683E-03  0.7014692E+03  0.7818609E-02  0.9714723E-01
       -2   -1    0    0    0  501  0.00000000000E+00  0.00000000000E+00  0.10532156973E+03  0.10532156977E+03  0.25500000920E-02 0.  1.
        2   -1    0    0  501    0  0.00000000000E+00  0.00000000000E+00 -0.11679921330E+04  0.11679921330E+04  0.25500000920E-02 0. -1.
    10030    2    1    2    0    0  0.00000000000E+00  0.00000000000E+00 -0.10626705632E+04  0.12733137027E+04  0.70146921501E+03 0.  0.
        3    1    3    3  502    0 -0.34149690180E+03 -0.28321165502E+02 -0.39558802889E+03  0.52336614445E+03  0.10100000352E+00 0. -1.
       -3    1    3    3    0  502  0.34149690180E+03  0.28321165502E+02 -0.66708253433E+03  0.74994755827E+03  0.10100000352E+00 0.  1.
</event>
<event>
 5   0  0.2937617E-03  0.6986133E+03  0.7818609E-02  0.9719607E-01
       -1   -1    0    0    0  501  0.00000000000E+00  0.00000000000E+00  0.19073358664E+03  0.19073358671E+03  0.50400001928E-02 0.  1.
        1   -1    0    0  501    0  0.00000000000E+00  0.00000000000E+00 -0.63971504367E+03  0.63971504369E+03  0.50400001928E-02 0. -1.
    10030    2    1    2    0    0  0.00000000000E+00  0.00000000000E+00 -0.44898145703E+03  0.83044863040E+03  0.69861332580E+03 0.  0.
        3    1    3    3  502    0 -0.88841541486E+02  0.58277618995E+02 -0.62004017437E+03  0.62907783970E+03  0.10100000352E+00 0. -1.
       -3    1    3    3    0  502  0.88841541486E+02 -0.58277618995E+02  0.17105871734E+03  0.20137079070E+03  0.10100000352E+00 0.  1.
</event>
<event>
 5   0  0.1981750E-03  0.6996121E+03  0.7818609E-02  0.9717896E-01
        4   -1    0    0  501    0  0.00000000000E+00  0.00000000000E+00  0.15498886235E+03  0.15499406554E+03  0.12699999809E+01 0. -1.
       -4   -1    0    0    0  501  0.00000000000E+00  0.00000000000E+00 -0.78948474439E+03  0.78948576588E+03  0.12699999809E+01 0.  1.
    10030    2    1    2    0    0  0.00000000000E+00  0.00000000000E+00 -0.63449588204E+03  0.94447983142E+03  0.69961212656E+03 0.  0.
        3    1    3    3  502    0  0.25679516167E+03  0.80240679117E+02 -0.61906373172E+03  0.67499795242E+03  0.10100000352E+00 0.  1.
       -3    1    3    3    0  502 -0.25679516167E+03 -0.80240679117E+02 -0.15432150316E+02  0.26948187900E+03  0.10100000352E+00 0. -1.
</event>
<event>
 5   0  0.5072407E-03  0.6978092E+03  0.7818609E-02  0.9720986E-01
        2   -1    0    0  501    0  0.00000000000E+00  0.00000000000E+00  0.82897289003E+03  0.82897289004E+03  0.25500000920E-02 0. -1.
       -2   -1    0    0    0  501  0.00000000000E+00  0.00000000000E+00 -0.14684969531E+03  0.14684969533E+03  0.25500000920E-02 0.  1.
    10030    2    1    2    0    0  0.00000000000E+00  0.00000000000E+00  0.68212319472E+03  0.97582258537E+03  0.69780918978E+03 0.  0.
        1    1    3    3  502    0 -0.44586252013E+02  0.48698137348E+02  0.82015692487E+03  0.82281032072E+03  0.50400001928E-02 0. -1.
       -1    1    3    3    0  502  0.44586252013E+02 -0.48698137348E+02 -0.13803373015E+03  0.15301226465E+03  0.50400001928E-02 0.  1.
</event>
<event>
 5   0  0.4878235E-03  0.7000851E+03  0.7818609E-02  0.9717087E-01
       -2   -1    0    0    0  501  0.00000000000E+00  0.00000000000E+00  0.83761056949E+02  0.83761056988E+02  0.25500000920E-02 0.  1.
        2   -1    0    0  501    0  0.00000000000E+00  0.00000000000E+00 -0.14628490991E+04  0.14628490991E+04  0.25500000920E-02 0. -1.
    10030    2    1    2    0    0  0.00000000000E+00  0.00000000000E+00 -0.13790880421E+04  0.15466101561E+04  0.70008509977E+03 0.  0.
        4    1    3    3  502    0  0.15141355017E+03 -0.50292596990E+02 -0.13778455339E+04  0.13870527519E+04  0.12699999809E+01 0. -1.
       -4    1    3    3    0  502 -0.15141355017E+03  0.50292596990E+02 -0.12425082395E+01  0.15955740414E+03  0.12699999809E+01 0.  1.
</event>
<event>
 5   0  0.5113683E-03  0.7005661E+03  0.7818609E-02  0.9716265E-01
       -2   -1    0    0    0  501  0.00000000000E+00  0.00000000000E+00  0.47335996177E+03  0.47335996178E+03  0.25500000920E-02 0. -1.
        2   -1    0    0  501    0  0.00000000000E+00  0.00000000000E+00 -0.25920699997E+03  0.25920699998E+03  0.25500000920E-02 0.  1.
    10030    2    1    2    0    0  0.00000000000E+00  0.00000000000E+00  0.21415296181E+03  0.73256696176E+03  0.70056610139E+03 0.  0.
        3    1    3    3  502    0  0.17846167778E+03  0.13725920186E+03 -0.17352712469E+03  0.28425399229E+03  0.10100000352E+00 0.  1.
       -3    1    3    3    0  502 -0.17846167778E+03 -0.13725920186E+03  0.38768008649E+03  0.44831296947E+03  0.10100000352E+00 0. -1.
</event>
<event>
 5   0  0.2913582E-03  0.7003930E+03  0.7818609E-02  0.9716560E-01
        1   -1    0    0  501    0  0.00000000000E+00  0.00000000000E+00  0.17219485059E+03  0.17219485067E+03  0.50400001928E-02 0. -1.
       -1   -1    0    0    0  501  0.00000000000E+00  0.00000000000E+00 -0.71220247802E+03  0.71220247804E+03  0.50400001928E-02 0.  1.
    10030    2    1    2    0    0  0.00000000000E+00  0.00000000000E+00 -0.54000762743E+03  0.88439732871E+03  0.70039303062E+03 0.  0.
        1    1    3    3  502    0 -0.31209641164E+03 -0.15867438240E+03 -0.27944209854E+03  0.44796162364E+03  0.50400001928E-02 0. -1.
       -1    1    3    3    0  502  0.31209641164E+03  0.15867438240E+03 -0.26056552888E+03  0.43643570507E+03  0.50400001928E-02 0.  1.
</event>
<event>
 5   0  0.5023894E-03  0.6997277E+03  0.7818609E-02  0.9717698E-01
        2   -1    0    0  501    0  0.00000000000E+00  0.00000000000E+00  0.62618168346E+03  0.62618168346E+03  0.25500000920E-02 0. -1.
       -2   -1    0    0    0  501  0.00000000000E+00  0.00000000000E+00 -0.19547797197E+03  0.19547797198E+03  0.25500000920E-02 0.  1.
    10030    2    1    2    0    0  0.00000000000E+00  0.00000000000E+00  0.43070371149E+03  0.82165965545E+03  0.69972773441E+03 0.  0.
        2    1    3    3  502    0 -0.64944278512E+02 -0.12874363174E+03 -0.15896162467E+03  0.21461938438E+03  0.25500000920E-02 0.  1.
       -2    1    3    3    0  502  0.64944278512E+02  0.12874363174E+03  0.58966533616E+03  0.60704027107E+03  0.25500000920E-02 0. -1.
</event>
<event>
 5   0  0.2938783E-03  0.7001284E+03  0.7818609E-02  0.9717013E-01
       -1   -1    0    0    0  501  0.00000000000E+00  0.00000000000E+00  0.28810098343E+03  0.28810098348E+03  0.50400001928E-02 0. -1.
        1   -1    0    0  501    0  0.00000000000E+00  0.00000000000E+00 -0.42535415073E+03  0.42535415076E+03  0.50400001928E-02 0.  1.
    10030    2    1    2    0    0  0.00000000000E+00  0.00000000000E+00 -0.13725316729E+03  0.71345513423E+03  0.70012841439E+03 0.  0.
        4    1    3    3  502    0 -0.13170298508E+03 -0.17036488447E+03 -0.34987547736E+03  0.41083370443E+03  0.12699999809E+01 0.  1.
       -4    1    3    3    0  502  0.13170298508E+03  0.17036488447E+03  0.21262231007E+03  0.30262142980E+03  0.12699999809E+01 0. -1.
</event>
<event>
 5   0  0.3013140E-03  0.6999432E+03  0.7818609E-02  0.9717329E-01
        1   -1    0    0  501    0  0.00000000000E+00  0.00000000000E+00  0.16807156248E+03  0.16807156256E+03  0.50400001928E-02 0.  1.
       -1   -1    0    0    0  501  0.00000000000E+00  0.00000000000E+00 -0.72873786351E+03  0.72873786352E+03  0.50400001928E-02 0. -1.
    10030    2    1    2    0    0  0.00000000000E+00  0.00000000000E+00 -0.56066630103E+03  0.89680942608E+03  0.69994317312E+03 0.  0.
        2    1    3    3  502    0 -0.84103090703E+02  0.29519412950E+03 -0.64916715034E+02  0.31373090995E+03  0.25500000920E-02 0.  1.
       -2    1    3    3    0  502  0.84103090703E+02 -0.29519412950E+03 -0.49574958599E+03  0.58307851613E+03  0.25500000920E-02 0. -1.
</event>
<event>
 5   0  0.5076796E-03  0.7035739E+03  0.7818609E-02  0.9711140E-01
        2   -1    0    0  501    0  0.00000000000E+00  0.00000000000E+00  0.57708174110E+03  0.57708174110E+03  0.25500000920E-02 0.  1.
       -2   -1    0    0    0  501  0.00000000000E+00  0.00000000000E+00 -0.21444803281E+03  0.21444803282E+03  0.25500000920E-02 0. -1.
    10030    2    1    2    0    0  0.00000000000E+00  0.00000000000E+00  0.36263370829E+03  0.79152977393E+03  0.70357386011E+03 0.  0.
        5    1    3    3  502    0 -0.31582291776E+03  0.21187245355E+02  0.87127947194E+01  0.31668757086E+03  0.46999998093E+01 0. -1.
       -5    1    3    3    0  502  0.31582291776E+03 -0.21187245355E+02  0.35392091357E+03  0.47484220306E+03  0.46999998093E+01 0.  1.
</event>
<event>
 5   0  0.2913582E-03  0.7022054E+03  0.7818609E-02  0.9713468E-01
       -1   -1    0    0    0  501  0.00000000000E+00  0.00000000000E+00  0.12303429548E+03  0.12303429558E+03  0.50400001928E-02 0.  1.
        1   -1    0    0  501    0  0.00000000000E+00  0.00000000000E+00 -0.10019411452E+04  0.10019411452E+04  0.50400001928E-02 0. -1.
    10030    2    1    2    0    0  0.00000000000E+00  0.00000000000E+00 -0.87890684975E+03  0.11249754408E+04  0.70220544851E+03 0.  0.
        1    1    3    3  502    0 -0.17888080189E+03 -0.29552479598E+03 -0.54001224247E+03  0.64105106533E+03  0.50400001928E-02 0. -1.
       -1    1    3    3    0  502  0.17888080189E+03  0.29552479598E+03 -0.33889460729E+03  0.48392437549E+03  0.50400001928E-02 0.  1.
</event>
<event>
 5   0  0.4878235E-03  0.7013912E+03  0.7818609E-02  0.9714856E-01
       -2   -1    0    0    0  501  0.00000000000E+00  0.00000000000E+00  0.30483737408E+03  0.30483737409E+03  0.25500000920E-02 0. -1.
        2   -1    0    0  501    0  0.00000000000E+00  0.00000000000E+00 -0.40345256207E+03  0.40345256208E+03  0.25500000920E-02 0.  1.
    10030    2    1    2    0    0  0.00000000000E+00  0.00000000000E+00 -0.98615187983E+02  0.70828993617E+03  0.70139124487E+03 0.  0.
        4    1    3    3  502    0  0.16541205638E+03  0.30092223517E+03 -0.12121517795E+03  0.36415665899E+03  0.12699999809E+01 0.  1.
       -4    1    3    3    0  502 -0.16541205638E+03 -0.30092223517E+03  0.22599989971E+02  0.34413327718E+03  0.12699999809E+01 0. -1.
</event>
<event>
 5   0  0.2934483E-03  0.6993655E+03  0.7818609E-02  0.9718318E-01
        1   -1    0    0  501    0  0.00000000000E+00  0.00000000000E+00  0.10788977750E+04  0.10788977751E+04  0.50400001928E-02 0. -1.
       -1   -1    0    0    0  501  0.00000000000E+00  0.00000000000E+00 -0.11333605139E+03  0.11333605150E+03  0.50400001928E-02 0.  1.
    10030    2    1    2    0    0  0.00000000000E+00  0.00000000000E+00  0.96556172366E+03  0.11922338266E+04  0.69936546598E+03 0.  0.
        5    1    3    3  502    0 -0.33687251940E+03 -0.93586925075E+02  0.47633053937E+03  0.59089295105E+03  0.46999998093E+01 0.  1.
       -5    1    3    3    0  502  0.33687251940E+03  0.93586925075E+02  0.48923118429E+03  0.60134087551E+03  0.46999998093E+01 0. -1.
</event>
<event>
 5   0  0.5113683E-03  0.6987633E+03  0.7818609E-02  0.9719349E-01
        2   -1    0    0  501    0  0.00000000000E+00  0.00000000000E+00  0.78917401295E+03  0.78917401295E+03  0.25500000920E-02 0. -1.
       -2   -1    0    0    0  501  0.00000000000E+00  0.00000000000E+00 -0.15467759369E+03  0.15467759371E+03  0.25500000920E-02 0.  1.
    10030    2    1    2    0    0  0.00000000000E+00  0.00000000000E+00  0.63449641926E+03  0.94385160667E+03  0.69876329995E+03 0.  0.
        3    1    3    3  502    0 -0.45187084346E+02 -0.32792047670E+03  0.16626759933E+03  0.37043033949E+03  0.10100000352E+00 0.  1.
       -3    1    3    3    0  502  0.45187084346E+02  0.32792047670E+03  0.46822881993E+03  0.57342126717E+03  0.10100000352E+00 0. -1.
</event>
<event>
 5   0  0.5113683E-03  0.6997013E+03  0.7818609E-02  0.9717743E-01
       -2   -1    0    0    0  501  0.00000000000E+00  0.00000000000E+00  0.44441466521E+02  0.44441466594E+02  0.25500000920E-02 0. -1.
        2   -1    0    0  501    0  0.00000000000E+00  0.00000000000E+00 -0.27540829323E+04  0.27540829324E+04  0.25500000920E-02 0.  1.
    10030    2    1    2    0    0  0.00000000000E+00  0.00000000000E+00 -0.27096414658E+04  0.27985243989E+04  0.69970132067E+03 0.  0.
        3    1    3    3  502    0  0.33163780960E+02  0.34774111002E+03 -0.12777043265E+04  0.13245950597E+04  0.10100000352E+00 0.  1.
       -3    1    3    3    0  502 -0.33163780960E+02 -0.34774111002E+03 -0.14319371393E+04  0.14739293393E+04  0.10100000352E+00 0. -1.
</event>
<event>
 5   0  0.2937617E-03  0.7006998E+03  0.7818609E-02  0.9716036E-01
        1   -1    0    0  501    0  0.00000000000E+00  0.00000000000E+00  0.13657147436E+04  0.13657147436E+04  0.50400001928E-02 0.  1.
       -1   -1    0    0    0  501  0.00000000000E+00  0.00000000000E+00 -0.89876059598E+02  0.89876059739E+02  0.50400001928E-02 0. -1.
    10030    2    1    2    0    0  0.00000000000E+00  0.00000000000E+00  0.12758386840E+04  0.14555908033E+04  0.70069982103E+03 0.  0.
        3    1    3    3  502    0 -0.19095131926E+03 -0.11450798614E+03  0.11998406474E+04  0.12203245776E+04  0.10100000352E+00 0.  1.
       -3    1    3    3    0  502  0.19095131926E+03  0.11450798614E+03  0.75998036561E+02  0.23526622576E+03  0.10100000352E+00 0. -1.
</event>
<event>
 5   0  0.5023894E-03  0.6992478E+03  0.7818609E-02  0.9718519E-01
        2   -1    0    0  501    0  0.00000000000E+00  0.00000000000E+00  0.16463331981E+03  0.16463331983E+03  0.25500000920E-02 0. -1.
       -2   -1    0    0    0  501  0.00000000000E+00  0.00000000000E+00 -0.74247951229E+03  0.74247951230E+03  0.25500000920E-02 0.  1.
    10030    2    1    2    0    0  0.00000000000E+00  0.00000000000E+00 -0.57784619248E+03  0.90711283213E+03  0.69924778731E+03 0.  0.
        2    1    3    3  502    0  0.11551272619E+03 -0.15536163441E+03 -0.66659663914E+03  0.69414084067E+03  0.25500000920E-02 0.  1.
       -2    1    3    3    0  502 -0.11551272619E+03  0.15536163441E+03  0.88750446664E+02  0.21297199147E+03  0.25500000920E-02 0. -1.
</event>
<event>
 5   0  0.4878235E-03  0.7006977E+03  0.7818609E-02  0.9716040E-01
        2   -1    0    0  501    0  0.00000000000E+00  0.00000000000E+00  0.74858323233E+03  0.74858323234E+03  0.25500000920E-02 0.  1.
       -2   -1    0    0    0  501  0.00000000000E+00  0.00000000000E+00 -0.16396883309E+03  0.16396883311E+03  0.25500000920E-02 0. -1.
    10030    2    1    2    0    0  0.00000000000E+00  0.00000000000E+00  0.58461439925E+03  0.91255206545E+03  0.70069770682E+03 0.  0.
        4    1    3    3  502    0 -0.19935816001E+03 -0.65094891605E+02 -0.73190338847E+02  0.22212487361E+03  0.12699999809E+01 0. -1.
       -4    1    3    3    0  502  0.19935816001E+03  0.65094891605E+02  0.65780473809E+03  0.69042719184E+03  0.12699999809E+01 0.  1.
</event>
<event>
 5   0  0.4878235E-03  0.6993137E+03  0.7818609E-02  0.9718407E-01
        2   -1    0    0  501    0  0.00000000000E+00  0.00000000000E+00  0.41978090524E+03  0.41978090524E+03  0.25500000920E-02 0. -1.
       -2   -1    0    0    0  501  0.00000000000E+00  0.00000000000E+00 -0.29124695006E+03  0.29124695007E+03  0.25500000920E-02 0.  1.
    10030    2    1    2    0    0  0.00000000000E+00  0.00000000000E+00  0.12853395518E+03  0.71102785531E+03  0.69931368741E+03 0.  0.
        4    1    3    3  502    0  0.61670420010E+02 -0.18039795270E+03  0.36228365916E+03  0.40938701084E+03  0.12699999809E+01 0. -1.
       -4    1    3    3    0  502 -0.61670420010E+02  0.18039795270E+03 -0.23374970398E+03  0.30164084448E+03  0.12699999809E+01 0.  1.
</event>
<event>
 5   0  0.2938783E-03  0.7008397E+03  0.7818609E-02  0.9715797E-01
        1   -1    0    0  501    0  0.00000000000E+00  0.00000000000E+00  0.35598037539E+03  0.35598037542E+03  0.50400001928E-02 0.  1.
       -1   -1    0    0    0  501  0.00000000000E+00  0.00000000000E+00 -0.34494616312E+03  0.34494616316E+03  0.50400001928E-02 0. -1.
    10030    2    1    2    0    0  0.00000000000E+00  0.00000000000E+00  0.11034212266E+02  0.70092653858E+03  0.70083968113E+03 0.  0.
        4    1    3    3  502    0  0.32239462240E+03  0.12221149667E+03 -0.57088649370E+02  0.34947770924E+03  0.12699999809E+01 0.  1.
       -4    1    3    3    0  502 -0.32239462240E+03 -0.12221149667E+03  0.68122861636E+02  0.35144882934E+03  0.12699999809E+01 0. -1.
</event>
<event>
 5   0  0.2937617E-03  0.7008797E+03  0.7818609E-02  0.9715729E-01
        1   -1    0    0  501    0  0.00000000000E+00  0.00000000000E+00  0.31593520550E+03  0.31593520554E+03  0.50400001928E-02 0. -1.
       -1   -1    0    0    0  501  0.00000000000E+00  0.00000000000E+00 -0.38871286754E+03  0.38871286757E+03  0.50400001928E-02 0.  1.
    10030    2    1    2    0    0  0.00000000000E+00  0.00000000000E+00 -0.72777662034E+02  0.70464807311E+03  0.70087967502E+03 0.  0.
        3    1    3    3  502    0 -0.11176127090E+03  0.33209644118E+03 -0.30933646246E+02  0.35176061262E+03  0.10100000352E+00 0. -1.
       -3    1    3    3    0  502  0.11176127090E+03 -0.33209644118E+03 -0.41844015787E+02  0.35288746050E+03  0.10100000352E+00 0.  1.
</event>
<event>
 5   0  0.2913582E-03  0.6989523E+03  0.7818609E-02  0.9719026E-01
       -1   -1    0    0    0  501  0.00000000000E+00  0.00000000000E+00  0.82887139448E+02  0.82887139601E+02  0.50400001928E-02 0.  1.
        1   -1    0    0  501    0  0.00000000000E+00  0.00000000000E+00 -0.14734924940E+04  0.14734924940E+04  0.50400001928E-02 0. -1.
    10030    2    1    2    0    0  0.00000000000E+00  0.00000000000E+00 -0.13906053546E+04  0.15563796336E+04  0.69895229581E+03 0.  0.
        1    1    3    3  502    0 -0.16772603328E+03 -0.20348378656E+03 -0.18462841921E+03  0.32190887971E+03  0.50400001928E-02 0.  1.
       -1    1    3    3    0  502  0.16772603328E+03  0.20348378656E+03 -0.12059769354E+04  0.12344707539E+04  0.50400001928E-02 0. -1.
</event>
<event>
 5   0  0.3013140E-03  0.6975640E+03  0.7818609E-02  0.9721407E-01
       -1   -1    0    0    0  501  0.00000000000E+00  0.00000000000E+00  0.16822454947E+03  0.16822454954E+03  0.50400001928E-02 0.  1.
        1   -1    0    0  501    0  0.00000000000E+00  0.00000000000E+00 -0.72313399678E+03  0.72313399679E+03  0.50400001928E-02 0. -1.
    10030    2    1    2    0    0  0.00000000000E+00  0.00000000000E+00 -0.55490944731E+03  0.89135854634E+03  0.69756402102E+03 0.  0.
        2    1    3    3  502    0  0.39849866213E+02 -0.13988868233E+03 -0.68252854976E+03  0.69785534069E+03  0.25500000920E-02 0. -1.
       -2    1    3    3    0  502 -0.39849866213E+02  0.13988868233E+03  0.12761910245E+03  0.19350320565E+03  0.25500000920E-02 0.  1.
</event>
<event>
 5   0  0.2913582E-03  0.7003516E+03  0.7818609E-02  0.9716631E-01
        1   -1    0    0  501    0  0.00000000000E+00  0.00000000000E+00  0.35435829662E+03  0.35435829665E+03  0.50400001928E-02 0.  1.
       -1   -1    0    0    0  501  0.00000000000E+00  0.00000000000E+00 -0.34604265149E+03  0.34604265153E+03  0.50400001928E-02 0. -1.
    10030    2    1    2    0    0  0.00000000000E+00  0.00000000000E+00  0.83156451259E+01  0.70040094818E+03  0.70035158189E+03 0.  0.
        1    1    3    3  502    0  0.40529022203E+01 -0.32815940972E+03  0.12630594369E+03  0.35165070118E+03  0.50400001928E-02 0.  1.
       -1    1    3    3    0  502 -0.40529022203E+01  0.32815940972E+03 -0.11799029857E+03  0.34875024700E+03  0.50400001928E-02 0. -1.
</event>
<event>
 5   0  0.5023894E-03  0.6997468E+03  0.7818609E-02  0.9717665E-01
       -2   -1    0    0    0  501  0.00000000000E+00  0.00000000000E+00  0.17391102593E+03  0.17391102595E+03  0.25500000920E-02 0. -1.
        2   -1    0    0  501    0  0.00000000000E+00  0.00000000000E+00 -0.70387370228E+03  0.70387370228E+03  0.25500000920E-02 0.  1.
    10030    2    1    2    0    0  0.00000000000E+00  0.00000000000E+00 -0.52996267634E+03  0.87778472823E+03  0.69974680478E+03 0.  0.
        2    1    3    3  502    0  0.10239963491E+03 -0.32584023157E+03 -0.36013523736E+03  0.49634154665E+03  0.25500000920E-02 0.  1.
       -2    1    3    3    0  502 -0.10239963491E+03  0.32584023157E+03 -0.16982743898E+03  0.38144318158E+03  0.25500000920E-02 0. -1.
</event>
<event>
 5   0  0.2938783E-03  0.6978689E+03  0.7818609E-02  0.9720884E-01
        1   -1    0    0  501    0  0.00000000000E+00  0.00000000000E+00  0.52443742554E+03  0.52443742557E+03  0.50400001928E-02 0. -1.
       -1   -1    0    0    0  501  0.00000000000E+00  0.00000000000E+00 -0.23216356756E+03  0.23216356762E+03  0.50400001928E-02 0.  1.
    10030    2    1    2    0    0  0.00000000000E+00  0.00000000000E+00  0.29227385798E+03  0.75660099318E+03  0.69786893815E+03 0.  0.
        4    1    3    3  502    0  0.51065873828E+02  0.13957304158E+03 -0.19613005929E+03  0.24608325920E+03  0.12699999809E+01 0.  1.
       -4    1    3    3    0  502 -0.51065873828E+02 -0.13957304158E+03  0.48840391727E+03  0.51051773398E+03  0.12699999809E+01 0. -1.
</event>
<event>
 5   0  0.4878235E-03  0.6973754E+03  0.7818609E-02  0.9721731E-01
        2   -1    0    0  501    0  0.00000000000E+00  0.00000000000E+00  0.14288519973E+04  0.14288519973E+04  0.25500000920E-02 0.  1.
       -2   -1    0    0    0  501  0.00000000000E+00  0.00000000000E+00 -0.85091454736E+02  0.85091454774E+02  0.25500000920E-02 0. -1.
    10030    2    1    2    0    0  0.00000000000E+00  0.00000000000E+00  0.13437605426E+04  0.15139434521E+04  0.69737535111E+03 0.  0.
        4    1    3    3  502    0  0.23104920789E+02 -0.28358865871E+03  0.11094430542E+04  0.11453479245E+04  0.12699999809E+01 0.  1.
       -4    1    3    3    0  502 -0.23104920789E+02  0.28358865871E+03  0.23431748838E+03  0.36859552761E+03  0.12699999809E+01 0. -1.
</event>
<event>
 5   0  0.2938783E-03  0.6961486E+03  0.7818609E-02  0.9723841E-01
        1   -1    0    0  501    0  0.00000000000E+00  0.00000000000E+00  0.11587084528E+04  0.11587084528E+04  0.50400001928E-02 0.  1.
       -1   -1    0    0    0  501  0.00000000000E+00  0.00000000000E+00 -0.10456100618E+03  0.10456100630E+03  0.50400001928E-02 0. -1.
    10030    2    1    2    0    0  0.00000000000E+00  0.00000000000E+00  0.10541474466E+04  0.12632694591E+04  0.69614860990E+03 0.  0.
        4    1    3    3  502    0  0.41334117217E+02 -0.24857481978E+03  0.96280314755E+03  0.99523337168E+03  0.12699999809E+01 0.  1.
       -4    1    3    3    0  502 -0.41334117217E+02  0.24857481978E+03  0.91344299024E+02  0.26803608738E+03  0.12699999809E+01 0. -1.
</event>
<event>
 5   0  0.2937617E-03  0.7010528E+03  0.7818609E-02  0.9715433E-01
       -1   -1    0    0    0  501  0.00000000000E+00  0.00000000000E+00  0.16463206855E+03  0.16463206863E+03  0.50400001928E-02 0. -1.
        1   -1    0    0  501    0  0.00000000000E+00  0.00000000000E+00 -0.74632330648E+03  0.74632330650E+03  0.50400001928E-02 0.  1.
    10030    2    1    2    0    0  0.00000000000E+00  0.00000000000E+00 -0.58169123793E+03  0.91095537512E+03  0.70105277917E+03 0.  0.
        3    1    3    3  502    0  0.59216211743E+02  0.17039700359E+03 -0.68137640836E+03  0.70485141600E+03  0.10100000352E+00 0.  1.
       -3    1    3    3    0  502 -0.59216211743E+02 -0.17039700359E+03  0.99685170426E+02  0.20610395913E+03  0.10100000352E+00 0. -1.
</event>
<event>
 5   0  0.5023894E-03  0.6999295E+03  0.7818609E-02  0.9717353E-01
        2   -1    0    0  501    0  0.00000000000E+00  0.00000000000E+00  0.63873710985E+03  0.63873710985E+03  0.25500000920E-02 0.  1.
       -2   -1    0    0    0  501  0.00000000000E+00  0.00000000000E+00 -0.19174607298E+03  0.19174607300E+03  0.25500000920E-02 0. -1.
    10030    2    1    2    0    0  0.00000000000E+00  0.00000000000E+00  0.44699103687E+03  0.83048318285E+03  0.69992951785E+03 0.  0.
        2    1    3    3  502    0  0.41893746459E+02 -0.92775498600E+02 -0.17379155064E+03  0.20140973714E+03  0.25500000920E-02 0. -1.
       -2    1    3    3    0  502 -0.41893746459E+02  0.92775498600E+02  0.62078258751E+03  0.62907344571E+03  0.25500000920E-02 0.  1.
</event>
<event>
 5   0  0.5113683E-03  0.6998956E+03  0.7818609E-02  0.9717411E-01
       -2   -1    0    0    0  501  0.00000000000E+00  0.00000000000E+00  0.31204875675E+03  0.31204875676E+03  0.25500000920E-02 0. -1.
        2   -1    0    0  501    0  0.00000000000E+00  0.00000000000E+00 -0.39244979859E+03  0.39244979860E+03  0.25500000920E-02 0.  1.
    10030    2    1    2    0    0  0.00000000000E+00  0.00000000000E+00 -0.80401041842E+02  0.70449855537E+03  0.69989562578E+03 0.  0.
        3    1    3    3  502    0  0.57822582099E+01 -0.15782395982E+03  0.27413777301E+03  0.31637535554E+03  0.10100000352E+00 0. -1.
       -3    1    3    3    0  502 -0.57822582099E+01  0.15782395982E+03 -0.35453881485E+03  0.38812319982E+03  0.10100000352E+00 0.  1.
</event>
<event>
 5   0  0.5076796E-03  0.6992790E+03  0.7818609E-02  0.9718466E-01
        2   -1    0    0  501    0  0.00000000000E+00  0.00000000000E+00  0.62859173630E+03  0.62859173630E+03  0.25500000920E-02 0. -1.
       -2   -1    0    0    0  501  0.00000000000E+00  0.00000000000E+00 -0.19447882893E+03  0.19447882895E+03  0.25500000920E-02 0.  1.
    10030    2    1    2    0    0  0.00000000000E+00  0.00000000000E+00  0.43411290736E+03  0.82307056525E+03  0.69927901373E+03 0.  0.
        5    1    3    3  502    0  0.15410404841E+02  0.30076913690E+03  0.42604475653E+03  0.52176218611E+03  0.46999998093E+01 0. -1.
       -5    1    3    3    0  502 -0.15410404841E+02 -0.30076913690E+03  0.80681508347E+01  0.30130837915E+03  0.46999998093E+01 0.  1.
</event>
<event>
 5   0  0.2938783E-03  0.6961591E+03  0.7818609E-02  0.9723823E-01
        1   -1    0    0  501    0  0.00000000000E+00  0.00000000000E+00  0.13505344512E+04  0.13505344513E+04  0.50400001928E-02 0.  1.
       -1   -1    0    0    0  501  0.00000000000E+00  0.00000000000E+00 -0.89712162857E+02  0.89712162999E+02  0.50400001928E-02 0. -1.
    10030    2    1    2    0    0  0.00000000000E+00  0.00000000000E+00  0.12608222884E+04  0.14402466143E+04  0.69615908166E+03 0.  0.
        4    1    3    3  502    0  0.27019188949E+03 -0.30496365878E+02  0.18082794915E+03  0.32654868790E+03  0.12699999809E+01 0. -1.
       -4    1    3    3    0  502 -0.27019188949E+03  0.30496365878E+02  0.10799943392E+04  0.11136979264E+04  0.12699999809E+01 0.  1.
</event>
<event>
 5   0  0.2913582E-03  0.6999039E+03  0.7818609E-02  0.9717397E-01
        1   -1    0    0  501    0  0.00000000000E+00  0.00000000000E+00  0.29588234584E+03  0.29588234589E+03  0.50400001928E-02 0. -1.
       -1   -1    0    0    0  501  0.00000000000E+00  0.00000000000E+00 -0.41390224649E+03  0.41390224652E+03  0.50400001928E-02 0.  1.
    10030    2    1    2    0    0  0.00000000000E+00  0.00000000000E+00 -0.11801990064E+03  0.70978459241E+03  0.69990390102E+03 0.  0.
        1    1    3    3  502    0 -0.12687513982E+03 -0.88138347255E+02  0.25943044095E+03  0.30194341039E+03  0.50400001928E-02 0. -1.
       -1    1    3    3    0  502  0.12687513982E+03  0.88138347255E+02 -0.37745034159E+03  0.40784118202E+03  0.50400001928E-02 0.  1.
</event>
<event>
 5   0  0.2937617E-03  0.6939602E+03  0.7818609E-02  0.9727617E-01
       -1   -1    0    0    0  501  0.00000000000E+00  0.00000000000E+00  0.17009031417E+03  0.17009031424E+03  0.50400001928E-02 0. -1.
        1   -1    0    0  501    0  0.00000000000E+00  0.00000000000E+00 -0.70783103240E+03  0.70783103242E+03  0.50400001928E-02 0.  1.
    10030    2    1    2    0    0  0.00000000000E+00  0.00000000000E+00 -0.53774071824E+03  0.87792134666E+03  0.69396023724E+03 0.  0.
        3    1    3    3  502    0 -0.34429571932E+03 -0.42256867265E+02 -0.27945540684E+03  0.44544418257E+03  0.10100000352E+00 0. -1.
       -3    1    3    3    0  502  0.34429571932E+03  0.42256867265E+02 -0.25828531140E+03  0.43247716409E+03  0.10100000352E+00 0.  1.
</event>
<event>
 5   0  0.5113683E-03  0.6997721E+03  0.7818609E-02  0.9717622E-01
       -2   -1    0    0    0  501  0.00000000000E+00  0.00000000000E+00  0.13499355298E+03  0.13499355300E+03  0.25500000920E-02 0.  1.
        2   -1    0    0  501    0  0.00000000000E+00  0.00000000000E+00 -0.90686002023E+03  0.90686002024E+03  0.25500000920E-02 0. -1.
    10030    2    1    2    0    0  0.00000000000E+00  0.00000000000E+00 -0.77186646725E+03  0.10418535732E+04  0.69977212348E+03 0.  0.
        3    1    3    3  502    0  0.16698098187E+03 -0.10160488427E+02  0.71592023268E+02  0.18196513904E+03  0.10100000352E+00 0.  1.
       -3    1    3    3    0  502 -0.16698098187E+03  0.10160488427E+02 -0.84345849052E+03  0.85988843419E+03  0.10100000352E+00 0. -1.
</event>
<event>
 5   0  0.5023894E-03  0.7004563E+03  0.7818609E-02  0.9716452E-01
        2   -1    0    0  501    0  0.00000000000E+00  0.00000000000E+00  0.16731629045E+04  0.16731629045E+04  0.25500000920E-02 0. -1.
       -2   -1    0    0    0  501  0.00000000000E+00  0.00000000000E+00 -0.73310120248E+02  0.73310120293E+02  0.25500000920E-02 0.  1.
    10030    2    1    2    0    0  0.00000000000E+00  0.00000000000E+00  0.15998527842E+04  0.17464730248E+04  0.70045634771E+03 0.  0.
        2    1    3    3  502    0  0.45301069648E+02  0.62145796698E+02  0.16518503996E+04  0.16536396311E+04  0.25500000920E-02 0. -1.
       -2    1    3    3    0  502 -0.45301069648E+02 -0.62145796698E+02 -0.51997615395E+02  0.92833393624E+02  0.25500000920E-02 0.  1.
</event>
<event>
 5   0  0.1981750E-03  0.6982588E+03  0.7818609E-02  0.9720215E-01
        4   -1    0    0  501    0  0.00000000000E+00  0.00000000000E+00  0.64056543403E+03  0.64056669300E+03  0.12699999809E+01 0. -1.
       -4   -1    0    0    0  501  0.00000000000E+00  0.00000000000E+00 -0.19028352096E+03  0.19028775906E+03  0.12699999809E+01 0.  1.
    10030    2    1    2    0    0  0.00000000000E+00  0.00000000000E+00  0.45028191307E+03  0.83085445206E+03  0.69825877672E+03 0.  0.
        3    1    3    3  502    0 -0.27639418849E+03 -0.16802620124E+03  0.38148772886E+03  0.50015942379E+03  0.10100000352E+00 0.  1.
       -3    1    3    3    0  502  0.27639418849E+03  0.16802620124E+03  0.68794184216E+02  0.33069502827E+03  0.10100000352E+00 0. -1.
</event>
<event>
 5   0  0.3013140E-03  0.6999996E+03  0.7818609E-02  0.9717233E-01
        1   -1    0    0  501    0  0.00000000000E+00  0.00000000000E+00  0.16768927653E+03  0.16768927660E+03  0.50400001928E-02 0.  1.
       -1   -1    0    0    0  501  0.00000000000E+00  0.00000000000E+00 -0.73051694345E+03  0.73051694347E+03  0.50400001928E-02 0. -1.
    10030    2    1    2    0    0  0.00000000000E+00  0.00000000000E+00 -0.56282766692E+03  0.89820622007E+03  0.69999959366E+03 0.  0.
        2    1    3    3  502    0  0.26726406730E+03 -0.21999031284E+03 -0.34776706619E+03  0.49068090624E+03  0.25500000920E-02 0. -1.
       -2    1    3    3    0  502 -0.26726406730E+03  0.21999031284E+03 -0.21506060073E+03  0.40752531383E+03  0.25500000920E-02 0.  1.
</event>
<event>
 5   0  0.4878235E-03  0.7088203E+03  0.7818609E-02  0.9702266E-01
       -2   -1    0    0    0  501  0.00000000000E+00  0.00000000000E+00  0.25688842418E+03  0.25688842420E+03  0.25500000920E-02 0.  1.
        2   -1    0    0  501    0  0.00000000000E+00  0.00000000000E+00 -0.48895369549E+03  0.48895369550E+03  0.25500000920E-02 0. -1.
    10030    2    1    2    0    0  0.00000000000E+00  0.00000000000E+00 -0.23206527131E+03  0.74584211969E+03  0.70882027155E+03 0.  0.
        4    1    3    3  502    0  0.17539369407E+03  0.81555187269E+02 -0.42851265798E+03  0.47014775065E+03  0.12699999809E+01 0. -1.
       -4    1    3    3    0  502 -0.17539369407E+03 -0.81555187269E+02  0.19644738668E+03  0.27569436904E+03  0.12699999809E+01 0.  1.
</event>
<event>
 5   0  0.2937617E-03  0.7002488E+03  0.7818609E-02  0.9716807E-01
       -1   -1    0    0    0  501  0.00000000000E+00  0.00000000000E+00  0.62101669409E+02  0.62101669613E+02  0.50400001928E-02 0.  1.
        1   -1    0    0  501    0  0.00000000000E+00  0.00000000000E+00 -0.19739739684E+04  0.19739739684E+04  0.50400001928E-02 0. -1.
    10030    2    1    2    0    0  0.00000000000E+00  0.00000000000E+00 -0.19118722989E+04  0.20360756380E+04  0.70024875300E+03 0.  0.
        3    1    3    3  502    0 -0.16930086718E+03  0.16338048566E+02 -0.18457773372E+04  0.18535975033E+04  0.10100000352E+00 0. -1.
       -3    1    3    3    0  502  0.16930086718E+03 -0.16338048566E+02 -0.66094961698E+02  0.18247813464E+03  0.10100000352E+00 0.  1.
</event>
<event>
 5   0  0.5072407E-03  0.7010721E+03  0.7818609E-02  0.9715401E-01
        2   -1    0    0  501    0  0.00000000000E+00  0.00000000000E+00  0.17456263965E+03  0.17456263967E+03  0.25500000920E-02 0. -1.
       -2   -1    0    0    0  501  0.00000000000E+00  0.00000000000E+00 -0.70390503647E+03  0.70390503648E+03  0.25500000920E-02 0.  1.
    10030    2    1    2    0    0  0.00000000000E+00  0.00000000000E+00 -0.52934239683E+03  0.87846767615E+03  0.70107209683E+03 0.  0.
        1    1    3    3  502    0 -0.27799515311E+03 -0.20482073809E+03 -0.18904475223E+03  0.39366325492E+03  0.50400001928E-02 0. -1.
       -1    1    3    3    0  502  0.27799515311E+03  0.20482073809E+03 -0.34029764459E+03  0.48480442123E+03  0.50400001928E-02 0.  1.
</event>
<event>
 5   0  0.1981750E-03  0.7005386E+03  0.7818609E-02  0.9716312E-01
        4   -1    0    0  501    0  0.00000000000E+00  0.00000000000E+00  0.39708785286E+03  0.39708988376E+03  0.12699999809E+01 0. -1.
       -4   -1    0    0    0  501  0.00000000000E+00  0.00000000000E+00 -0.30896672805E+03  0.30896933819E+03  0.12699999809E+01 0.  1.
    10030    2    1    2    0    0  0.00000000000E+00  0.00000000000E+00  0.88121124808E+02  0.70605922196E+03  0.70053857301E+03 0.  0.
        3    1    3    3  502    0  0.20328639968E+03 -0.84828165079E+02  0.31854363070E+03  0.38728701598E+03  0.10100000352E+00 0. -1.
       -3    1    3    3    0  502 -0.20328639968E+03  0.84828165079E+02 -0.23042250589E+03  0.31877220598E+03  0.10100000352E+00 0.  1.
</event>
<event>
 5   0  0.2938783E-03  0.6933931E+03  0.7818609E-02  0.9728598E-01
        1   -1    0    0  501    0  0.00000000000E+00  0.00000000000E+00  0.17913956026E+04  0.17913956026E+04  0.50400001928E-02 0.  1.
       -1   -1    0    0    0  501  0.00000000000E+00  0.00000000000E+00 -0.67097685699E+02  0.67097685888E+02  0.50400001928E-02 0. -1.
    10030    2    1    2    0    0  0.00000000000E+00  0.00000000000E+00  0.17242979169E+04  0.18584932885E+04  0.69339310435E+03 0.  0.
        4    1    3    3  502    0 -0.25428149879E+02 -0.10858057481E+03  0.17420045273E+04  0.17455708860E+04  0.12699999809E+01 0.  1.
       -4    1    3    3    0  502  0.25428149879E+02  0.10858057481E+03 -0.17706610398E+02  0.11292240249E+03  0.12699999809E+01 0. -1.
</event>
<event>
 5   0  0.4878235E-03  0.6998632E+03  0.7818609E-02  0.9717466E-01
       -2   -1    0    0    0  501  0.00000000000E+00  0.00000000000E+00  0.48781562939E+02  0.48781563006E+02  0.25500000920E-02 0. -1.
        2   -1    0    0  501    0  0.00000000000E+00  0.00000000000E+00 -0.25102134020E+04  0.25102134020E+04  0.25500000920E-02 0.  1.
    10030    2    1    2    0    0  0.00000000000E+00  0.00000000000E+00 -0.24614318391E+04  0.25589949650E+04  0.69986322420E+03 0.  0.
        4    1    3    3  502    0  0.21097190216E+03  0.53701041029E+02 -0.22897936386E+03  0.31595269786E+03  0.12699999809E+01 0. -1.
       -4    1    3    3    0  502 -0.21097190216E+03 -0.53701041029E+02 -0.22324524752E+04  0.22430422671E+04  0.12699999809E+01 0.  1.
</event>
<event>
 5   0  0.5023894E-03  0.6978368E+03  0.7818609E-02  0.9720939E-01
        2   -1    0    0  501    0  0.00000000000E+00  0.00000000000E+00  0.14203987943E+04  0.14203987943E+04  0.25500000920E-02 0.  1.
       -2   -1    0    0    0  501  0.00000000000E+00  0.00000000000E+00 -0.85711170444E+02  0.85711170482E+02  0.25500000920E-02 0. -1.
    10030    2    1    2    0    0  0.00000000000E+00  0.00000000000E+00  0.13346876238E+04  0.15061099648E+04  0.69783678088E+03 0.  0.
        2    1    3    3  502    0  0.12185373243E+03 -0.51648779696E+02  0.13641231548E+04  0.13705283324E+04  0.25500000920E-02 0.  1.
       -2    1    3    3    0  502 -0.12185373243E+03  0.51648779696E+02 -0.29435530915E+02  0.13558163237E+03  0.25500000920E-02 0. -1.
</event>
<event>
 5   0  0.2934483E-03  0.7038387E+03  0.7818609E-02  0.9710690E-01
        1   -1    0    0  501    0  0.00000000000E+00  0.00000000000E+00  0.40007423072E+03  0.40007423075E+03  0.50400001928E-02 0. -1.
       -1   -1    0    0    0  501  0.00000000000E+00  0.00000000000E+00 -0.30956062383E+03  0.30956062387E+03  0.50400001928E-02 0.  1.
    10030    2    1    2    0    0  0.00000000000E+00  0.00000000000E+00  0.90513606896E+02  0.70963485462E+03  0.70383869875E+03 0.  0.
        5    1    3    3  502    0 -0.13135140539E+03  0.35384239198E+02 -0.28194600339E+03  0.31308285630E+03  0.46999998093E+01 0.  1.
       -5    1    3    3    0  502  0.13135140539E+03 -0.35384239198E+02  0.37245961029E+03  0.39655199832E+03  0.46999998093E+01 0. -1.
</event>
<event>
 5   0  0.5076796E-03  0.6919859E+03  0.7818609E-02  0.9731036E-01
       -2   -1    0    0    0  501  0.00000000000E+00  0.00000000000E+00  0.57708949643E+02  0.57708949700E+02  0.25500000920E-02 0. -1.
        2   -1    0    0  501    0  0.00000000000E+00  0.00000000000E+00 -0.20743941736E+04  0.20743941736E+04  0.25500000920E-02 0.  1.
    10030    2    1    2    0    0  0.00000000000E+00  0.00000000000E+00 -0.20166852239E+04  0.21321031233E+04  0.69198586392E+03 0.  0.
        5    1    3    3  502    0 -0.17575922260E+03  0.14366205018E+02 -0.91263954184E+02  0.19861745015E+03  0.46999998093E+01 0. -1.
       -5    1    3    3    0  502  0.17575922260E+03 -0.14366205018E+02 -0.19254212697E+04  0.19334856731E+04  0.46999998093E+01 0.  1.
</event>
<event>
 5   0  0.5023894E-03  0.6995239E+03  0.7818609E-02  0.9718047E-01
       -2   -1    0    0    0  501  0.00000000000E+00  0.00000000000E+00  0.12008536750E+03  0.12008536753E+03  0.25500000920E-02 0.  1.
        2   -1    0    0  501    0  0.00000000000E+00  0.00000000000E+00 -0.10187203226E+04  0.10187203226E+04  0.25500000920E-02 0. -1.
    10030    2    1    2    0    0  0.00000000000E+00  0.00000000000E+00 -0.89863495511E+03  0.11388056901E+04  0.69952385046E+03 0.  0.
        2    1    3    3  502    0  0.11283577227E+03 -0.24061991683E+03 -0.79142313911E+02  0.27729652312E+03  0.25500000920E-02 0.  1.
       -2    1    3    3    0  502 -0.11283577227E+03  0.24061991683E+03 -0.81949264120E+03  0.86150916702E+03  0.25500000920E-02 0. -1.
</event>
<event>
 5   0  0.1981750E-03  0.7001241E+03  0.7818609E-02  0.9717020E-01
       -4   -1    0    0    0  501  0.00000000000E+00  0.00000000000E+00  0.22025751499E+03  0.22026117636E+03  0.12699999809E+01 0.  1.
        4   -1    0    0  501    0  0.00000000000E+00  0.00000000000E+00 -0.55635543268E+03  0.55635688220E+03  0.12699999809E+01 0. -1.
    10030    2    1    2    0    0  0.00000000000E+00  0.00000000000E+00 -0.33609791769E+03  0.77661805855E+03  0.70012413085E+03 0.  0.
        4    1    3    3  502    0 -0.95819425729E+01 -0.65026641058E+02 -0.54944903864E+03  0.55336799387E+03  0.12699999809E+01 0. -1.
       -4    1    3    3    0  502  0.95819425729E+01  0.65026641058E+02  0.21335112095E+03  0.22325006469E+03  0.12699999809E+01 0.  1.
</event>
<event>
 5   0  0.2937617E-03  0.7000483E+03  0.7818609E-02  0.9717150E-01
       -1   -1    0    0    0  501  0.00000000000E+00  0.00000000000E+00  0.32376182724E+03  0.32376182728E+03  0.50400001928E-02 0.  1.
        1   -1    0    0  501    0  0.00000000000E+00  0.00000000000E+00 -0.37841674200E+03  0.37841674203E+03  0.50400001928E-02 0. -1.
    10030    2    1    2    0    0  0.00000000000E+00  0.00000000000E+00 -0.54654914762E+02  0.70217856931E+03  0.70004827226E+03 0.  0.
        3    1    3    3  502    0  0.17910570677E+03  0.10008656820E+03  0.25712096857E+03  0.32894889878E+03  0.10100000352E+00 0.  1.
       -3    1    3    3    0  502 -0.17910570677E+03 -0.10008656820E+03 -0.31177588333E+03  0.37322967053E+03  0.10100000352E+00 0. -1.
</event>
<event>
 5   0  0.5072407E-03  0.7005357E+03  0.7818609E-02  0.9716317E-01
       -2   -1    0    0    0  501  0.00000000000E+00  0.00000000000E+00  0.10554869526E+03  0.10554869529E+03  0.25500000920E-02 0.  1.
        2   -1    0    0  501    0  0.00000000000E+00  0.00000000000E+00 -0.11623787653E+04  0.11623787653E+04  0.25500000920E-02 0. -1.
    10030    2    1    2    0    0  0.00000000000E+00  0.00000000000E+00 -0.10568300701E+04  0.12679274606E+04  0.70053568673E+03 0.  0.
        1    1    3    3  502    0 -0.33356988796E+03 -0.93683928887E+02 -0.43538318647E+03  0.55642076505E+03  0.50400001928E-02 0. -1.
       -1    1    3    3    0  502  0.33356988796E+03  0.93683928887E+02 -0.62144688361E+03  0.71150669558E+03  0.50400001928E-02 0.  1.
</event>
<event>
 5   0  0.2937617E-03  0.7010045E+03  0.7818609E-02  0.9715516E-01
        1   -1    0    0  501    0  0.00000000000E+00  0.00000000000E+00  0.13657301103E+04  0.13657301103E+04  0.50400001928E-02 0.  1.
       -1   -1    0    0    0  501  0.00000000000E+00  0.00000000000E+00 -0.89953234646E+02  0.89953234788E+02  0.50400001928E-02 0. -1.
    10030    2    1    2    0    0  0.00000000000E+00  0.00000000000E+00  0.12757768757E+04  0.14556833451E+04  0.70100453975E+03 0.  0.
        3    1    3    3  502    0  0.68449073822E+02  0.13265292080E+03 -0.20647961784E+02  0.15069313731E+03  0.10100000352E+00 0. -1.
       -3    1    3    3    0  502 -0.68449073822E+02 -0.13265292080E+03  0.12964248375E+04  0.13049902078E+04  0.10100000352E+00 0.  1.
</event>
<event>
 5   0  0.5023894E-03  0.6995135E+03  0.7818609E-02  0.9718065E-01
        2   -1    0    0  501    0  0.00000000000E+00  0.00000000000E+00  0.27078277765E+03  0.27078277766E+03  0.25500000920E-02 0.  1.
       -2   -1    0    0    0  501  0.00000000000E+00  0.00000000000E+00 -0.45176355004E+03  0.45176355005E+03  0.25500000920E-02 0. -1.
    10030    2    1    2    0    0  0.00000000000E+00  0.00000000000E+00 -0.18098077239E+03  0.72254632771E+03  0.69951351360E+03 0.  0.
        2    1    3    3  502    0  0.33120338003E+03 -0.81957331243E+02 -0.11034832620E+02  0.34137142620E+03  0.25500000920E-02 0.  1.
       -2    1    3    3    0  502 -0.33120338003E+03  0.81957331243E+02 -0.16994593977E+03  0.38117490151E+03  0.25500000920E-02 0. -1.
</event>
<event>
 5   0  0.5113683E-03  0.7006442E+03  0.7818609E-02  0.9716131E-01
       -2   -1    0    0    0  501  0.00000000000E+00  0.00000000000E+00  0.92261984874E+02  0.92261984909E+02  0.25500000920E-02 0.  1.
        2   -1    0    0  501    0  0.00000000000E+00  0.00000000000E+00 -0.13301857444E+04  0.13301857444E+04  0.25500000920E-02 0. -1.
    10030    2    1    2    0    0  0.00000000000E+00  0.00000000000E+00 -0.12379237595E+04  0.14224477293E+04  0.70064420944E+03 0.  0.
        3    1    3    3  502    0 -0.70551707441E+02 -0.40135295655E+02 -0.13108317532E+04  0.13133424081E+04  0.10100000352E+00 0. -1.
       -3    1    3    3    0  502  0.70551707441E+02  0.40135295655E+02  0.72907993688E+02  0.10910532125E+03  0.10100000352E+00 0.  1.
</event>
<event>
 5   0  0.5072407E-03  0.7022467E+03  0.7818609E-02  0.9713398E-01
       -2   -1    0    0    0  501  0.00000000000E+00  0.00000000000E+00  0.17292795173E+03  0.17292795175E+03  0.25500000920E-02 0.  1.
        2   -1    0    0  501    0  0.00000000000E+00  0.00000000000E+00 -0.71294212216E+03  0.71294212216E+03  0.25500000920E-02 0. -1.
    10030    2    1    2    0    0  0.00000000000E+00  0.00000000000E+00 -0.54001417043E+03  0.88587007391E+03  0.70224673982E+03 0.  0.
        1    1    3    3  502    0  0.29600046129E+03  0.13323399775E+03 -0.43887607415E+03  0.54587524191E+03  0.50400001928E-02 0. -1.
       -1    1    3    3    0  502 -0.29600046129E+03 -0.13323399775E+03 -0.10113809627E+03  0.33999483200E+03  0.50400001928E-02 0.  1.
</event>
<event>
 5   0  0.5076796E-03  0.7006473E+03  0.7818609E-02  0.9716126E-01
       -2   -1    0    0    0  501  0.00000000000E+00  0.00000000000E+00  0.16954277324E+03  0.16954277326E+03  0.25500000920E-02 0.  1.
        2   -1    0    0  501    0  0.00000000000E+00  0.00000000000E+00 -0.72386834831E+03  0.72386834831E+03  0.25500000920E-02 0. -1.
    10030    2    1    2    0    0  0.00000000000E+00  0.00000000000E+00 -0.55432557506E+03  0.89341112158E+03  0.70064726431E+03 0.  0.
        5    1    3    3  502    0 -0.26231450302E+02  0.34751119766E+03 -0.23203649503E+03  0.41870651596E+03  0.46999998093E+01 0. -1.
       -5    1    3    3    0  502  0.26231450302E+02 -0.34751119766E+03 -0.32228908003E+03  0.47470460561E+03  0.46999998093E+01 0.  1.
</event>
<event>
 5   0  0.2938783E-03  0.6994379E+03  0.7818609E-02  0.9718194E-01
       -1   -1    0    0    0  501  0.00000000000E+00  0.00000000000E+00  0.46439815610E+03  0.46439815612E+03  0.50400001928E-02 0.  1.
        1   -1    0    0  501    0  0.00000000000E+00  0.00000000000E+00 -0.26335881387E+03  0.26335881392E+03  0.50400001928E-02 0. -1.
    10030    2    1    2    0    0  0.00000000000E+00  0.00000000000E+00  0.20103934223E+03  0.72775697004E+03  0.69943791027E+03 0.  0.
        4    1    3    3  502    0 -0.23798130165E+03  0.25251028670E+03  0.55103937303E+02  0.35133260827E+03  0.12699999809E+01 0.  1.
       -4    1    3    3    0  502  0.23798130165E+03 -0.25251028670E+03  0.14593540492E+03  0.37642436177E+03  0.12699999809E+01 0. -1.
</event>
<event>
 5   0  0.2937617E-03  0.7011166E+03  0.7818609E-02  0.9715325E-01
       -1   -1    0    0    0  501  0.00000000000E+00  0.00000000000E+00  0.69200182360E+02  0.69200182543E+02  0.50400001928E-02 0.  1.
        1   -1    0    0  501    0  0.00000000000E+00  0.00000000000E+00 -0.17758785744E+04  0.17758785744E+04  0.50400001928E-02 0. -1.
    10030    2    1    2    0    0  0.00000000000E+00  0.00000000000E+00 -0.17066783920E+04  0.18450787569E+04  0.70111659907E+03 0.  0.
        3    1    3    3  502    0  0.10275443005E+03  0.63154934077E+02 -0.17195573428E+04  0.17237820292E+04  0.10100000352E+00 0. -1.
       -3    1    3    3    0  502 -0.10275443005E+03 -0.63154934077E+02  0.12878950805E+02  0.12129672777E+03  0.10100000352E+00 0.  1.
</event>
<event>
 5   0  0.1981750E-03  0.6952054E+03  0.7818609E-02  0.9725467E-01
        3   -1    0    0  501    0  0.00000000000E+00  0.00000000000E+00  0.86366565667E+03  0.86366566257E+03  0.10100000352E+00 0. -1.
       -3   -1    0    0    0  501  0.00000000000E+00  0.00000000000E+00 -0.13990090615E+03  0.13990094261E+03  0.10100000352E+00 0.  1.
    10030    2    1    2    0    0  0.00000000000E+00  0.00000000000E+00  0.72376475052E+03  0.10035666052E+04  0.69520537753E+03 0.  0.
        4    1    3    3  502    0  0.32077618604E+02 -0.66704521926E+02 -0.12838982094E+03  0.14820265140E+03  0.12699999809E+01 0.  1.
       -4    1    3    3    0  502 -0.32077618604E+02  0.66704521926E+02  0.85215457146E+03  0.85536395378E+03  0.12699999809E+01 0. -1.
</event>
<event>
 5   0  0.4878235E-03  0.6987239E+03  0.7818609E-02  0.9719417E-01
        2   -1    0    0  501    0  0.00000000000E+00  0.00000000000E+00  0.20105188598E+03  0.20105188599E+03  0.25500000920E-02 0. -1.
       -2   -1    0    0    0  501  0.00000000000E+00  0.00000000000E+00 -0.60707594849E+03  0.60707594849E+03  0.25500000920E-02 0.  1.
    10030    2    1    2    0    0  0.00000000000E+00  0.00000000000E+00 -0.40602406251E+03  0.80812783448E+03  0.69872387789E+03 0.  0.
        4    1    3    3  502    0 -0.95826096135E+01 -0.15720238068E+03  0.15766146652E+03  0.22285234086E+03  0.12699999809E+01 0. -1.
       -4    1    3    3    0  502  0.95826096135E+01  0.15720238068E+03 -0.56368552903E+03  0.58527549363E+03  0.12699999809E+01 0.  1.
</event>
<event>
 5   0  0.2938783E-03  0.7003273E+03  0.7818609E-02  0.9716673E-01
        1   -1    0    0  501    0  0.00000000000E+00  0.00000000000E+00  0.29690158733E+03  0.29690158738E+03  0.50400001928E-02 0.  1.
       -1   -1    0    0    0  501  0.00000000000E+00  0.00000000000E+00 -0.41298053743E+03  0.41298053746E+03  0.50400001928E-02 0. -1.
    10030    2    1    2    0    0  0.00000000000E+00  0.00000000000E+00 -0.11607895010E+03  0.70988212484E+03  0.70032728671E+03 0.  0.
        4    1    3    3  502    0  0.17650842360E+03 -0.23725554408E+03 -0.24812814568E+03  0.38602410077E+03  0.12699999809E+01 0. -1.
       -4    1    3    3    0  502 -0.17650842360E+03  0.23725554408E+03  0.13204919558E+03  0.32385802407E+03  0.12699999809E+01 0.  1.
</event>
<event>
 5   0  0.1981750E-03  0.7000639E+03  0.7818609E-02  0.9717123E-01
        3   -1    0    0  501    0  0.00000000000E+00  0.00000000000E+00  0.31285117550E+03  0.31285119180E+03  0.10100000352E+00 0.  1.
       -3   -1    0    0    0  501  0.00000000000E+00  0.00000000000E+00 -0.39163146820E+03  0.39163148122E+03  0.10100000352E+00 0. -1.
    10030    2    1    2    0    0  0.00000000000E+00  0.00000000000E+00 -0.78780292699E+02  0.70448267302E+03  0.70006392713E+03 0.  0.
        4    1    3    3  502    0  0.14035512507E+03  0.26555598940E+03  0.14146966160E+03  0.33201629883E+03  0.12699999809E+01 0.  1.
       -4    1    3    3    0  502 -0.14035512507E+03 -0.26555598940E+03 -0.22024995430E+03  0.37246637419E+03  0.12699999809E+01 0. -1.
</event>
<event>
 5   0  0.2913582E-03  0.7007817E+03  0.7818609E-02  0.9715896E-01
       -1   -1    0    0    0  501  0.00000000000E+00  0.00000000000E+00  0.22646072005E+03  0.22646072011E+03  0.50400001928E-02 0.  1.
        1   -1    0    0  501    0  0.00000000000E+00  0.00000000000E+00 -0.54214139343E+03  0.54214139345E+03  0.50400001928E-02 0. -1.
    10030    2    1    2    0    0  0.00000000000E+00  0.00000000000E+00 -0.31568067338E+03  0.76860211356E+03  0.70078165032E+03 0.  0.
        1    1    3    3  502    0  0.90992539225E+02  0.32207764434E+03 -0.44070643740E+02  0.33757350732E+03  0.50400001928E-02 0.  1.
       -1    1    3    3    0  502 -0.90992539225E+02 -0.32207764434E+03 -0.27161002964E+03  0.43102860624E+03  0.50400001928E-02 0. -1.
</event>
<event>
 5   0  0.5072407E-03  0.7002141E+03  0.7818609E-02  0.9716866E-01
        2   -1    0    0  501    0  0.00000000000E+00  0.00000000000E+00  0.94687845449E+03  0.94687845449E+03  0.25500000920E-02 0. -1.
       -2   -1    0    0    0  501  0.00000000000E+00  0.00000000000E+00 -0.12945160027E+03  0.12945160030E+03  0.25500000920E-02 0.  1.
    10030    2    1    2    0    0  0.00000000000E+00  0.00000000000E+00  0.81742685422E+03  0.10763300548E+04  0.70021405646E+03 0.  0.
        1    1    3    3  502    0  0.45664094485E+02  0.28205748077E+02 -0.12308998396E+03  0.13428297706E+03  0.50400001928E-02 0.  1.
       -1    1    3    3    0  502 -0.45664094485E+02 -0.28205748077E+02  0.94051683818E+03  0.94204707774E+03  0.50400001928E-02 0. -1.
</event>
<event>
 5   0  0.2934483E-03  0.7023670E+03  0.7818609E-02  0.9713193E-01
       -1   -1    0    0    0  501  0.00000000000E+00  0.00000000000E+00  0.22113397355E+03  0.22113397361E+03  0.50400001928E-02 0. -1.
        1   -1    0    0  501    0  0.00000000000E+00  0.00000000000E+00 -0.55771546720E+03  0.55771546722E+03  0.50400001928E-02 0.  1.
    10030    2    1    2    0    0  0.00000000000E+00  0.00000000000E+00 -0.33658149364E+03  0.77884944083E+03  0.70236696222E+03 0.  0.
        5    1    3    3  502    0 -0.82348662787E+02 -0.60360874953E+02 -0.54085718321E+03  0.55043012283E+03  0.46999998093E+01 0.  1.
       -5    1    3    3    0  502  0.82348662787E+02  0.60360874953E+02  0.20427568957E+03  0.22841931800E+03  0.46999998093E+01 0. -1.
</event>
<event>
 5   0  0.4878235E-03  0.6996742E+03  0.7818609E-02  0.9717790E-01
       -2   -1    0    0    0  501  0.00000000000E+00  0.00000000000E+00  0.22260554152E+03  0.22260554154E+03  0.25500000920E-02 0.  1.
        2   -1    0    0  501    0  0.00000000000E+00  0.00000000000E+00 -0.54978859391E+03  0.54978859392E+03  0.25500000920E-02 0. -1.
    10030    2    1    2    0    0  0.00000000000E+00  0.00000000000E+00 -0.32718305239E+03  0.77239413546E+03  0.69967417468E+03 0.  0.
        4    1    3    3  502    0 -0.19664387727E+03 -0.20536645070E+03  0.61405779216E+02  0.29088911317E+03  0.12699999809E+01 0.  1.
       -4    1    3    3    0  502  0.19664387727E+03  0.20536645070E+03 -0.38858883160E+03  0.48150502229E+03  0.12699999809E+01 0. -1.
</event>
<event>
 5   0  0.5072407E-03  0.7018147E+03  0.7818609E-02  0.9714134E-01
       -2   -1    0    0    0  501  0.00000000000E+00  0.00000000000E+00  0.98954691882E+02  0.98954691915E+02  0.25500000920E-02 0.  1.
        2   -1    0    0  501    0  0.00000000000E+00  0.00000000000E+00 -0.12443672461E+04  0.12443672461E+04  0.25500000920E-02 0. -1.
    10030    2    1    2    0    0  0.00000000000E+00  0.00000000000E+00 -0.11454125542E+04  0.13433219380E+04  0.70181472612E+03 0.  0.
        1    1    3    3  502    0 -0.24657249973E+02 -0.13429884151E+03  0.46020304570E+02  0.14409034411E+03  0.50400001928E-02 0.  1.
       -1    1    3    3    0  502  0.24657249973E+02  0.13429884151E+03 -0.11914328588E+04  0.11992315939E+04  0.50400001928E-02 0. -1.
</event>
<event>
 5   0  0.5113683E-03  0.6996996E+03  0.7818609E-02  0.9717746E-01
       -2   -1    0    0    0  501  0.00000000000E+00  0.00000000000E+00  0.51031474981E+03  0.51031474981E+03  0.25500000920E-02 0.  1.
        2   -1    0    0  501    0  0.00000000000E+00  0.00000000000E+00 -0.23984192671E+03  0.23984192673E+03  0.25500000920E-02 0. -1.
    10030    2    1    2    0    0  0.00000000000E+00  0.00000000000E+00  0.27047282309E+03  0.75015667654E+03  0.69969957219E+03 0.  0.
        3    1    3    3  502    0  0.35643250233E+02  0.26139227463E+03 -0.11111279239E+03  0.28625587392E+03  0.10100000352E+00 0. -1.
       -3    1    3    3    0  502 -0.35643250233E+02 -0.26139227463E+03  0.38158561548E+03  0.46390080262E+03  0.10100000352E+00 0.  1.
</event>
<event>
 5   0  0.5023894E-03  0.6992563E+03  0.7818609E-02  0.9718505E-01
        2   -1    0    0  501    0  0.00000000000E+00  0.00000000000E+00  0.18917652191E+03  0.18917652193E+03  0.25500000920E-02 0. -1.
       -2   -1    0    0    0  501  0.00000000000E+00  0.00000000000E+00 -0.64616820867E+03  0.64616820868E+03  0.25500000920E-02 0.  1.
    10030    2    1    2    0    0  0.00000000000E+00  0.00000000000E+00 -0.45699168676E+03  0.83534473060E+03  0.69925633152E+03 0.  0.
        2    1    3    3  502    0  0.23224967881E+03  0.15537572854E+03  0.22539933682E+02  0.28033832943E+03  0.25500000920E-02 0. -1.
       -2    1    3    3    0  502 -0.23224967881E+03 -0.15537572854E+03 -0.47953162045E+03  0.55500640117E+03  0.25500000920E-02 0.  1.
</event>
<event>
 5   0  0.5072407E-03  0.7000615E+03  0.7818609E-02  0.9717127E-01
        2   -1    0    0  501    0  0.00000000000E+00  0.00000000000E+00  0.45666990568E+03  0.45666990569E+03  0.25500000920E-02 0.  1.
       -2   -1    0    0    0  501  0.00000000000E+00  0.00000000000E+00 -0.26829341038E+03  0.26829341039E+03  0.25500000920E-02 0. -1.
    10030    2    1    2    0    0  0.00000000000E+00  0.00000000000E+00  0.18837649530E+03  0.72496331608E+03  0.70006150135E+03 0.  0.
        1    1    3    3  502    0  0.24234404268E+03  0.24895960039E+03  0.50130714941E+02  0.35103362554E+03  0.50400001928E-02 0.  1.
       -1    1    3    3    0  502 -0.24234404268E+03 -0.24895960039E+03  0.13824578036E+03  0.37392969054E+03  0.50400001928E-02 0. -1.
</event>
<event>
 5   0  0.5076796E-03  0.7042761E+03  0.7818609E-02  0.9709947E-01
        2   -1    0    0  501    0  0.00000000000E+00  0.00000000000E+00  0.31151355792E+03  0.31151355793E+03  0.25500000920E-02 0. -1.
       -2   -1    0    0    0  501  0.00000000000E+00  0.00000000000E+00 -0.39806042567E+03  0.39806042568E+03  0.25500000920E-02 0.  1.
    10030    2    1    2    0    0  0.00000000000E+00  0.00000000000E+00 -0.86546867745E+02  0.70957398361E+03  0.70427613753E+03 0.  0.
        5    1    3    3  502    0  0.29537305346E+03  0.18229273695E+03 -0.10290690348E+03  0.36206049693E+03  0.46999998093E+01 0.  1.
       -5    1    3    3    0  502 -0.29537305346E+03 -0.18229273695E+03  0.16360035734E+02  0.34751348668E+03  0.46999998093E+01 0. -1.
</event>
<event>
 5   0  0.1981750E-03  0.7007168E+03  0.7818609E-02  0.9716007E-01
       -3   -1    0    0    0  501  0.00000000000E+00  0.00000000000E+00  0.36502254959E+03  0.36502256356E+03  0.10100000352E+00 0.  1.
        3   -1    0    0  501    0  0.00000000000E+00  0.00000000000E+00 -0.33628335192E+03  0.33628336709E+03  0.10100000352E+00 0. -1.
    10030    2    1    2    0    0  0.00000000000E+00  0.00000000000E+00  0.28739197661E+02  0.70130593065E+03  0.70071682360E+03 0.  0.
        3    1    3    3  502    0  0.92461256745E+02  0.17205557336E+03 -0.27673366446E+03  0.33872368616E+03  0.10100000352E+00 0. -1.
       -3    1    3    3    0  502 -0.92461256745E+02 -0.17205557336E+03  0.30547286212E+03  0.36258224448E+03  0.10100000352E+00 0.  1.
</event>
<event>
 5   0  0.5023894E-03  0.6996971E+03  0.7818609E-02  0.9717750E-01
        2   -1    0    0  501    0  0.00000000000E+00  0.00000000000E+00  0.21105539525E+04  0.21105539525E+04  0.25500000920E-02 0. -1.
       -2   -1    0    0    0  501  0.00000000000E+00  0.00000000000E+00 -0.57991413254E+02  0.57991413310E+02  0.25500000920E-02 0.  1.
    10030    2    1    2    0    0  0.00000000000E+00  0.00000000000E+00  0.20525625393E+04  0.21685453658E+04  0.69969709594E+03 0.  0.
        2    1    3    3  502    0  0.31362803810E+03 -0.13828705922E+03  0.80915252020E+03  0.87875688218E+03  0.25500000920E-02 0. -1.
       -2    1    3    3    0  502 -0.31362803810E+03  0.13828705922E+03  0.12434100191E+04  0.12897884836E+04  0.25500000920E-02 0.  1.
</event>
<event>
 5   0  0.2937617E-03  0.7008044E+03  0.7818609E-02  0.9715858E-01
       -1   -1    0    0    0  501  0.00000000000E+00  0.00000000000E+00  0.20873180980E+03  0.20873180986E+03  0.50400001928E-02 0. -1.
        1   -1    0    0  501    0  0.00000000000E+00  0.00000000000E+00 -0.58822703607E+03  0.58822703609E+03  0.50400001928E-02 0.  1.
    10030    2    1    2    0    0  0.00000000000E+00  0.00000000000E+00 -0.37949522626E+03  0.79695884595E+03  0.70080437740E+03 0.  0.
        3    1    3    3  502    0 -0.22720335856E+03 -0.26539683115E+03 -0.22036442896E+03  0.41305851386E+03  0.10100000352E+00 0. -1.
       -3    1    3    3    0  502  0.22720335856E+03  0.26539683115E+03 -0.15913079731E+03  0.38390033209E+03  0.10100000352E+00 0.  1.
</event>
<event>
 5   0  0.2913582E-03  0.7157386E+03  0.7818609E-02  0.9690689E-01
        1   -1    0    0  501    0  0.00000000000E+00  0.00000000000E+00  0.14204851832E+03  0.14204851841E+03  0.50400001928E-02 0. -1.
       -1   -1    0    0    0  501  0.00000000000E+00  0.00000000000E+00 -0.90159644337E+03  0.90159644338E+03  0.50400001928E-02 0.  1.
    10030    2    1    2    0    0  0.00000000000E+00  0.00000000000E+00 -0.75954792505E+03  0.10436449618E+04  0.71573860858E+03 0.  0.
        1    1    3    3  502    0  0.31115876056E+03  0.11238092826E+03 -0.57875059240E+03  0.66663445421E+03  0.50400001928E-02 0.  1.
       -1    1    3    3    0  502 -0.31115876056E+03 -0.11238092826E+03 -0.18079733266E+03  0.37701050758E+03  0.50400001928E-02 0. -1.
</event>
<event>
 5   0  0.5023894E-03  0.7034231E+03  0.7818609E-02  0.9711396E-01
       -2   -1    0    0    0  501  0.00000000000E+00  0.00000000000E+00  0.10889170808E+03  0.10889170811E+03  0.25500000920E-02 0. -1.
        2   -1    0    0  501    0  0.00000000000E+00  0.00000000000E+00 -0.11360001632E+04  0.11360001632E+04  0.25500000920E-02 0.  1.
    10030    2    1    2    0    0  0.00000000000E+00  0.00000000000E+00 -0.10271084551E+04  0.12448918713E+04  0.70342305385E+03 0.  0.
        2    1    3    3  502    0 -0.26991078796E+03 -0.22512956174E+03 -0.49076306861E+03  0.60364189926E+03  0.25500000920E-02 0. -1.
       -2    1    3    3    0  502  0.26991078796E+03  0.22512956174E+03 -0.53634538653E+03  0.64124997207E+03  0.25500000920E-02 0.  1.
</event>
<event>
 5   0  0.5076796E-03  0.6990760E+03  0.7818609E-02  0.9718814E-01
        2   -1    0    0  501    0  0.00000000000E+00  0.00000000000E+00  0.83399157634E+03  0.83399157635E+03  0.25500000920E-02 0.  1.
       -2   -1    0    0    0  501  0.00000000000E+00  0.00000000000E+00 -0.14649643918E+03  0.14649643920E+03  0.25500000920E-02 0. -1.
    10030    2    1    2    0    0  0.00000000000E+00  0.00000000000E+00  0.68749513716E+03  0.98048801555E+03  0.69907595082E+03 0.  0.
        5    1    3    3  502    0  0.25003082151E+03 -0.23823757837E+03  0.26845081052E+03  0.43744769187E+03  0.46999998093E+01 0. -1.
       -5    1    3    3    0  502 -0.25003082151E+03  0.23823757837E+03  0.41904432664E+03  0.54304032368E+03  0.46999998093E+01 0.  1.
</event>
<event>
 5   0  0.5076796E-03  0.6993395E+03  0.7818609E-02  0.9718362E-01
        2   -1    0    0  501    0  0.00000000000E+00  0.00000000000E+00  0.11571903636E+04  0.11571903636E+04  0.25500000920E-02 0.  1.
       -2   -1    0    0    0  501  0.00000000000E+00  0.00000000000E+00 -0.10566017130E+03  0.10566017133E+03  0.25500000920E-02 0. -1.
    10030    2    1    2    0    0  0.00000000000E+00  0.00000000000E+00  0.10515301923E+04  0.12628505349E+04  0.69933949428E+03 0.  0.
        5    1    3    3  502    0 -0.30581635531E+03  0.64213184400E+02  0.80898923610E+03  0.86725581597E+03  0.46999998093E+01 0.  1.
       -5    1    3    3    0  502  0.30581635531E+03 -0.64213184400E+02  0.24254095616E+03  0.39559471892E+03  0.46999998093E+01 0. -1.
</event>
<event>
 5   0  0.2938783E-03  0.7017798E+03  0.7818609E-02  0.9714193E-01
        1   -1    0    0  501    0  0.00000000000E+00  0.00000000000E+00  0.32438389725E+03  0.32438389729E+03  0.50400001928E-02 0.  1.
       -1   -1    0    0    0  501  0.00000000000E+00  0.00000000000E+00 -0.37956178581E+03  0.37956178585E+03  0.50400001928E-02 0. -1.
    10030    2    1    2    0    0  0.00000000000E+00  0.00000000000E+00 -0.55177888561E+02  0.70394568314E+03  0.70177982689E+03 0.  0.
        4    1    3    3  502    0  0.21004800006E+03 -0.35463589136E+01 -0.30950682440E+03  0.37407061665E+03  0.12699999809E+01 0. -1.
       -4    1    3    3    0  502 -0.21004800006E+03  0.35463589136E+01  0.25432893583E+03  0.32987506649E+03  0.12699999809E+01 0.  1.
</event>
<event>
 5   0  0.2934483E-03  0.6979322E+03  0.7818609E-02  0.9720775E-01
        1   -1    0    0  501    0  0.00000000000E+00  0.00000000000E+00  0.91618574183E+03  0.91618574184E+03  0.50400001928E-02 0. -1.
       -1   -1    0    0    0  501  0.00000000000E+00  0.00000000000E+00 -0.13291772563E+03  0.13291772572E+03  0.50400001928E-02 0.  1.
    10030    2    1    2    0    0  0.00000000000E+00  0.00000000000E+00  0.78326801620E+03  0.10491034676E+04  0.69793216036E+03 0.  0.
        5    1    3    3  502    0 -0.11702828737E+03 -0.11604063653E+03  0.85394831479E+03  0.86971884176E+03  0.46999998093E+01 0. -1.
       -5    1    3    3    0  502  0.11702828737E+03  0.11604063653E+03 -0.70680298591E+02  0.17938462581E+03  0.46999998093E+01 0.  1.
</event>
<event>
 5   0  0.5072407E-03  0.6994842E+03  0.7818609E-02  0.9718115E-01
       -2   -1    0    0    0  501  0.00000000000E+00  0.00000000000E+00  0.11318374981E+03  0.11318374983E+03  0.25500000920E-02 0.  1.
        2   -1    0    0  501    0  0.00000000000E+00  0.00000000000E+00 -0.10807163790E+04  0.10807163790E+04  0.25500000920E-02 0. -1.
    10030    2    1    2    0    0  0.00000000000E+00  0.00000000000E+00 -0.96753262922E+03  0.11939001289E+04  0.69948418788E+03 0.  0.
        1    1    3    3  502    0  0.13383701413E+03  0.23362012829E+03 -0.10276155092E+03  0.28818509168E+03  0.50400001928E-02 0.  1.
       -1    1    3    3    0  502 -0.13383701413E+03 -0.23362012829E+03 -0.86477107830E+03  0.90571503719E+03  0.50400001928E-02 0. -1.
</event>
<event>
 5   0  0.4878235E-03  0.7007777E+03  0.7818609E-02  0.9715903E-01
        2   -1    0    0  501    0  0.00000000000E+00  0.00000000000E+00  0.15560161106E+04  0.15560161106E+04  0.25500000920E-02 0. -1.
       -2   -1    0    0    0  501  0.00000000000E+00  0.00000000000E+00 -0.78901724235E+02  0.78901724276E+02  0.25500000920E-02 0.  1.
    10030    2    1    2    0    0  0.00000000000E+00  0.00000000000E+00  0.14771143864E+04  0.16349178349E+04  0.70077772254E+03 0.  0.
        4    1    3    3  502    0  0.15168478974E+03 -0.17244803323E+03  0.12119569529E+03  0.25968559656E+03  0.12699999809E+01 0.  1.
       -4    1    3    3    0  502 -0.15168478974E+03  0.17244803323E+03  0.13559186911E+04  0.13752322384E+04  0.12699999809E+01 0. -1.
</event>
<event>
 5   0  0.5023894E-03  0.7031555E+03  0.7818609E-02  0.9711851E-01
       -2   -1    0    0    0  501  0.00000000000E+00  0.00000000000E+00  0.13874830252E+03  0.13874830255E+03  0.25500000920E-02 0. -1.
        2   -1    0    0  501    0  0.00000000000E+00  0.00000000000E+00 -0.89087160171E+03  0.89087160171E+03  0.25500000920E-02 0.  1.
    10030    2    1    2    0    0  0.00000000000E+00  0.00000000000E+00 -0.75212329919E+03  0.10296199043E+04  0.70315552338E+03 0.  0.
        2    1    3    3  502    0  0.22976942099E+01  0.34631437284E+02  0.13623361103E+03  0.14058525039E+03  0.25500000920E-02 0. -1.
       -2    1    3    3    0  502 -0.22976942099E+01 -0.34631437284E+02 -0.88835691022E+03  0.88903465387E+03  0.25500000920E-02 0.  1.
</event>
<event>
 5   0  0.5023894E-03  0.6892333E+03  0.7818609E-02  0.9735824E-01
        2   -1    0    0  501    0  0.00000000000E+00  0.00000000000E+00  0.30331883070E+03  0.30331883071E+03  0.25500000920E-02 0. -1.
       -2   -1    0    0    0  501  0.00000000000E+00  0.00000000000E+00 -0.39153727302E+03  0.39153727303E+03  0.25500000920E-02 0.  1.
    10030    2    1    2    0    0  0.00000000000E+00  0.00000000000E+00 -0.88218442323E+02  0.69485610374E+03  0.68923327788E+03 0.  0.
        2    1    3    3  502    0  0.24258460897E+03 -0.67234300747E+02  0.19316777061E+03  0.31730353184E+03  0.25500000920E-02 0. -1.
       -2    1    3    3    0  502 -0.24258460897E+03  0.67234300747E+02 -0.28138621294E+03  0.37755257190E+03  0.25500000920E-02 0.  1.
</event>
<event>
 5   0  0.1981750E-03  0.7000660E+03  0.7818609E-02  0.9717119E-01
        4   -1    0    0  501    0  0.00000000000E+00  0.00000000000E+00  0.19628335567E+03  0.19628746422E+03  0.12699999809E+01 0.  1.
       -4   -1    0    0    0  501  0.00000000000E+00  0.00000000000E+00 -0.62420409418E+03  0.62420538614E+03  0.12699999809E+01 0. -1.
    10030    2    1    2    0    0  0.00000000000E+00  0.00000000000E+00 -0.42792073851E+03  0.82049285037E+03  0.70006596764E+03 0.  0.
        1    1    3    3  502    0 -0.43538783191E+02 -0.24618891423E+03 -0.50109021719E+03  0.55999644009E+03  0.50400001928E-02 0. -1.
       -1    1    3    3    0  502  0.43538783191E+02  0.24618891423E+03  0.73169478673E+02  0.26049641027E+03  0.50400001928E-02 0.  1.
</event>
<event>
 5   0  0.2913582E-03  0.7001647E+03  0.7818609E-02  0.9716951E-01
       -1   -1    0    0    0  501  0.00000000000E+00  0.00000000000E+00  0.13974324078E+03  0.13974324088E+03  0.50400001928E-02 0. -1.
        1   -1    0    0  501    0  0.00000000000E+00  0.00000000000E+00 -0.87702035046E+03  0.87702035048E+03  0.50400001928E-02 0.  1.
    10030    2    1    2    0    0  0.00000000000E+00  0.00000000000E+00 -0.73727710968E+03  0.10167635914E+04  0.70016474079E+03 0.  0.
        1    1    3    3  502    0  0.14079207304E+03 -0.13218090853E+03 -0.79267310130E+03  0.81585834920E+03  0.50400001928E-02 0.  1.
       -1    1    3    3    0  502 -0.14079207304E+03  0.13218090853E+03  0.55395991624E+02  0.20090524215E+03  0.50400001928E-02 0. -1.
</event>
<event>
 5   0  0.5076796E-03  0.6978539E+03  0.7818609E-02  0.9720909E-01
        2   -1    0    0  501    0  0.00000000000E+00  0.00000000000E+00  0.18520964901E+04  0.18520964901E+04  0.25500000920E-02 0.  1.
       -2   -1    0    0    0  501  0.00000000000E+00  0.00000000000E+00 -0.65736323977E+02  0.65736324027E+02  0.25500000920E-02 0. -1.
    10030    2    1    2    0    0  0.00000000000E+00  0.00000000000E+00  0.17863601661E+04  0.19178328141E+04  0.69785389576E+03 0.  0.
        5    1    3    3  502    0  0.39938022757E+02  0.17710260101E+03  0.17119716286E+04  0.17215775684E+04  0.46999998093E+01 0.  1.
       -5    1    3    3    0  502 -0.39938022757E+02 -0.17710260101E+03  0.74388537475E+02  0.19625524566E+03  0.46999998093E+01 0. -1.
</event>
<event>
 5   0  0.5072407E-03  0.7003026E+03  0.7818609E-02  0.9716715E-01
       -2   -1    0    0    0  501  0.00000000000E+00  0.00000000000E+00  0.29531142944E+03  0.29531142945E+03  0.25500000920E-02 0.  1.
        2   -1    0    0  501    0  0.00000000000E+00  0.00000000000E+00 -0.41517505293E+03  0.41517505293E+03  0.25500000920E-02 0. -1.
    10030    2    1    2    0    0  0.00000000000E+00  0.00000000000E+00 -0.11986362349E+03  0.71048648239E+03  0.70030261560E+03 0.  0.
        1    1    3    3  502    0  0.17715336792E+03  0.14787625628E+01 -0.36635113037E+03  0.40693814426E+03  0.50400001928E-02 0. -1.
       -1    1    3    3    0  502 -0.17715336792E+03 -0.14787625628E+01  0.24648750689E+03  0.30354833813E+03  0.50400001928E-02 0.  1.
</event>
<event>
 5   0  0.2938783E-03  0.7002571E+03  0.7818609E-02  0.9716793E-01
       -1   -1    0    0    0  501  0.00000000000E+00  0.00000000000E+00  0.93619655949E+02  0.93619656085E+02  0.50400001928E-02 0. -1.
        1   -1    0    0  501    0  0.00000000000E+00  0.00000000000E+00 -0.13094470947E+04  0.13094470947E+04  0.50400001928E-02 0.  1.
    10030    2    1    2    0    0  0.00000000000E+00  0.00000000000E+00 -0.12158274388E+04  0.14030667508E+04  0.70025705735E+03 0.  0.
        4    1    3    3  502    0 -0.17844178102E+03  0.90675600985E+02 -0.32323794093E+02  0.20275594786E+03  0.12699999809E+01 0. -1.
       -4    1    3    3    0  502  0.17844178102E+03 -0.90675600985E+02 -0.11835036447E+04  0.12003108029E+04  0.12699999809E+01 0.  1.
</event>
<event>
 5   0  0.2937617E-03  0.7017894E+03  0.7818609E-02  0.9714177E-01
       -1   -1    0    0    0  501  0.00000000000E+00  0.00000000000E+00  0.19092288980E+03  0.19092288987E+03  0.50400001928E-02 0.  1.
        1   -1    0    0  501    0  0.00000000000E+00  0.00000000000E+00 -0.64490487305E+03  0.64490487307E+03  0.50400001928E-02 0. -1.
    10030    2    1    2    0    0  0.00000000000E+00  0.00000000000E+00 -0.45398198325E+03  0.83582776294E+03  0.70178943294E+03 0.  0.
        3    1    3    3  502    0  0.24360696449E+03  0.86327632391E+02  0.55679788519E+02  0.26438052560E+03  0.10100000352E+00 0.  1.
       -3    1    3    3    0  502 -0.24360696449E+03 -0.86327632391E+02 -0.50966177177E+03  0.57144723734E+03  0.10100000352E+00 0. -1.
</event>
<event>
 5   0  0.5076796E-03  0.7079858E+03  0.7818609E-02  0.9703672E-01
        2   -1    0    0  501    0  0.00000000000E+00  0.00000000000E+00  0.12161489567E+04  0.12161489567E+04  0.25500000920E-02 0.  1.
       -2   -1    0    0    0  501  0.00000000000E+00  0.00000000000E+00 -0.10303916151E+03  0.10303916154E+03  0.25500000920E-02 0. -1.
    10030    2    1    2    0    0  0.00000000000E+00  0.00000000000E+00  0.11131097952E+04  0.13191881182E+04  0.70798578741E+03 0.  0.
        5    1    3    3  502    0  0.29582380937E+03 -0.87921192993E+02  0.23356951430E+03  0.38706416829E+03  0.46999998093E+01 0. -1.
       -5    1    3    3    0  502 -0.29582380937E+03  0.87921192993E+02  0.87954028087E+03  0.93212394994E+03  0.46999998093E+01 0.  1.
</event>
<event>
 5   0  0.1981750E-03  0.7000189E+03  0.7818609E-02  0.9717200E-01
        4   -1    0    0  501    0  0.00000000000E+00  0.00000000000E+00  0.48046828459E+03  0.48046996306E+03  0.12699999809E+01 0. -1.
       -4   -1    0    0    0  501  0.00000000000E+00  0.00000000000E+00 -0.25496969023E+03  0.25497285313E+03  0.12699999809E+01 0.  1.
    10030    2    1    2    0    0  0.00000000000E+00  0.00000000000E+00  0.22549859436E+03  0.73544281619E+03  0.70001894248E+03 0.  0.
        2    1    3    3  502    0  0.96703920075E+01  0.85952020180E+02 -0.24356719607E+03  0.25846904121E+03  0.25500000920E-02 0.  1.
       -2    1    3    3    0  502 -0.96703920075E+01 -0.85952020180E+02  0.46906579044E+03  0.47697377498E+03  0.25500000920E-02 0. -1.
</event>
<event>
 5   0  0.5023894E-03  0.7017649E+03  0.7818609E-02  0.9714219E-01
        2   -1    0    0  501    0  0.00000000000E+00  0.00000000000E+00  0.97627682588E+03  0.97627682589E+03  0.25500000920E-02 0. -1.
       -2   -1    0    0    0  501  0.00000000000E+00  0.00000000000E+00 -0.12611023138E+03  0.12611023141E+03  0.25500000920E-02 0.  1.
    10030    2    1    2    0    0  0.00000000000E+00  0.00000000000E+00  0.85016659450E+03  0.11023870573E+04  0.70176490770E+03 0.  0.
        2    1    3    3  502    0  0.23602192491E+03 -0.25743577226E+03  0.37206830487E+03  0.51030809260E+03  0.25500000920E-02 0.  1.
       -2    1    3    3    0  502 -0.23602192491E+03  0.25743577226E+03  0.47809828963E+03  0.59207896469E+03  0.25500000920E-02 0. -1.
</event>
<event>
 5   0  0.4878235E-03  0.6999309E+03  0.7818609E-02  0.9717350E-01
        2   -1    0    0  501    0  0.00000000000E+00  0.00000000000E+00  0.11665208090E+04  0.11665208090E+04  0.25500000920E-02 0. -1.
       -2   -1    0    0    0  501  0.00000000000E+00  0.00000000000E+00 -0.10499241150E+03  0.10499241153E+03  0.25500000920E-02 0.  1.
    10030    2    1    2    0    0  0.00000000000E+00  0.00000000000E+00  0.10615283975E+04  0.12715132206E+04  0.69993094752E+03 0.  0.
        4    1    3    3  502    0  0.20118094879E+03 -0.20832272858E+03  0.88768435443E+03  0.93373297007E+03  0.12699999809E+01 0. -1.
       -4    1    3    3    0  502 -0.20118094879E+03  0.20832272858E+03  0.17384404309E+03  0.33778025048E+03  0.12699999809E+01 0.  1.
</event>
<event>
 5   0  0.2913582E-03  0.6984596E+03  0.7818609E-02  0.9719870E-01
        1   -1    0    0  501    0  0.00000000000E+00  0.00000000000E+00  0.12991640547E+04  0.12991640548E+04  0.50400001928E-02 0.  1.
       -1   -1    0    0    0  501  0.00000000000E+00  0.00000000000E+00 -0.93876877544E+02  0.93876877679E+02  0.50400001928E-02 0. -1.
    10030    2    1    2    0    0  0.00000000000E+00  0.00000000000E+00  0.12052871772E+04  0.13930409324E+04  0.69845963370E+03 0.  0.
        1    1    3    3  502    0  0.12444776151E+03 -0.24139804068E+03  0.16476721155E+03  0.31766097245E+03  0.50400001928E-02 0. -1.
       -1    1    3    3    0  502 -0.12444776151E+03  0.24139804068E+03  0.10405199657E+04  0.10753799600E+04  0.50400001928E-02 0.  1.
</event>
<event>
 5   0  0.2913582E-03  0.7003862E+03  0.7818609E-02  0.9716572E-01
        1   -1    0    0  501    0  0.00000000000E+00  0.00000000000E+00  0.88113401466E+03  0.88113401468E+03  0.50400001928E-02 0. -1.
       -1   -1    0    0    0  501  0.00000000000E+00  0.00000000000E+00 -0.13917885360E+03  0.13917885369E+03  0.50400001928E-02 0.  1.
    10030    2    1    2    0    0  0.00000000000E+00  0.00000000000E+00  0.74195516107E+03  0.10203128684E+04  0.70038624224E+03 0.  0.
        1    1    3    3  502    0  0.29339420286E+03  0.16536632366E+03  0.23117892241E+03  0.40849709113E+03  0.50400001928E-02 0.  1.
       -1    1    3    3    0  502 -0.29339420286E+03 -0.16536632366E+03  0.51077623866E+03  0.61181577724E+03  0.50400001928E-02 0. -1.
</event>
<event>
 5   0  0.2937617E-03  0.7015581E+03  0.7818609E-02  0.9714571E-01
        1   -1    0    0  501    0  0.00000000000E+00  0.00000000000E+00  0.66236127496E+03  0.66236127498E+03  0.50400001928E-02 0.  1.
       -1   -1    0    0    0  501  0.00000000000E+00  0.00000000000E+00 -0.18576861267E+03  0.18576861273E+03  0.50400001928E-02 0. -1.
    10030    2    1    2    0    0  0.00000000000E+00  0.00000000000E+00  0.47659266229E+03  0.84812988771E+03  0.70155808076E+03 0.  0.
        3    1    3    3  502    0  0.34858022490E+03 -0.22152593343E+02  0.19917847364E+03  0.40208330623E+03  0.10100000352E+00 0. -1.
       -3    1    3    3    0  502 -0.34858022490E+03  0.22152593343E+02  0.27741418865E+03  0.44604658148E+03  0.10100000352E+00 0.  1.
</event>
<event>
 5   0  0.5072407E-03  0.6993684E+03  0.7818609E-02  0.9718313E-01
        2   -1    0    0  501    0  0.00000000000E+00  0.00000000000E+00  0.88704315723E+03  0.88704315723E+03  0.25500000920E-02 0.  1.
       -2   -1    0    0    0  501  0.00000000000E+00  0.00000000000E+00 -0.13785016502E+03  0.13785016505E+03  0.25500000920E-02 0. -1.
    10030    2    1    2    0    0  0.00000000000E+00  0.00000000000E+00  0.74919299220E+03  0.10248933223E+04  0.69936841685E+03 0.  0.
        1    1    3    3  502    0 -0.22794865214E+02  0.95544081838E+02 -0.11721782481E+03  0.15293232468E+03  0.50400001928E-02 0. -1.
       -1    1    3    3    0  502  0.22794865214E+02 -0.95544081838E+02  0.86641081702E+03  0.87196099759E+03  0.50400001928E-02 0.  1.
</event>
<event>
 5   0  0.2934483E-03  0.7011692E+03  0.7818609E-02  0.9715235E-01
       -1   -1    0    0    0  501  0.00000000000E+00  0.00000000000E+00  0.15077610172E+03  0.15077610180E+03  0.50400001928E-02 0.  1.
        1   -1    0    0  501    0  0.00000000000E+00  0.00000000000E+00 -0.81517923522E+03  0.81517923523E+03  0.50400001928E-02 0. -1.
    10030    2    1    2    0    0  0.00000000000E+00  0.00000000000E+00 -0.66440313350E+03  0.96595533703E+03  0.70116915886E+03 0.  0.
        5    1    3    3  502    0 -0.26600207149E+03 -0.21756351196E+03 -0.42761186835E+03  0.54860275585E+03  0.46999998093E+01 0. -1.
       -5    1    3    3    0  502  0.26600207149E+03  0.21756351196E+03 -0.23679126514E+03  0.41735258118E+03  0.46999998093E+01 0.  1.
</event>
<event>
 5   0  0.4878235E-03  0.6995046E+03  0.7818609E-02  0.9718080E-01
       -2   -1    0    0    0  501  0.00000000000E+00  0.00000000000E+00  0.61537051664E+02  0.61537051717E+02  0.25500000920E-02 0.  1.
        2   -1    0    0  501    0  0.00000000000E+00  0.00000000000E+00 -0.19878541670E+04  0.19878541670E+04  0.25500000920E-02 0. -1.
    10030    2    1    2    0    0  0.00000000000E+00  0.00000000000E+00 -0.19263171153E+04  0.20493912187E+04  0.69950463795E+03 0.  0.
        4    1    3    3  502    0  0.45099239678E+02  0.17985001774E+03 -0.18319991433E+04  0.18413588581E+04  0.12699999809E+01 0. -1.
       -4    1    3    3    0  502 -0.45099239678E+02 -0.17985001774E+03 -0.94317971947E+02  0.20803236054E+03  0.12699999809E+01 0.  1.
</event>
<event>
 5   0  0.2938783E-03  0.6974706E+03  0.7818609E-02  0.9721568E-01
        1   -1    0    0  501    0  0.00000000000E+00  0.00000000000E+00  0.15029025461E+04  0.15029025461E+04  0.50400001928E-02 0.  1.
       -1   -1    0    0    0  501  0.00000000000E+00  0.00000000000E+00 -0.80920954202E+02  0.80920954359E+02  0.50400001928E-02 0. -1.
    10030    2    1    2    0    0  0.00000000000E+00  0.00000000000E+00  0.14219815919E+04  0.15838235005E+04  0.69747059647E+03 0.  0.
        4    1    3    3  502    0  0.70506323761E+02  0.21363749290E+03  0.13160779451E+04  0.13351684877E+04  0.12699999809E+01 0.  1.
       -4    1    3    3    0  502 -0.70506323761E+02 -0.21363749290E+03  0.10590364678E+03  0.24865501275E+03  0.12699999809E+01 0. -1.
</event>
<event>
 5   0  0.2934483E-03  0.6997178E+03  0.7818609E-02  0.9717715E-01
        1   -1    0    0  501    0  0.00000000000E+00  0.00000000000E+00  0.43237495699E+03  0.43237495702E+03  0.50400001928E-02 0.  1.
       -1   -1    0    0    0  501  0.00000000000E+00  0.00000000000E+00 -0.28309049179E+03  0.28309049184E+03  0.50400001928E-02 0. -1.
    10030    2    1    2    0    0  0.00000000000E+00  0.00000000000E+00  0.14928446520E+03  0.71546544886E+03  0.69971776950E+03 0.  0.
        5    1    3    3  502    0  0.32793637977E+03  0.65690642290E+01  0.19900906396E+03  0.38368231562E+03  0.46999998093E+01 0. -1.
       -5    1    3    3    0  502 -0.32793637977E+03 -0.65690642290E+01 -0.49724598761E+02  0.33178313324E+03  0.46999998093E+01 0.  1.
</event>
<event>
 5   0  0.5072407E-03  0.7002514E+03  0.7818609E-02  0.9716802E-01
       -2   -1    0    0    0  501  0.00000000000E+00  0.00000000000E+00  0.59207064484E+02  0.59207064538E+02  0.25500000920E-02 0.  1.
        2   -1    0    0  501    0  0.00000000000E+00  0.00000000000E+00 -0.20704960679E+04  0.20704960679E+04  0.25500000920E-02 0. -1.
    10030    2    1    2    0    0  0.00000000000E+00  0.00000000000E+00 -0.20112890034E+04  0.21297031324E+04  0.70025136705E+03 0.  0.
        1    1    3    3  502    0  0.34663264311E+03 -0.48833086478E+02 -0.10269631147E+04  0.10849848380E+04  0.50400001928E-02 0. -1.
       -1    1    3    3    0  502 -0.34663264311E+03  0.48833086478E+02 -0.98432588865E+03  0.10447182944E+04  0.50400001928E-02 0.  1.
</event>
<event>
 5   0  0.2937617E-03  0.6984164E+03  0.7818609E-02  0.9719944E-01
        1   -1    0    0  501    0  0.00000000000E+00  0.00000000000E+00  0.14025022364E+04  0.14025022364E+04  0.50400001928E-02 0. -1.
       -1   -1    0    0    0  501  0.00000000000E+00  0.00000000000E+00 -0.86949149016E+02  0.86949149162E+02  0.50400001928E-02 0.  1.
    10030    2    1    2    0    0  0.00000000000E+00  0.00000000000E+00  0.13155530874E+04  0.14894513856E+04  0.69841642611E+03 0.  0.
        3    1    3    3  502    0 -0.30679855852E+02  0.26176894517E+03  0.11463362219E+04  0.11762444380E+04  0.10100000352E+00 0. -1.
       -3    1    3    3    0  502  0.30679855852E+02 -0.26176894517E+03  0.16921686550E+03  0.31320694753E+03  0.10100000352E+00 0.  1.
</event>
<event>
 5   0  0.5023894E-03  0.6994228E+03  0.7818609E-02  0.9718220E-01
        2   -1    0    0  501    0  0.00000000000E+00  0.00000000000E+00  0.82814395699E+03  0.82814395699E+03  0.25500000920E-02 0. -1.
       -2   -1    0    0    0  501  0.00000000000E+00  0.00000000000E+00 -0.14767730908E+03  0.14767730911E+03  0.25500000920E-02 0.  1.
    10030    2    1    2    0    0  0.00000000000E+00  0.00000000000E+00  0.68046664791E+03  0.97582126610E+03  0.69942282238E+03 0.  0.
        2    1    3    3  502    0 -0.25149923302E+03  0.37128507685E+02  0.51932760325E+01  0.25427811627E+03  0.25500000920E-02 0.  1.
       -2    1    3    3    0  502  0.25149923302E+03 -0.37128507685E+02  0.67527337187E+03  0.72154314983E+03  0.25500000920E-02 0. -1.
</event>
<event>
 5   0  0.5023894E-03  0.7011609E+03  0.7818609E-02  0.9715249E-01
       -2   -1    0    0    0  501  0.00000000000E+00  0.00000000000E+00  0.14402066643E+03  0.14402066645E+03  0.25500000920E-02 0.  1.
        2   -1    0    0  501    0  0.00000000000E+00  0.00000000000E+00 -0.85339599207E+03  0.85339599207E+03  0.25500000920E-02 0. -1.
    10030    2    1    2    0    0  0.00000000000E+00  0.00000000000E+00 -0.70937532564E+03  0.99741665852E+03  0.70116092167E+03 0.  0.
        2    1    3    3  502    0  0.12868212150E+03 -0.31537464978E+03 -0.23664062848E+03  0.41475178742E+03  0.25500000920E-02 0.  1.
       -2    1    3    3    0  502 -0.12868212150E+03  0.31537464978E+03 -0.47273469716E+03  0.58266487110E+03  0.25500000920E-02 0. -1.
</event>
<event>
 5   0  0.4878235E-03  0.7002542E+03  0.7818609E-02  0.9716798E-01
       -2   -1    0    0    0  501  0.00000000000E+00  0.00000000000E+00  0.15717993814E+03  0.15717993816E+03  0.25500000920E-02 0.  1.
        2   -1    0    0  501    0  0.00000000000E+00  0.00000000000E+00 -0.77992768450E+03  0.77992768450E+03  0.25500000920E-02 0. -1.
    10030    2    1    2    0    0  0.00000000000E+00  0.00000000000E+00 -0.62274774636E+03  0.93710762266E+03  0.70025419732E+03 0.  0.
        4    1    3    3  502    0  0.32309974503E+03  0.30700569345E+02 -0.13560338898E+03  0.35174687234E+03  0.12699999809E+01 0.  1.
       -4    1    3    3    0  502 -0.32309974503E+03 -0.30700569345E+02 -0.48714435737E+03  0.58536075032E+03  0.12699999809E+01 0. -1.
</event>
<event>
 5   0  0.5076796E-03  0.6993647E+03  0.7818609E-02  0.9718319E-01
        2   -1    0    0  501    0  0.00000000000E+00  0.00000000000E+00  0.90360898955E+03  0.90360898955E+03  0.25500000920E-02 0. -1.
       -2   -1    0    0    0  501  0.00000000000E+00  0.00000000000E+00 -0.13532152132E+03  0.13532152134E+03  0.25500000920E-02 0.  1.
    10030    2    1    2    0    0  0.00000000000E+00  0.00000000000E+00  0.76828746823E+03  0.10389305109E+04  0.69936469215E+03 0.  0.
        5    1    3    3  502    0  0.26687735330E+03  0.45310798332E+02  0.71291059431E+03  0.76258782814E+03  0.46999998093E+01 0. -1.
       -5    1    3    3    0  502 -0.26687735330E+03 -0.45310798332E+02  0.55376873922E+02  0.27634268275E+03  0.46999998093E+01 0.  1.
</event>
<event>
 5   0  0.5072407E-03  0.7015795E+03  0.7818609E-02  0.9714535E-01
        2   -1    0    0  501    0  0.00000000000E+00  0.00000000000E+00  0.22079197014E+03  0.22079197016E+03  0.25500000920E-02 0. -1.
       -2   -1    0    0    0  501  0.00000000000E+00  0.00000000000E+00 -0.55732748297E+03  0.55732748298E+03  0.25500000920E-02 0.  1.
    10030    2    1    2    0    0  0.00000000000E+00  0.00000000000E+00 -0.33653551283E+03  0.77811945314E+03  0.70157945520E+03 0.  0.
        1    1    3    3  502    0 -0.21310087697E+03 -0.27840791518E+03 -0.18093682381E+03  0.39453907948E+03  0.50400001928E-02 0. -1.
       -1    1    3    3    0  502  0.21310087697E+03  0.27840791518E+03 -0.15559868902E+03  0.38358037365E+03  0.50400001928E-02 0.  1.
</event>
<event>
 5   0  0.5076796E-03  0.6998283E+03  0.7818609E-02  0.9717526E-01
       -2   -1    0    0    0  501  0.00000000000E+00  0.00000000000E+00  0.45741920177E+03  0.45741920178E+03  0.25500000920E-02 0. -1.
        2   -1    0    0  501    0  0.00000000000E+00  0.00000000000E+00 -0.26767548139E+03  0.26767548140E+03  0.25500000920E-02 0.  1.
    10030    2    1    2    0    0  0.00000000000E+00  0.00000000000E+00  0.18974372039E+03  0.72509468318E+03  0.69982827904E+03 0.  0.
        5    1    3    3  502    0  0.23412710553E+03 -0.25202714348E+03  0.16109041898E+03  0.37987550023E+03  0.46999998093E+01 0. -1.
       -5    1    3    3    0  502 -0.23412710553E+03  0.25202714348E+03  0.28653301408E+02  0.34521918294E+03  0.46999998093E+01 0.  1.
</event>
<event>
 5   0  0.2938783E-03  0.6997688E+03  0.7818609E-02  0.9717628E-01
       -1   -1    0    0    0  501  0.00000000000E+00  0.00000000000E+00  0.70143911616E+02  0.70143911797E+02  0.50400001928E-02 0.  1.
        1   -1    0    0  501    0  0.00000000000E+00  0.00000000000E+00 -0.17452562080E+04  0.17452562080E+04  0.50400001928E-02 0. -1.
    10030    2    1    2    0    0  0.00000000000E+00  0.00000000000E+00 -0.16751122964E+04  0.18154001198E+04  0.69976881146E+03 0.  0.
        4    1    3    3  502    0  0.72266147180E+02 -0.85739352176E+02  0.22260113428E+02  0.11432741618E+03  0.12699999809E+01 0.  1.
       -4    1    3    3    0  502 -0.72266147180E+02  0.85739352176E+02 -0.16973724098E+04  0.17010727036E+04  0.12699999809E+01 0. -1.
</event>
<event>
 5   0  0.2934483E-03  0.6856328E+03  0.7818609E-02  0.9742122E-01
        1   -1    0    0  501    0  0.00000000000E+00  0.00000000000E+00  0.16925433005E+04  0.16925433005E+04  0.50400001928E-02 0.  1.
       -1   -1    0    0    0  501  0.00000000000E+00  0.00000000000E+00 -0.69435796600E+02  0.69435796783E+02  0.50400001928E-02 0. -1.
    10030    2    1    2    0    0  0.00000000000E+00  0.00000000000E+00  0.16231075039E+04  0.17619790973E+04  0.68563282453E+03 0.  0.
        5    1    3    3  502    0 -0.32917722998E+03 -0.10687782399E+02  0.10557460634E+04  0.11059356752E+04  0.46999998093E+01 0.  1.
       -5    1    3    3    0  502  0.32917722998E+03  0.10687782399E+02  0.56736144050E+03  0.65604342204E+03  0.46999998093E+01 0. -1.
</event>
<event>
 5   0  0.4878235E-03  0.7022201E+03  0.7818609E-02  0.9713443E-01
       -2   -1    0    0    0  501  0.00000000000E+00  0.00000000000E+00  0.40429227553E+03  0.40429227554E+03  0.25500000920E-02 0. -1.
        2   -1    0    0  501    0  0.00000000000E+00  0.00000000000E+00 -0.30492362692E+03  0.30492362693E+03  0.25500000920E-02 0.  1.
    10030    2    1    2    0    0  0.00000000000E+00  0.00000000000E+00  0.99368648615E+02  0.70921590247E+03  0.70222009939E+03 0.  0.
        4    1    3    3  502    0  0.46859220633E+01 -0.22381288771E+03 -0.22349601533E+03  0.31633249649E+03  0.12699999809E+01 0.  1.
       -4    1    3    3    0  502 -0.46859220633E+01  0.22381288771E+03  0.32286466395E+03  0.39288340598E+03  0.12699999809E+01 0. -1.
</event>
<event>
 5   0  0.5023894E-03  0.7000004E+03  0.7818609E-02  0.9717232E-01
       -2   -1    0    0    0  501  0.00000000000E+00  0.00000000000E+00  0.18219902205E+03  0.18219902207E+03  0.25500000920E-02 0. -1.
        2   -1    0    0  501    0  0.00000000000E+00  0.00000000000E+00 -0.67234244271E+03  0.67234244271E+03  0.25500000920E-02 0.  1.
    10030    2    1    2    0    0  0.00000000000E+00  0.00000000000E+00 -0.49014342066E+03  0.85454146478E+03  0.70000038729E+03 0.  0.
        2    1    3    3  502    0  0.66258554953E+02  0.18402562307E+03  0.10925644517E+03  0.22403704352E+03  0.25500000920E-02 0. -1.
       -2    1    3    3    0  502 -0.66258554953E+02 -0.18402562307E+03 -0.59939986584E+03  0.63050442126E+03  0.25500000920E-02 0.  1.
</event>
<event>
 5   0  0.2934483E-03  0.6999750E+03  0.7818609E-02  0.9717275E-01
       -1   -1    0    0    0  501  0.00000000000E+00  0.00000000000E+00  0.15153085259E+03  0.15153085268E+03  0.50400001928E-02 0.  1.
        1   -1    0    0  501    0  0.00000000000E+00  0.00000000000E+00 -0.80835856736E+03  0.80835856738E+03  0.50400001928E-02 0. -1.
    10030    2    1    2    0    0  0.00000000000E+00  0.00000000000E+00 -0.65682771477E+03  0.95988942006E+03  0.69997503659E+03 0.  0.
        5    1    3    3  502    0 -0.13451205856E+03  0.31930327275E+03 -0.26093854029E+03  0.43377308087E+03  0.46999998093E+01 0. -1.
       -5    1    3    3    0  502  0.13451205856E+03 -0.31930327275E+03 -0.39588917448E+03  0.52611633918E+03  0.46999998093E+01 0.  1.
</event>
<event>
 5   0  0.3013140E-03  0.6998865E+03  0.7818609E-02  0.9717426E-01
       -1   -1    0    0    0  501  0.00000000000E+00  0.00000000000E+00  0.45653872608E+03  0.45653872610E+03  0.50400001928E-02 0.  1.
        1   -1    0    0  501    0  0.00000000000E+00  0.00000000000E+00 -0.26823631000E+03  0.26823631005E+03  0.50400001928E-02 0. -1.
    10030    2    1    2    0    0  0.00000000000E+00  0.00000000000E+00  0.18830241607E+03  0.72477503615E+03  0.69988645731E+03 0.  0.
        2    1    3    3  502    0  0.23855696391E+03 -0.58756043585E+02 -0.16390625326E+03  0.29534210257E+03  0.25500000920E-02 0. -1.
       -2    1    3    3    0  502 -0.23855696391E+03  0.58756043585E+02  0.35220866933E+03  0.42943293358E+03  0.25500000920E-02 0.  1.
</event>
<event>
 5   0  0.5076796E-03  0.7000822E+03  0.7818609E-02  0.9717092E-01
       -2   -1    0    0    0  501  0.00000000000E+00  0.00000000000E+00  0.90451379100E+02  0.90451379136E+02  0.25500000920E-02 0.  1.
        2   -1    0    0  501    0  0.00000000000E+00  0.00000000000E+00 -0.13546368800E+04  0.13546368800E+04  0.25500000920E-02 0. -1.
    10030    2    1    2    0    0  0.00000000000E+00  0.00000000000E+00 -0.12641855009E+04  0.14450882591E+04  0.70008220661E+03 0.  0.
        5    1    3    3  502    0 -0.24422652520E+03 -0.86225956007E+02 -0.14613461043E+03  0.29742045233E+03  0.46999998093E+01 0.  1.
       -5    1    3    3    0  502  0.24422652520E+03  0.86225956007E+02 -0.11180508904E+04  0.11476678068E+04  0.46999998093E+01 0. -1.
</event>
<event>
 5   0  0.3013140E-03  0.6999202E+03  0.7818609E-02  0.9717369E-01
        1   -1    0    0  501    0  0.00000000000E+00  0.00000000000E+00  0.11709714835E+03  0.11709714845E+03  0.50400001928E-02 0.  1.
       -1   -1    0    0    0  501  0.00000000000E+00  0.00000000000E+00 -0.10459014837E+04  0.10459014838E+04  0.50400001928E-02 0. -1.
    10030    2    1    2    0    0  0.00000000000E+00  0.00000000000E+00 -0.92880433539E+03  0.11629986322E+04  0.69992022765E+03 0.  0.
        2    1    3    3  502    0  0.24862247482E+03  0.24482596885E+03 -0.41984138019E+03  0.54591178274E+03  0.25500000920E-02 0. -1.
       -2    1    3    3    0  502 -0.24862247482E+03 -0.24482596885E+03 -0.50896295520E+03  0.61708684946E+03  0.25500000920E-02 0.  1.
</event>
<event>
 5   0  0.2937617E-03  0.6995180E+03  0.7818609E-02  0.9718057E-01
        1   -1    0    0  501    0  0.00000000000E+00  0.00000000000E+00  0.46229488870E+03  0.46229488872E+03  0.50400001928E-02 0. -1.
       -1   -1    0    0    0  501  0.00000000000E+00  0.00000000000E+00 -0.26461756702E+03  0.26461756707E+03  0.50400001928E-02 0.  1.
    10030    2    1    2    0    0  0.00000000000E+00  0.00000000000E+00  0.19767732168E+03  0.72691245579E+03  0.69951797323E+03 0.  0.
        3    1    3    3  502    0 -0.22799500334E+03 -0.16443350451E+03  0.31510231640E+03  0.42226718906E+03  0.10100000352E+00 0. -1.
       -3    1    3    3    0  502  0.22799500334E+03  0.16443350451E+03 -0.11742499472E+03  0.30464526673E+03  0.10100000352E+00 0.  1.
</event>
<event>
 5   0  0.2913582E-03  0.6993668E+03  0.7818609E-02  0.9718316E-01
       -1   -1    0    0    0  501  0.00000000000E+00  0.00000000000E+00  0.23109284220E+03  0.23109284225E+03  0.50400001928E-02 0. -1.
        1   -1    0    0  501    0  0.00000000000E+00  0.00000000000E+00 -0.52913135609E+03  0.52913135612E+03  0.50400001928E-02 0.  1.
    10030    2    1    2    0    0  0.00000000000E+00  0.00000000000E+00 -0.29803851390E+03  0.76022419837E+03  0.69936676789E+03 0.  0.
        1    1    3    3  502    0 -0.49072156649E+02 -0.68498695490E+02  0.21989213751E+03  0.23548396975E+03  0.50400001928E-02 0. -1.
       -1    1    3    3    0  502  0.49072156649E+02  0.68498695490E+02 -0.51793065141E+03  0.52474022862E+03  0.50400001928E-02 0.  1.
</event>
<event>
 5   0  0.5072407E-03  0.7004566E+03  0.7818609E-02  0.9716452E-01
        2   -1    0    0  501    0  0.00000000000E+00  0.00000000000E+00  0.57048834289E+03  0.57048834290E+03  0.25500000920E-02 0. -1.
       -2   -1    0    0    0  501  0.00000000000E+00  0.00000000000E+00 -0.21500852814E+03  0.21500852815E+03  0.25500000920E-02 0.  1.
    10030    2    1    2    0    0  0.00000000000E+00  0.00000000000E+00  0.35547981476E+03  0.78549687105E+03  0.70045659090E+03 0.  0.
        1    1    3    3  502    0 -0.12164972251E+03  0.26820324762E+03 -0.34819874320E+02  0.29655363882E+03  0.50400001928E-02 0.  1.
       -1    1    3    3    0  502  0.12164972251E+03 -0.26820324762E+03  0.39029968908E+03  0.48894323223E+03  0.50400001928E-02 0. -1.
</event>
<event>
 5   0  0.1981750E-03  0.6990442E+03  0.7818609E-02  0.9718868E-01
       -3   -1    0    0    0  501  0.00000000000E+00  0.00000000000E+00  0.44938359640E+03  0.44938360775E+03  0.10100000352E+00 0. -1.
        3   -1    0    0  501    0  0.00000000000E+00  0.00000000000E+00 -0.27185166798E+03  0.27185168674E+03  0.10100000352E+00 0.  1.
    10030    2    1    2    0    0  0.00000000000E+00  0.00000000000E+00  0.17753192842E+03  0.72123529448E+03  0.69904417915E+03 0.  0.
        2    1    3    3  502    0 -0.16481168181E+03  0.11315032227E+03 -0.20704055543E+03  0.28780492957E+03  0.25500000920E-02 0.  1.
       -2    1    3    3    0  502  0.16481168181E+03 -0.11315032227E+03  0.38457248385E+03  0.43343036491E+03  0.25500000920E-02 0. -1.
</event>
<event>
 5   0  0.5113683E-03  0.7017835E+03  0.7818609E-02  0.9714187E-01
        2   -1    0    0  501    0  0.00000000000E+00  0.00000000000E+00  0.16759005764E+04  0.16759005764E+04  0.25500000920E-02 0. -1.
       -2   -1    0    0    0  501  0.00000000000E+00  0.00000000000E+00 -0.73467967941E+02  0.73467967985E+02  0.25500000920E-02 0.  1.
    10030    2    1    2    0    0  0.00000000000E+00  0.00000000000E+00  0.16024326084E+04  0.17493685444E+04  0.70178347047E+03 0.  0.
        3    1    3    3  502    0  0.32265884950E+03 -0.13767859080E+03  0.82066486309E+03  0.89249927464E+03  0.10100000352E+00 0.  1.
       -3    1    3    3    0  502 -0.32265884950E+03  0.13767859080E+03  0.78176774535E+03  0.85686926972E+03  0.10100000352E+00 0. -1.
</event>
<event>
 5   0  0.5076796E-03  0.6998202E+03  0.7818609E-02  0.9717540E-01
       -2   -1    0    0    0  501  0.00000000000E+00  0.00000000000E+00  0.43441399562E+03  0.43441399563E+03  0.25500000920E-02 0.  1.
        2   -1    0    0  501    0  0.00000000000E+00  0.00000000000E+00 -0.28184420340E+03  0.28184420341E+03  0.25500000920E-02 0. -1.
    10030    2    1    2    0    0  0.00000000000E+00  0.00000000000E+00  0.15256979222E+03  0.71625819904E+03  0.69982016704E+03 0.  0.
        5    1    3    3  502    0 -0.25840981421E+03  0.23167668152E+03  0.12165743987E+03  0.36779388183E+03  0.46999998093E+01 0.  1.
       -5    1    3    3    0  502  0.25840981421E+03 -0.23167668152E+03  0.30912352347E+02  0.34846431721E+03  0.46999998093E+01 0. -1.
</event>
<event>
 5   0  0.4878235E-03  0.6996133E+03  0.7818609E-02  0.9717894E-01
        2   -1    0    0  501    0  0.00000000000E+00  0.00000000000E+00  0.85947442254E+03  0.85947442254E+03  0.25500000920E-02 0.  1.
       -2   -1    0    0    0  501  0.00000000000E+00  0.00000000000E+00 -0.14237152617E+03  0.14237152619E+03  0.25500000920E-02 0. -1.
    10030    2    1    2    0    0  0.00000000000E+00  0.00000000000E+00  0.71710289637E+03  0.10018459487E+04  0.69961327961E+03 0.  0.
        4    1    3    3  502    0 -0.26064265572E+03 -0.18153473409E+03  0.56839494776E+03  0.65112509029E+03  0.12699999809E+01 0.  1.
       -4    1    3    3    0  502  0.26064265572E+03  0.18153473409E+03  0.14870794861E+03  0.35072085844E+03  0.12699999809E+01 0. -1.
</event>
<event>
 5   0  0.5072407E-03  0.7004760E+03  0.7818609E-02  0.9716418E-01
       -2   -1    0    0    0  501  0.00000000000E+00  0.00000000000E+00  0.19860592592E+03  0.19860592593E+03  0.25500000920E-02 0. -1.
        2   -1    0    0  501    0  0.00000000000E+00  0.00000000000E+00 -0.61763847560E+03  0.61763847560E+03  0.25500000920E-02 0.  1.
    10030    2    1    2    0    0  0.00000000000E+00  0.00000000000E+00 -0.41903254968E+03  0.81624440154E+03  0.70047601340E+03 0.  0.
        1    1    3    3  502    0  0.30070578647E+03  0.37126026428E+02 -0.47985194551E+01  0.30302695865E+03  0.50400001928E-02 0.  1.
       -1    1    3    3    0  502 -0.30070578647E+03 -0.37126026428E+02 -0.41423403023E+03  0.51321744288E+03  0.50400001928E-02 0. -1.
</event>
<event>
 5   0  0.3013140E-03  0.7020301E+03  0.7818609E-02  0.9713767E-01
       -1   -1    0    0    0  501  0.00000000000E+00  0.00000000000E+00  0.85976818234E+02  0.85976818381E+02  0.50400001928E-02 0. -1.
        1   -1    0    0  501    0  0.00000000000E+00  0.00000000000E+00 -0.14330789908E+04  0.14330789908E+04  0.50400001928E-02 0.  1.
    10030    2    1    2    0    0  0.00000000000E+00  0.00000000000E+00 -0.13471021725E+04  0.15190558092E+04  0.70203011908E+03 0.  0.
        2    1    3    3  502    0 -0.81924660352E+02  0.33712690788E+03 -0.55812941432E+03  0.65717170140E+03  0.25500000920E-02 0. -1.
       -2    1    3    3    0  502  0.81924660352E+02 -0.33712690788E+03 -0.78897275823E+03  0.86188410777E+03  0.25500000920E-02 0.  1.
</event>
<event>
 5   0  0.2937617E-03  0.6986444E+03  0.7818609E-02  0.9719553E-01
        1   -1    0    0  501    0  0.00000000000E+00  0.00000000000E+00  0.89686606829E+03  0.89686606830E+03  0.50400001928E-02 0.  1.
       -1   -1    0    0    0  501  0.00000000000E+00  0.00000000000E+00 -0.13605820911E+03  0.13605820920E+03  0.50400001928E-02 0. -1.
    10030    2    1    2    0    0  0.00000000000E+00  0.00000000000E+00  0.76080785918E+03  0.10329242775E+04  0.69864437624E+03 0.  0.
        3    1    3    3  502    0  0.25441586365E+03  0.58874471275E+02  0.37372454923E+02  0.26379982113E+03  0.10100000352E+00 0. -1.
       -3    1    3    3    0  502 -0.25441586365E+03 -0.58874471275E+02  0.72343540426E+03  0.76912445637E+03  0.10100000352E+00 0.  1.
</event>
<event>
 5   0  0.1981750E-03  0.7010855E+03  0.7818609E-02  0.9715378E-01
       -3   -1    0    0    0  501  0.00000000000E+00  0.00000000000E+00  0.93316600565E+03  0.93316601112E+03  0.10100000352E+00 0.  1.
        3   -1    0    0  501    0  0.00000000000E+00  0.00000000000E+00 -0.13168095328E+03  0.13168099201E+03  0.10100000352E+00 0. -1.
    10030    2    1    2    0    0  0.00000000000E+00  0.00000000000E+00  0.80148505237E+03  0.10648470031E+04  0.70108548045E+03 0.  0.
        1    1    3    3  502    0 -0.22629576950E+03 -0.32620673927E+02 -0.28452985665E+01  0.22865252986E+03  0.50400001928E-02 0. -1.
       -1    1    3    3    0  502  0.22629576950E+03  0.32620673927E+02  0.80433035094E+03  0.83619447327E+03  0.50400001928E-02 0.  1.
</event>
<event>
 5   0  0.5113683E-03  0.7002719E+03  0.7818609E-02  0.9716767E-01
       -2   -1    0    0    0  501  0.00000000000E+00  0.00000000000E+00  0.71320621151E+02  0.71320621196E+02  0.25500000920E-02 0.  1.
        2   -1    0    0  501    0  0.00000000000E+00  0.00000000000E+00 -0.17189301950E+04  0.17189301950E+04  0.25500000920E-02 0. -1.
    10030    2    1    2    0    0  0.00000000000E+00  0.00000000000E+00 -0.16476095739E+04  0.17902508162E+04  0.70027185940E+03 0.  0.
        3    1    3    3  502    0 -0.45912046407E+02 -0.19776108649E+03 -0.15530946331E+04  0.15663078601E+04  0.10100000352E+00 0. -1.
       -3    1    3    3    0  502  0.45912046407E+02  0.19776108649E+03 -0.94514940813E+02  0.22394295607E+03  0.10100000352E+00 0.  1.
</event>
<event>
 5   0  0.5113683E-03  0.6995798E+03  0.7818609E-02  0.9717951E-01
       -2   -1    0    0    0  501  0.00000000000E+00  0.00000000000E+00  0.57386295101E+03  0.57386295102E+03  0.25500000920E-02 0.  1.
        2   -1    0    0  501    0  0.00000000000E+00  0.00000000000E+00 -0.21320939066E+03  0.21320939067E+03  0.25500000920E-02 0. -1.
    10030    2    1    2    0    0  0.00000000000E+00  0.00000000000E+00  0.36065356036E+03  0.78707234169E+03  0.69957978848E+03 0.  0.
        3    1    3    3  502    0 -0.17765341664E+03  0.13255505527E+03  0.48476302381E+03  0.53303543839E+03  0.10100000352E+00 0.  1.
       -3    1    3    3    0  502  0.17765341664E+03 -0.13255505527E+03 -0.12410946346E+03  0.25403690330E+03  0.10100000352E+00 0. -1.
</event>
<event>
 5   0  0.3013140E-03  0.6994017E+03  0.7818609E-02  0.9718256E-01
       -1   -1    0    0    0  501  0.00000000000E+00  0.00000000000E+00  0.10451969088E+03  0.10451969100E+03  0.50400001928E-02 0. -1.
        1   -1    0    0  501    0  0.00000000000E+00  0.00000000000E+00 -0.11700253059E+04  0.11700253059E+04  0.50400001928E-02 0.  1.
    10030    2    1    2    0    0  0.00000000000E+00  0.00000000000E+00 -0.10655056150E+04  0.12745449969E+04  0.69940169683E+03 0.  0.
        2    1    3    3  502    0 -0.18299509008E+03  0.22195647981E+03 -0.89511279927E+03  0.94020147061E+03  0.25500000920E-02 0.  1.
       -2    1    3    3    0  502  0.18299509008E+03 -0.22195647981E+03 -0.17039281577E+03  0.33434352632E+03  0.25500000920E-02 0. -1.
</event>
<event>
 5   0  0.2913582E-03  0.7032334E+03  0.7818609E-02  0.9711719E-01
        1   -1    0    0  501    0  0.00000000000E+00  0.00000000000E+00  0.51393898032E+03  0.51393898034E+03  0.50400001928E-02 0.  1.
       -1   -1    0    0    0  501  0.00000000000E+00  0.00000000000E+00 -0.24056222544E+03  0.24056222549E+03  0.50400001928E-02 0. -1.
    10030    2    1    2    0    0  0.00000000000E+00  0.00000000000E+00  0.27337675488E+03  0.75450120583E+03  0.70323340328E+03 0.  0.
        1    1    3    3  502    0  0.19171789169E+02 -0.15210003631E+03  0.47619449153E+03  0.50026310311E+03  0.50400001928E-02 0.  1.
       -1    1    3    3    0  502 -0.19171789169E+02  0.15210003631E+03 -0.20281773666E+03  0.25423810272E+03  0.50400001928E-02 0. -1.
</event>
<event>
 5   0  0.5076796E-03  0.6997981E+03  0.7818609E-02  0.9717577E-01
        2   -1    0    0  501    0  0.00000000000E+00  0.00000000000E+00  0.20990914340E+04  0.20990914340E+04  0.25500000920E-02 0. -1.
       -2   -1    0    0    0  501  0.00000000000E+00  0.00000000000E+00 -0.58324929562E+02  0.58324929617E+02  0.25500000920E-02 0.  1.
    10030    2    1    2    0    0  0.00000000000E+00  0.00000000000E+00  0.20407665044E+04  0.21574163636E+04  0.69979814259E+03 0.  0.
        5    1    3    3  502    0 -0.44862352254E+02 -0.12917608482E+02 -0.48581998531E+02  0.67541067789E+02  0.46999998093E+01 0.  1.
       -5    1    3    3    0  502  0.44862352254E+02  0.12917608482E+02  0.20893485030E+04  0.20898752958E+04  0.46999998093E+01 0. -1.
</event>
<event>
 5   0  0.2938783E-03  0.7021573E+03  0.7818609E-02  0.9713550E-01
       -1   -1    0    0    0  501  0.00000000000E+00  0.00000000000E+00  0.12366127036E+03  0.12366127046E+03  0.50400001928E-02 0. -1.
        1   -1    0    0  501    0  0.00000000000E+00  0.00000000000E+00 -0.99672447728E+03  0.99672447729E+03  0.50400001928E-02 0.  1.
    10030    2    1    2    0    0  0.00000000000E+00  0.00000000000E+00 -0.87306320692E+03  0.11203857478E+04  0.70215729041E+03 0.  0.
        4    1    3    3  502    0  0.13868155345E+03  0.30635450015E+03 -0.59743722042E+03  0.68557895116E+03  0.12699999809E+01 0.  1.
       -4    1    3    3    0  502 -0.13868155345E+03 -0.30635450015E+03 -0.27562598650E+03  0.43480679659E+03  0.12699999809E+01 0. -1.
</event>
<event>
 5   0  0.2913582E-03  0.6877755E+03  0.7818609E-02  0.9738369E-01
       -1   -1    0    0    0  501  0.00000000000E+00  0.00000000000E+00  0.16932930315E+03  0.16932930323E+03  0.50400001928E-02 0.  1.
        1   -1    0    0  501    0  0.00000000000E+00  0.00000000000E+00 -0.69839518935E+03  0.69839518937E+03  0.50400001928E-02 0. -1.
    10030    2    1    2    0    0  0.00000000000E+00  0.00000000000E+00 -0.52906588620E+03  0.86772449260E+03  0.68777545981E+03 0.  0.
        1    1    3    3  502    0 -0.12331309084E+03 -0.30054813792E+03 -0.12222211322E+03  0.34709299411E+03  0.50400001928E-02 0.  1.
       -1    1    3    3    0  502  0.12331309084E+03  0.30054813792E+03 -0.40684377298E+03  0.52063149849E+03  0.50400001928E-02 0. -1.
</event>
<event>
 5   0  0.4878235E-03  0.6984521E+03  0.7818609E-02  0.9719883E-01
        2   -1    0    0  501    0  0.00000000000E+00  0.00000000000E+00  0.11765906797E+04  0.11765906797E+04  0.25500000920E-02 0.  1.
       -2   -1    0    0    0  501  0.00000000000E+00  0.00000000000E+00 -0.10365441803E+03  0.10365441806E+03  0.25500000920E-02 0. -1.
    10030    2    1    2    0    0  0.00000000000E+00  0.00000000000E+00  0.10729362616E+04  0.12802450977E+04  0.69845206616E+03 0.  0.
        4    1    3    3  502    0  0.80851466786E+02 -0.15319760490E+03  0.10922880895E+04  0.11059391255E+04  0.12699999809E+01 0.  1.
       -4    1    3    3    0  502 -0.80851466786E+02  0.15319760490E+03 -0.19351827876E+02  0.17430597227E+03  0.12699999809E+01 0. -1.
</event>
<event>
 5   0  0.2913582E-03  0.7001629E+03  0.7818609E-02  0.9716954E-01
        1   -1    0    0  501    0  0.00000000000E+00  0.00000000000E+00  0.34418771551E+03  0.34418771555E+03  0.50400001928E-02 0. -1.
       -1   -1    0    0    0  501  0.00000000000E+00  0.00000000000E+00 -0.35607606927E+03  0.35607606930E+03  0.50400001928E-02 0.  1.
    10030    2    1    2    0    0  0.00000000000E+00  0.00000000000E+00 -0.11888353756E+02  0.70026378485E+03  0.70016286349E+03 0.  0.
        1    1    3    3  502    0 -0.10491798280E+03 -0.15578610535E+03 -0.30141850390E+03  0.35514814973E+03  0.50400001928E-02 0.  1.
       -1    1    3    3    0  502  0.10491798280E+03  0.15578610535E+03  0.28953015014E+03  0.34511563512E+03  0.50400001928E-02 0. -1.
</event>
<event>
 5   0  0.2913582E-03  0.6992168E+03  0.7818609E-02  0.9718572E-01
       -1   -1    0    0    0  501  0.00000000000E+00  0.00000000000E+00  0.30589343514E+03  0.30589343518E+03  0.50400001928E-02 0.  1.
        1   -1    0    0  501    0  0.00000000000E+00  0.00000000000E+00 -0.39957067240E+03  0.39957067243E+03  0.50400001928E-02 0. -1.
    10030    2    1    2    0    0  0.00000000000E+00  0.00000000000E+00 -0.93677237260E+02  0.70546410761E+03  0.69921683500E+03 0.  0.
        1    1    3    3  502    0 -0.31268233828E+01 -0.12752991569E+03  0.28157293216E+03  0.30912290852E+03  0.50400001928E-02 0.  1.
       -1    1    3    3    0  502  0.31268233828E+01  0.12752991569E+03 -0.37525016942E+03  0.39634119909E+03  0.50400001928E-02 0. -1.
</event>
<event>
 5   0  0.2913582E-03  0.6986064E+03  0.7818609E-02  0.9719618E-01
       -1   -1    0    0    0  501  0.00000000000E+00  0.00000000000E+00  0.10849641120E+03  0.10849641132E+03  0.50400001928E-02 0.  1.
        1   -1    0    0  501    0  0.00000000000E+00  0.00000000000E+00 -0.11245783648E+04  0.11245783648E+04  0.50400001928E-02 0. -1.
    10030    2    1    2    0    0  0.00000000000E+00  0.00000000000E+00 -0.10160819536E+04  0.12330747761E+04  0.69860637494E+03 0.  0.
        1    1    3    3  502    0 -0.11516470546E+03  0.39167469416E+01  0.73982473872E+02  0.13693668886E+03  0.50400001928E-02 0.  1.
       -1    1    3    3    0  502  0.11516470546E+03 -0.39167469416E+01 -0.10900644275E+04  0.10961380873E+04  0.50400001928E-02 0. -1.
</event>
<event>
 5   0  0.2934483E-03  0.6993188E+03  0.7818609E-02  0.9718398E-01
        1   -1    0    0  501    0  0.00000000000E+00  0.00000000000E+00  0.14187889932E+03  0.14187889941E+03  0.50400001928E-02 0.  1.
       -1   -1    0    0    0  501  0.00000000000E+00  0.00000000000E+00 -0.86173276273E+03  0.86173276275E+03  0.50400001928E-02 0. -1.
    10030    2    1    2    0    0  0.00000000000E+00  0.00000000000E+00 -0.71985386341E+03  0.10036116622E+04  0.69931879980E+03 0.  0.
        5    1    3    3  502    0  0.20722565883E+03  0.15847121399E+01 -0.76404880680E+03  0.79166764122E+03  0.46999998093E+01 0. -1.
       -5    1    3    3    0  502 -0.20722565883E+03 -0.15847121399E+01  0.44194943390E+02  0.21194402093E+03  0.46999998093E+01 0.  1.
</event>
<event>
 5   0  0.2937617E-03  0.7006950E+03  0.7818609E-02  0.9716044E-01
        1   -1    0    0  501    0  0.00000000000E+00  0.00000000000E+00  0.20979759681E+03  0.20979759687E+03  0.50400001928E-02 0. -1.
       -1   -1    0    0    0  501  0.00000000000E+00  0.00000000000E+00 -0.58505615945E+03  0.58505615947E+03  0.50400001928E-02 0.  1.
    10030    2    1    2    0    0  0.00000000000E+00  0.00000000000E+00 -0.37525856264E+03  0.79485375634E+03  0.70069501578E+03 0.  0.
        3    1    3    3  502    0  0.16938441234E+03 -0.18642225750E+03 -0.46386637313E+03  0.52784122571E+03  0.10100000352E+00 0.  1.
       -3    1    3    3    0  502 -0.16938441234E+03  0.18642225750E+03  0.88607810489E+02  0.26701253063E+03  0.10100000352E+00 0. -1.
</event>
<event>
 5   0  0.3013140E-03  0.7047784E+03  0.7818609E-02  0.9709095E-01
        1   -1    0    0  501    0  0.00000000000E+00  0.00000000000E+00  0.80810987623E+03  0.80810987625E+03  0.50400001928E-02 0. -1.
       -1   -1    0    0    0  501  0.00000000000E+00  0.00000000000E+00 -0.15366492083E+03  0.15366492091E+03  0.50400001928E-02 0.  1.
    10030    2    1    2    0    0  0.00000000000E+00  0.00000000000E+00  0.65444495541E+03  0.96177479716E+03  0.70477837707E+03 0.  0.
        2    1    3    3  502    0  0.47982368443E+02  0.34420620096E+03  0.40677017902E+03  0.53501606986E+03  0.25500000920E-02 0.  1.
       -2    1    3    3    0  502 -0.47982368443E+02 -0.34420620096E+03  0.24767477639E+03  0.42675872730E+03  0.25500000920E-02 0. -1.
</event>
<event>
 5   0  0.3013140E-03  0.7000831E+03  0.7818609E-02  0.9717090E-01
        1   -1    0    0  501    0  0.00000000000E+00  0.00000000000E+00  0.42968408615E+03  0.42968408618E+03  0.50400001928E-02 0.  1.
       -1   -1    0    0    0  501  0.00000000000E+00  0.00000000000E+00 -0.28516090671E+03  0.28516090676E+03  0.50400001928E-02 0. -1.
    10030    2    1    2    0    0  0.00000000000E+00  0.00000000000E+00  0.14452317944E+03  0.71484499294E+03  0.70008314830E+03 0.  0.
        2    1    3    3  502    0  0.25254631401E+03 -0.99508577177E+02 -0.15341341125E+03  0.31179684478E+03  0.25500000920E-02 0. -1.
       -2    1    3    3    0  502 -0.25254631401E+03  0.99508577177E+02  0.29793659069E+03  0.40304814816E+03  0.25500000920E-02 0.  1.
</event>
<event>
 5   0  0.3013140E-03  0.7036157E+03  0.7818609E-02  0.9711069E-01
       -1   -1    0    0    0  501  0.00000000000E+00  0.00000000000E+00  0.89475736371E+02  0.89475736513E+02  0.50400001928E-02 0.  1.
        1   -1    0    0  501    0  0.00000000000E+00  0.00000000000E+00 -0.13832661411E+04  0.13832661411E+04  0.50400001928E-02 0. -1.
    10030    2    1    2    0    0  0.00000000000E+00  0.00000000000E+00 -0.12937904047E+04  0.14727418776E+04  0.70361568112E+03 0.  0.
        2    1    3    3  502    0  0.15074820802E+03 -0.26024734564E+03 -0.10289374436E+04  0.10719915886E+04  0.25500000920E-02 0. -1.
       -2    1    3    3    0  502 -0.15074820802E+03  0.26024734564E+03 -0.26485296110E+03  0.40075028901E+03  0.25500000920E-02 0.  1.
</event>
<event>
 5   0  0.5076796E-03  0.6999442E+03  0.7818609E-02  0.9717328E-01
        2   -1    0    0  501    0  0.00000000000E+00  0.00000000000E+00  0.18604650436E+04  0.18604650436E+04  0.25500000920E-02 0.  1.
       -2   -1    0    0    0  501  0.00000000000E+00  0.00000000000E+00 -0.65833264081E+02  0.65833264130E+02  0.25500000920E-02 0. -1.
    10030    2    1    2    0    0  0.00000000000E+00  0.00000000000E+00  0.17946317795E+04  0.19262983077E+04  0.69994424514E+03 0.  0.
        5    1    3    3  502    0  0.30325650447E+02 -0.27074782145E+03  0.29289648998E+03  0.40004308735E+03  0.46999998093E+01 0. -1.
       -5    1    3    3    0  502 -0.30325650447E+02  0.27074782145E+03  0.15017352895E+04  0.15262552204E+04  0.46999998093E+01 0.  1.
</event>
<event>
 5   0  0.2913582E-03  0.6999127E+03  0.7818609E-02  0.9717381E-01
       -1   -1    0    0    0  501  0.00000000000E+00  0.00000000000E+00  0.27150047086E+03  0.27150047090E+03  0.50400001928E-02 0. -1.
        1   -1    0    0  501    0  0.00000000000E+00  0.00000000000E+00 -0.45108377131E+03  0.45108377134E+03  0.50400001928E-02 0.  1.
    10030    2    1    2    0    0  0.00000000000E+00  0.00000000000E+00 -0.17958330045E+03  0.72258424224E+03  0.69991272694E+03 0.  0.
        1    1    3    3  502    0 -0.16265288798E+03 -0.26158401601E+01  0.23009436770E+03  0.28179109756E+03  0.50400001928E-02 0. -1.
       -1    1    3    3    0  502  0.16265288798E+03  0.26158401601E+01 -0.40967766816E+03  0.44079314468E+03  0.50400001928E-02 0.  1.
</event>
<event>
 5   0  0.2934483E-03  0.7032635E+03  0.7818609E-02  0.9711667E-01
       -1   -1    0    0    0  501  0.00000000000E+00  0.00000000000E+00  0.15137966924E+03  0.15137966932E+03  0.50400001928E-02 0. -1.
        1   -1    0    0  501    0  0.00000000000E+00  0.00000000000E+00 -0.81678665924E+03  0.81678665925E+03  0.50400001928E-02 0.  1.
    10030    2    1    2    0    0  0.00000000000E+00  0.00000000000E+00 -0.66540699000E+03  0.96816632857E+03  0.70326351920E+03 0.  0.
        5    1    3    3  502    0 -0.11904480031E+03 -0.50066081523E+02  0.11750238986E+03  0.17466304309E+03  0.46999998093E+01 0. -1.
       -5    1    3    3    0  502  0.11904480031E+03  0.50066081523E+02 -0.78290937986E+03  0.79350328549E+03  0.46999998093E+01 0.  1.
</event>
<event>
 5   0  0.5076796E-03  0.6987114E+03  0.7818609E-02  0.9719438E-01
        2   -1    0    0  501    0  0.00000000000E+00  0.00000000000E+00  0.29526753748E+03  0.29526753749E+03  0.25500000920E-02 0. -1.
       -2   -1    0    0    0  501  0.00000000000E+00  0.00000000000E+00 -0.41335188429E+03  0.41335188430E+03  0.25500000920E-02 0.  1.
    10030    2    1    2    0    0  0.00000000000E+00  0.00000000000E+00 -0.11808434681E+03  0.70861942179E+03  0.69871136528E+03 0.  0.
        5    1    3    3  502    0  0.25526693856E+01 -0.33655064305E+03 -0.15393419851E+03  0.37012251881E+03  0.46999998093E+01 0.  1.
       -5    1    3    3    0  502 -0.25526693856E+01  0.33655064305E+03  0.35849851699E+02  0.33849690298E+03  0.46999998093E+01 0. -1.
</event>
<event>
 5   0  0.2938783E-03  0.6998973E+03  0.7818609E-02  0.9717408E-01
       -1   -1    0    0    0  501  0.00000000000E+00  0.00000000000E+00  0.21383381129E+03  0.21383381135E+03  0.50400001928E-02 0. -1.
        1   -1    0    0  501    0  0.00000000000E+00  0.00000000000E+00 -0.57270672814E+03  0.57270672816E+03  0.50400001928E-02 0.  1.
    10030    2    1    2    0    0  0.00000000000E+00  0.00000000000E+00 -0.35887291684E+03  0.78654053952E+03  0.69989731379E+03 0.  0.
        4    1    3    3  502    0  0.83815857420E+02  0.57944626146E+02 -0.55566384368E+03  0.56493061320E+03  0.12699999809E+01 0.  1.
       -4    1    3    3    0  502 -0.83815857420E+02 -0.57944626146E+02  0.19679092684E+03  0.22160992631E+03  0.12699999809E+01 0. -1.
</event>
<event>
 5   0  0.4878235E-03  0.7005721E+03  0.7818609E-02  0.9716254E-01
       -2   -1    0    0    0  501  0.00000000000E+00  0.00000000000E+00  0.16156366036E+03  0.16156366038E+03  0.25500000920E-02 0.  1.
        2   -1    0    0  501    0  0.00000000000E+00  0.00000000000E+00 -0.75945494501E+03  0.75945494501E+03  0.25500000920E-02 0. -1.
    10030    2    1    2    0    0  0.00000000000E+00  0.00000000000E+00 -0.59789128465E+03  0.92101860539E+03  0.70057211136E+03 0.  0.
        4    1    3    3  502    0 -0.56324452959E+02  0.16176658302E+02 -0.75296179016E+03  0.75523982854E+03  0.12699999809E+01 0. -1.
       -4    1    3    3    0  502  0.56324452959E+02 -0.16176658302E+02  0.15507050551E+03  0.16577877685E+03  0.12699999809E+01 0.  1.
</event>
<event>
 5   0  0.5072407E-03  0.6994485E+03  0.7818609E-02  0.9718176E-01
        2   -1    0    0  501    0  0.00000000000E+00  0.00000000000E+00  0.36515095501E+03  0.36515095502E+03  0.25500000920E-02 0.  1.
       -2   -1    0    0    0  501  0.00000000000E+00  0.00000000000E+00 -0.33494930859E+03  0.33494930859E+03  0.25500000920E-02 0. -1.
    10030    2    1    2    0    0  0.00000000000E+00  0.00000000000E+00  0.30201646426E+02  0.70010026361E+03  0.69944852539E+03 0.  0.
        1    1    3    3  502    0  0.31441434678E+02 -0.25141684902E+03  0.25638157966E+03  0.36045874965E+03  0.50400001928E-02 0.  1.
       -1    1    3    3    0  502 -0.31441434678E+02  0.25141684902E+03 -0.22617993323E+03  0.33964151396E+03  0.50400001928E-02 0. -1.
</event>
<event>
 5   0  0.2937617E-03  0.7003021E+03  0.7818609E-02  0.9716716E-01
       -1   -1    0    0    0  501  0.00000000000E+00  0.00000000000E+00  0.78808463494E+02  0.78808463655E+02  0.50400001928E-02 0.  1.
        1   -1    0    0  501    0  0.00000000000E+00  0.00000000000E+00 -0.15557437325E+04  0.15557437325E+04  0.50400001928E-02 0. -1.
    10030    2    1    2    0    0  0.00000000000E+00  0.00000000000E+00 -0.14769352690E+04  0.16345521962E+04  0.70030214419E+03 0.  0.
        3    1    3    3  502    0  0.20726347210E+03 -0.17481100272E+02 -0.13959210473E+04  0.14113324613E+04  0.10100000352E+00 0. -1.
       -3    1    3    3    0  502 -0.20726347210E+03  0.17481100272E+02 -0.81014221731E+02  0.22321973492E+03  0.10100000352E+00 0.  1.
</event>
<event>
 5   0  0.5113683E-03  0.6996654E+03  0.7818609E-02  0.9717805E-01
        2   -1    0    0  501    0  0.00000000000E+00  0.00000000000E+00  0.95377423484E+03  0.95377423484E+03  0.25500000920E-02 0. -1.
       -2   -1    0    0    0  501  0.00000000000E+00  0.00000000000E+00 -0.12831434178E+03  0.12831434180E+03  0.25500000920E-02 0.  1.
    10030    2    1    2    0    0  0.00000000000E+00  0.00000000000E+00  0.82545989306E+03  0.10820885766E+04  0.69966538621E+03 0.  0.
        3    1    3    3  502    0  0.15666393466E+03 -0.42231120430E+02 -0.66599738942E+02  0.17539267768E+03  0.10100000352E+00 0.  1.
       -3    1    3    3    0  502 -0.15666393466E+03  0.42231120430E+02  0.89205963200E+03  0.90669589896E+03  0.10100000352E+00 0. -1.
</event>
<event>
 5   0  0.2938783E-03  0.6996003E+03  0.7818609E-02  0.9717916E-01
        1   -1    0    0  501    0  0.00000000000E+00  0.00000000000E+00  0.47843456916E+03  0.47843456919E+03  0.50400001928E-02 0. -1.
       -1   -1    0    0    0  501  0.00000000000E+00  0.00000000000E+00 -0.25575103152E+03  0.25575103157E+03  0.50400001928E-02 0.  1.
    10030    2    1    2    0    0  0.00000000000E+00  0.00000000000E+00  0.22268353764E+03  0.73418560076E+03  0.69960027046E+03 0.  0.
        4    1    3    3  502    0  0.30398146363E+03  0.10274331160E+03 -0.34818701442E+02  0.32276132541E+03  0.12699999809E+01 0.  1.
       -4    1    3    3    0  502 -0.30398146363E+03 -0.10274331160E+03  0.25750223908E+03  0.41142427535E+03  0.12699999809E+01 0. -1.
</event>
<event>
 5   0  0.5023894E-03  0.7005089E+03  0.7818609E-02  0.9716362E-01
       -2   -1    0    0    0  501  0.00000000000E+00  0.00000000000E+00  0.22765279836E+03  0.22765279838E+03  0.25500000920E-02 0.  1.
        2   -1    0    0  501    0  0.00000000000E+00  0.00000000000E+00 -0.53888275626E+03  0.53888275626E+03  0.25500000920E-02 0. -1.
    10030    2    1    2    0    0  0.00000000000E+00  0.00000000000E+00 -0.31122995790E+03  0.76653555464E+03  0.70050886492E+03 0.  0.
        2    1    3    3  502    0  0.18078754289E+03  0.18495527792E+03 -0.41406682150E+03  0.48820479634E+03  0.25500000920E-02 0. -1.
       -2    1    3    3    0  502 -0.18078754289E+03 -0.18495527792E+03  0.10283686360E+03  0.27833075830E+03  0.25500000920E-02 0.  1.
</event>
<event>
 5   0  0.2938783E-03  0.6991127E+03  0.7818609E-02  0.9718751E-01
       -1   -1    0    0    0  501  0.00000000000E+00  0.00000000000E+00  0.27224139444E+03  0.27224139449E+03  0.50400001928E-02 0. -1.
        1   -1    0    0  501    0  0.00000000000E+00  0.00000000000E+00 -0.44882827054E+03  0.44882827057E+03  0.50400001928E-02 0.  1.
    10030    2    1    2    0    0  0.00000000000E+00  0.00000000000E+00 -0.17658687610E+03  0.72106966506E+03  0.69911267837E+03 0.  0.
        4    1    3    3  502    0  0.25962099266E+03 -0.17113080370E+03 -0.25299336495E+03  0.40086914001E+03  0.12699999809E+01 0.  1.
       -4    1    3    3    0  502 -0.25962099266E+03  0.17113080370E+03  0.76406488852E+02  0.32020052505E+03  0.12699999809E+01 0. -1.
</event>
<event>
 5   0  0.2938783E-03  0.6996947E+03  0.7818609E-02  0.9717754E-01
        1   -1    0    0  501    0  0.00000000000E+00  0.00000000000E+00  0.95850694315E+03  0.95850694316E+03  0.50400001928E-02 0.  1.
       -1   -1    0    0    0  501  0.00000000000E+00  0.00000000000E+00 -0.12769148177E+03  0.12769148187E+03  0.50400001928E-02 0. -1.
    10030    2    1    2    0    0  0.00000000000E+00  0.00000000000E+00  0.83081546138E+03  0.10861984250E+04  0.69969471033E+03 0.  0.
        4    1    3    3  502    0  0.74583391797E+02 -0.28529172782E+03  0.12317277870E+03  0.31957346355E+03  0.12699999809E+01 0. -1.
       -4    1    3    3    0  502 -0.74583391797E+02  0.28529172782E+03  0.70764268269E+03  0.76662496147E+03  0.12699999809E+01 0.  1.
</event>
<event>
 5   0  0.3013140E-03  0.6994822E+03  0.7818609E-02  0.9718118E-01
       -1   -1    0    0    0  501  0.00000000000E+00  0.00000000000E+00  0.31578617470E+03  0.31578617474E+03  0.50400001928E-02 0. -1.
        1   -1    0    0  501    0  0.00000000000E+00  0.00000000000E+00 -0.38734697950E+03  0.38734697953E+03  0.50400001928E-02 0.  1.
    10030    2    1    2    0    0  0.00000000000E+00  0.00000000000E+00 -0.71560804805E+02  0.70313315427E+03  0.69948215406E+03 0.  0.
        2    1    3    3  502    0  0.20499736139E+03  0.15848705375E+03 -0.27190379885E+03  0.37559784373E+03  0.25500000920E-02 0.  1.
       -2    1    3    3    0  502 -0.20499736139E+03 -0.15848705375E+03  0.20034299404E+03  0.32753531054E+03  0.25500000920E-02 0. -1.
</event>
<event>
 5   0  0.5023894E-03  0.7008160E+03  0.7818609E-02  0.9715838E-01
       -2   -1    0    0    0  501  0.00000000000E+00  0.00000000000E+00  0.16707341875E+03  0.16707341877E+03  0.25500000920E-02 0. -1.
        2   -1    0    0  501    0  0.00000000000E+00  0.00000000000E+00 -0.73492111461E+03  0.73492111462E+03  0.25500000920E-02 0.  1.
    10030    2    1    2    0    0  0.00000000000E+00  0.00000000000E+00 -0.56784769586E+03  0.90199453339E+03  0.70081604760E+03 0.  0.
        2    1    3    3  502    0  0.39944367773E+01 -0.24076984782E+03 -0.61155590752E+03  0.65725695369E+03  0.25500000920E-02 0.  1.
       -2    1    3    3    0  502 -0.39944367773E+01  0.24076984782E+03  0.43708211659E+02  0.24473757970E+03  0.25500000920E-02 0. -1.
</event>
<event>
 5   0  0.5072407E-03  0.6998896E+03  0.7818609E-02  0.9717421E-01
       -2   -1    0    0    0  501  0.00000000000E+00  0.00000000000E+00  0.68712188675E+03  0.68712188675E+03  0.25500000920E-02 0. -1.
        2   -1    0    0  501    0  0.00000000000E+00  0.00000000000E+00 -0.17822363019E+03  0.17822363020E+03  0.25500000920E-02 0.  1.
    10030    2    1    2    0    0  0.00000000000E+00  0.00000000000E+00  0.50889825656E+03  0.86534551696E+03  0.69988958285E+03 0.  0.
        1    1    3    3  502    0 -0.15096971592E+03  0.26219858729E+03  0.37034074084E+02  0.30481383986E+03  0.50400001928E-02 0.  1.
       -1    1    3    3    0  502  0.15096971592E+03 -0.26219858729E+03  0.47186418248E+03  0.56053167710E+03  0.50400001928E-02 0. -1.
</event>
<event>
 5   0  0.1981750E-03  0.6992784E+03  0.7818609E-02  0.9718467E-01
        4   -1    0    0  501    0  0.00000000000E+00  0.00000000000E+00  0.31389245495E+03  0.31389502413E+03  0.12699999809E+01 0. -1.
       -4   -1    0    0    0  501  0.00000000000E+00  0.00000000000E+00 -0.38945163135E+03  0.38945370207E+03  0.12699999809E+01 0.  1.
    10030    2    1    2    0    0  0.00000000000E+00  0.00000000000E+00 -0.75559176401E+02  0.70334872620E+03  0.69927837197E+03 0.  0.
        2    1    3    3  502    0 -0.33649401739E+03 -0.88565273607E+02 -0.32940290213E+01  0.34796965681E+03  0.25500000920E-02 0. -1.
       -2    1    3    3    0  502  0.33649401739E+03  0.88565273607E+02 -0.72265147380E+02  0.35537906939E+03  0.25500000920E-02 0.  1.
</event>
<event>
 5   0  0.5072407E-03  0.7000429E+03  0.7818609E-02  0.9717159E-01
        2   -1    0    0  501    0  0.00000000000E+00  0.00000000000E+00  0.90565571794E+03  0.90565571794E+03  0.25500000920E-02 0.  1.
       -2   -1    0    0    0  501  0.00000000000E+00  0.00000000000E+00 -0.13527770473E+03  0.13527770475E+03  0.25500000920E-02 0. -1.
    10030    2    1    2    0    0  0.00000000000E+00  0.00000000000E+00  0.77037801321E+03  0.10409334227E+04  0.70004293242E+03 0.  0.
        1    1    3    3  502    0  0.15423120198E+03 -0.29488064100E+03  0.54653010084E+03  0.63987264924E+03  0.50400001928E-02 0.  1.
       -1    1    3    3    0  502 -0.15423120198E+03  0.29488064100E+03  0.22384791237E+03  0.40106077345E+03  0.50400001928E-02 0. -1.
</event>
<event>
 5   0  0.2913582E-03  0.6998025E+03  0.7818609E-02  0.9717570E-01
        1   -1    0    0  501    0  0.00000000000E+00  0.00000000000E+00  0.15070282426E+04  0.15070282426E+04  0.50400001928E-02 0.  1.
       -1   -1    0    0    0  501  0.00000000000E+00  0.00000000000E+00 -0.81239934424E+02  0.81239934581E+02  0.50400001928E-02 0. -1.
    10030    2    1    2    0    0  0.00000000000E+00  0.00000000000E+00  0.14257883082E+04  0.15882681772E+04  0.69980247423E+03 0.  0.
        1    1    3    3  502    0 -0.31783437482E+03  0.95978732416E+02  0.96358187419E+03  0.10191764495E+04  0.50400001928E-02 0.  1.
       -1    1    3    3    0  502  0.31783437482E+03 -0.95978732416E+02  0.46220643398E+03  0.56909172769E+03  0.50400001928E-02 0. -1.
</event>
<event>
 5   0  0.5076796E-03  0.7004308E+03  0.7818609E-02  0.9716496E-01
       -2   -1    0    0    0  501  0.00000000000E+00  0.00000000000E+00  0.23803531194E+03  0.23803531195E+03  0.25500000920E-02 0.  1.
        2   -1    0    0  501    0  0.00000000000E+00  0.00000000000E+00 -0.51526315504E+03  0.51526315505E+03  0.25500000920E-02 0. -1.
    10030    2    1    2    0    0  0.00000000000E+00  0.00000000000E+00 -0.27722784310E+03  0.75329846700E+03  0.70043079843E+03 0.  0.
        5    1    3    3  502    0  0.12387919039E+03  0.29395747009E+03  0.16760897082E+02  0.31946841112E+03  0.46999998093E+01 0.  1.
       -5    1    3    3    0  502 -0.12387919039E+03 -0.29395747009E+03 -0.29398874019E+03  0.43383005588E+03  0.46999998093E+01 0. -1.
</event>
<event>
 5   0  0.2934483E-03  0.6994634E+03  0.7818609E-02  0.9718150E-01
       -1   -1    0    0    0  501  0.00000000000E+00  0.00000000000E+00  0.13149458836E+03  0.13149458846E+03  0.50400001928E-02 0. -1.
        1   -1    0    0  501    0  0.00000000000E+00  0.00000000000E+00 -0.93016942828E+03  0.93016942829E+03  0.50400001928E-02 0.  1.
    10030    2    1    2    0    0  0.00000000000E+00  0.00000000000E+00 -0.79867483992E+03  0.10616640167E+04  0.69946335468E+03 0.  0.
        5    1    3    3  502    0  0.24333715261E+03  0.23969242497E+03 -0.51317165225E+03  0.61646789300E+03  0.46999998093E+01 0. -1.
       -5    1    3    3    0  502 -0.24333715261E+03 -0.23969242497E+03 -0.28550318766E+03  0.44519612374E+03  0.46999998093E+01 0.  1.
</event>
<event>
 5   0  0.4878235E-03  0.7069975E+03  0.7818609E-02  0.9705340E-01
        2   -1    0    0  501    0  0.00000000000E+00  0.00000000000E+00  0.49552111385E+03  0.49552111386E+03  0.25500000920E-02 0.  1.
       -2   -1    0    0    0  501  0.00000000000E+00  0.00000000000E+00 -0.25218171772E+03  0.25218171773E+03  0.25500000920E-02 0. -1.
    10030    2    1    2    0    0  0.00000000000E+00  0.00000000000E+00  0.24333939613E+03  0.74770283159E+03  0.70699749834E+03 0.  0.
        4    1    3    3  502    0 -0.17578911976E+02  0.12020929903E+03  0.47274707919E+03  0.48810931921E+03  0.12699999809E+01 0.  1.
       -4    1    3    3    0  502  0.17578911976E+02 -0.12020929903E+03 -0.22940768306E+03  0.25959351238E+03  0.12699999809E+01 0. -1.
</event>
<event>
 5   0  0.4878235E-03  0.6970906E+03  0.7818609E-02  0.9722221E-01
        2   -1    0    0  501    0  0.00000000000E+00  0.00000000000E+00  0.25425458516E+03  0.25425458517E+03  0.25500000920E-02 0.  1.
       -2   -1    0    0    0  501  0.00000000000E+00  0.00000000000E+00 -0.47780382132E+03  0.47780382133E+03  0.25500000920E-02 0. -1.
    10030    2    1    2    0    0  0.00000000000E+00  0.00000000000E+00 -0.22354923617E+03  0.73205840650E+03  0.69709056050E+03 0.  0.
        4    1    3    3  502    0 -0.43034521344E+02  0.27356307255E+03 -0.33403594719E+03  0.43390131551E+03  0.12699999809E+01 0. -1.
       -4    1    3    3    0  502  0.43034521344E+02 -0.27356307255E+03  0.11048671102E+03  0.29815709098E+03  0.12699999809E+01 0.  1.
</event>
<event>
 5   0  0.3013140E-03  0.7030984E+03  0.7818609E-02  0.9711948E-01
        1   -1    0    0  501    0  0.00000000000E+00  0.00000000000E+00  0.46367782042E+03  0.46367782045E+03  0.50400001928E-02 0. -1.
       -1   -1    0    0    0  501  0.00000000000E+00  0.00000000000E+00 -0.26653598097E+03  0.26653598102E+03  0.50400001928E-02 0.  1.
    10030    2    1    2    0    0  0.00000000000E+00  0.00000000000E+00  0.19714183945E+03  0.73021380146E+03  0.70309835086E+03 0.  0.
        2    1    3    3  502    0  0.10375125520E+03 -0.25474794536E+03  0.32593375562E+03  0.42648991979E+03  0.25500000920E-02 0. -1.
       -2    1    3    3    0  502 -0.10375125520E+03  0.25474794536E+03 -0.12879191617E+03  0.30372388167E+03  0.25500000920E-02 0.  1.
</event>
<event>
 5   0  0.1981750E-03  0.6991772E+03  0.7818609E-02  0.9718640E-01
       -3   -1    0    0    0  501  0.00000000000E+00  0.00000000000E+00  0.98491190185E+02  0.98491241971E+02  0.10100000352E+00 0.  1.
        3   -1    0    0  501    0  0.00000000000E+00  0.00000000000E+00 -0.12408435568E+04  0.12408435609E+04  0.10100000352E+00 0. -1.
    10030    2    1    2    0    0  0.00000000000E+00  0.00000000000E+00 -0.11423523666E+04  0.13393348029E+04  0.69917721980E+03 0.  0.
        3    1    3    3  502    0 -0.15424072201E+03  0.19533696837E+03 -0.10414340855E+04  0.10707622034E+04  0.10100000352E+00 0. -1.
       -3    1    3    3    0  502  0.15424072201E+03 -0.19533696837E+03 -0.10091828111E+03  0.26857259950E+03  0.10100000352E+00 0.  1.
</event>
<event>
 5   0  0.2913582E-03  0.7004413E+03  0.7818609E-02  0.9716478E-01
        1   -1    0    0  501    0  0.00000000000E+00  0.00000000000E+00  0.15923476048E+04  0.15923476048E+04  0.50400001928E-02 0. -1.
       -1   -1    0    0    0  501  0.00000000000E+00  0.00000000000E+00 -0.77027470973E+02  0.77027471137E+02  0.50400001928E-02 0.  1.
    10030    2    1    2    0    0  0.00000000000E+00  0.00000000000E+00  0.15153201338E+04  0.16693750760E+04  0.70044131532E+03 0.  0.
        1    1    3    3  502    0 -0.19852159975E+03  0.27199717897E+03  0.52830083474E+03  0.62649426409E+03  0.50400001928E-02 0.  1.
       -1    1    3    3    0  502  0.19852159975E+03 -0.27199717897E+03  0.98701929910E+03  0.10428808119E+04  0.50400001928E-02 0. -1.
</event>
<event>
 5   0  0.2934483E-03  0.7192032E+03  0.7818609E-02  0.9684944E-01
        1   -1    0    0  501    0  0.00000000000E+00  0.00000000000E+00  0.15940784486E+03  0.15940784494E+03  0.50400001928E-02 0. -1.
       -1   -1    0    0    0  501  0.00000000000E+00  0.00000000000E+00 -0.81121051403E+03  0.81121051405E+03  0.50400001928E-02 0.  1.
    10030    2    1    2    0    0  0.00000000000E+00  0.00000000000E+00 -0.65180266917E+03  0.97061835899E+03  0.71920322530E+03 0.  0.
        5    1    3    3  502    0 -0.53564597180E+01  0.26867554548E+03 -0.64832254175E+03  0.70182579643E+03  0.46999998093E+01 0.  1.
       -5    1    3    3    0  502  0.53564597180E+01 -0.26867554548E+03 -0.34801274190E+01  0.26879256256E+03  0.46999998093E+01 0. -1.
</event>
<event>
 5   0  0.4878235E-03  0.7012122E+03  0.7818609E-02  0.9715161E-01
       -2   -1    0    0    0  501  0.00000000000E+00  0.00000000000E+00  0.15403174912E+03  0.15403174914E+03  0.25500000920E-02 0. -1.
        2   -1    0    0  501    0  0.00000000000E+00  0.00000000000E+00 -0.79804730822E+03  0.79804730822E+03  0.25500000920E-02 0.  1.
    10030    2    1    2    0    0  0.00000000000E+00  0.00000000000E+00 -0.64401555910E+03  0.95207905737E+03  0.70121215842E+03 0.  0.
        4    1    3    3  502    0 -0.28448280890E+03  0.19267309839E+03 -0.41675599584E+03  0.54013013651E+03  0.12699999809E+01 0.  1.
       -4    1    3    3    0  502  0.28448280890E+03 -0.19267309839E+03 -0.22725956326E+03  0.41194892086E+03  0.12699999809E+01 0. -1.
</event>
<event>
 5   0  0.5076796E-03  0.6988610E+03  0.7818609E-02  0.9719182E-01
       -2   -1    0    0    0  501  0.00000000000E+00  0.00000000000E+00  0.18419472313E+03  0.18419472315E+03  0.25500000920E-02 0.  1.
        2   -1    0    0  501    0  0.00000000000E+00  0.00000000000E+00 -0.66289449118E+03  0.66289449119E+03  0.25500000920E-02 0. -1.
    10030    2    1    2    0    0  0.00000000000E+00  0.00000000000E+00 -0.47869976805E+03  0.84708921434E+03  0.69886097983E+03 0.  0.
        5    1    3    3  502    0  0.97772726807E+02 -0.14647109434E+03  0.12642777876E+03  0.21683948170E+03  0.46999998093E+01 0.  1.
       -5    1    3    3    0  502 -0.97772726807E+02  0.14647109434E+03 -0.60512754681E+03  0.63024973264E+03  0.46999998093E+01 0. -1.
</event>
<event>
 5   0  0.5072407E-03  0.6999867E+03  0.7818609E-02  0.9717255E-01
        2   -1    0    0  501    0  0.00000000000E+00  0.00000000000E+00  0.10595696607E+04  0.10595696607E+04  0.25500000920E-02 0.  1.
       -2   -1    0    0    0  501  0.00000000000E+00  0.00000000000E+00 -0.11560856497E+03  0.11560856499E+03  0.25500000920E-02 0. -1.
    10030    2    1    2    0    0  0.00000000000E+00  0.00000000000E+00  0.94396109571E+03  0.11751782257E+04  0.69998665122E+03 0.  0.
        1    1    3    3  502    0 -0.32963446287E+03 -0.20036086591E+02  0.66657608642E+03  0.74389784439E+03  0.50400001928E-02 0.  1.
       -1    1    3    3    0  502  0.32963446287E+03  0.20036086591E+02  0.27738500929E+03  0.43128038128E+03  0.50400001928E-02 0. -1.
</event>
<event>
 5   0  0.5072407E-03  0.6992840E+03  0.7818609E-02  0.9718457E-01
        2   -1    0    0  501    0  0.00000000000E+00  0.00000000000E+00  0.29998678257E+03  0.29998678258E+03  0.25500000920E-02 0. -1.
       -2   -1    0    0    0  501  0.00000000000E+00  0.00000000000E+00 -0.40751641432E+03  0.40751641433E+03  0.25500000920E-02 0.  1.
    10030    2    1    2    0    0  0.00000000000E+00  0.00000000000E+00 -0.10752963175E+03  0.70750319691E+03  0.69928402809E+03 0.  0.
        1    1    3    3  502    0  0.27144268449E+03 -0.19566188062E+03  0.48841352951E+02  0.33815703493E+03  0.50400001928E-02 0.  1.
       -1    1    3    3    0  502 -0.27144268449E+03  0.19566188062E+03 -0.15637098470E+03  0.36934616198E+03  0.50400001928E-02 0. -1.
</event>
<event>
 5   0  0.2934483E-03  0.6997006E+03  0.7818609E-02  0.9717744E-01
       -1   -1    0    0    0  501  0.00000000000E+00  0.00000000000E+00  0.29807784350E+03  0.29807784354E+03  0.50400001928E-02 0. -1.
        1   -1    0    0  501    0  0.00000000000E+00  0.00000000000E+00 -0.41061504704E+03  0.41061504707E+03  0.50400001928E-02 0.  1.
    10030    2    1    2    0    0  0.00000000000E+00  0.00000000000E+00 -0.11253720354E+03  0.70869289061E+03  0.69970064387E+03 0.  0.
        5    1    3    3  502    0  0.32621777773E+03  0.11731861535E+03 -0.88539298783E+01  0.34681721134E+03  0.46999998093E+01 0. -1.
       -5    1    3    3    0  502 -0.32621777773E+03 -0.11731861535E+03 -0.10368327366E+03  0.36187567927E+03  0.46999998093E+01 0.  1.
</event>
<event>
 5   0  0.2934483E-03  0.7003324E+03  0.7818609E-02  0.9716664E-01
        1   -1    0    0  501    0  0.00000000000E+00  0.00000000000E+00  0.25933315935E+03  0.25933315940E+03  0.50400001928E-02 0. -1.
       -1   -1    0    0    0  501  0.00000000000E+00  0.00000000000E+00 -0.47281412473E+03  0.47281412476E+03  0.50400001928E-02 0.  1.
    10030    2    1    2    0    0  0.00000000000E+00  0.00000000000E+00 -0.21348096538E+03  0.73214728416E+03  0.70033243757E+03 0.  0.
        5    1    3    3  502    0  0.10799646544E+03 -0.30738118769E+03  0.27334858172E+02  0.32697968678E+03  0.46999998093E+01 0. -1.
       -5    1    3    3    0  502 -0.10799646544E+03  0.30738118769E+03 -0.24081582355E+03  0.40516759738E+03  0.46999998093E+01 0.  1.
</event>
<event>
 5   0  0.4878235E-03  0.7001833E+03  0.7818609E-02  0.9716919E-01
        2   -1    0    0  501    0  0.00000000000E+00  0.00000000000E+00  0.43935890154E+03  0.43935890155E+03  0.25500000920E-02 0. -1.
       -2   -1    0    0    0  501  0.00000000000E+00  0.00000000000E+00 -0.27896135844E+03  0.27896135845E+03  0.25500000920E-02 0.  1.
    10030    2    1    2    0    0  0.00000000000E+00  0.00000000000E+00  0.16039754310E+03  0.71832026000E+03  0.70018327893E+03 0.  0.
        4    1    3    3  502    0 -0.13908211875E+03 -0.16227297099E+03  0.36466489308E+03  0.42268007999E+03  0.12699999809E+01 0. -1.
       -4    1    3    3    0  502  0.13908211875E+03  0.16227297099E+03 -0.20426734998E+03  0.29564018001E+03  0.12699999809E+01 0.  1.
</event>
<event>
 5   0  0.2938783E-03  0.7010049E+03  0.7818609E-02  0.9715515E-01
       -1   -1    0    0    0  501  0.00000000000E+00  0.00000000000E+00  0.10862437895E+03  0.10862437907E+03  0.50400001928E-02 0. -1.
        1   -1    0    0  501    0  0.00000000000E+00  0.00000000000E+00 -0.11309796973E+04  0.11309796973E+04  0.50400001928E-02 0.  1.
    10030    2    1    2    0    0  0.00000000000E+00  0.00000000000E+00 -0.10223553184E+04  0.12396040764E+04  0.70100489958E+03 0.  0.
        4    1    3    3  502    0 -0.36418840803E+02 -0.18604498659E+03 -0.10324924283E+04  0.10497529692E+04  0.12699999809E+01 0.  1.
       -4    1    3    3    0  502  0.36418840803E+02  0.18604498659E+03  0.10137109923E+02  0.18985110718E+03  0.12699999809E+01 0. -1.
</event>
<event>
 5   0  0.4878235E-03  0.6999152E+03  0.7818609E-02  0.9717377E-01
        2   -1    0    0  501    0  0.00000000000E+00  0.00000000000E+00  0.10222650480E+04  0.10222650480E+04  0.25500000920E-02 0. -1.
       -2   -1    0    0    0  501  0.00000000000E+00  0.00000000000E+00 -0.11980289372E+03  0.11980289375E+03  0.25500000920E-02 0.  1.
    10030    2    1    2    0    0  0.00000000000E+00  0.00000000000E+00  0.90246215424E+03  0.11420679417E+04  0.69991516889E+03 0.  0.
        4    1    3    3  502    0  0.90076880563E+02 -0.25005959714E+03  0.82269479924E+03  0.86456462577E+03  0.12699999809E+01 0. -1.
       -4    1    3    3    0  502 -0.90076880563E+02  0.25005959714E+03  0.79767354998E+02  0.27750331594E+03  0.12699999809E+01 0.  1.
</event>
<event>
 5   0  0.2937617E-03  0.7006560E+03  0.7818609E-02  0.9716111E-01
       -1   -1    0    0    0  501  0.00000000000E+00  0.00000000000E+00  0.21552141507E+03  0.21552141513E+03  0.50400001928E-02 0.  1.
        1   -1    0    0  501    0  0.00000000000E+00  0.00000000000E+00 -0.56945489627E+03  0.56945489629E+03  0.50400001928E-02 0. -1.
    10030    2    1    2    0    0  0.00000000000E+00  0.00000000000E+00 -0.35393348120E+03  0.78497631142E+03  0.70065604998E+03 0.  0.
        3    1    3    3  502    0 -0.23045422678E+02  0.32206044692E+03 -0.32924995332E+03  0.46115026286E+03  0.10100000352E+00 0.  1.
       -3    1    3    3    0  502  0.23045422678E+02 -0.32206044692E+03 -0.24683527878E+02  0.32382604856E+03  0.10100000352E+00 0. -1.
</event>
<event>
 5   0  0.2938783E-03  0.7030316E+03  0.7818609E-02  0.9712062E-01
       -1   -1    0    0    0  501  0.00000000000E+00  0.00000000000E+00  0.14233769410E+03  0.14233769419E+03  0.50400001928E-02 0.  1.
        1   -1    0    0  501    0  0.00000000000E+00  0.00000000000E+00 -0.86809996516E+03  0.86809996518E+03  0.50400001928E-02 0. -1.
    10030    2    1    2    0    0  0.00000000000E+00  0.00000000000E+00 -0.72576227106E+03  0.10104376594E+04  0.70303157068E+03 0.  0.
        4    1    3    3  502    0  0.12180349549E+02  0.25648179031E+03 -0.17848037990E+02  0.25739354117E+03  0.12699999809E+01 0.  1.
       -4    1    3    3    0  502 -0.12180349549E+02 -0.25648179031E+03 -0.70791423307E+03  0.75304411820E+03  0.12699999809E+01 0. -1.
</event>
<event>
 5   0  0.3013140E-03  0.7007310E+03  0.7818609E-02  0.9715983E-01
       -1   -1    0    0    0  501  0.00000000000E+00  0.00000000000E+00  0.15194036456E+03  0.15194036465E+03  0.50400001928E-02 0. -1.
        1   -1    0    0  501    0  0.00000000000E+00  0.00000000000E+00 -0.80792216839E+03  0.80792216840E+03  0.50400001928E-02 0.  1.
    10030    2    1    2    0    0  0.00000000000E+00  0.00000000000E+00 -0.65598180382E+03  0.95986253305E+03  0.70073101502E+03 0.  0.
        2    1    3    3  502    0 -0.10605305529E+03  0.30808515712E+03 -0.50443643114E+03  0.60051630090E+03  0.25500000920E-02 0.  1.
       -2    1    3    3    0  502  0.10605305529E+03 -0.30808515712E+03 -0.15154537268E+03  0.35934623215E+03  0.25500000920E-02 0. -1.
</event>
<event>
 5   0  0.5072407E-03  0.7014022E+03  0.7818609E-02  0.9714837E-01
       -2   -1    0    0    0  501  0.00000000000E+00  0.00000000000E+00  0.12371539075E+03  0.12371539078E+03  0.25500000920E-02 0.  1.
        2   -1    0    0  501    0  0.00000000000E+00  0.00000000000E+00 -0.99414682654E+03  0.99414682655E+03  0.25500000920E-02 0. -1.
    10030    2    1    2    0    0  0.00000000000E+00  0.00000000000E+00 -0.87043143579E+03  0.11178622173E+04  0.70140220453E+03 0.  0.
        1    1    3    3  502    0 -0.69864172018E+02  0.31830665351E+03 -0.22869616480E+03  0.39812317694E+03  0.50400001928E-02 0.  1.
       -1    1    3    3    0  502  0.69864172018E+02 -0.31830665351E+03 -0.64173527099E+03  0.71973904038E+03  0.50400001928E-02 0. -1.
</event>
<event>
 5   0  0.2913582E-03  0.6973749E+03  0.7818609E-02  0.9721732E-01
        1   -1    0    0  501    0  0.00000000000E+00  0.00000000000E+00  0.31314476399E+03  0.31314476404E+03  0.50400001928E-02 0. -1.
       -1   -1    0    0    0  501  0.00000000000E+00  0.00000000000E+00 -0.38826427502E+03  0.38826427505E+03  0.50400001928E-02 0.  1.
    10030    2    1    2    0    0  0.00000000000E+00  0.00000000000E+00 -0.75119511023E+02  0.70140903908E+03  0.69737486273E+03 0.  0.
        1    1    3    3  502    0 -0.23143459709E+03  0.14348297532E+03 -0.25661217638E+03  0.37416459751E+03  0.50400001928E-02 0.  1.
       -1    1    3    3    0  502  0.23143459709E+03 -0.14348297532E+03  0.18149266536E+03  0.32724444157E+03  0.50400001928E-02 0. -1.
</event>
<event>
 5   0  0.5072407E-03  0.6991852E+03  0.7818609E-02  0.9718627E-01
       -2   -1    0    0    0  501  0.00000000000E+00  0.00000000000E+00  0.71751622728E+02  0.71751622774E+02  0.25500000920E-02 0.  1.
        2   -1    0    0  501    0  0.00000000000E+00  0.00000000000E+00 -0.17033062317E+04  0.17033062317E+04  0.25500000920E-02 0. -1.
    10030    2    1    2    0    0  0.00000000000E+00  0.00000000000E+00 -0.16315546090E+04  0.17750578545E+04  0.69918520056E+03 0.  0.
        1    1    3    3  502    0  0.34586403321E+03 -0.50215501699E+02 -0.79431620338E+03  0.86780283305E+03  0.50400001928E-02 0.  1.
       -1    1    3    3    0  502 -0.34586403321E+03  0.50215501699E+02 -0.83723840561E+03  0.90725502144E+03  0.50400001928E-02 0. -1.
</event>
<event>
 5   0  0.5023894E-03  0.6998624E+03  0.7818609E-02  0.9717468E-01
        2   -1    0    0  501    0  0.00000000000E+00  0.00000000000E+00  0.41616547592E+03  0.41616547593E+03  0.25500000920E-02 0. -1.
       -2   -1    0    0    0  501  0.00000000000E+00  0.00000000000E+00 -0.29423832378E+03  0.29423832379E+03  0.25500000920E-02 0.  1.
    10030    2    1    2    0    0  0.00000000000E+00  0.00000000000E+00  0.12192715214E+03  0.71040379972E+03  0.69986236377E+03 0.  0.
        2    1    3    3  502    0 -0.74800192623E+02  0.30503501111E+03 -0.95666814105E+02  0.32831930517E+03  0.25500000920E-02 0.  1.
       -2    1    3    3    0  502  0.74800192623E+02 -0.30503501111E+03  0.21759396624E+03  0.38208449455E+03  0.25500000920E-02 0. -1.
</event>
<event>
 5   0  0.4878235E-03  0.7012505E+03  0.7818609E-02  0.9715096E-01
        2   -1    0    0  501    0  0.00000000000E+00  0.00000000000E+00  0.51460170468E+03  0.51460170469E+03  0.25500000920E-02 0.  1.
       -2   -1    0    0    0  501  0.00000000000E+00  0.00000000000E+00 -0.23889948204E+03  0.23889948206E+03  0.25500000920E-02 0. -1.
    10030    2    1    2    0    0  0.00000000000E+00  0.00000000000E+00  0.27570222264E+03  0.75350118675E+03  0.70125054215E+03 0.  0.
        4    1    3    3  502    0  0.39241732364E+02 -0.28862068817E+03  0.34757250709E+03  0.45348657729E+03  0.12699999809E+01 0.  1.
       -4    1    3    3    0  502 -0.39241732364E+02  0.28862068817E+03 -0.71870284447E+02  0.30001460946E+03  0.12699999809E+01 0. -1.
</event>
<event>
 5   0  0.3013140E-03  0.7011166E+03  0.7818609E-02  0.9715325E-01
        1   -1    0    0  501    0  0.00000000000E+00  0.00000000000E+00  0.36833380349E+03  0.36833380353E+03  0.50400001928E-02 0. -1.
       -1   -1    0    0    0  501  0.00000000000E+00  0.00000000000E+00 -0.33364066172E+03  0.33364066176E+03  0.50400001928E-02 0.  1.
    10030    2    1    2    0    0  0.00000000000E+00  0.00000000000E+00  0.34693141772E+02  0.70197446529E+03  0.70111663497E+03 0.  0.
        2    1    3    3  502    0  0.22583544140E+03  0.22239183259E+03 -0.13260770274E+03  0.34357615841E+03  0.25500000920E-02 0.  1.
       -2    1    3    3    0  502 -0.22583544140E+03 -0.22239183259E+03  0.16730084451E+03  0.35839830688E+03  0.25500000920E-02 0. -1.
</event>
<event>
 5   0  0.2913582E-03  0.6984634E+03  0.7818609E-02  0.9719864E-01
       -1   -1    0    0    0  501  0.00000000000E+00  0.00000000000E+00  0.20883846943E+03  0.20883846949E+03  0.50400001928E-02 0.  1.
        1   -1    0    0  501    0  0.00000000000E+00  0.00000000000E+00 -0.58400535444E+03  0.58400535447E+03  0.50400001928E-02 0. -1.
    10030    2    1    2    0    0  0.00000000000E+00  0.00000000000E+00 -0.37516688502E+03  0.79284382395E+03  0.69846341176E+03 0.  0.
        1    1    3    3  502    0 -0.27519327168E+03  0.21163458286E+03 -0.14447479478E+03  0.37602327028E+03  0.50400001928E-02 0.  1.
       -1    1    3    3    0  502  0.27519327168E+03 -0.21163458286E+03 -0.23069209024E+03  0.41682055367E+03  0.50400001928E-02 0. -1.
</event>
<event>
 5   0  0.4878235E-03  0.6940551E+03  0.7818609E-02  0.9727453E-01
       -2   -1    0    0    0  501  0.00000000000E+00  0.00000000000E+00  0.98752127211E+02  0.98752127244E+02  0.25500000920E-02 0. -1.
        2   -1    0    0  501    0  0.00000000000E+00  0.00000000000E+00 -0.12194991633E+04  0.12194991633E+04  0.25500000920E-02 0.  1.
    10030    2    1    2    0    0  0.00000000000E+00  0.00000000000E+00 -0.11207470361E+04  0.13182512906E+04  0.69405514632E+03 0.  0.
        4    1    3    3  502    0  0.27427131222E+02  0.20884655855E+03 -0.36562127094E+02  0.21379320518E+03  0.12699999809E+01 0. -1.
       -4    1    3    3    0  502 -0.27427131222E+02 -0.20884655855E+03 -0.10841849090E+04  0.11044580854E+04  0.12699999809E+01 0.  1.
</event>
<event>
 5   0  0.5076796E-03  0.6971872E+03  0.7818609E-02  0.9722055E-01
       -2   -1    0    0    0  501  0.00000000000E+00  0.00000000000E+00  0.16918323740E+03  0.16918323741E+03  0.25500000920E-02 0. -1.
        2   -1    0    0  501    0  0.00000000000E+00  0.00000000000E+00 -0.71825972479E+03  0.71825972479E+03  0.25500000920E-02 0.  1.
    10030    2    1    2    0    0  0.00000000000E+00  0.00000000000E+00 -0.54907648739E+03  0.88744296221E+03  0.69718722175E+03 0.  0.
        5    1    3    3  502    0  0.31580521874E+03 -0.29873505718E+02 -0.45842599716E+03  0.55749605147E+03  0.46999998093E+01 0.  1.
       -5    1    3    3    0  502 -0.31580521874E+03  0.29873505718E+02 -0.90650490231E+02  0.32994691074E+03  0.46999998093E+01 0. -1.
</event>
<event>
 5   0  0.1981750E-03  0.6985540E+03  0.7818609E-02  0.9719708E-01
        4   -1    0    0  501    0  0.00000000000E+00  0.00000000000E+00  0.28769057351E+03  0.28769337668E+03  0.12699999809E+01 0. -1.
       -4   -1    0    0    0  501  0.00000000000E+00  0.00000000000E+00 -0.42404157944E+03  0.42404348125E+03  0.12699999809E+01 0.  1.
    10030    2    1    2    0    0  0.00000000000E+00  0.00000000000E+00 -0.13635100592E+03  0.71173685793E+03  0.69855404811E+03 0.  0.
        5    1    3    3  502    0  0.25550598326E+03  0.84156666414E+02 -0.29510429479E+03  0.39934231780E+03  0.46999998093E+01 0.  1.
       -5    1    3    3    0  502 -0.25550598326E+03 -0.84156666414E+02  0.15875328886E+03  0.31239454014E+03  0.46999998093E+01 0. -1.
</event>
<event>
 5   0  0.1981750E-03  0.6995390E+03  0.7818609E-02  0.9718021E-01
        3   -1    0    0  501    0  0.00000000000E+00  0.00000000000E+00  0.37273749734E+03  0.37273751103E+03  0.10100000352E+00 0. -1.
       -3   -1    0    0    0  501  0.00000000000E+00  0.00000000000E+00 -0.32821673969E+03  0.32821675523E+03  0.10100000352E+00 0.  1.
    10030    2    1    2    0    0  0.00000000000E+00  0.00000000000E+00  0.44520757657E+02  0.70095426625E+03  0.69953898070E+03 0.  0.
        2    1    3    3  502    0 -0.11346910627E+03  0.27452913861E+03  0.20728826525E+03  0.36222908627E+03  0.25500000920E-02 0. -1.
       -2    1    3    3    0  502  0.11346910627E+03 -0.27452913861E+03 -0.16276750759E+03  0.33872517998E+03  0.25500000920E-02 0.  1.
</event>
<event>
 5   0  0.2937617E-03  0.6991899E+03  0.7818609E-02  0.9718619E-01
       -1   -1    0    0    0  501  0.00000000000E+00  0.00000000000E+00  0.16995337506E+04  0.16995337506E+04  0.50400001928E-02 0.  1.
        1   -1    0    0  501    0  0.00000000000E+00  0.00000000000E+00 -0.71911849883E+02  0.71911850059E+02  0.50400001928E-02 0. -1.
    10030    2    1    2    0    0  0.00000000000E+00  0.00000000000E+00  0.16276219007E+04  0.17714456006E+04  0.69918986293E+03 0.  0.
        3    1    3    3  502    0  0.40487324462E+02 -0.21224586701E+03  0.11752155916E+03  0.24596515724E+03  0.10100000352E+00 0.  1.
       -3    1    3    3    0  502 -0.40487324462E+02  0.21224586701E+03  0.15101003415E+04  0.15254804434E+04  0.10100000352E+00 0. -1.
</event>
<event>
 5   0  0.5023894E-03  0.7004795E+03  0.7818609E-02  0.9716413E-01
       -2   -1    0    0    0  501  0.00000000000E+00  0.00000000000E+00  0.65435721992E+02  0.65435722042E+02  0.25500000920E-02 0. -1.
        2   -1    0    0  501    0  0.00000000000E+00  0.00000000000E+00 -0.18746315936E+04  0.18746315936E+04  0.25500000920E-02 0.  1.
    10030    2    1    2    0    0  0.00000000000E+00  0.00000000000E+00 -0.18091958716E+04  0.19400673157E+04  0.70047946965E+03 0.  0.
        2    1    3    3  502    0 -0.33403409888E+02 -0.23888052707E+02 -0.18679405494E+04  0.18683919083E+04  0.25500000920E-02 0.  1.
       -2    1    3    3    0  502  0.33403409888E+02  0.23888052707E+02  0.58744677754E+02  0.71675407395E+02  0.25500000920E-02 0. -1.
</event>
<event>
 5   0  0.4878235E-03  0.7024770E+03  0.7818609E-02  0.9713005E-01
        2   -1    0    0  501    0  0.00000000000E+00  0.00000000000E+00  0.54507171460E+03  0.54507171461E+03  0.25500000920E-02 0. -1.
       -2   -1    0    0    0  501  0.00000000000E+00  0.00000000000E+00 -0.22633443037E+03  0.22633443039E+03  0.25500000920E-02 0.  1.
    10030    2    1    2    0    0  0.00000000000E+00  0.00000000000E+00  0.31873728423E+03  0.77140614500E+03  0.70247703463E+03 0.  0.
        4    1    3    3  502    0  0.27096323306E+03  0.15986832037E+02  0.40415458239E+03  0.48684616855E+03  0.12699999809E+01 0. -1.
       -4    1    3    3    0  502 -0.27096323306E+03 -0.15986832037E+02 -0.85417298155E+02  0.28455997644E+03  0.12699999809E+01 0.  1.
</event>
<event>
 5   0  0.2913582E-03  0.6972289E+03  0.7818609E-02  0.9721983E-01
        1   -1    0    0  501    0  0.00000000000E+00  0.00000000000E+00  0.24390974758E+03  0.24390974763E+03  0.50400001928E-02 0.  1.
       -1   -1    0    0    0  501  0.00000000000E+00  0.00000000000E+00 -0.49826648125E+03  0.49826648127E+03  0.50400001928E-02 0. -1.
    10030    2    1    2    0    0  0.00000000000E+00  0.00000000000E+00 -0.25435673367E+03  0.74217622890E+03  0.69722894861E+03 0.  0.
        1    1    3    3  502    0  0.14359742160E+03  0.31611446674E+03 -0.93796275965E+02  0.35964748988E+03  0.50400001928E-02 0. -1.
       -1    1    3    3    0  502 -0.14359742160E+03 -0.31611446674E+03 -0.16056045771E+03  0.38252873902E+03  0.50400001928E-02 0.  1.
</event>
<event>
 5   0  0.2913582E-03  0.6999066E+03  0.7818609E-02  0.9717392E-01
        1   -1    0    0  501    0  0.00000000000E+00  0.00000000000E+00  0.32452182621E+03  0.32452182625E+03  0.50400001928E-02 0.  1.
       -1   -1    0    0    0  501  0.00000000000E+00  0.00000000000E+00 -0.37737775048E+03  0.37737775051E+03  0.50400001928E-02 0. -1.
    10030    2    1    2    0    0  0.00000000000E+00  0.00000000000E+00 -0.52855924266E+02  0.70189957677E+03  0.69990661315E+03 0.  0.
        1    1    3    3  502    0  0.13290980229E+03 -0.23006338966E+03  0.20197732027E+03  0.33374993144E+03  0.50400001928E-02 0.  1.
       -1    1    3    3    0  502 -0.13290980229E+03  0.23006338966E+03 -0.25483324454E+03  0.36814964533E+03  0.50400001928E-02 0. -1.
</event>
<event>
 5   0  0.5113683E-03  0.7002446E+03  0.7818609E-02  0.9716814E-01
        2   -1    0    0  501    0  0.00000000000E+00  0.00000000000E+00  0.43507895640E+03  0.43507895640E+03  0.25500000920E-02 0.  1.
       -2   -1    0    0    0  501  0.00000000000E+00  0.00000000000E+00 -0.28175492731E+03  0.28175492733E+03  0.25500000920E-02 0. -1.
    10030    2    1    2    0    0  0.00000000000E+00  0.00000000000E+00  0.15332402908E+03  0.71683388373E+03  0.70024464223E+03 0.  0.
        3    1    3    3  502    0  0.20346671725E+03 -0.17808276306E+03  0.30435772392E+03  0.40711891363E+03  0.10100000352E+00 0.  1.
       -3    1    3    3    0  502 -0.20346671725E+03  0.17808276306E+03 -0.15103369484E+03  0.30971497010E+03  0.10100000352E+00 0. -1.
</event>
<event>
 5   0  0.2938783E-03  0.6998145E+03  0.7818609E-02  0.9717549E-01
       -1   -1    0    0    0  501  0.00000000000E+00  0.00000000000E+00  0.79968667012E+02  0.79968667171E+02  0.50400001928E-02 0. -1.
        1   -1    0    0  501    0  0.00000000000E+00  0.00000000000E+00 -0.15310382257E+04  0.15310382258E+04  0.50400001928E-02 0.  1.
    10030    2    1    2    0    0  0.00000000000E+00  0.00000000000E+00 -0.14510695587E+04  0.16110068929E+04  0.69981450740E+03 0.  0.
        4    1    3    3  502    0 -0.12933509316E+03 -0.13434709130E+03 -0.43969937877E+02  0.19160291126E+03  0.12699999809E+01 0. -1.
       -4    1    3    3    0  502  0.12933509316E+03  0.13434709130E+03 -0.14070996209E+04  0.14194039817E+04  0.12699999809E+01 0.  1.
</event>
<event>
 5   0  0.2913582E-03  0.7035610E+03  0.7818609E-02  0.9711162E-01
        1   -1    0    0  501    0  0.00000000000E+00  0.00000000000E+00  0.58366832833E+03  0.58366832835E+03  0.50400001928E-02 0.  1.
       -1   -1    0    0    0  501  0.00000000000E+00  0.00000000000E+00 -0.21202030498E+03  0.21202030504E+03  0.50400001928E-02 0. -1.
    10030    2    1    2    0    0  0.00000000000E+00  0.00000000000E+00  0.37164802335E+03  0.79568863339E+03  0.70356104785E+03 0.  0.
        1    1    3    3  502    0  0.29463975248E+02 -0.33304228188E+03  0.30952811339E+03  0.45562368283E+03  0.50400001928E-02 0.  1.
       -1    1    3    3    0  502 -0.29463975248E+02  0.33304228188E+03  0.62119909961E+02  0.34006495055E+03  0.50400001928E-02 0. -1.
</event>
<event>
 5   0  0.1981750E-03  0.6935130E+03  0.7818609E-02  0.9728391E-01
       -3   -1    0    0    0  501  0.00000000000E+00  0.00000000000E+00  0.28624796610E+03  0.28624798392E+03  0.10100000352E+00 0. -1.
        3   -1    0    0  501    0  0.00000000000E+00  0.00000000000E+00 -0.42005560762E+03  0.42005561976E+03  0.10100000352E+00 0.  1.
    10030    2    1    2    0    0  0.00000000000E+00  0.00000000000E+00 -0.13380764152E+03  0.70630360369E+03  0.69351301044E+03 0.  0.
        4    1    3    3  502    0  0.24804685712E+03  0.75333409050E+02  0.16763923538E+03  0.30871814327E+03  0.12699999809E+01 0. -1.
       -4    1    3    3    0  502 -0.24804685712E+03 -0.75333409050E+02 -0.30144687690E+03  0.39758546042E+03  0.12699999809E+01 0.  1.
</event>
<event>
 5   0  0.2913582E-03  0.7001015E+03  0.7818609E-02  0.9717059E-01
        1   -1    0    0  501    0  0.00000000000E+00  0.00000000000E+00  0.97335124595E+03  0.97335124597E+03  0.50400001928E-02 0.  1.
       -1   -1    0    0    0  501  0.00000000000E+00  0.00000000000E+00 -0.12589034248E+03  0.12589034258E+03  0.50400001928E-02 0. -1.
    10030    2    1    2    0    0  0.00000000000E+00  0.00000000000E+00  0.84746090347E+03  0.10992415885E+04  0.70010148342E+03 0.  0.
        1    1    3    3  502    0  0.15160113464E+03 -0.13815004926E+03  0.86912156591E+03  0.89299531717E+03  0.50400001928E-02 0.  1.
       -1    1    3    3    0  502 -0.15160113464E+03  0.13815004926E+03 -0.21660662436E+02  0.20624627138E+03  0.50400001928E-02 0. -1.
</event>
<event>
 5   0  0.2937617E-03  0.6989317E+03  0.7818609E-02  0.9719061E-01
       -1   -1    0    0    0  501  0.00000000000E+00  0.00000000000E+00  0.80649410578E+03  0.80649410580E+03  0.50400001928E-02 0.  1.
        1   -1    0    0  501    0  0.00000000000E+00  0.00000000000E+00 -0.15142874217E+03  0.15142874225E+03  0.50400001928E-02 0. -1.
    10030    2    1    2    0    0  0.00000000000E+00  0.00000000000E+00  0.65506536361E+03  0.95792284805E+03  0.69893172214E+03 0.  0.
        3    1    3    3  502    0  0.10994505639E+03  0.30899828313E+02 -0.12513098440E+03  0.16941218454E+03  0.10100000352E+00 0. -1.
       -3    1    3    3    0  502 -0.10994505639E+03 -0.30899828313E+02  0.78019634801E+03  0.78851066351E+03  0.10100000352E+00 0.  1.
</event>
<event>
 5   0  0.1981750E-03  0.7006584E+03  0.7818609E-02  0.9716107E-01
       -4   -1    0    0    0  501  0.00000000000E+00  0.00000000000E+00  0.31898018044E+03  0.31898270865E+03  0.12699999809E+01 0.  1.
        4   -1    0    0  501    0  0.00000000000E+00  0.00000000000E+00 -0.38475407213E+03  0.38475616814E+03  0.12699999809E+01 0. -1.
    10030    2    1    2    0    0  0.00000000000E+00  0.00000000000E+00 -0.65773891688E+02  0.70373887679E+03  0.70065840598E+03 0.  0.
        2    1    3    3  502    0  0.13889895000E+03 -0.17842124569E+03  0.23587780285E+03  0.32674974691E+03  0.25500000920E-02 0.  1.
       -2    1    3    3    0  502 -0.13889895000E+03  0.17842124569E+03 -0.30165169453E+03  0.37698912988E+03  0.25500000920E-02 0. -1.
</event>
<event>
 5   0  0.2938783E-03  0.6995797E+03  0.7818609E-02  0.9717951E-01
        1   -1    0    0  501    0  0.00000000000E+00  0.00000000000E+00  0.19521258544E+04  0.19521258544E+04  0.50400001928E-02 0. -1.
       -1   -1    0    0    0  501  0.00000000000E+00  0.00000000000E+00 -0.62676759405E+02  0.62676759608E+02  0.50400001928E-02 0.  1.
    10030    2    1    2    0    0  0.00000000000E+00  0.00000000000E+00  0.18894490950E+04  0.20148026140E+04  0.69957965298E+03 0.  0.
        4    1    3    3  502    0 -0.11382521478E+03  0.18547866282E+03  0.15603677320E+03  0.26778275032E+03  0.12699999809E+01 0.  1.
       -4    1    3    3    0  502  0.11382521478E+03 -0.18547866282E+03  0.17334123218E+04  0.17470198637E+04  0.12699999809E+01 0. -1.
</event>
<event>
 5   0  0.2913582E-03  0.6996272E+03  0.7818609E-02  0.9717870E-01
        1   -1    0    0  501    0  0.00000000000E+00  0.00000000000E+00  0.14683501475E+03  0.14683501484E+03  0.50400001928E-02 0. -1.
       -1   -1    0    0    0  501  0.00000000000E+00  0.00000000000E+00 -0.83338136268E+03  0.83338136270E+03  0.50400001928E-02 0.  1.
    10030    2    1    2    0    0  0.00000000000E+00  0.00000000000E+00 -0.68654634793E+03  0.98021637753E+03  0.69962722855E+03 0.  0.
        1    1    3    3  502    0 -0.11881342735E+03  0.18426981656E+03 -0.72516692571E+03  0.75758766225E+03  0.50400001928E-02 0.  1.
       -1    1    3    3    0  502  0.11881342735E+03 -0.18426981656E+03  0.38620577782E+02  0.22262871528E+03  0.50400001928E-02 0. -1.
</event>
<event>
 5   0  0.2913582E-03  0.6971562E+03  0.7818609E-02  0.9722108E-01
        1   -1    0    0  501    0  0.00000000000E+00  0.00000000000E+00  0.54602602098E+03  0.54602602100E+03  0.50400001928E-02 0. -1.
       -1   -1    0    0    0  501  0.00000000000E+00  0.00000000000E+00 -0.22252911857E+03  0.22252911863E+03  0.50400001928E-02 0.  1.
    10030    2    1    2    0    0  0.00000000000E+00  0.00000000000E+00  0.32349690241E+03  0.76855513963E+03  0.69715619253E+03 0.  0.
        1    1    3    3  502    0 -0.23385202209E+03 -0.83302398340E+02 -0.10801811705E+03  0.27072859369E+03  0.50400001928E-02 0.  1.
       -1    1    3    3    0  502  0.23385202209E+03  0.83302398340E+02  0.43151501946E+03  0.49782654594E+03  0.50400001928E-02 0. -1.
</event>
<event>
 5   0  0.5076796E-03  0.7007018E+03  0.7818609E-02  0.9716033E-01
        2   -1    0    0  501    0  0.00000000000E+00  0.00000000000E+00  0.57710954934E+03  0.57710954935E+03  0.25500000920E-02 0. -1.
       -2   -1    0    0    0  501  0.00000000000E+00  0.00000000000E+00 -0.21269054477E+03  0.21269054479E+03  0.25500000920E-02 0.  1.
    10030    2    1    2    0    0  0.00000000000E+00  0.00000000000E+00  0.36441900457E+03  0.78980009413E+03  0.70070177522E+03 0.  0.
        5    1    3    3  502    0 -0.12500211189E+03 -0.16652190773E+03 -0.13533768518E+03  0.24838166752E+03  0.46999998093E+01 0.  1.
       -5    1    3    3    0  502  0.12500211189E+03  0.16652190773E+03  0.49975668975E+03  0.54141842661E+03  0.46999998093E+01 0. -1.
</event>
<event>
 5   0  0.1981750E-03  0.7017818E+03  0.7818609E-02  0.9714190E-01
        3   -1    0    0  501    0  0.00000000000E+00  0.00000000000E+00  0.10885196085E+04  0.10885196132E+04  0.10100000352E+00 0. -1.
       -3   -1    0    0    0  501  0.00000000000E+00  0.00000000000E+00 -0.11311178397E+03  0.11311182906E+03  0.10100000352E+00 0.  1.
    10030    2    1    2    0    0  0.00000000000E+00  0.00000000000E+00  0.97540782458E+03  0.12016314423E+04  0.70178180289E+03 0.  0.
        5    1    3    3  502    0 -0.26286809363E+03 -0.19019248018E+03  0.71633696405E+03  0.78640546172E+03  0.46999998093E+01 0. -1.
       -5    1    3    3    0  502  0.26286809363E+03  0.19019248018E+03  0.25907086053E+03  0.41522598057E+03  0.46999998093E+01 0.  1.
</event>
<event>
 5   0  0.4878235E-03  0.6980766E+03  0.7818609E-02  0.9720527E-01
        2   -1    0    0  501    0  0.00000000000E+00  0.00000000000E+00  0.72386862310E+03  0.72386862310E+03  0.25500000920E-02 0. -1.
       -2   -1    0    0    0  501  0.00000000000E+00  0.00000000000E+00 -0.16830087967E+03  0.16830087969E+03  0.25500000920E-02 0.  1.
    10030    2    1    2    0    0  0.00000000000E+00  0.00000000000E+00  0.55556774343E+03  0.89216950279E+03  0.69807657472E+03 0.  0.
        4    1    3    3  502    0  0.16911701533E+03 -0.13537980606E+03  0.62755100938E+03  0.66389015585E+03  0.12699999809E+01 0.  1.
       -4    1    3    3    0  502 -0.16911701533E+03  0.13537980606E+03 -0.71983265953E+02  0.22827934694E+03  0.12699999809E+01 0. -1.
</event>
<event>
 5   0  0.2934483E-03  0.6969874E+03  0.7818609E-02  0.9722398E-01
       -1   -1    0    0    0  501  0.00000000000E+00  0.00000000000E+00  0.45392969258E+03  0.45392969261E+03  0.50400001928E-02 0. -1.
        1   -1    0    0  501    0  0.00000000000E+00  0.00000000000E+00 -0.26754770859E+03  0.26754770864E+03  0.50400001928E-02 0.  1.
    10030    2    1    2    0    0  0.00000000000E+00  0.00000000000E+00  0.18638198399E+03  0.72147740124E+03  0.69698737187E+03 0.  0.
        5    1    3    3  502    0 -0.21621068197E+03 -0.17515006432E+03 -0.12394402226E+03  0.30464539170E+03  0.46999998093E+01 0.  1.
       -5    1    3    3    0  502  0.21621068197E+03  0.17515006432E+03  0.31032600625E+03  0.41683200955E+03  0.46999998093E+01 0. -1.
</event>
<event>
 5   0  0.4878235E-03  0.6991949E+03  0.7818609E-02  0.9718610E-01
        2   -1    0    0  501    0  0.00000000000E+00  0.00000000000E+00  0.52795431312E+03  0.52795431312E+03  0.25500000920E-02 0. -1.
       -2   -1    0    0    0  501  0.00000000000E+00  0.00000000000E+00 -0.23149425080E+03  0.23149425082E+03  0.25500000920E-02 0.  1.
    10030    2    1    2    0    0  0.00000000000E+00  0.00000000000E+00  0.29646006231E+03  0.75944856394E+03  0.69919493185E+03 0.  0.
        4    1    3    3  502    0  0.24981653449E+03  0.17527276974E+03  0.33347930148E+03  0.45203860690E+03  0.12699999809E+01 0. -1.
       -4    1    3    3    0  502 -0.24981653449E+03 -0.17527276974E+03 -0.37019239163E+02  0.30740995704E+03  0.12699999809E+01 0.  1.
</event>
<event>
 5   0  0.2937617E-03  0.6982041E+03  0.7818609E-02  0.9720308E-01
       -1   -1    0    0    0  501  0.00000000000E+00  0.00000000000E+00  0.13937692427E+03  0.13937692436E+03  0.50400001928E-02 0. -1.
        1   -1    0    0  501    0  0.00000000000E+00  0.00000000000E+00 -0.87440748747E+03  0.87440748748E+03  0.50400001928E-02 0.  1.
    10030    2    1    2    0    0  0.00000000000E+00  0.00000000000E+00 -0.73503056320E+03  0.10137844118E+04  0.69820405675E+03 0.  0.
        3    1    3    3  502    0 -0.29541341316E+03  0.16250551489E+01 -0.63760270963E+03  0.70271541253E+03  0.10100000352E+00 0.  1.
       -3    1    3    3    0  502  0.29541341316E+03 -0.16250551489E+01 -0.97427853567E+02  0.31106899931E+03  0.10100000352E+00 0. -1.
</event>
<event>
 5   0  0.5023894E-03  0.7002890E+03  0.7818609E-02  0.9716738E-01
       -2   -1    0    0    0  501  0.00000000000E+00  0.00000000000E+00  0.22904952290E+03  0.22904952291E+03  0.25500000920E-02 0. -1.
        2   -1    0    0  501    0  0.00000000000E+00  0.00000000000E+00 -0.53526047277E+03  0.53526047278E+03  0.25500000920E-02 0.  1.
    10030    2    1    2    0    0  0.00000000000E+00  0.00000000000E+00 -0.30621094987E+03  0.76430999569E+03  0.70028895728E+03 0.  0.
        2    1    3    3  502    0  0.13997685488E+03  0.14350641327E+03  0.16021700840E+03  0.25662638278E+03  0.25500000920E-02 0. -1.
       -2    1    3    3    0  502 -0.13997685488E+03 -0.14350641327E+03 -0.46642795828E+03  0.50768361291E+03  0.25500000920E-02 0.  1.
</event>
<event>
 5   0  0.5072407E-03  0.6999147E+03  0.7818609E-02  0.9717378E-01
       -2   -1    0    0    0  501  0.00000000000E+00  0.00000000000E+00  0.20122178681E+03  0.20122178683E+03  0.25500000920E-02 0. -1.
        2   -1    0    0  501    0  0.00000000000E+00  0.00000000000E+00 -0.60863257110E+03  0.60863257110E+03  0.25500000920E-02 0.  1.
    10030    2    1    2    0    0  0.00000000000E+00  0.00000000000E+00 -0.40741078429E+03  0.80985435793E+03  0.69991466187E+03 0.  0.
        1    1    3    3  502    0 -0.30177282261E+03 -0.12587578530E+03 -0.59378632212E+02  0.33232118768E+03  0.50400001928E-02 0. -1.
       -1    1    3    3    0  502  0.30177282261E+03  0.12587578530E+03 -0.34803215207E+03  0.47753317025E+03  0.50400001928E-02 0.  1.
</event>
<event>
 5   0  0.1981750E-03  0.6987676E+03  0.7818609E-02  0.9719342E-01
        3   -1    0    0  501    0  0.00000000000E+00  0.00000000000E+00  0.11639982725E+04  0.11639982769E+04  0.10100000352E+00 0. -1.
       -3   -1    0    0    0  501  0.00000000000E+00  0.00000000000E+00 -0.10487043613E+03  0.10487048477E+03  0.10100000352E+00 0.  1.
    10030    2    1    2    0    0  0.00000000000E+00  0.00000000000E+00  0.10591278364E+04  0.12688687616E+04  0.69876760122E+03 0.  0.
        3    1    3    3  502    0  0.24494013893E+03  0.20753599249E+03  0.27924968448E+03  0.42549648215E+03  0.10100000352E+00 0.  1.
       -3    1    3    3    0  502 -0.24494013893E+03 -0.20753599249E+03  0.77987815187E+03  0.84337227949E+03  0.10100000352E+00 0. -1.
</event>
<event>
 5   0  0.2938783E-03  0.6973219E+03  0.7818609E-02  0.9721823E-01
        1   -1    0    0  501    0  0.00000000000E+00  0.00000000000E+00  0.68106695043E+03  0.68106695045E+03  0.50400001928E-02 0.  1.
       -1   -1    0    0    0  501  0.00000000000E+00  0.00000000000E+00 -0.17849119170E+03  0.17849119177E+03  0.50400001928E-02 0. -1.
    10030    2    1    2    0    0  0.00000000000E+00  0.00000000000E+00  0.50257575873E+03  0.85955814221E+03  0.69732188162E+03 0.  0.
        4    1    3    3  502    0  0.14083452210E+03 -0.16597575579E+03  0.58701537852E+03  0.62607585934E+03  0.12699999809E+01 0.  1.
       -4    1    3    3    0  502 -0.14083452210E+03  0.16597575579E+03 -0.84439619788E+02  0.23348228288E+03  0.12699999809E+01 0. -1.
</event>
<event>
 5   0  0.5072407E-03  0.6994520E+03  0.7818609E-02  0.9718170E-01
        2   -1    0    0  501    0  0.00000000000E+00  0.00000000000E+00  0.14648284224E+04  0.14648284224E+04  0.25500000920E-02 0.  1.
       -2   -1    0    0    0  501  0.00000000000E+00  0.00000000000E+00 -0.83496650020E+02  0.83496650059E+02  0.25500000920E-02 0. -1.
    10030    2    1    2    0    0  0.00000000000E+00  0.00000000000E+00  0.13813317723E+04  0.15483250724E+04  0.69945197449E+03 0.  0.
        1    1    3    3  502    0 -0.79651368301E+01 -0.34876945421E+03  0.74509995908E+03  0.82272566791E+03  0.50400001928E-02 0. -1.
       -1    1    3    3    0  502  0.79651368301E+01  0.34876945421E+03  0.63623181327E+03  0.72559940452E+03  0.50400001928E-02 0.  1.
</event>
<event>
 5   0  0.1981750E-03  0.7014343E+03  0.7818609E-02  0.9714782E-01
       -4   -1    0    0    0  501  0.00000000000E+00  0.00000000000E+00  0.35965160051E+03  0.35965384281E+03  0.12699999809E+01 0. -1.
        4   -1    0    0  501    0  0.00000000000E+00  0.00000000000E+00 -0.34200020502E+03  0.34200256305E+03  0.12699999809E+01 0.  1.
    10030    2    1    2    0    0  0.00000000000E+00  0.00000000000E+00  0.17651395495E+02  0.70165640586E+03  0.70143434484E+03 0.  0.
        3    1    3    3  502    0  0.83743585790E+02 -0.33260358621E+03  0.82090888534E+02  0.35267131709E+03  0.10100000352E+00 0. -1.
       -3    1    3    3    0  502 -0.83743585790E+02  0.33260358621E+03 -0.64439493040E+02  0.34898508877E+03  0.10100000352E+00 0.  1.
</event>
<event>
 5   0  0.4878235E-03  0.6994832E+03  0.7818609E-02  0.9718116E-01
       -2   -1    0    0    0  501  0.00000000000E+00  0.00000000000E+00  0.23205559413E+03  0.23205559414E+03  0.25500000920E-02 0.  1.
        2   -1    0    0  501    0  0.00000000000E+00  0.00000000000E+00 -0.52711162506E+03  0.52711162507E+03  0.25500000920E-02 0. -1.
    10030    2    1    2    0    0  0.00000000000E+00  0.00000000000E+00 -0.29505603094E+03  0.75916721921E+03  0.69948324164E+03 0.  0.
        4    1    3    3  502    0  0.17165391993E+03  0.21828142922E+03 -0.37828609406E+03  0.46926946676E+03  0.12699999809E+01 0. -1.
       -4    1    3    3    0  502 -0.17165391993E+03 -0.21828142922E+03  0.83230063126E+02  0.28989775245E+03  0.12699999809E+01 0.  1.
</event>
<event>
 5   0  0.5113683E-03  0.7009122E+03  0.7818609E-02  0.9715674E-01
       -2   -1    0    0    0  501  0.00000000000E+00  0.00000000000E+00  0.13264255008E+03  0.13264255010E+03  0.25500000920E-02 0.  1.
        2   -1    0    0  501    0  0.00000000000E+00  0.00000000000E+00 -0.92594317308E+03  0.92594317308E+03  0.25500000920E-02 0. -1.
    10030    2    1    2    0    0  0.00000000000E+00  0.00000000000E+00 -0.79330062300E+03  0.10585857232E+04  0.70091215917E+03 0.  0.
        3    1    3    3  502    0 -0.33693180479E+03  0.94000671349E+02 -0.42905265547E+03  0.55357507048E+03  0.10100000352E+00 0. -1.
       -3    1    3    3    0  502  0.33693180479E+03 -0.94000671349E+02 -0.36424796753E+03  0.50501065270E+03  0.10100000352E+00 0.  1.
</event>
<event>
 5   0  0.3013140E-03  0.6999828E+03  0.7818609E-02  0.9717262E-01
       -1   -1    0    0    0  501  0.00000000000E+00  0.00000000000E+00  0.70624451204E+02  0.70624451384E+02  0.50400001928E-02 0. -1.
        1   -1    0    0  501    0  0.00000000000E+00  0.00000000000E+00 -0.17344415529E+04  0.17344415529E+04  0.50400001928E-02 0.  1.
    10030    2    1    2    0    0  0.00000000000E+00  0.00000000000E+00 -0.16638171017E+04  0.18050660043E+04  0.69998280833E+03 0.  0.
        2    1    3    3  502    0 -0.57771160720E+01  0.28623385660E+03 -0.13510649755E+04  0.13810647211E+04  0.25500000920E-02 0.  1.
       -2    1    3    3    0  502  0.57771160720E+01 -0.28623385660E+03 -0.31275212619E+03  0.42400128322E+03  0.25500000920E-02 0. -1.
</event>
<event>
 5   0  0.2938783E-03  0.6993292E+03  0.7818609E-02  0.9718380E-01
       -1   -1    0    0    0  501  0.00000000000E+00  0.00000000000E+00  0.50442673293E+03  0.50442673296E+03  0.50400001928E-02 0. -1.
        1   -1    0    0  501    0  0.00000000000E+00  0.00000000000E+00 -0.24238475461E+03  0.24238475466E+03  0.50400001928E-02 0.  1.
    10030    2    1    2    0    0  0.00000000000E+00  0.00000000000E+00  0.26204197833E+03  0.74681148761E+03  0.69932924980E+03 0.  0.
        4    1    3    3  502    0 -0.19097388696E+03  0.19192370855E+03 -0.10526672318E+03  0.29049686972E+03  0.12699999809E+01 0.  1.
       -4    1    3    3    0  502  0.19097388696E+03 -0.19192370855E+03  0.36730870151E+03  0.45631461790E+03  0.12699999809E+01 0. -1.
</event>
<event>
 5   0  0.2937617E-03  0.7003813E+03  0.7818609E-02  0.9716580E-01
       -1   -1    0    0    0  501  0.00000000000E+00  0.00000000000E+00  0.17910727956E+03  0.17910727963E+03  0.50400001928E-02 0.  1.
        1   -1    0    0  501    0  0.00000000000E+00  0.00000000000E+00 -0.68469299921E+03  0.68469299922E+03  0.50400001928E-02 0. -1.
    10030    2    1    2    0    0  0.00000000000E+00  0.00000000000E+00 -0.50558571965E+03  0.86380027885E+03  0.70038132602E+03 0.  0.
        3    1    3    3  502    0 -0.23664243267E+03 -0.23346000520E+03 -0.11695710190E+03  0.35239493307E+03  0.10100000352E+00 0.  1.
       -3    1    3    3    0  502  0.23664243267E+03  0.23346000520E+03 -0.38862861775E+03  0.51140534578E+03  0.10100000352E+00 0. -1.
</event>
<event>
 5   0  0.2937617E-03  0.6982013E+03  0.7818609E-02  0.9720313E-01
       -1   -1    0    0    0  501  0.00000000000E+00  0.00000000000E+00  0.67692704759E+02  0.67692704947E+02  0.50400001928E-02 0.  1.
        1   -1    0    0  501    0  0.00000000000E+00  0.00000000000E+00 -0.18003603202E+04  0.18003603202E+04  0.50400001928E-02 0. -1.
    10030    2    1    2    0    0  0.00000000000E+00  0.00000000000E+00 -0.17326676154E+04  0.18680530251E+04  0.69820128844E+03 0.  0.
        3    1    3    3  502    0  0.34732185463E+02 -0.53738103263E+02  0.51869933277E+02  0.82368735747E+02  0.10100000352E+00 0.  1.
       -3    1    3    3    0  502 -0.34732185463E+02  0.53738103263E+02 -0.17845375487E+04  0.17856842894E+04  0.10100000352E+00 0. -1.
</event>
<event>
 5   0  0.5113683E-03  0.7014786E+03  0.7818609E-02  0.9714707E-01
       -2   -1    0    0    0  501  0.00000000000E+00  0.00000000000E+00  0.96164357227E+02  0.96164357261E+02  0.25500000920E-02 0.  1.
        2   -1    0    0  501    0  0.00000000000E+00  0.00000000000E+00 -0.12792481100E+04  0.12792481100E+04  0.25500000920E-02 0. -1.
    10030    2    1    2    0    0  0.00000000000E+00  0.00000000000E+00 -0.11830837527E+04  0.13754124672E+04  0.70147864473E+03 0.  0.
        3    1    3    3  502    0 -0.34487558911E+03  0.58210811340E+02 -0.54002301811E+03  0.64339143669E+03  0.10100000352E+00 0.  1.
       -3    1    3    3    0  502  0.34487558911E+03 -0.58210811340E+02 -0.64306073462E+03  0.73202103052E+03  0.10100000352E+00 0. -1.
</event>
<event>
 5   0  0.5076796E-03  0.6996338E+03  0.7818609E-02  0.9717859E-01
       -2   -1    0    0    0  501  0.00000000000E+00  0.00000000000E+00  0.18068295498E+03  0.18068295500E+03  0.25500000920E-02 0. -1.
        2   -1    0    0  501    0  0.00000000000E+00  0.00000000000E+00 -0.67727391843E+03  0.67727391843E+03  0.25500000920E-02 0.  1.
    10030    2    1    2    0    0  0.00000000000E+00  0.00000000000E+00 -0.49659096344E+03  0.85795687343E+03  0.69963376970E+03 0.  0.
        5    1    3    3  502    0 -0.75584815204E+01  0.13725041079E+03  0.14613488785E+03  0.20067959874E+03  0.46999998093E+01 0. -1.
       -5    1    3    3    0  502  0.75584815204E+01 -0.13725041079E+03 -0.64272585130E+03  0.65727727469E+03  0.46999998093E+01 0.  1.
</event>
<event>
 5   0  0.5023894E-03  0.6983800E+03  0.7818609E-02  0.9720007E-01
        2   -1    0    0  501    0  0.00000000000E+00  0.00000000000E+00  0.44954701153E+03  0.44954701153E+03  0.25500000920E-02 0. -1.
       -2   -1    0    0    0  501  0.00000000000E+00  0.00000000000E+00 -0.27123674201E+03  0.27123674202E+03  0.25500000920E-02 0.  1.
    10030    2    1    2    0    0  0.00000000000E+00  0.00000000000E+00  0.17831026952E+03  0.72078375355E+03  0.69838003062E+03 0.  0.
        2    1    3    3  502    0  0.70777395804E+02 -0.10686977410E+03 -0.24607707691E+03  0.27746083717E+03  0.25500000920E-02 0.  1.
       -2    1    3    3    0  502 -0.70777395804E+02  0.10686977410E+03  0.42438734643E+03  0.44332291638E+03  0.25500000920E-02 0. -1.
</event>
<event>
 5   0  0.2913582E-03  0.6938005E+03  0.7818609E-02  0.9727893E-01
       -1   -1    0    0    0  501  0.00000000000E+00  0.00000000000E+00  0.19647221728E+03  0.19647221735E+03  0.50400001928E-02 0.  1.
        1   -1    0    0  501    0  0.00000000000E+00  0.00000000000E+00 -0.61250283350E+03  0.61250283352E+03  0.50400001928E-02 0. -1.
    10030    2    1    2    0    0  0.00000000000E+00  0.00000000000E+00 -0.41603061622E+03  0.80897505086E+03  0.69380051837E+03 0.  0.
        1    1    3    3  502    0 -0.10599081274E+03 -0.68945031065E+02  0.16864647904E+03  0.21078212593E+03  0.50400001928E-02 0.  1.
       -1    1    3    3    0  502  0.10599081274E+03  0.68945031065E+02 -0.58467709526E+03  0.59819292493E+03  0.50400001928E-02 0. -1.
</event>
<event>
 5   0  0.5023894E-03  0.6996717E+03  0.7818609E-02  0.9717794E-01
        2   -1    0    0  501    0  0.00000000000E+00  0.00000000000E+00  0.33501723501E+03  0.33501723502E+03  0.25500000920E-02 0. -1.
       -2   -1    0    0    0  501  0.00000000000E+00  0.00000000000E+00 -0.36530988847E+03  0.36530988848E+03  0.25500000920E-02 0.  1.
    10030    2    1    2    0    0  0.00000000000E+00  0.00000000000E+00 -0.30292653462E+02  0.70032712350E+03  0.69967166232E+03 0.  0.
        2    1    3    3  502    0 -0.22858750778E+03 -0.19124052519E+03 -0.19851161714E+03  0.35809502836E+03  0.25500000920E-02 0.  1.
       -2    1    3    3    0  502  0.22858750778E+03  0.19124052519E+03  0.16821896368E+03  0.34223209513E+03  0.25500000920E-02 0. -1.
</event>
<event>
 5   0  0.2913582E-03  0.6989386E+03  0.7818609E-02  0.9719049E-01
        1   -1    0    0  501    0  0.00000000000E+00  0.00000000000E+00  0.90360525174E+03  0.90360525176E+03  0.50400001928E-02 0.  1.
       -1   -1    0    0    0  501  0.00000000000E+00  0.00000000000E+00 -0.13515724117E+03  0.13515724126E+03  0.50400001928E-02 0. -1.
    10030    2    1    2    0    0  0.00000000000E+00  0.00000000000E+00  0.76844801058E+03  0.10387624930E+04  0.69893860384E+03 0.  0.
        1    1    3    3  502    0  0.10859199579E+03  0.20972631772E+03  0.76705088024E+03  0.80258607190E+03  0.50400001928E-02 0. -1.
       -1    1    3    3    0  502 -0.10859199579E+03 -0.20972631772E+03  0.13971303354E+01  0.23617642112E+03  0.50400001928E-02 0.  1.
</event>
<event>
 5   0  0.2934483E-03  0.7009076E+03  0.7818609E-02  0.9715681E-01
        1   -1    0    0  501    0  0.00000000000E+00  0.00000000000E+00  0.37651566759E+03  0.37651566762E+03  0.50400001928E-02 0.  1.
       -1   -1    0    0    0  501  0.00000000000E+00  0.00000000000E+00 -0.32619589273E+03  0.32619589277E+03  0.50400001928E-02 0. -1.
    10030    2    1    2    0    0  0.00000000000E+00  0.00000000000E+00  0.50319774857E+02  0.70271156039E+03  0.70090759545E+03 0.  0.
        5    1    3    3  502    0  0.23107796610E+03 -0.15549285855E+03 -0.18803906328E+03  0.33608902808E+03  0.46999998093E+01 0. -1.
       -5    1    3    3    0  502 -0.23107796610E+03  0.15549285855E+03  0.23835883814E+03  0.36662253231E+03  0.46999998093E+01 0.  1.
</event>
<event>
 5   0  0.4878235E-03  0.6800741E+03  0.7818609E-02  0.9751928E-01
        2   -1    0    0  501    0  0.00000000000E+00  0.00000000000E+00  0.11039560800E+04  0.11039560800E+04  0.25500000920E-02 0.  1.
       -2   -1    0    0    0  501  0.00000000000E+00  0.00000000000E+00 -0.10473713491E+03  0.10473713494E+03  0.25500000920E-02 0. -1.
    10030    2    1    2    0    0  0.00000000000E+00  0.00000000000E+00  0.99921894505E+03  0.12086932149E+04  0.68007410449E+03 0.  0.
        4    1    3    3  502    0  0.13569005898E+03 -0.16986590539E+03  0.96428789467E+03  0.98849328507E+03  0.12699999809E+01 0.  1.
       -4    1    3    3    0  502 -0.13569005898E+03  0.16986590539E+03  0.34931050383E+02  0.22019992983E+03  0.12699999809E+01 0. -1.
</event>
<event>
 5   0  0.2913582E-03  0.6984228E+03  0.7818609E-02  0.9719933E-01
        1   -1    0    0  501    0  0.00000000000E+00  0.00000000000E+00  0.22012208645E+03  0.22012208651E+03  0.50400001928E-02 0. -1.
       -1   -1    0    0    0  501  0.00000000000E+00  0.00000000000E+00 -0.55400440974E+03  0.55400440976E+03  0.50400001928E-02 0.  1.
    10030    2    1    2    0    0  0.00000000000E+00  0.00000000000E+00 -0.33388232329E+03  0.77412649627E+03  0.69842281350E+03 0.  0.
        1    1    3    3  502    0 -0.45194645287E+02  0.34627424983E+03 -0.16743001432E+03  0.38727409128E+03  0.50400001928E-02 0. -1.
       -1    1    3    3    0  502  0.45194645287E+02 -0.34627424983E+03 -0.16645230897E+03  0.38685240499E+03  0.50400001928E-02 0.  1.
</event>
<event>
 5   0  0.2934483E-03  0.7010291E+03  0.7818609E-02  0.9715474E-01
       -1   -1    0    0    0  501  0.00000000000E+00  0.00000000000E+00  0.17241057659E+03  0.17241057667E+03  0.50400001928E-02 0. -1.
        1   -1    0    0  501    0  0.00000000000E+00  0.00000000000E+00 -0.71260397183E+03  0.71260397185E+03  0.50400001928E-02 0.  1.
    10030    2    1    2    0    0  0.00000000000E+00  0.00000000000E+00 -0.54019339524E+03  0.88501454851E+03  0.70102913407E+03 0.  0.
        5    1    3    3  502    0 -0.17458108640E+03  0.17982172124E+03 -0.57939439104E+03  0.63129577658E+03  0.46999998093E+01 0.  1.
       -5    1    3    3    0  502  0.17458108640E+03 -0.17982172124E+03  0.39200995807E+02  0.25371877193E+03  0.46999998093E+01 0. -1.
</event>
<event>
 5   0  0.2913582E-03  0.7021037E+03  0.7818609E-02  0.9713641E-01
       -1   -1    0    0    0  501  0.00000000000E+00  0.00000000000E+00  0.39832486520E+03  0.39832486523E+03  0.50400001928E-02 0. -1.
        1   -1    0    0  501    0  0.00000000000E+00  0.00000000000E+00 -0.30938913383E+03  0.30938913387E+03  0.50400001928E-02 0.  1.
    10030    2    1    2    0    0  0.00000000000E+00  0.00000000000E+00  0.88935731369E+02  0.70771399910E+03  0.70210365346E+03 0.  0.
        1    1    3    3  502    0 -0.18670070723E+03  0.25781130213E+02 -0.25406687957E+03  0.31634127153E+03  0.50400001928E-02 0.  1.
       -1    1    3    3    0  502  0.18670070723E+03 -0.25781130213E+02  0.34300261093E+03  0.39137272757E+03  0.50400001928E-02 0. -1.
</event>
<event>
 5   0  0.3013140E-03  0.6992515E+03  0.7818609E-02  0.9718513E-01
        1   -1    0    0  501    0  0.00000000000E+00  0.00000000000E+00  0.98978523738E+03  0.98978523739E+03  0.50400001928E-02 0. -1.
       -1   -1    0    0    0  501  0.00000000000E+00  0.00000000000E+00 -0.12349969455E+03  0.12349969465E+03  0.50400001928E-02 0.  1.
    10030    2    1    2    0    0  0.00000000000E+00  0.00000000000E+00  0.86628554283E+03  0.11132849320E+04  0.69925152712E+03 0.  0.
        2    1    3    3  502    0  0.83516977347E+02 -0.33274988442E+03  0.32586007135E+03  0.47316208343E+03  0.25500000920E-02 0.  1.
       -2    1    3    3    0  502 -0.83516977347E+02  0.33274988442E+03  0.54042547148E+03  0.64012284861E+03  0.25500000920E-02 0. -1.
</event>
<event>
 5   0  0.3013140E-03  0.6990577E+03  0.7818609E-02  0.9718845E-01
       -1   -1    0    0    0  501  0.00000000000E+00  0.00000000000E+00  0.44944566792E+03  0.44944566795E+03  0.50400001928E-02 0. -1.
        1   -1    0    0  501    0  0.00000000000E+00  0.00000000000E+00 -0.27182464903E+03  0.27182464908E+03  0.50400001928E-02 0.  1.
    10030    2    1    2    0    0  0.00000000000E+00  0.00000000000E+00  0.17762101888E+03  0.72127031703E+03  0.69905768279E+03 0.  0.
        2    1    3    3  502    0  0.31072446325E+03  0.60475059144E+02  0.24172043738E+03  0.39829096738E+03  0.25500000920E-02 0. -1.
       -2    1    3    3    0  502 -0.31072446325E+03 -0.60475059144E+02 -0.64099418496E+02  0.32297934965E+03  0.25500000920E-02 0.  1.
</event>
<event>
 5   0  0.1981750E-03  0.7014699E+03  0.7818609E-02  0.9714722E-01
        3   -1    0    0  501    0  0.00000000000E+00  0.00000000000E+00  0.98653132720E+03  0.98653133237E+03  0.10100000352E+00 0.  1.
       -3   -1    0    0    0  501  0.00000000000E+00  0.00000000000E+00 -0.12469446214E+03  0.12469450305E+03  0.10100000352E+00 0. -1.
    10030    2    1    2    0    0  0.00000000000E+00  0.00000000000E+00  0.86183686505E+03  0.11112258354E+04  0.70146993900E+03 0.  0.
        3    1    3    3  502    0 -0.58564693426E+02 -0.28757548830E+03  0.73516188689E+03  0.79157595651E+03  0.10100000352E+00 0.  1.
       -3    1    3    3    0  502  0.58564693426E+02  0.28757548830E+03  0.12667497817E+03  0.31964987890E+03  0.10100000352E+00 0. -1.
</event>
<event>
 5   0  0.2934483E-03  0.6986756E+03  0.7818609E-02  0.9719500E-01
        1   -1    0    0  501    0  0.00000000000E+00  0.00000000000E+00  0.78010368183E+03  0.78010368184E+03  0.50400001928E-02 0. -1.
       -1   -1    0    0    0  501  0.00000000000E+00  0.00000000000E+00 -0.15643678560E+03  0.15643678568E+03  0.50400001928E-02 0.  1.
    10030    2    1    2    0    0  0.00000000000E+00  0.00000000000E+00  0.62366689623E+03  0.93654046753E+03  0.69867563996E+03 0.  0.
        5    1    3    3  502    0 -0.31480965221E+03  0.78660069124E+02  0.13849339035E+03  0.35283853640E+03  0.46999998093E+01 0.  1.
       -5    1    3    3    0  502  0.31480965221E+03 -0.78660069124E+02  0.48517350588E+03  0.58370193113E+03  0.46999998093E+01 0. -1.
</event>
<event>
 5   0  0.5072407E-03  0.6996177E+03  0.7818609E-02  0.9717886E-01
       -2   -1    0    0    0  501  0.00000000000E+00  0.00000000000E+00  0.22443974293E+03  0.22443974294E+03  0.25500000920E-02 0. -1.
        2   -1    0    0  501    0  0.00000000000E+00  0.00000000000E+00 -0.54520748935E+03  0.54520748936E+03  0.25500000920E-02 0.  1.
    10030    2    1    2    0    0  0.00000000000E+00  0.00000000000E+00 -0.32076774642E+03  0.76964723230E+03  0.69961769206E+03 0.  0.
        1    1    3    3  502    0 -0.12559362901E+03 -0.32456896262E+03 -0.19923859678E+03  0.40101719367E+03  0.50400001928E-02 0.  1.
       -1    1    3    3    0  502  0.12559362901E+03  0.32456896262E+03 -0.12152914965E+03  0.36863003863E+03  0.50400001928E-02 0. -1.
</event>
<event>
 5   0  0.3013140E-03  0.6987828E+03  0.7818609E-02  0.9719316E-01
        1   -1    0    0  501    0  0.00000000000E+00  0.00000000000E+00  0.37684382592E+03  0.37684382595E+03  0.50400001928E-02 0.  1.
       -1   -1    0    0    0  501  0.00000000000E+00  0.00000000000E+00 -0.32393885545E+03  0.32393885549E+03  0.50400001928E-02 0. -1.
    10030    2    1    2    0    0  0.00000000000E+00  0.00000000000E+00  0.52904970471E+02  0.70078268144E+03  0.69878282084E+03 0.  0.
        2    1    3    3  502    0  0.30308678374E+03  0.13746903633E+03  0.13312901171E+03  0.35844479100E+03  0.25500000920E-02 0.  1.
       -2    1    3    3    0  502 -0.30308678374E+03 -0.13746903633E+03 -0.80224041242E+02  0.34233789044E+03  0.25500000920E-02 0. -1.
</event>
<event>
 5   0  0.5113683E-03  0.7006112E+03  0.7818609E-02  0.9716187E-01
        2   -1    0    0  501    0  0.00000000000E+00  0.00000000000E+00  0.68660990032E+03  0.68660990033E+03  0.25500000920E-02 0. -1.
       -2   -1    0    0    0  501  0.00000000000E+00  0.00000000000E+00 -0.17872451958E+03  0.17872451959E+03  0.25500000920E-02 0.  1.
    10030    2    1    2    0    0  0.00000000000E+00  0.00000000000E+00  0.50788538075E+03  0.86533441992E+03  0.70061123194E+03 0.  0.
        3    1    3    3  502    0 -0.22308338974E+03  0.12760719920E+03 -0.40066789845E+02  0.26010604359E+03  0.10100000352E+00 0.  1.
       -3    1    3    3    0  502  0.22308338974E+03 -0.12760719920E+03  0.54795217059E+03  0.60522837633E+03  0.10100000352E+00 0. -1.
</event>
<event>
 5   0  0.2938783E-03  0.7002475E+03  0.7818609E-02  0.9716809E-01
        1   -1    0    0  501    0  0.00000000000E+00  0.00000000000E+00  0.82183371681E+03  0.82183371682E+03  0.50400001928E-02 0. -1.
       -1   -1    0    0    0  501  0.00000000000E+00  0.00000000000E+00 -0.14916233398E+03  0.14916233407E+03  0.50400001928E-02 0.  1.
    10030    2    1    2    0    0  0.00000000000E+00  0.00000000000E+00  0.67267138283E+03  0.97099605089E+03  0.70024748594E+03 0.  0.
        4    1    3    3  502    0 -0.30317106731E+03  0.22730590367E+02  0.95539158999E+02  0.31868278836E+03  0.12699999809E+01 0. -1.
       -4    1    3    3    0  502  0.30317106731E+03 -0.22730590367E+02  0.57713222383E+03  0.65231326253E+03  0.12699999809E+01 0.  1.
</event>
<event>
 5   0  0.5072407E-03  0.6999935E+03  0.7818609E-02  0.9717243E-01
       -2   -1    0    0    0  501  0.00000000000E+00  0.00000000000E+00  0.23823096816E+03  0.23823096817E+03  0.25500000920E-02 0.  1.
        2   -1    0    0  501    0  0.00000000000E+00  0.00000000000E+00 -0.51419732944E+03  0.51419732944E+03  0.25500000920E-02 0. -1.
    10030    2    1    2    0    0  0.00000000000E+00  0.00000000000E+00 -0.27596636128E+03  0.75242829761E+03  0.69999350746E+03 0.  0.
        1    1    3    3  502    0 -0.19978469151E+03  0.19500098982E+03  0.88917601540E+02  0.29299428131E+03  0.50400001928E-02 0.  1.
       -1    1    3    3    0  502  0.19978469151E+03 -0.19500098982E+03 -0.36488396282E+03  0.45943401630E+03  0.50400001928E-02 0. -1.
</event>
<event>
 5   0  0.2913582E-03  0.7027647E+03  0.7818609E-02  0.9712516E-01
       -1   -1    0    0    0  501  0.00000000000E+00  0.00000000000E+00  0.10561684229E+04  0.10561684230E+04  0.50400001928E-02 0. -1.
        1   -1    0    0  501    0  0.00000000000E+00  0.00000000000E+00 -0.11690327398E+03  0.11690327409E+03  0.50400001928E-02 0.  1.
    10030    2    1    2    0    0  0.00000000000E+00  0.00000000000E+00  0.93926514897E+03  0.11730716970E+04  0.70276467352E+03 0.  0.
        1    1    3    3  502    0  0.16839884879E+03 -0.30832408601E+03  0.45811223504E+03  0.57731164393E+03  0.50400001928E-02 0. -1.
       -1    1    3    3    0  502 -0.16839884879E+03  0.30832408601E+03  0.48115291392E+03  0.59576005312E+03  0.50400001928E-02 0.  1.
</event>
<event>
 5   0  0.4878235E-03  0.6987377E+03  0.7818609E-02  0.9719393E-01
        2   -1    0    0  501    0  0.00000000000E+00  0.00000000000E+00  0.46359921539E+03  0.46359921540E+03  0.25500000920E-02 0. -1.
       -2   -1    0    0    0  501  0.00000000000E+00  0.00000000000E+00 -0.26328475380E+03  0.26328475381E+03  0.25500000920E-02 0.  1.
    10030    2    1    2    0    0  0.00000000000E+00  0.00000000000E+00  0.20031446159E+03  0.72688396921E+03  0.69873773419E+03 0.  0.
        4    1    3    3  502    0 -0.49402028720E+02  0.22095614709E+02 -0.25889548198E+03  0.26449434800E+03  0.12699999809E+01 0.  1.
       -4    1    3    3    0  502  0.49402028720E+02 -0.22095614709E+02  0.45920994357E+03  0.46238962121E+03  0.12699999809E+01 0. -1.
</event>
<event>
 5   0  0.1981750E-03  0.6998014E+03  0.7818609E-02  0.9717572E-01
       -3   -1    0    0    0  501  0.00000000000E+00  0.00000000000E+00  0.28776441023E+03  0.28776442796E+03  0.10100000352E+00 0.  1.
        3   -1    0    0  501    0  0.00000000000E+00  0.00000000000E+00 -0.42545394389E+03  0.42545395587E+03  0.10100000352E+00 0. -1.
    10030    2    1    2    0    0  0.00000000000E+00  0.00000000000E+00 -0.13768953365E+03  0.71321838383E+03  0.69980143995E+03 0.  0.
        2    1    3    3  502    0  0.27221221731E+03  0.29424747399E+02  0.15319736380E+03  0.31374311035E+03  0.25500000920E-02 0.  1.
       -2    1    3    3    0  502 -0.27221221731E+03 -0.29424747399E+02 -0.29088689745E+03  0.39947527348E+03  0.25500000920E-02 0. -1.
</event>
<event>
 5   0  0.4878235E-03  0.6967040E+03  0.7818609E-02  0.9722886E-01
       -2   -1    0    0    0  501  0.00000000000E+00  0.00000000000E+00  0.19273575926E+03  0.19273575928E+03  0.25500000920E-02 0. -1.
        2   -1    0    0  501    0  0.00000000000E+00  0.00000000000E+00 -0.62961383571E+03  0.62961383571E+03  0.25500000920E-02 0.  1.
    10030    2    1    2    0    0  0.00000000000E+00  0.00000000000E+00 -0.43687807644E+03  0.82234959499E+03  0.69670395629E+03 0.  0.
        4    1    3    3  502    0  0.59480497969E+02  0.17342073531E+03  0.13117927079E+03  0.22543800713E+03  0.12699999809E+01 0. -1.
       -4    1    3    3    0  502 -0.59480497969E+02 -0.17342073531E+03 -0.56805734723E+03  0.59691158786E+03  0.12699999809E+01 0.  1.
</event>
<event>
 5   0  0.5076796E-03  0.7005879E+03  0.7818609E-02  0.9716227E-01
        2   -1    0    0  501    0  0.00000000000E+00  0.00000000000E+00  0.81071829765E+03  0.81071829765E+03  0.25500000920E-02 0. -1.
       -2   -1    0    0    0  501  0.00000000000E+00  0.00000000000E+00 -0.15135450572E+03  0.15135450574E+03  0.25500000920E-02 0.  1.
    10030    2    1    2    0    0  0.00000000000E+00  0.00000000000E+00  0.65936379193E+03  0.96207280340E+03  0.70058794518E+03 0.  0.
        5    1    3    3  502    0  0.11802895454E+03 -0.12045482384E+03  0.75125331708E+03  0.76996352843E+03  0.46999998093E+01 0. -1.
       -5    1    3    3    0  502 -0.11802895454E+03  0.12045482384E+03 -0.91889525150E+02  0.19210927497E+03  0.46999998093E+01 0.  1.
</event>
<event>
 5   0  0.5023894E-03  0.7001155E+03  0.7818609E-02  0.9717035E-01
        2   -1    0    0  501    0  0.00000000000E+00  0.00000000000E+00  0.18089148666E+04  0.18089148666E+04  0.25500000920E-02 0. -1.
       -2   -1    0    0    0  501  0.00000000000E+00  0.00000000000E+00 -0.67742514319E+02  0.67742514367E+02  0.25500000920E-02 0.  1.
    10030    2    1    2    0    0  0.00000000000E+00  0.00000000000E+00  0.17411723523E+04  0.18766573809E+04  0.70011553703E+03 0.  0.
        2    1    3    3  502    0 -0.15175014549E+03  0.23266281906E+03  0.14416033668E+04  0.14681213714E+04  0.25500000920E-02 0. -1.
       -2    1    3    3    0  502  0.15175014549E+03 -0.23266281906E+03  0.29956898544E+03  0.40853600952E+03  0.25500000920E-02 0.  1.
</event>
<event>
 5   0  0.5113683E-03  0.7007093E+03  0.7818609E-02  0.9716020E-01
        2   -1    0    0  501    0  0.00000000000E+00  0.00000000000E+00  0.34763268518E+03  0.34763268519E+03  0.25500000920E-02 0. -1.
       -2   -1    0    0    0  501  0.00000000000E+00  0.00000000000E+00 -0.35309797728E+03  0.35309797729E+03  0.25500000920E-02 0.  1.
    10030    2    1    2    0    0  0.00000000000E+00  0.00000000000E+00 -0.54652921000E+01  0.70073066247E+03  0.70070934910E+03 0.  0.
        3    1    3    3  502    0 -0.19823726667E+03 -0.38557418435E+02 -0.28903438478E+03  0.35259831848E+03  0.10100000352E+00 0.  1.
       -3    1    3    3    0  502  0.19823726667E+03  0.38557418435E+02  0.28356909268E+03  0.34813234399E+03  0.10100000352E+00 0. -1.
</event>
<event>
 5   0  0.5113683E-03  0.6984774E+03  0.7818609E-02  0.9719840E-01
       -2   -1    0    0    0  501  0.00000000000E+00  0.00000000000E+00  0.15101857335E+03  0.15101857337E+03  0.25500000920E-02 0.  1.
        2   -1    0    0  501    0  0.00000000000E+00  0.00000000000E+00 -0.80763357924E+03  0.80763357924E+03  0.25500000920E-02 0. -1.
    10030    2    1    2    0    0  0.00000000000E+00  0.00000000000E+00 -0.65661500589E+03  0.95865215262E+03  0.69847740390E+03 0.  0.
        3    1    3    3  502    0 -0.83574192973E+02 -0.64770038751E+02  0.12852266069E+03  0.16642682525E+03  0.10100000352E+00 0.  1.
       -3    1    3    3    0  502  0.83574192973E+02  0.64770038751E+02 -0.78513766657E+03  0.79222532737E+03  0.10100000352E+00 0. -1.
</event>
<event>
 5   0  0.5023894E-03  0.6977463E+03  0.7818609E-02  0.9721094E-01
        2   -1    0    0  501    0  0.00000000000E+00  0.00000000000E+00  0.59302146778E+03  0.59302146778E+03  0.25500000920E-02 0. -1.
       -2   -1    0    0    0  501  0.00000000000E+00  0.00000000000E+00 -0.20524125166E+03  0.20524125167E+03  0.25500000920E-02 0.  1.
    10030    2    1    2    0    0  0.00000000000E+00  0.00000000000E+00  0.38778021612E+03  0.79826271946E+03  0.69774628144E+03 0.  0.
        2    1    3    3  502    0  0.85370601619E+02  0.18661015354E+03  0.51667078046E+03  0.55593181633E+03  0.25500000920E-02 0. -1.
       -2    1    3    3    0  502 -0.85370601619E+02 -0.18661015354E+03 -0.12889056434E+03  0.24233090312E+03  0.25500000920E-02 0.  1.
</event>
<event>
 5   0  0.2934483E-03  0.7009265E+03  0.7818609E-02  0.9715649E-01
        1   -1    0    0  501    0  0.00000000000E+00  0.00000000000E+00  0.49905383477E+03  0.49905383479E+03  0.50400001928E-02 0.  1.
       -1   -1    0    0    0  501  0.00000000000E+00  0.00000000000E+00 -0.24611472241E+03  0.24611472247E+03  0.50400001928E-02 0. -1.
    10030    2    1    2    0    0  0.00000000000E+00  0.00000000000E+00  0.25293911235E+03  0.74516855726E+03  0.70092651838E+03 0.  0.
        5    1    3    3  502    0  0.81902391231E+02  0.12836507474E+03  0.46201268483E+03  0.48648063173E+03  0.46999998093E+01 0.  1.
       -5    1    3    3    0  502 -0.81902391231E+02 -0.12836507474E+03 -0.20907357248E+03  0.25868792553E+03  0.46999998093E+01 0. -1.
</event>
<event>
 5   0  0.1981750E-03  0.7002260E+03  0.7818609E-02  0.9716846E-01
       -4   -1    0    0    0  501  0.00000000000E+00  0.00000000000E+00  0.51861902377E+03  0.51862057876E+03  0.12699999809E+01 0.  1.
        4   -1    0    0  501    0  0.00000000000E+00  0.00000000000E+00 -0.23635316932E+03  0.23635658135E+03  0.12699999809E+01 0. -1.
    10030    2    1    2    0    0  0.00000000000E+00  0.00000000000E+00  0.28226585445E+03  0.75497716011E+03  0.70022603472E+03 0.  0.
        2    1    3    3  502    0  0.12096847434E+01 -0.26607523295E+03 -0.10421558360E+03  0.28575930571E+03  0.25500000920E-02 0. -1.
       -2    1    3    3    0  502 -0.12096847434E+01  0.26607523295E+03  0.38648143805E+03  0.46921785440E+03  0.25500000920E-02 0.  1.
</event>
<event>
 5   0  0.5113683E-03  0.7106377E+03  0.7818609E-02  0.9699211E-01
       -2   -1    0    0    0  501  0.00000000000E+00  0.00000000000E+00  0.13642758037E+03  0.13642758040E+03  0.25500000920E-02 0. -1.
        2   -1    0    0  501    0  0.00000000000E+00  0.00000000000E+00 -0.92541028978E+03  0.92541028978E+03  0.25500000920E-02 0.  1.
    10030    2    1    2    0    0  0.00000000000E+00  0.00000000000E+00 -0.78898270940E+03  0.10618378702E+04  0.71063770433E+03 0.  0.
        3    1    3    3  502    0 -0.11496524494E+02  0.19974653414E+03 -0.83323976545E+03  0.85692436358E+03  0.10100000352E+00 0.  1.
       -3    1    3    3    0  502  0.11496524494E+02 -0.19974653414E+03  0.44257056048E+02  0.20491350660E+03  0.10100000352E+00 0. -1.
</event>
<event>
 5   0  0.2938783E-03  0.6999140E+03  0.7818609E-02  0.9717379E-01
       -1   -1    0    0    0  501  0.00000000000E+00  0.00000000000E+00  0.88198717033E+02  0.88198717177E+02  0.50400001928E-02 0.  1.
        1   -1    0    0  501    0  0.00000000000E+00  0.00000000000E+00 -0.13885679845E+04  0.13885679845E+04  0.50400001928E-02 0. -1.
    10030    2    1    2    0    0  0.00000000000E+00  0.00000000000E+00 -0.13003692674E+04  0.14767667016E+04  0.69991403717E+03 0.  0.
        4    1    3    3  502    0 -0.14210854090E+03 -0.12897209569E+03 -0.12676387109E+04  0.12820835203E+04  0.12699999809E+01 0. -1.
       -4    1    3    3    0  502  0.14210854090E+03  0.12897209569E+03 -0.32730556564E+02  0.19468318134E+03  0.12699999809E+01 0.  1.
</event>
<event>
 5   0  0.5072407E-03  0.6958396E+03  0.7818609E-02  0.9724374E-01
        2   -1    0    0  501    0  0.00000000000E+00  0.00000000000E+00  0.97334399919E+03  0.97334399920E+03  0.25500000920E-02 0. -1.
       -2   -1    0    0    0  501  0.00000000000E+00  0.00000000000E+00 -0.12436322013E+03  0.12436322015E+03  0.25500000920E-02 0.  1.
    10030    2    1    2    0    0  0.00000000000E+00  0.00000000000E+00  0.84898077907E+03  0.10977072194E+04  0.69583961959E+03 0.  0.
        1    1    3    3  502    0  0.69045244463E+02 -0.17077604559E+03 -0.41125243478E+02  0.18874053408E+03  0.50400001928E-02 0.  1.
       -1    1    3    3    0  502 -0.69045244463E+02  0.17077604559E+03  0.89010602255E+03  0.90896668527E+03  0.50400001928E-02 0. -1.
</event>
<event>
 5   0  0.5023894E-03  0.6999920E+03  0.7818609E-02  0.9717246E-01
       -2   -1    0    0    0  501  0.00000000000E+00  0.00000000000E+00  0.21500955520E+03  0.21500955522E+03  0.25500000920E-02 0.  1.
        2   -1    0    0  501    0  0.00000000000E+00  0.00000000000E+00 -0.56972914854E+03  0.56972914855E+03  0.25500000920E-02 0. -1.
    10030    2    1    2    0    0  0.00000000000E+00  0.00000000000E+00 -0.35471959334E+03  0.78473870377E+03  0.69999203088E+03 0.  0.
        2    1    3    3  502    0 -0.12250068293E+03 -0.27253313652E+03 -0.38167881837E+03  0.48472615796E+03  0.25500000920E-02 0.  1.
       -2    1    3    3    0  502  0.12250068293E+03  0.27253313652E+03  0.26959225027E+02  0.30001254580E+03  0.25500000920E-02 0. -1.
</event>
<event>
 5   0  0.3013140E-03  0.6994048E+03  0.7818609E-02  0.9718251E-01
        1   -1    0    0  501    0  0.00000000000E+00  0.00000000000E+00  0.11481334816E+04  0.11481334816E+04  0.50400001928E-02 0. -1.
       -1   -1    0    0    0  501  0.00000000000E+00  0.00000000000E+00 -0.10651353426E+03  0.10651353437E+03  0.50400001928E-02 0.  1.
    10030    2    1    2    0    0  0.00000000000E+00  0.00000000000E+00  0.10416199474E+04  0.12546470160E+04  0.69940476122E+03 0.  0.
        2    1    3    3  502    0  0.28577366239E+03  0.18716764546E+03  0.65497289888E+03  0.73870685112E+03  0.25500000920E-02 0. -1.
       -2    1    3    3    0  502 -0.28577366239E+03 -0.18716764546E+03  0.38664704848E+03  0.51594016488E+03  0.25500000920E-02 0.  1.
</event>
<event>
 5   0  0.5076796E-03  0.6936182E+03  0.7818609E-02  0.9728209E-01
       -2   -1    0    0    0  501  0.00000000000E+00  0.00000000000E+00  0.52767324776E+03  0.52767324777E+03  0.25500000920E-02 0. -1.
        2   -1    0    0  501    0  0.00000000000E+00  0.00000000000E+00 -0.22793753398E+03  0.22793753400E+03  0.25500000920E-02 0.  1.
    10030    2    1    2    0    0  0.00000000000E+00  0.00000000000E+00  0.29973571378E+03  0.75561078176E+03  0.69361816254E+03 0.  0.
        5    1    3    3  502    0 -0.24486836676E+03  0.93315380341E+02 -0.97557575995E+02  0.27965666071E+03  0.46999998093E+01 0.  1.
       -5    1    3    3    0  502  0.24486836676E+03 -0.93315380341E+02  0.39729328977E+03  0.47595412105E+03  0.46999998093E+01 0. -1.
</event>
<event>
 5   0  0.2937617E-03  0.7012440E+03  0.7818609E-02  0.9715107E-01
       -1   -1    0    0    0  501  0.00000000000E+00  0.00000000000E+00  0.13178335081E+03  0.13178335091E+03  0.50400001928E-02 0.  1.
        1   -1    0    0  501    0  0.00000000000E+00  0.00000000000E+00 -0.93286294112E+03  0.93286294113E+03  0.50400001928E-02 0. -1.
    10030    2    1    2    0    0  0.00000000000E+00  0.00000000000E+00 -0.80107959030E+03  0.10646462920E+04  0.70124404964E+03 0.  0.
        3    1    3    3  502    0  0.20414269290E+03 -0.76929551286E+02  0.16194038882E+02  0.21875706165E+03  0.10100000352E+00 0.  1.
       -3    1    3    3    0  502 -0.20414269290E+03  0.76929551286E+02 -0.81727362919E+03  0.84588923039E+03  0.10100000352E+00 0. -1.
</event>
<event>
 5   0  0.2937617E-03  0.7002834E+03  0.7818609E-02  0.9716748E-01
        1   -1    0    0  501    0  0.00000000000E+00  0.00000000000E+00  0.30139330252E+03  0.30139330256E+03  0.50400001928E-02 0. -1.
       -1   -1    0    0    0  501  0.00000000000E+00  0.00000000000E+00 -0.40677486880E+03  0.40677486883E+03  0.50400001928E-02 0.  1.
    10030    2    1    2    0    0  0.00000000000E+00  0.00000000000E+00 -0.10538156628E+03  0.70816817139E+03  0.70028343152E+03 0.  0.
        3    1    3    3  502    0  0.14590726500E+03  0.67713157210E+02  0.26181771976E+03  0.30728249254E+03  0.10100000352E+00 0. -1.
       -3    1    3    3    0  502 -0.14590726500E+03 -0.67713157210E+02 -0.36719928604E+03  0.40088567885E+03  0.10100000352E+00 0.  1.
</event>
<event>
 5   0  0.2938783E-03  0.6987253E+03  0.7818609E-02  0.9719415E-01
        1   -1    0    0  501    0  0.00000000000E+00  0.00000000000E+00  0.16154399710E+04  0.16154399711E+04  0.50400001928E-02 0. -1.
       -1   -1    0    0    0  501  0.00000000000E+00  0.00000000000E+00 -0.75554800295E+02  0.75554800463E+02  0.50400001928E-02 0.  1.
    10030    2    1    2    0    0  0.00000000000E+00  0.00000000000E+00  0.15398851708E+04  0.16909947715E+04  0.69872525230E+03 0.  0.
        4    1    3    3  502    0 -0.49151211025E+02  0.17989515807E+03  0.14848989976E+04  0.14965643172E+04  0.12699999809E+01 0. -1.
       -4    1    3    3    0  502  0.49151211025E+02 -0.17989515807E+03  0.54986173150E+02  0.19443045435E+03  0.12699999809E+01 0.  1.
</event>
<event>
 5   0  0.4878235E-03  0.6999382E+03  0.7818609E-02  0.9717338E-01
        2   -1    0    0  501    0  0.00000000000E+00  0.00000000000E+00  0.51499112515E+03  0.51499112516E+03  0.25500000920E-02 0. -1.
       -2   -1    0    0    0  501  0.00000000000E+00  0.00000000000E+00 -0.23782616651E+03  0.23782616652E+03  0.25500000920E-02 0.  1.
    10030    2    1    2    0    0  0.00000000000E+00  0.00000000000E+00  0.27716495865E+03  0.75281729168E+03  0.69993818323E+03 0.  0.
        4    1    3    3  502    0 -0.28316537912E+03 -0.13104981795E+03 -0.31884507057E+02  0.31364776647E+03  0.12699999809E+01 0.  1.
       -4    1    3    3    0  502  0.28316537912E+03  0.13104981795E+03  0.30904946570E+03  0.43916952521E+03  0.12699999809E+01 0. -1.
</event>
<event>
 5   0  0.5023894E-03  0.7005527E+03  0.7818609E-02  0.9716287E-01
       -2   -1    0    0    0  501  0.00000000000E+00  0.00000000000E+00  0.30025923459E+03  0.30025923460E+03  0.25500000920E-02 0.  1.
        2   -1    0    0  501    0  0.00000000000E+00  0.00000000000E+00 -0.40862536280E+03  0.40862536281E+03  0.25500000920E-02 0. -1.
    10030    2    1    2    0    0  0.00000000000E+00  0.00000000000E+00 -0.10836612821E+03  0.70888459741E+03  0.70055274941E+03 0.  0.
        2    1    3    3  502    0 -0.14890624384E+02 -0.14847405236E+03  0.26648854666E+03  0.30542170916E+03  0.25500000920E-02 0.  1.
       -2    1    3    3    0  502  0.14890624384E+02  0.14847405236E+03 -0.37485467487E+03  0.40346288825E+03  0.25500000920E-02 0. -1.
</event>
<event>
 5   0  0.4878235E-03  0.6998267E+03  0.7818609E-02  0.9717529E-01
       -2   -1    0    0    0  501  0.00000000000E+00  0.00000000000E+00  0.60796002789E+02  0.60796002842E+02  0.25500000920E-02 0. -1.
        2   -1    0    0  501    0  0.00000000000E+00  0.00000000000E+00 -0.20139377627E+04  0.20139377627E+04  0.25500000920E-02 0.  1.
    10030    2    1    2    0    0  0.00000000000E+00  0.00000000000E+00 -0.19531417599E+04  0.20747337656E+04  0.69982673826E+03 0.  0.
        4    1    3    3  502    0 -0.98584649971E+02  0.32152485244E+02 -0.19673328787E+04  0.19700642081E+04  0.12699999809E+01 0.  1.
       -4    1    3    3    0  502  0.98584649971E+02 -0.32152485244E+02  0.14191118730E+02  0.10466955750E+03  0.12699999809E+01 0. -1.
</event>
<event>
 5   0  0.5072407E-03  0.7024889E+03  0.7818609E-02  0.9712985E-01
       -2   -1    0    0    0  501  0.00000000000E+00  0.00000000000E+00  0.13654724894E+03  0.13654724897E+03  0.25500000920E-02 0. -1.
        2   -1    0    0  501    0  0.00000000000E+00  0.00000000000E+00 -0.90351617646E+03  0.90351617646E+03  0.25500000920E-02 0.  1.
    10030    2    1    2    0    0  0.00000000000E+00  0.00000000000E+00 -0.76696892751E+03  0.10400634254E+04  0.70248885624E+03 0.  0.
        1    1    3    3  502    0  0.11284275263E+03 -0.25236284068E+03 -0.70429466110E+03  0.75660522062E+03  0.50400001928E-02 0.  1.
       -1    1    3    3    0  502 -0.11284275263E+03  0.25236284068E+03 -0.62674266409E+02  0.28345820481E+03  0.50400001928E-02 0. -1.
</event>
<event>
 5   0  0.5113683E-03  0.7022165E+03  0.7818609E-02  0.9713449E-01
       -2   -1    0    0    0  501  0.00000000000E+00  0.00000000000E+00  0.83975574896E+02  0.83975574935E+02  0.25500000920E-02 0.  1.
        2   -1    0    0  501    0  0.00000000000E+00  0.00000000000E+00 -0.14680102426E+04  0.14680102426E+04  0.25500000920E-02 0. -1.
    10030    2    1    2    0    0  0.00000000000E+00  0.00000000000E+00 -0.13840346677E+04  0.15519858175E+04  0.70221650253E+03 0.  0.
        3    1    3    3  502    0 -0.81458778746E+02  0.93044185878E+02  0.34250661340E+02  0.12831941071E+03  0.10100000352E+00 0.  1.
       -3    1    3    3    0  502  0.81458778746E+02 -0.93044185878E+02 -0.14182853290E+04  0.14236664068E+04  0.10100000352E+00 0. -1.
</event>
<event>
 5   0  0.2913582E-03  0.6986147E+03  0.7818609E-02  0.9719604E-01
       -1   -1    0    0    0  501  0.00000000000E+00  0.00000000000E+00  0.12046286643E+03  0.12046286654E+03  0.50400001928E-02 0. -1.
        1   -1    0    0  501    0  0.00000000000E+00  0.00000000000E+00 -0.10128899632E+04  0.10128899633E+04  0.50400001928E-02 0.  1.
    10030    2    1    2    0    0  0.00000000000E+00  0.00000000000E+00 -0.89242709681E+03  0.11333528298E+04  0.69861471046E+03 0.  0.
        1    1    3    3  502    0 -0.33057603563E+03  0.92514497325E+01 -0.62867221399E+03  0.71034840559E+03  0.50400001928E-02 0.  1.
       -1    1    3    3    0  502  0.33057603563E+03 -0.92514497325E+01 -0.26375488282E+03  0.42300442420E+03  0.50400001928E-02 0. -1.
</event>
<event>
 5   0  0.5023894E-03  0.6997165E+03  0.7818609E-02  0.9717717E-01
       -2   -1    0    0    0  501  0.00000000000E+00  0.00000000000E+00  0.20283154556E+03  0.20283154558E+03  0.25500000920E-02 0.  1.
        2   -1    0    0  501    0  0.00000000000E+00  0.00000000000E+00 -0.60346038947E+03  0.60346038948E+03  0.25500000920E-02 0. -1.
    10030    2    1    2    0    0  0.00000000000E+00  0.00000000000E+00 -0.40062884391E+03  0.80629193506E+03  0.69971652400E+03 0.  0.
        2    1    3    3  502    0  0.85319296936E+02 -0.52800720859E+02 -0.58652560108E+03  0.59504586318E+03  0.25500000920E-02 0. -1.
       -2    1    3    3    0  502 -0.85319296936E+02  0.52800720859E+02  0.18589675717E+03  0.21124607188E+03  0.25500000920E-02 0.  1.
</event>
<event>
 5   0  0.3013140E-03  0.6974929E+03  0.7818609E-02  0.9721529E-01
       -1   -1    0    0    0  501  0.00000000000E+00  0.00000000000E+00  0.92965019428E+02  0.92965019565E+02  0.50400001928E-02 0. -1.
        1   -1    0    0  501    0  0.00000000000E+00  0.00000000000E+00 -0.13082780548E+04  0.13082780548E+04  0.50400001928E-02 0.  1.
    10030    2    1    2    0    0  0.00000000000E+00  0.00000000000E+00 -0.12153130354E+04  0.14012430744E+04  0.69749292436E+03 0.  0.
        2    1    3    3  502    0 -0.77166936325E+02  0.30434499650E+02  0.72857322709E+02  0.11040463899E+03  0.25500000920E-02 0. -1.
       -2    1    3    3    0  502  0.77166936325E+02 -0.30434499650E+02 -0.12881703581E+04  0.12908384354E+04  0.25500000920E-02 0.  1.
</event>
<event>
 5   0  0.4878235E-03  0.6996779E+03  0.7818609E-02  0.9717783E-01
       -2   -1    0    0    0  501  0.00000000000E+00  0.00000000000E+00  0.11283474227E+03  0.11283474230E+03  0.25500000920E-02 0. -1.
        2   -1    0    0  501    0  0.00000000000E+00  0.00000000000E+00 -0.10846597857E+04  0.10846597857E+04  0.25500000920E-02 0.  1.
    10030    2    1    2    0    0  0.00000000000E+00  0.00000000000E+00 -0.97182504347E+03  0.11974945280E+04  0.69967794704E+03 0.  0.
        4    1    3    3  502    0  0.13503851538E+03  0.26728073485E+03 -0.17636718104E+03  0.34753616691E+03  0.12699999809E+01 0. -1.
       -4    1    3    3    0  502 -0.13503851538E+03 -0.26728073485E+03 -0.79545786243E+03  0.84995836113E+03  0.12699999809E+01 0.  1.
</event>
<event>
 5   0  0.4878235E-03  0.7053250E+03  0.7818609E-02  0.9708169E-01
       -2   -1    0    0    0  501  0.00000000000E+00  0.00000000000E+00  0.16772096553E+03  0.16772096555E+03  0.25500000920E-02 0. -1.
        2   -1    0    0  501    0  0.00000000000E+00  0.00000000000E+00 -0.74153424891E+03  0.74153424891E+03  0.25500000920E-02 0.  1.
    10030    2    1    2    0    0  0.00000000000E+00  0.00000000000E+00 -0.57381328338E+03  0.90925521447E+03  0.70532500371E+03 0.  0.
        4    1    3    3  502    0  0.28027209881E+03 -0.18900727585E+03 -0.41641781900E+03  0.53635959260E+03  0.12699999809E+01 0.  1.
       -4    1    3    3    0  502 -0.28027209881E+03  0.18900727585E+03 -0.15739546438E+03  0.37289562186E+03  0.12699999809E+01 0. -1.
</event>
<event>
 5   0  0.2938783E-03  0.7000796E+03  0.7818609E-02  0.9717096E-01
        1   -1    0    0  501    0  0.00000000000E+00  0.00000000000E+00  0.18855356515E+03  0.18855356522E+03  0.50400001928E-02 0.  1.
       -1   -1    0    0    0  501  0.00000000000E+00  0.00000000000E+00 -0.64983053016E+03  0.64983053018E+03  0.50400001928E-02 0. -1.
    10030    2    1    2    0    0  0.00000000000E+00  0.00000000000E+00 -0.46127696500E+03  0.83838409540E+03  0.70007960474E+03 0.  0.
        4    1    3    3  502    0  0.23778944743E+03 -0.21390871516E+02 -0.53718660105E+03  0.58785410430E+03  0.12699999809E+01 0. -1.
       -4    1    3    3    0  502 -0.23778944743E+03  0.21390871516E+02  0.75909636045E+02  0.25052999110E+03  0.12699999809E+01 0.  1.
</event>
<event>
 5   0  0.2937617E-03  0.7016220E+03  0.7818609E-02  0.9714462E-01
        1   -1    0    0  501    0  0.00000000000E+00  0.00000000000E+00  0.26244005085E+03  0.26244005090E+03  0.50400001928E-02 0.  1.
       -1   -1    0    0    0  501  0.00000000000E+00  0.00000000000E+00 -0.46893896651E+03  0.46893896654E+03  0.50400001928E-02 0. -1.
    10030    2    1    2    0    0  0.00000000000E+00  0.00000000000E+00 -0.20649891566E+03  0.73137901744E+03  0.70162202430E+03 0.  0.
        3    1    3    3  502    0  0.77838311337E+02  0.26300463698E+03  0.12474605999E+03  0.30131682905E+03  0.10100000352E+00 0.  1.
       -3    1    3    3    0  502 -0.77838311337E+02 -0.26300463698E+03 -0.33124497566E+03  0.43006218839E+03  0.10100000352E+00 0. -1.
</event>
<event>
 5   0  0.5113683E-03  0.7002735E+03  0.7818609E-02  0.9716765E-01
       -2   -1    0    0    0  501  0.00000000000E+00  0.00000000000E+00  0.15950468515E+03  0.15950468517E+03  0.25500000920E-02 0.  1.
        2   -1    0    0  501    0  0.00000000000E+00  0.00000000000E+00 -0.76860278190E+03  0.76860278190E+03  0.25500000920E-02 0. -1.
    10030    2    1    2    0    0  0.00000000000E+00  0.00000000000E+00 -0.60909809675E+03  0.92810746707E+03  0.70027350297E+03 0.  0.
        3    1    3    3  502    0  0.17036073270E+03  0.27326322539E+03 -0.48675534042E+03  0.58363202553E+03  0.10100000352E+00 0. -1.
       -3    1    3    3    0  502 -0.17036073270E+03 -0.27326322539E+03 -0.12234275633E+03  0.34447544154E+03  0.10100000352E+00 0.  1.
</event>
<event>
 5   0  0.2934483E-03  0.7033849E+03  0.7818609E-02  0.9711461E-01
        1   -1    0    0  501    0  0.00000000000E+00  0.00000000000E+00  0.67996199458E+03  0.67996199459E+03  0.50400001928E-02 0.  1.
       -1   -1    0    0    0  501  0.00000000000E+00  0.00000000000E+00 -0.18190367790E+03  0.18190367797E+03  0.50400001928E-02 0. -1.
    10030    2    1    2    0    0  0.00000000000E+00  0.00000000000E+00  0.49805831668E+03  0.86186567256E+03  0.70338492359E+03 0.  0.
        5    1    3    3  502    0  0.24081645147E+03 -0.17464033182E+03  0.47883204886E+03  0.56373223236E+03  0.46999998093E+01 0.  1.
       -5    1    3    3    0  502 -0.24081645147E+03  0.17464033182E+03  0.19226267821E+02  0.29813344020E+03  0.46999998093E+01 0. -1.
</event>
<event>
 5   0  0.2938783E-03  0.6950106E+03  0.7818609E-02  0.9725803E-01
        1   -1    0    0  501    0  0.00000000000E+00  0.00000000000E+00  0.70725723620E+03  0.70725723622E+03  0.50400001928E-02 0. -1.
       -1   -1    0    0    0  501  0.00000000000E+00  0.00000000000E+00 -0.17074401640E+03  0.17074401648E+03  0.50400001928E-02 0.  1.
    10030    2    1    2    0    0  0.00000000000E+00  0.00000000000E+00  0.53651321980E+03  0.87800125269E+03  0.69501062202E+03 0.  0.
        4    1    3    3  502    0 -0.27467074734E+03 -0.16581206608E+03  0.99614635568E+02  0.33594992071E+03  0.12699999809E+01 0.  1.
       -4    1    3    3    0  502  0.27467074734E+03  0.16581206608E+03  0.43689858423E+03  0.54205133198E+03  0.12699999809E+01 0. -1.
</event>
<event>
 5   0  0.4878235E-03  0.7000998E+03  0.7818609E-02  0.9717062E-01
       -2   -1    0    0    0  501  0.00000000000E+00  0.00000000000E+00  0.43727801554E+03  0.43727801555E+03  0.25500000920E-02 0.  1.
        2   -1    0    0  501    0  0.00000000000E+00  0.00000000000E+00 -0.28022199580E+03  0.28022199581E+03  0.25500000920E-02 0. -1.
    10030    2    1    2    0    0  0.00000000000E+00  0.00000000000E+00  0.15705601975E+03  0.71750001136E+03  0.70009975929E+03 0.  0.
        4    1    3    3  502    0  0.22247484260E+03  0.17158135311E+03  0.29251910969E+03  0.40559124591E+03  0.12699999809E+01 0.  1.
       -4    1    3    3    0  502 -0.22247484260E+03 -0.17158135311E+03 -0.13546308994E+03  0.31190876545E+03  0.12699999809E+01 0. -1.
</event>
<event>
 5   0  0.5072407E-03  0.7002409E+03  0.7818609E-02  0.9716820E-01
       -2   -1    0    0    0  501  0.00000000000E+00  0.00000000000E+00  0.13391596659E+03  0.13391596661E+03  0.25500000920E-02 0.  1.
        2   -1    0    0  501    0  0.00000000000E+00  0.00000000000E+00 -0.91538242571E+03  0.91538242571E+03  0.25500000920E-02 0. -1.
    10030    2    1    2    0    0  0.00000000000E+00  0.00000000000E+00 -0.78146645912E+03  0.10492983923E+04  0.70024087956E+03 0.  0.
        1    1    3    3  502    0  0.31178606159E+02 -0.10272008172E+03 -0.89011415343E+03  0.89656384426E+03  0.50400001928E-02 0. -1.
       -1    1    3    3    0  502 -0.31178606159E+02  0.10272008172E+03  0.10864769430E+03  0.15273454807E+03  0.50400001928E-02 0.  1.
</event>
<event>
 5   0  0.3013140E-03  0.6994621E+03  0.7818609E-02  0.9718153E-01
       -1   -1    0    0    0  501  0.00000000000E+00  0.00000000000E+00  0.27667545583E+03  0.27667545587E+03  0.50400001928E-02 0.  1.
        1   -1    0    0  501    0  0.00000000000E+00  0.00000000000E+00 -0.44207681606E+03  0.44207681609E+03  0.50400001928E-02 0. -1.
    10030    2    1    2    0    0  0.00000000000E+00  0.00000000000E+00 -0.16540136023E+03  0.71875227196E+03  0.69946209224E+03 0.  0.
        2    1    3    3  502    0 -0.99427263804E+01  0.22484809408E+03 -0.35777001746E+03  0.42267589075E+03  0.25500000920E-02 0. -1.
       -2    1    3    3    0  502  0.99427263804E+01 -0.22484809408E+03  0.19236865723E+03  0.29607638121E+03  0.25500000920E-02 0.  1.
</event>
<event>
 5   0  0.5023894E-03  0.7003210E+03  0.7818609E-02  0.9716683E-01
        2   -1    0    0  501    0  0.00000000000E+00  0.00000000000E+00  0.16842321201E+04  0.16842321201E+04  0.25500000920E-02 0.  1.
       -2   -1    0    0    0  501  0.00000000000E+00  0.00000000000E+00 -0.72800169660E+02  0.72800169704E+02  0.25500000920E-02 0. -1.
    10030    2    1    2    0    0  0.00000000000E+00  0.00000000000E+00  0.16114319504E+04  0.17570322898E+04  0.70032102390E+03 0.  0.
        2    1    3    3  502    0  0.63559730298E+02 -0.31848302883E+03  0.47724122718E+03  0.57726117823E+03  0.25500000920E-02 0.  1.
       -2    1    3    3    0  502 -0.63559730298E+02  0.31848302883E+03  0.11341907232E+04  0.11797711116E+04  0.25500000920E-02 0. -1.
</event>
<event>
 5   0  0.1981750E-03  0.7008416E+03  0.7818609E-02  0.9715794E-01
       -3   -1    0    0    0  501  0.00000000000E+00  0.00000000000E+00  0.42581379932E+03  0.42581381130E+03  0.10100000352E+00 0. -1.
        3   -1    0    0  501    0  0.00000000000E+00  0.00000000000E+00 -0.28837659005E+03  0.28837660774E+03  0.10100000352E+00 0.  1.
    10030    2    1    2    0    0  0.00000000000E+00  0.00000000000E+00  0.13743720927E+03  0.71419041904E+03  0.70084161417E+03 0.  0.
        1    1    3    3  502    0  0.10792335662E+03  0.92053815746E+02 -0.25781138993E+03  0.29425850659E+03  0.50400001928E-02 0.  1.
       -1    1    3    3    0  502 -0.10792335662E+03 -0.92053815746E+02  0.39524859920E+03  0.41993191245E+03  0.50400001928E-02 0. -1.
</event>
<event>
 5   0  0.5072407E-03  0.6912293E+03  0.7818609E-02  0.9732350E-01
        2   -1    0    0  501    0  0.00000000000E+00  0.00000000000E+00  0.35338050644E+03  0.35338050645E+03  0.25500000920E-02 0. -1.
       -2   -1    0    0    0  501  0.00000000000E+00  0.00000000000E+00 -0.33801943212E+03  0.33801943213E+03  0.25500000920E-02 0.  1.
    10030    2    1    2    0    0  0.00000000000E+00  0.00000000000E+00  0.15361074328E+02  0.69139993858E+03  0.69122927633E+03 0.  0.
        1    1    3    3  502    0  0.25521718547E+03 -0.19495487761E+03  0.13540803986E+03  0.34853773590E+03  0.50400001928E-02 0. -1.
       -1    1    3    3    0  502 -0.25521718547E+03  0.19495487761E+03 -0.12004696553E+03  0.34286220268E+03  0.50400001928E-02 0.  1.
</event>
<event>
 5   0  0.5113683E-03  0.6999044E+03  0.7818609E-02  0.9717396E-01
        2   -1    0    0  501    0  0.00000000000E+00  0.00000000000E+00  0.59516768392E+03  0.59516768393E+03  0.25500000920E-02 0.  1.
       -2   -1    0    0    0  501  0.00000000000E+00  0.00000000000E+00 -0.20576812693E+03  0.20576812694E+03  0.25500000920E-02 0. -1.
    10030    2    1    2    0    0  0.00000000000E+00  0.00000000000E+00  0.38939955699E+03  0.80093581087E+03  0.69990439215E+03 0.  0.
        3    1    3    3  502    0  0.85093211835E+02 -0.18118554137E+03 -0.13378552411E+03  0.24076468131E+03  0.10100000352E+00 0. -1.
       -3    1    3    3    0  502 -0.85093211835E+02  0.18118554137E+03  0.52318508111E+03  0.56017112956E+03  0.10100000352E+00 0.  1.
</event>
<event>
 5   0  0.5023894E-03  0.7002662E+03  0.7818609E-02  0.9716777E-01
       -2   -1    0    0    0  501  0.00000000000E+00  0.00000000000E+00  0.17519801287E+03  0.17519801289E+03  0.25500000920E-02 0. -1.
        2   -1    0    0  501    0  0.00000000000E+00  0.00000000000E+00 -0.69974079175E+03  0.69974079175E+03  0.25500000920E-02 0.  1.
    10030    2    1    2    0    0  0.00000000000E+00  0.00000000000E+00 -0.52454277888E+03  0.87493880464E+03  0.70026622437E+03 0.  0.
        2    1    3    3  502    0 -0.26109871826E+03 -0.61049233594E+02 -0.54358533722E+03  0.60612256883E+03  0.25500000920E-02 0.  1.
       -2    1    3    3    0  502  0.26109871826E+03  0.61049233594E+02  0.19042558340E+02  0.26881623581E+03  0.25500000920E-02 0. -1.
</event>
<event>
 5   0  0.2934483E-03  0.7000590E+03  0.7818609E-02  0.9717131E-01
       -1   -1    0    0    0  501  0.00000000000E+00  0.00000000000E+00  0.25641617482E+03  0.25641617487E+03  0.50400001928E-02 0.  1.
        1   -1    0    0  501    0  0.00000000000E+00  0.00000000000E+00 -0.47781957536E+03  0.47781957539E+03  0.50400001928E-02 0. -1.
    10030    2    1    2    0    0  0.00000000000E+00  0.00000000000E+00 -0.22140340054E+03  0.73423575026E+03  0.70005904836E+03 0.  0.
        5    1    3    3  502    0  0.17164901028E+03 -0.12160559038E+03 -0.40408505186E+03  0.45558547110E+03  0.46999998093E+01 0. -1.
       -5    1    3    3    0  502 -0.17164901028E+03  0.12160559038E+03  0.18268165133E+03  0.27865027915E+03  0.46999998093E+01 0.  1.
</event>
<event>
 5   0  0.4878235E-03  0.6997596E+03  0.7818609E-02  0.9717643E-01
       -2   -1    0    0    0  501  0.00000000000E+00  0.00000000000E+00  0.12803045258E+03  0.12803045261E+03  0.25500000920E-02 0.  1.
        2   -1    0    0  501    0  0.00000000000E+00  0.00000000000E+00 -0.95614647584E+03  0.95614647584E+03  0.25500000920E-02 0. -1.
    10030    2    1    2    0    0  0.00000000000E+00  0.00000000000E+00 -0.82811602325E+03  0.10841769285E+04  0.69975957601E+03 0.  0.
        4    1    3    3  502    0 -0.26804597605E+03 -0.22482858079E+03 -0.40753650244E+03  0.53710720506E+03  0.12699999809E+01 0.  1.
       -4    1    3    3    0  502  0.26804597605E+03  0.22482858079E+03 -0.42057952082E+03  0.54706972339E+03  0.12699999809E+01 0. -1.
</event>
<event>
 5   0  0.2937617E-03  0.6950780E+03  0.7818609E-02  0.9725687E-01
       -1   -1    0    0    0  501  0.00000000000E+00  0.00000000000E+00  0.61985201296E+03  0.61985201298E+03  0.50400001928E-02 0.  1.
        1   -1    0    0  501    0  0.00000000000E+00  0.00000000000E+00 -0.19485835693E+03  0.19485835700E+03  0.50400001928E-02 0. -1.
    10030    2    1    2    0    0  0.00000000000E+00  0.00000000000E+00  0.42499365603E+03  0.81471036998E+03  0.69507796634E+03 0.  0.
        3    1    3    3  502    0 -0.92828600672E+02  0.60225141294E+02 -0.17365924229E+03  0.20591687493E+03  0.10100000352E+00 0. -1.
       -3    1    3    3    0  502  0.92828600672E+02 -0.60225141294E+02  0.59865289832E+03  0.60879349505E+03  0.10100000352E+00 0.  1.
</event>
<event>
 5   0  0.2913582E-03  0.6994874E+03  0.7818609E-02  0.9718109E-01
       -1   -1    0    0    0  501  0.00000000000E+00  0.00000000000E+00  0.30379259326E+03  0.30379259330E+03  0.50400001928E-02 0.  1.
        1   -1    0    0  501    0  0.00000000000E+00  0.00000000000E+00 -0.40264526016E+03  0.40264526019E+03  0.50400001928E-02 0. -1.
    10030    2    1    2    0    0  0.00000000000E+00  0.00000000000E+00 -0.98852666897E+02  0.70643785349E+03  0.69948737736E+03 0.  0.
        1    1    3    3  502    0  0.24593508453E+03 -0.92242331160E+02  0.18379671141E+03  0.32058375600E+03  0.50400001928E-02 0.  1.
       -1    1    3    3    0  502 -0.24593508453E+03  0.92242331160E+02 -0.28264937831E+03  0.38585409748E+03  0.50400001928E-02 0. -1.
</event>
<event>
 5   0  0.5113683E-03  0.7025406E+03  0.7818609E-02  0.9712897E-01
        2   -1    0    0  501    0  0.00000000000E+00  0.00000000000E+00  0.37289029599E+03  0.37289029600E+03  0.25500000920E-02 0.  1.
       -2   -1    0    0    0  501  0.00000000000E+00  0.00000000000E+00 -0.33090383456E+03  0.33090383457E+03  0.25500000920E-02 0. -1.
    10030    2    1    2    0    0  0.00000000000E+00  0.00000000000E+00  0.41986461425E+02  0.70379413057E+03  0.70254061468E+03 0.  0.
        3    1    3    3  502    0  0.16020511171E+03  0.23310619762E+03  0.22965948517E+03  0.36434553176E+03  0.10100000352E+00 0.  1.
       -3    1    3    3    0  502 -0.16020511171E+03 -0.23310619762E+03 -0.18767302375E+03  0.33944859880E+03  0.10100000352E+00 0. -1.
</event>
<event>
 5   0  0.2934483E-03  0.6999879E+03  0.7818609E-02  0.9717253E-01
        1   -1    0    0  501    0  0.00000000000E+00  0.00000000000E+00  0.73025605996E+03  0.73025605998E+03  0.50400001928E-02 0. -1.
       -1   -1    0    0    0  501  0.00000000000E+00  0.00000000000E+00 -0.16774356116E+03  0.16774356124E+03  0.50400001928E-02 0.  1.
    10030    2    1    2    0    0  0.00000000000E+00  0.00000000000E+00  0.56251249880E+03  0.89799962122E+03  0.69998786304E+03 0.  0.
        5    1    3    3  502    0 -0.91382084886E+02 -0.15071286801E+03  0.66911999886E+03  0.69196005441E+03  0.46999998093E+01 0. -1.
       -5    1    3    3    0  502  0.91382084886E+02  0.15071286801E+03 -0.10660750006E+03  0.20603956681E+03  0.46999998093E+01 0.  1.
</event>
<event>
 5   0  0.2937617E-03  0.7023427E+03  0.7818609E-02  0.9713234E-01
       -1   -1    0    0    0  501  0.00000000000E+00  0.00000000000E+00  0.26438770382E+03  0.26438770386E+03  0.50400001928E-02 0.  1.
        1   -1    0    0  501    0  0.00000000000E+00  0.00000000000E+00 -0.46644113988E+03  0.46644113990E+03  0.50400001928E-02 0. -1.
    10030    2    1    2    0    0  0.00000000000E+00  0.00000000000E+00 -0.20205343606E+03  0.73082884377E+03  0.70234265701E+03 0.  0.
        3    1    3    3  502    0  0.23235659829E+03 -0.30868592640E+02  0.17107261385E+03  0.29018667817E+03  0.10100000352E+00 0.  1.
       -3    1    3    3    0  502 -0.23235659829E+03  0.30868592640E+02 -0.37312604991E+03  0.44064216559E+03  0.10100000352E+00 0. -1.
</event>
<event>
 5   0  0.2938783E-03  0.7000571E+03  0.7818609E-02  0.9717134E-01
        1   -1    0    0  501    0  0.00000000000E+00  0.00000000000E+00  0.14965272807E+04  0.14965272807E+04  0.50400001928E-02 0. -1.
       -1   -1    0    0    0  501  0.00000000000E+00  0.00000000000E+00 -0.81869537736E+02  0.81869537891E+02  0.50400001928E-02 0.  1.
    10030    2    1    2    0    0  0.00000000000E+00  0.00000000000E+00  0.14146577429E+04  0.15783968186E+04  0.70005713140E+03 0.  0.
        4    1    3    3  502    0 -0.18040603603E+03  0.99391994937E+02  0.13454171186E+04  0.13610929220E+04  0.12699999809E+01 0. -1.
       -4    1    3    3    0  502  0.18040603603E+03 -0.99391994937E+02  0.69240624341E+02  0.21730389654E+03  0.12699999809E+01 0.  1.
</event>
<event>
 5   0  0.2934483E-03  0.7002020E+03  0.7818609E-02  0.9716887E-01
       -1   -1    0    0    0  501  0.00000000000E+00  0.00000000000E+00  0.41655504434E+03  0.41655504437E+03  0.50400001928E-02 0. -1.
        1   -1    0    0  501    0  0.00000000000E+00  0.00000000000E+00 -0.29424853422E+03  0.29424853426E+03  0.50400001928E-02 0.  1.
    10030    2    1    2    0    0  0.00000000000E+00  0.00000000000E+00  0.12230651012E+03  0.71080357863E+03  0.70020200298E+03 0.  0.
        5    1    3    3  502    0 -0.14083202665E+03  0.15092843263E+03 -0.22585625958E+03  0.30601665232E+03  0.46999998093E+01 0.  1.
       -5    1    3    3    0  502  0.14083202665E+03 -0.15092843263E+03  0.34816276970E+03  0.40478692631E+03  0.46999998093E+01 0. -1.
</event>
<event>
 5   0  0.2938783E-03  0.6991557E+03  0.7818609E-02  0.9718677E-01
       -1   -1    0    0    0  501  0.00000000000E+00  0.00000000000E+00  0.29383911478E+03  0.29383911482E+03  0.50400001928E-02 0. -1.
        1   -1    0    0  501    0  0.00000000000E+00  0.00000000000E+00 -0.41588969843E+03  0.41588969846E+03  0.50400001928E-02 0.  1.
    10030    2    1    2    0    0  0.00000000000E+00  0.00000000000E+00 -0.12205058365E+03  0.70972881328E+03  0.69915566466E+03 0.  0.
        4    1    3    3  502    0  0.76755868589E+02 -0.30228762278E+03  0.99266985015E+02  0.32729927813E+03  0.12699999809E+01 0. -1.
       -4    1    3    3    0  502 -0.76755868589E+02  0.30228762278E+03 -0.22131756867E+03  0.38242953515E+03  0.12699999809E+01 0.  1.
</event>
<event>
 5   0  0.5113683E-03  0.7009999E+03  0.7818609E-02  0.9715524E-01
        2   -1    0    0  501    0  0.00000000000E+00  0.00000000000E+00  0.24473872544E+03  0.24473872545E+03  0.25500000920E-02 0.  1.
       -2   -1    0    0    0  501  0.00000000000E+00  0.00000000000E+00 -0.50196480342E+03  0.50196480342E+03  0.25500000920E-02 0. -1.
    10030    2    1    2    0    0  0.00000000000E+00  0.00000000000E+00 -0.25722607798E+03  0.74670352888E+03  0.70099993213E+03 0.  0.
        3    1    3    3  502    0  0.11735478066E+02 -0.23241468666E+03 -0.40780034109E+03  0.46952682183E+03  0.10100000352E+00 0. -1.
       -3    1    3    3    0  502 -0.11735478066E+02  0.23241468666E+03  0.15057426311E+03  0.27717670705E+03  0.10100000352E+00 0.  1.
</event>
<event>
 5   0  0.2938783E-03  0.7078385E+03  0.7818609E-02  0.9703920E-01
       -1   -1    0    0    0  501  0.00000000000E+00  0.00000000000E+00  0.23359655452E+03  0.23359655458E+03  0.50400001928E-02 0. -1.
        1   -1    0    0  501    0  0.00000000000E+00  0.00000000000E+00 -0.53621861843E+03  0.53621861845E+03  0.50400001928E-02 0.  1.
    10030    2    1    2    0    0  0.00000000000E+00  0.00000000000E+00 -0.30262206391E+03  0.76981517303E+03  0.70783846114E+03 0.  0.
        4    1    3    3  502    0  0.29008943065E+03  0.17560737273E+03 -0.41110887338E+02  0.34158680462E+03  0.12699999809E+01 0. -1.
       -4    1    3    3    0  502 -0.29008943065E+03 -0.17560737273E+03 -0.26151117657E+03  0.42822836841E+03  0.12699999809E+01 0.  1.
</event>
<event>
 5   0  0.5113683E-03  0.6953924E+03  0.7818609E-02  0.9725144E-01
       -2   -1    0    0    0  501  0.00000000000E+00  0.00000000000E+00  0.13108866131E+03  0.13108866133E+03  0.25500000920E-02 0.  1.
        2   -1    0    0  501    0  0.00000000000E+00  0.00000000000E+00 -0.92222060551E+03  0.92222060552E+03  0.25500000920E-02 0. -1.
    10030    2    1    2    0    0  0.00000000000E+00  0.00000000000E+00 -0.79113194421E+03  0.10533092668E+04  0.69539244926E+03 0.  0.
        3    1    3    3  502    0 -0.15695401828E+03  0.26163469080E+02 -0.86383434235E+03  0.87836716252E+03  0.10100000352E+00 0. -1.
       -3    1    3    3    0  502  0.15695401828E+03 -0.26163469080E+02  0.72702398146E+02  0.17494210433E+03  0.10100000352E+00 0.  1.
</event>
<event>
 5   0  0.4878235E-03  0.7000508E+03  0.7818609E-02  0.9717145E-01
       -2   -1    0    0    0  501  0.00000000000E+00  0.00000000000E+00  0.31951928365E+03  0.31951928366E+03  0.25500000920E-02 0.  1.
        2   -1    0    0  501    0  0.00000000000E+00  0.00000000000E+00 -0.38344403555E+03  0.38344403555E+03  0.25500000920E-02 0. -1.
    10030    2    1    2    0    0  0.00000000000E+00  0.00000000000E+00 -0.63924751892E+02  0.70296331922E+03  0.70005075120E+03 0.  0.
        4    1    3    3  502    0  0.17647346477E+03 -0.14689207250E+03 -0.29725083755E+03  0.37560596115E+03  0.12699999809E+01 0. -1.
       -4    1    3    3    0  502 -0.17647346477E+03  0.14689207250E+03  0.23332608566E+03  0.32735735806E+03  0.12699999809E+01 0.  1.
</event>
<event>
 5   0  0.2938783E-03  0.6993759E+03  0.7818609E-02  0.9718300E-01
        1   -1    0    0  501    0  0.00000000000E+00  0.00000000000E+00  0.41286757619E+03  0.41286757622E+03  0.50400001928E-02 0. -1.
       -1   -1    0    0    0  501  0.00000000000E+00  0.00000000000E+00 -0.29617651218E+03  0.29617651222E+03  0.50400001928E-02 0.  1.
    10030    2    1    2    0    0  0.00000000000E+00  0.00000000000E+00  0.11669106401E+03  0.70904408845E+03  0.69937594679E+03 0.  0.
        4    1    3    3  502    0 -0.14552752857E+03 -0.30299757816E+03  0.15608505953E+03  0.37060754532E+03  0.12699999809E+01 0. -1.
       -4    1    3    3    0  502  0.14552752857E+03  0.30299757816E+03 -0.39393995515E+02  0.33843654313E+03  0.12699999809E+01 0.  1.
</event>
<event>
 5   0  0.2913582E-03  0.7003053E+03  0.7818609E-02  0.9716710E-01
        1   -1    0    0  501    0  0.00000000000E+00  0.00000000000E+00  0.10517374123E+04  0.10517374123E+04  0.50400001928E-02 0.  1.
       -1   -1    0    0    0  501  0.00000000000E+00  0.00000000000E+00 -0.11657554780E+03  0.11657554790E+03  0.50400001928E-02 0. -1.
    10030    2    1    2    0    0  0.00000000000E+00  0.00000000000E+00  0.93516186452E+03  0.11683129602E+04  0.70030526215E+03 0.  0.
        1    1    3    3  502    0  0.48395840635E+02  0.74861753278E+02 -0.97328178882E+02  0.13198186968E+03  0.50400001928E-02 0. -1.
       -1    1    3    3    0  502 -0.48395840635E+02 -0.74861753278E+02  0.10324900434E+04  0.10363310906E+04  0.50400001928E-02 0.  1.
</event>
<event>
 5   0  0.5023894E-03  0.6999509E+03  0.7818609E-02  0.9717316E-01
       -2   -1    0    0    0  501  0.00000000000E+00  0.00000000000E+00  0.15676813586E+03  0.15676813588E+03  0.25500000920E-02 0.  1.
        2   -1    0    0  501    0  0.00000000000E+00  0.00000000000E+00 -0.78129925753E+03  0.78129925754E+03  0.25500000920E-02 0. -1.
    10030    2    1    2    0    0  0.00000000000E+00  0.00000000000E+00 -0.62453112167E+03  0.93806739341E+03  0.69995093588E+03 0.  0.
        2    1    3    3  502    0  0.61104987727E+02  0.49386830128E+02 -0.76932730831E+03  0.77332876957E+03  0.25500000920E-02 0. -1.
       -2    1    3    3    0  502 -0.61104987727E+02 -0.49386830128E+02  0.14479618664E+03  0.16473862385E+03  0.25500000920E-02 0.  1.
</event>
<event>
 5   0  0.5113683E-03  0.6995241E+03  0.7818609E-02  0.9718046E-01
        2   -1    0    0  501    0  0.00000000000E+00  0.00000000000E+00  0.86311611984E+03  0.86311611984E+03  0.25500000920E-02 0.  1.
       -2   -1    0    0    0  501  0.00000000000E+00  0.00000000000E+00 -0.14173469261E+03  0.14173469263E+03  0.25500000920E-02 0. -1.
    10030    2    1    2    0    0  0.00000000000E+00  0.00000000000E+00  0.72138142723E+03  0.10048508125E+04  0.69952411809E+03 0.  0.
        3    1    3    3  502    0  0.34860347833E+03  0.12799611605E+02  0.39718043118E+03  0.52862133921E+03  0.10100000352E+00 0. -1.
       -3    1    3    3    0  502 -0.34860347833E+03 -0.12799611605E+02  0.32420099605E+03  0.47622947326E+03  0.10100000352E+00 0.  1.
</event>
<event>
 5   0  0.2938783E-03  0.6993626E+03  0.7818609E-02  0.9718323E-01
        1   -1    0    0  501    0  0.00000000000E+00  0.00000000000E+00  0.17228472530E+04  0.17228472530E+04  0.50400001928E-02 0.  1.
       -1   -1    0    0    0  501  0.00000000000E+00  0.00000000000E+00 -0.70973793544E+02  0.70973793723E+02  0.50400001928E-02 0. -1.
    10030    2    1    2    0    0  0.00000000000E+00  0.00000000000E+00  0.16518734594E+04  0.17938210467E+04  0.69936258237E+03 0.  0.
        4    1    3    3  502    0 -0.26627781550E+03  0.22661170164E+03  0.81485864870E+03  0.88670906649E+03  0.12699999809E+01 0.  1.
       -4    1    3    3    0  502  0.26627781550E+03 -0.22661170164E+03  0.83701481072E+03  0.90711198019E+03  0.12699999809E+01 0. -1.
</event>
<event>
 5   0  0.3013140E-03  0.7004478E+03  0.7818609E-02  0.9716467E-01
       -1   -1    0    0    0  501  0.00000000000E+00  0.00000000000E+00  0.27684184529E+03  0.27684184533E+03  0.50400001928E-02 0.  1.
        1   -1    0    0  501    0  0.00000000000E+00  0.00000000000E+00 -0.44305721470E+03  0.44305721473E+03  0.50400001928E-02 0. -1.
    10030    2    1    2    0    0  0.00000000000E+00  0.00000000000E+00 -0.16621536942E+03  0.71989906007E+03  0.70044779081E+03 0.  0.
        2    1    3    3  502    0  0.30609502821E+03  0.16424436137E+03 -0.12891440845E+03  0.37052570929E+03  0.25500000920E-02 0. -1.
       -2    1    3    3    0  502 -0.30609502821E+03 -0.16424436137E+03 -0.37300960968E+02  0.34937335077E+03  0.25500000920E-02 0.  1.
</event>
<event>
 5   0  0.2913582E-03  0.7004590E+03  0.7818609E-02  0.9716448E-01
        1   -1    0    0  501    0  0.00000000000E+00  0.00000000000E+00  0.46078855371E+03  0.46078855374E+03  0.50400001928E-02 0. -1.
       -1   -1    0    0    0  501  0.00000000000E+00  0.00000000000E+00 -0.26619736664E+03  0.26619736669E+03  0.50400001928E-02 0.  1.
    10030    2    1    2    0    0  0.00000000000E+00  0.00000000000E+00  0.19459118707E+03  0.72698592043E+03  0.70045899125E+03 0.  0.
        1    1    3    3  502    0 -0.32563574069E+03 -0.11825560183E+02  0.23054066071E+03  0.39915845946E+03  0.50400001928E-02 0. -1.
       -1    1    3    3    0  502  0.32563574069E+03  0.11825560183E+02 -0.35949473638E+02  0.32782746097E+03  0.50400001928E-02 0.  1.
</event>
<event>
 5   0  0.5023894E-03  0.7050132E+03  0.7818609E-02  0.9708697E-01
        2   -1    0    0  501    0  0.00000000000E+00  0.00000000000E+00  0.17639734358E+04  0.17639734358E+04  0.25500000920E-02 0.  1.
       -2   -1    0    0    0  501  0.00000000000E+00  0.00000000000E+00 -0.70443758011E+02  0.70443758058E+02  0.25500000920E-02 0. -1.
    10030    2    1    2    0    0  0.00000000000E+00  0.00000000000E+00  0.16935296778E+04  0.18344171938E+04  0.70501324212E+03 0.  0.
        2    1    3    3  502    0  0.74014705745E+02  0.47535099236E+01  0.17434421860E+04  0.17450190338E+04  0.25500000920E-02 0.  1.
       -2    1    3    3    0  502 -0.74014705745E+02 -0.47535099236E+01 -0.49912508247E+02  0.89398159987E+02  0.25500000920E-02 0. -1.
</event>
<event>
 5   0  0.1981750E-03  0.6996958E+03  0.7818609E-02  0.9717753E-01
       -3   -1    0    0    0  501  0.00000000000E+00  0.00000000000E+00  0.24800761965E+03  0.24800764021E+03  0.10100000352E+00 0. -1.
        3   -1    0    0  501    0  0.00000000000E+00  0.00000000000E+00 -0.49350719757E+03  0.49350720791E+03  0.10100000352E+00 0.  1.
    10030    2    1    2    0    0  0.00000000000E+00  0.00000000000E+00 -0.24549957792E+03  0.74151484812E+03  0.69969581049E+03 0.  0.
        3    1    3    3  502    0  0.22307595169E+03 -0.54946734095E+01  0.16279899115E+03  0.27621837987E+03  0.10100000352E+00 0. -1.
       -3    1    3    3    0  502 -0.22307595169E+03  0.54946734095E+01 -0.40829856907E+03  0.46529646825E+03  0.10100000352E+00 0.  1.
</event>
<event>
 5   0  0.2937617E-03  0.7001610E+03  0.7818609E-02  0.9716957E-01
       -1   -1    0    0    0  501  0.00000000000E+00  0.00000000000E+00  0.15309756031E+03  0.15309756040E+03  0.50400001928E-02 0. -1.
        1   -1    0    0  501    0  0.00000000000E+00  0.00000000000E+00 -0.80051140414E+03  0.80051140416E+03  0.50400001928E-02 0.  1.
    10030    2    1    2    0    0  0.00000000000E+00  0.00000000000E+00 -0.64741384383E+03  0.95360896455E+03  0.70016096157E+03 0.  0.
        3    1    3    3  502    0  0.12136810057E+03 -0.15177553807E+03  0.72886518111E+02  0.20755357023E+03  0.10100000352E+00 0. -1.
       -3    1    3    3    0  502 -0.12136810057E+03  0.15177553807E+03 -0.72030036194E+03  0.74605539432E+03  0.10100000352E+00 0.  1.
</event>
<event>
 5   0  0.2937617E-03  0.7003283E+03  0.7818609E-02  0.9716671E-01
        1   -1    0    0  501    0  0.00000000000E+00  0.00000000000E+00  0.24392578988E+03  0.24392578993E+03  0.50400001928E-02 0. -1.
       -1   -1    0    0    0  501  0.00000000000E+00  0.00000000000E+00 -0.50267315022E+03  0.50267315025E+03  0.50400001928E-02 0.  1.
    10030    2    1    2    0    0  0.00000000000E+00  0.00000000000E+00 -0.25874736035E+03  0.74659894018E+03  0.70032833799E+03 0.  0.
        3    1    3    3  502    0 -0.29250072901E+03  0.21266940928E+02 -0.33334150444E+03  0.44398820709E+03  0.10100000352E+00 0.  1.
       -3    1    3    3    0  502  0.29250072901E+03 -0.21266940928E+02  0.74594144096E+02  0.30261073309E+03  0.10100000352E+00 0. -1.
</event>
<event>
 5   0  0.5113683E-03  0.7003075E+03  0.7818609E-02  0.9716706E-01
       -2   -1    0    0    0  501  0.00000000000E+00  0.00000000000E+00  0.26688644854E+03  0.26688644855E+03  0.25500000920E-02 0.  1.
        2   -1    0    0  501    0  0.00000000000E+00  0.00000000000E+00 -0.45940011066E+03  0.45940011067E+03  0.25500000920E-02 0. -1.
    10030    2    1    2    0    0  0.00000000000E+00  0.00000000000E+00 -0.19251366212E+03  0.72628655922E+03  0.70030754387E+03 0.  0.
        3    1    3    3  502    0 -0.19749694002E+02  0.19876234895E+03  0.20200740724E+03  0.28408365767E+03  0.10100000352E+00 0.  1.
       -3    1    3    3    0  502  0.19749694002E+02 -0.19876234895E+03 -0.39452106936E+03  0.44220290155E+03  0.10100000352E+00 0. -1.
</event>
<event>
 5   0  0.5113683E-03  0.6996479E+03  0.7818609E-02  0.9717835E-01
        2   -1    0    0  501    0  0.00000000000E+00  0.00000000000E+00  0.13974138786E+04  0.13974138786E+04  0.25500000920E-02 0.  1.
       -2   -1    0    0    0  501  0.00000000000E+00  0.00000000000E+00 -0.87573768224E+02  0.87573768261E+02  0.25500000920E-02 0. -1.
    10030    2    1    2    0    0  0.00000000000E+00  0.00000000000E+00  0.13098401104E+04  0.14849876469E+04  0.69964790902E+03 0.  0.
        3    1    3    3  502    0  0.20724818168E+03 -0.21417630913E+03  0.10437074195E+04  0.10854254871E+04  0.10100000352E+00 0.  1.
       -3    1    3    3    0  502 -0.20724818168E+03  0.21417630913E+03  0.26613269086E+03  0.39956215980E+03  0.10100000352E+00 0. -1.
</event>
<event>
 5   0  0.2913582E-03  0.7003423E+03  0.7818609E-02  0.9716647E-01
       -1   -1    0    0    0  501  0.00000000000E+00  0.00000000000E+00  0.14639509209E+03  0.14639509218E+03  0.50400001928E-02 0.  1.
        1   -1    0    0  501    0  0.00000000000E+00  0.00000000000E+00 -0.83759527384E+03  0.83759527385E+03  0.50400001928E-02 0. -1.
    10030    2    1    2    0    0  0.00000000000E+00  0.00000000000E+00 -0.69120018174E+03  0.98399036603E+03  0.70034230859E+03 0.  0.
        1    1    3    3  502    0 -0.28509330598E+03 -0.20251895023E+03 -0.32016511869E+03  0.47412848635E+03  0.50400001928E-02 0.  1.
       -1    1    3    3    0  502  0.28509330598E+03  0.20251895023E+03 -0.37103506305E+03  0.50986187968E+03  0.50400001928E-02 0. -1.
</event>
<event>
 5   0  0.1981750E-03  0.6998095E+03  0.7818609E-02  0.9717558E-01
        3   -1    0    0  501    0  0.00000000000E+00  0.00000000000E+00  0.76261119649E+03  0.76261120318E+03  0.10100000352E+00 0. -1.
       -3   -1    0    0    0  501  0.00000000000E+00  0.00000000000E+00 -0.16054489058E+03  0.16054492235E+03  0.10100000352E+00 0.  1.
    10030    2    1    2    0    0  0.00000000000E+00  0.00000000000E+00  0.60206630591E+03  0.92315612553E+03  0.69980954223E+03 0.  0.
        5    1    3    3  502    0 -0.17064142252E+02  0.32430561854E+03  0.47275601729E+03  0.57357271645E+03  0.46999998093E+01 0. -1.
       -5    1    3    3    0  502  0.17064142252E+02 -0.32430561854E+03  0.12931028861E+03  0.34958340908E+03  0.46999998093E+01 0.  1.
</event>
<event>
 5   0  0.5072407E-03  0.6998372E+03  0.7818609E-02  0.9717511E-01
        2   -1    0    0  501    0  0.00000000000E+00  0.00000000000E+00  0.78624687006E+03  0.78624687007E+03  0.25500000920E-02 0. -1.
       -2   -1    0    0    0  501  0.00000000000E+00  0.00000000000E+00 -0.15573099947E+03  0.15573099949E+03  0.25500000920E-02 0.  1.
    10030    2    1    2    0    0  0.00000000000E+00  0.00000000000E+00  0.63051587059E+03  0.94197786956E+03  0.69983715511E+03 0.  0.
        1    1    3    3  502    0  0.19353922162E+03  0.61749699351E+02  0.69874287462E+03  0.72767579356E+03  0.50400001928E-02 0. -1.
       -1    1    3    3    0  502 -0.19353922162E+03 -0.61749699351E+02 -0.68227004028E+02  0.21430207600E+03  0.50400001928E-02 0.  1.
</event>
<event>
 5   0  0.3013140E-03  0.6996203E+03  0.7818609E-02  0.9717882E-01
       -1   -1    0    0    0  501  0.00000000000E+00  0.00000000000E+00  0.77494211730E+02  0.77494211894E+02  0.50400001928E-02 0.  1.
        1   -1    0    0  501    0  0.00000000000E+00  0.00000000000E+00 -0.15790489029E+04  0.15790489030E+04  0.50400001928E-02 0. -1.
    10030    2    1    2    0    0  0.00000000000E+00  0.00000000000E+00 -0.15015546912E+04  0.16565431148E+04  0.69962032606E+03 0.  0.
        2    1    3    3  502    0 -0.42198243766E+02 -0.14029919265E+03  0.13501972153E+01  0.14651408900E+03  0.25500000920E-02 0.  1.
       -2    1    3    3    0  502  0.42198243766E+02  0.14029919265E+03 -0.15029048884E+04  0.15100290258E+04  0.25500000920E-02 0. -1.
</event>
<event>
 5   0  0.2913582E-03  0.6989693E+03  0.7818609E-02  0.9718996E-01
       -1   -1    0    0    0  501  0.00000000000E+00  0.00000000000E+00  0.61196578065E+03  0.61196578067E+03  0.50400001928E-02 0.  1.
        1   -1    0    0  501    0  0.00000000000E+00  0.00000000000E+00 -0.19958553480E+03  0.19958553486E+03  0.50400001928E-02 0. -1.
    10030    2    1    2    0    0  0.00000000000E+00  0.00000000000E+00  0.41238024585E+03  0.81155131553E+03  0.69896929158E+03 0.  0.
        1    1    3    3  502    0 -0.21266080752E+02 -0.21261559372E+03 -0.11490755849E+03  0.24261365153E+03  0.50400001928E-02 0. -1.
       -1    1    3    3    0  502  0.21266080752E+02  0.21261559372E+03  0.52728780435E+03  0.56893766400E+03  0.50400001928E-02 0.  1.
</event>
<event>
 5   0  0.1981750E-03  0.7008862E+03  0.7818609E-02  0.9715718E-01
       -4   -1    0    0    0  501  0.00000000000E+00  0.00000000000E+00  0.51059962233E+03  0.51060120175E+03  0.12699999809E+01 0. -1.
        4   -1    0    0  501    0  0.00000000000E+00  0.00000000000E+00 -0.24051824995E+03  0.24052160289E+03  0.12699999809E+01 0.  1.
    10030    2    1    2    0    0  0.00000000000E+00  0.00000000000E+00  0.27008137238E+03  0.75112280464E+03  0.70088623895E+03 0.  0.
        4    1    3    3  502    0 -0.63316005874E+01  0.20406528491E+02  0.50990094204E+03  0.51034997714E+03  0.12699999809E+01 0. -1.
       -4    1    3    3    0  502  0.63316005874E+01 -0.20406528491E+02 -0.23981956966E+03  0.24077282750E+03  0.12699999809E+01 0.  1.
</event>
<event>
 5   0  0.5072407E-03  0.6979496E+03  0.7818609E-02  0.9720745E-01
        2   -1    0    0  501    0  0.00000000000E+00  0.00000000000E+00  0.11345363770E+04  0.11345363770E+04  0.25500000920E-02 0. -1.
       -2   -1    0    0    0  501  0.00000000000E+00  0.00000000000E+00 -0.10734202040E+03  0.10734202043E+03  0.25500000920E-02 0.  1.
    10030    2    1    2    0    0  0.00000000000E+00  0.00000000000E+00  0.10271943566E+04  0.12418783974E+04  0.69794964558E+03 0.  0.
        1    1    3    3  502    0  0.33645573436E+03  0.66879689384E+02  0.39955275552E+03  0.52660968326E+03  0.50400001928E-02 0.  1.
       -1    1    3    3    0  502 -0.33645573436E+03 -0.66879689384E+02  0.62764160108E+03  0.71526871416E+03  0.50400001928E-02 0. -1.
</event>
<event>
 5   0  0.3013140E-03  0.7028490E+03  0.7818609E-02  0.9712372E-01
        1   -1    0    0  501    0  0.00000000000E+00  0.00000000000E+00  0.59728940362E+03  0.59728940364E+03  0.50400001928E-02 0.  1.
       -1   -1    0    0    0  501  0.00000000000E+00  0.00000000000E+00 -0.20676608750E+03  0.20676608756E+03  0.50400001928E-02 0. -1.
    10030    2    1    2    0    0  0.00000000000E+00  0.00000000000E+00  0.39052331612E+03  0.80405549119E+03  0.70284903961E+03 0.  0.
        2    1    3    3  502    0 -0.33542237704E+03  0.10311569950E+03  0.21691232944E+03  0.41254330338E+03  0.25500000920E-02 0. -1.
       -2    1    3    3    0  502  0.33542237704E+03 -0.10311569950E+03  0.17361098668E+03  0.39151218781E+03  0.25500000920E-02 0.  1.
</event>
<event>
 5   0  0.3013140E-03  0.7008748E+03  0.7818609E-02  0.9715737E-01
       -1   -1    0    0    0  501  0.00000000000E+00  0.00000000000E+00  0.14607319789E+03  0.14607319798E+03  0.50400001928E-02 0. -1.
        1   -1    0    0  501    0  0.00000000000E+00  0.00000000000E+00 -0.84071813999E+03  0.84071814000E+03  0.50400001928E-02 0.  1.
    10030    2    1    2    0    0  0.00000000000E+00  0.00000000000E+00 -0.69464494209E+03  0.98679133798E+03  0.70087484556E+03 0.  0.
        2    1    3    3  502    0 -0.73138039946E+02  0.17988804408E+03 -0.75804003103E+03  0.78251745664E+03  0.25500000920E-02 0.  1.
       -2    1    3    3    0  502  0.73138039946E+02 -0.17988804408E+03  0.63395088937E+02  0.20427388134E+03  0.25500000920E-02 0. -1.
</event>
<event>
 5   0  0.5023894E-03  0.7003757E+03  0.7818609E-02  0.9716590E-01
        2   -1    0    0  501    0  0.00000000000E+00  0.00000000000E+00  0.11296828686E+04  0.11296828686E+04  0.25500000920E-02 0. -1.
       -2   -1    0    0    0  501  0.00000000000E+00  0.00000000000E+00 -0.10855394745E+03  0.10855394748E+03  0.25500000920E-02 0.  1.
    10030    2    1    2    0    0  0.00000000000E+00  0.00000000000E+00  0.10211289212E+04  0.12382368161E+04  0.70037571282E+03 0.  0.
        2    1    3    3  502    0  0.38213541603E+02  0.25257368041E+03  0.93405583200E+03  0.96835635801E+03  0.25500000920E-02 0. -1.
       -2    1    3    3    0  502 -0.38213541603E+02 -0.25257368041E+03  0.87073089166E+02  0.26988045809E+03  0.25500000920E-02 0.  1.
</event>
<event>
 5   0  0.1981750E-03  0.7006317E+03  0.7818609E-02  0.9716152E-01
        3   -1    0    0  501    0  0.00000000000E+00  0.00000000000E+00  0.20334736599E+03  0.20334739107E+03  0.10100000352E+00 0.  1.
       -3   -1    0    0    0  501  0.00000000000E+00  0.00000000000E+00 -0.60350516106E+03  0.60350516951E+03  0.10100000352E+00 0. -1.
    10030    2    1    2    0    0  0.00000000000E+00  0.00000000000E+00 -0.40015779507E+03  0.80685256058E+03  0.70063171036E+03 0.  0.
        2    1    3    3  502    0  0.42811496720E+02 -0.33279586298E+03 -0.84141797521E+02  0.34592738077E+03  0.25500000920E-02 0.  1.
       -2    1    3    3    0  502 -0.42811496720E+02  0.33279586298E+03 -0.31601599755E+03  0.46092517981E+03  0.25500000920E-02 0. -1.
</event>
<event>
 5   0  0.2937617E-03  0.6989778E+03  0.7818609E-02  0.9718982E-01
       -1   -1    0    0    0  501  0.00000000000E+00  0.00000000000E+00  0.51796487914E+03  0.51796487916E+03  0.50400001928E-02 0. -1.
        1   -1    0    0  501    0  0.00000000000E+00  0.00000000000E+00 -0.23581230273E+03  0.23581230278E+03  0.50400001928E-02 0.  1.
    10030    2    1    2    0    0  0.00000000000E+00  0.00000000000E+00  0.28215257641E+03  0.75377718194E+03  0.69897779911E+03 0.  0.
        3    1    3    3  502    0  0.24226496454E+03 -0.95083365872E+01 -0.13037153519E+03  0.27528070927E+03  0.10100000352E+00 0.  1.
       -3    1    3    3    0  502 -0.24226496454E+03  0.95083365872E+01  0.41252411160E+03  0.47849647267E+03  0.10100000352E+00 0. -1.
</event>
<event>
 5   0  0.5076796E-03  0.7000883E+03  0.7818609E-02  0.9717081E-01
       -2   -1    0    0    0  501  0.00000000000E+00  0.00000000000E+00  0.53721560757E+03  0.53721560758E+03  0.25500000920E-02 0. -1.
        2   -1    0    0  501    0  0.00000000000E+00  0.00000000000E+00 -0.22808517406E+03  0.22808517408E+03  0.25500000920E-02 0.  1.
    10030    2    1    2    0    0  0.00000000000E+00  0.00000000000E+00  0.30913043351E+03  0.76530078165E+03  0.70008832406E+03 0.  0.
        5    1    3    3  502    0 -0.18039287111E+03 -0.17758824376E+03 -0.10967321078E+03  0.27591570348E+03  0.46999998093E+01 0.  1.
       -5    1    3    3    0  502  0.18039287111E+03  0.17758824376E+03  0.41880364429E+03  0.48938507817E+03  0.46999998093E+01 0. -1.
</event>
<event>
 5   0  0.2937617E-03  0.7008156E+03  0.7818609E-02  0.9715839E-01
        1   -1    0    0  501    0  0.00000000000E+00  0.00000000000E+00  0.11907977012E+04  0.11907977012E+04  0.50400001928E-02 0.  1.
       -1   -1    0    0    0  501  0.00000000000E+00  0.00000000000E+00 -0.10311206480E+03  0.10311206492E+03  0.50400001928E-02 0. -1.
    10030    2    1    2    0    0  0.00000000000E+00  0.00000000000E+00  0.10876856364E+04  0.12939097661E+04  0.70081555294E+03 0.  0.
        3    1    3    3  502    0  0.34627733019E+03 -0.10539714849E+02  0.64095361757E+03  0.72858810385E+03  0.10100000352E+00 0.  1.
       -3    1    3    3    0  502 -0.34627733019E+03  0.10539714849E+02  0.44673201881E+03  0.56532166226E+03  0.10100000352E+00 0. -1.
</event>
<event>
 5   0  0.5023894E-03  0.6995689E+03  0.7818609E-02  0.9717970E-01
       -2   -1    0    0    0  501  0.00000000000E+00  0.00000000000E+00  0.20218385460E+03  0.20218385462E+03  0.25500000920E-02 0.  1.
        2   -1    0    0  501    0  0.00000000000E+00  0.00000000000E+00 -0.60513805236E+03  0.60513805236E+03  0.25500000920E-02 0. -1.
    10030    2    1    2    0    0  0.00000000000E+00  0.00000000000E+00 -0.40295419775E+03  0.80732190698E+03  0.69956885008E+03 0.  0.
        2    1    3    3  502    0  0.66946788332E+02  0.15886191542E+03  0.14975361717E+03  0.22835307421E+03  0.25500000920E-02 0.  1.
       -2    1    3    3    0  502 -0.66946788332E+02 -0.15886191542E+03 -0.55270781492E+03  0.57896883277E+03  0.25500000920E-02 0. -1.
</event>
<event>
 5   0  0.5023894E-03  0.6982057E+03  0.7818609E-02  0.9720306E-01
       -2   -1    0    0    0  501  0.00000000000E+00  0.00000000000E+00  0.12505095105E+03  0.12505095108E+03  0.25500000920E-02 0. -1.
        2   -1    0    0  501    0  0.00000000000E+00  0.00000000000E+00 -0.97458520851E+03  0.97458520852E+03  0.25500000920E-02 0.  1.
    10030    2    1    2    0    0  0.00000000000E+00  0.00000000000E+00 -0.84953425746E+03  0.10996361596E+04  0.69820572103E+03 0.  0.
        2    1    3    3  502    0  0.13676123750E+03 -0.15715800638E+03  0.16416012229E+02  0.20897789480E+03  0.25500000920E-02 0. -1.
       -2    1    3    3    0  502 -0.13676123750E+03  0.15715800638E+03 -0.86595026969E+03  0.89065826479E+03  0.25500000920E-02 0.  1.
</event>
<event>
 5   0  0.2913582E-03  0.7062708E+03  0.7818609E-02  0.9706568E-01
       -1   -1    0    0    0  501  0.00000000000E+00  0.00000000000E+00  0.87687642047E+02  0.87687642191E+02  0.50400001928E-02 0.  1.
        1   -1    0    0  501    0  0.00000000000E+00  0.00000000000E+00 -0.14221459162E+04  0.14221459162E+04  0.50400001928E-02 0. -1.
    10030    2    1    2    0    0  0.00000000000E+00  0.00000000000E+00 -0.13344582742E+04  0.15098335584E+04  0.70627083235E+03 0.  0.
        1    1    3    3  502    0  0.17448694295E+03 -0.68219765279E+02 -0.13071465188E+04  0.13205043171E+04  0.50400001928E-02 0. -1.
       -1    1    3    3    0  502 -0.17448694295E+03  0.68219765279E+02 -0.27311755352E+02  0.18932924138E+03  0.50400001928E-02 0.  1.
</event>
<event>
 5   0  0.5113683E-03  0.6991138E+03  0.7818609E-02  0.9718749E-01
        2   -1    0    0  501    0  0.00000000000E+00  0.00000000000E+00  0.20049960578E+03  0.20049960580E+03  0.25500000920E-02 0.  1.
       -2   -1    0    0    0  501  0.00000000000E+00  0.00000000000E+00 -0.60942774064E+03  0.60942774064E+03  0.25500000920E-02 0. -1.
    10030    2    1    2    0    0  0.00000000000E+00  0.00000000000E+00 -0.40892813486E+03  0.80992734644E+03  0.69911378690E+03 0.  0.
        3    1    3    3  502    0 -0.78371503366E+02 -0.79024057310E+02 -0.58835294647E+03  0.59878718589E+03  0.10100000352E+00 0. -1.
       -3    1    3    3    0  502  0.78371503366E+02  0.79024057310E+02  0.17942481161E+03  0.21114016055E+03  0.10100000352E+00 0.  1.
</event>
<event>
 5   0  0.5023894E-03  0.6994661E+03  0.7818609E-02  0.9718146E-01
       -2   -1    0    0    0  501  0.00000000000E+00  0.00000000000E+00  0.11022901494E+03  0.11022901496E+03  0.25500000920E-02 0.  1.
        2   -1    0    0  501    0  0.00000000000E+00  0.00000000000E+00 -0.11096279835E+04  0.11096279835E+04  0.25500000920E-02 0. -1.
    10030    2    1    2    0    0  0.00000000000E+00  0.00000000000E+00 -0.99939896858E+03  0.12198569985E+04  0.69946608091E+03 0.  0.
        2    1    3    3  502    0  0.70050842840E+02  0.60620031521E+02  0.88442587462E+02  0.12807810152E+03  0.25500000920E-02 0.  1.
       -2    1    3    3    0  502 -0.70050842840E+02 -0.60620031521E+02 -0.10878415560E+04  0.10917788970E+04  0.25500000920E-02 0. -1.
</event>
<event>
 5   0  0.2937617E-03  0.6998375E+03  0.7818609E-02  0.9717510E-01
        1   -1    0    0  501    0  0.00000000000E+00  0.00000000000E+00  0.22250512461E+04  0.22250512462E+04  0.50400001928E-02 0. -1.
       -1   -1    0    0    0  501  0.00000000000E+00  0.00000000000E+00 -0.55029349076E+02  0.55029349307E+02  0.50400001928E-02 0.  1.
    10030    2    1    2    0    0  0.00000000000E+00  0.00000000000E+00  0.21700218971E+04  0.22800805955E+04  0.69983747258E+03 0.  0.
        3    1    3    3  502    0  0.38676654500E+02  0.21619665340E+03  0.19750105091E+03  0.29537019460E+03  0.10100000352E+00 0.  1.
       -3    1    3    3    0  502 -0.38676654500E+02 -0.21619665340E+03  0.19725208462E+04  0.19847104009E+04  0.10100000352E+00 0. -1.
</event>
<event>
 5   0  0.2937617E-03  0.7002551E+03  0.7818609E-02  0.9716796E-01
        1   -1    0    0  501    0  0.00000000000E+00  0.00000000000E+00  0.11190659836E+04  0.11190659837E+04  0.50400001928E-02 0. -1.
       -1   -1    0    0    0  501  0.00000000000E+00  0.00000000000E+00 -0.10954607640E+03  0.10954607651E+03  0.50400001928E-02 0.  1.
    10030    2    1    2    0    0  0.00000000000E+00  0.00000000000E+00  0.10095199073E+04  0.12286120602E+04  0.70025506158E+03 0.  0.
        3    1    3    3  502    0 -0.14709627814E+03 -0.85032502432E+02  0.10418881916E+04  0.10556509156E+04  0.10100000352E+00 0. -1.
       -3    1    3    3    0  502  0.14709627814E+03  0.85032502432E+02 -0.32368284354E+02  0.17296114461E+03  0.10100000352E+00 0.  1.
</event>
<event>
 5   0  0.2938783E-03  0.6997435E+03  0.7818609E-02  0.9717671E-01
       -1   -1    0    0    0  501  0.00000000000E+00  0.00000000000E+00  0.22874368792E+03  0.22874368798E+03  0.50400001928E-02 0. -1.
        1   -1    0    0  501    0  0.00000000000E+00  0.00000000000E+00 -0.53514156291E+03  0.53514156293E+03  0.50400001928E-02 0.  1.
    10030    2    1    2    0    0  0.00000000000E+00  0.00000000000E+00 -0.30639787498E+03  0.76388525091E+03  0.69974353785E+03 0.  0.
        4    1    3    3  502    0  0.63386416733E+02 -0.32807739584E+03 -0.26641685338E+03  0.42735485039E+03  0.12699999809E+01 0. -1.
       -4    1    3    3    0  502 -0.63386416733E+02  0.32807739584E+03 -0.39981021607E+02  0.33653040052E+03  0.12699999809E+01 0.  1.
</event>
<event>
 5   0  0.5113683E-03  0.6989166E+03  0.7818609E-02  0.9719087E-01
       -2   -1    0    0    0  501  0.00000000000E+00  0.00000000000E+00  0.14318079981E+03  0.14318079983E+03  0.25500000920E-02 0.  1.
        2   -1    0    0  501    0  0.00000000000E+00  0.00000000000E+00 -0.85291537899E+03  0.85291537899E+03  0.25500000920E-02 0. -1.
    10030    2    1    2    0    0  0.00000000000E+00  0.00000000000E+00 -0.70973457918E+03  0.99609617882E+03  0.69891660774E+03 0.  0.
        3    1    3    3  502    0 -0.18498784247E+03 -0.12197001020E+02  0.67318875959E+02  0.19723364306E+03  0.10100000352E+00 0.  1.
       -3    1    3    3    0  502  0.18498784247E+03  0.12197001020E+02 -0.77705345514E+03  0.79886253576E+03  0.10100000352E+00 0. -1.
</event>
<event>
 5   0  0.5023894E-03  0.6998163E+03  0.7818609E-02  0.9717546E-01
       -2   -1    0    0    0  501  0.00000000000E+00  0.00000000000E+00  0.65918831699E+02  0.65918831748E+02  0.25500000920E-02 0.  1.
        2   -1    0    0  501    0  0.00000000000E+00  0.00000000000E+00 -0.18573708391E+04  0.18573708391E+04  0.25500000920E-02 0. -1.
    10030    2    1    2    0    0  0.00000000000E+00  0.00000000000E+00 -0.17914520074E+04  0.19232896709E+04  0.69981630674E+03 0.  0.
        2    1    3    3  502    0  0.16002904859E+03  0.20317218141E+03 -0.24799775502E+03  0.35831706378E+03  0.25500000920E-02 0.  1.
       -2    1    3    3    0  502 -0.16002904859E+03 -0.20317218141E+03 -0.15434542524E+04  0.15649726071E+04  0.25500000920E-02 0. -1.
</event>
<event>
 5   0  0.4878235E-03  0.6981457E+03  0.7818609E-02  0.9720409E-01
        2   -1    0    0  501    0  0.00000000000E+00  0.00000000000E+00  0.57118575981E+03  0.57118575982E+03  0.25500000920E-02 0.  1.
       -2   -1    0    0    0  501  0.00000000000E+00  0.00000000000E+00 -0.21333136870E+03  0.21333136871E+03  0.25500000920E-02 0. -1.
    10030    2    1    2    0    0  0.00000000000E+00  0.00000000000E+00  0.35785439112E+03  0.78451712853E+03  0.69814565795E+03 0.  0.
        4    1    3    3  502    0  0.22395071453E+03  0.26686245175E+03  0.15428894535E+03  0.38101992370E+03  0.12699999809E+01 0.  1.
       -4    1    3    3    0  502 -0.22395071453E+03 -0.26686245175E+03  0.20356544577E+03  0.40349720483E+03  0.12699999809E+01 0. -1.
</event>
<event>
 5   0  0.3013140E-03  0.6971797E+03  0.7818609E-02  0.9722068E-01
        1   -1    0    0  501    0  0.00000000000E+00  0.00000000000E+00  0.19243273688E+03  0.19243273695E+03  0.50400001928E-02 0.  1.
       -1   -1    0    0    0  501  0.00000000000E+00  0.00000000000E+00 -0.63146673388E+03  0.63146673390E+03  0.50400001928E-02 0. -1.
    10030    2    1    2    0    0  0.00000000000E+00  0.00000000000E+00 -0.43903399700E+03  0.82389947085E+03  0.69717966662E+03 0.  0.
        2    1    3    3  502    0  0.47673178704E+02 -0.27691074603E+03  0.24288489625E+02  0.28203231015E+03  0.25500000920E-02 0.  1.
       -2    1    3    3    0  502 -0.47673178704E+02  0.27691074603E+03 -0.46332248662E+03  0.54186716070E+03  0.25500000920E-02 0. -1.
</event>
<event>
 5   0  0.2934483E-03  0.7005960E+03  0.7818609E-02  0.9716214E-01
       -1   -1    0    0    0  501  0.00000000000E+00  0.00000000000E+00  0.11046560866E+03  0.11046560878E+03  0.50400001928E-02 0.  1.
        1   -1    0    0  501    0  0.00000000000E+00  0.00000000000E+00 -0.11108315925E+04  0.11108315925E+04  0.50400001928E-02 0. -1.
    10030    2    1    2    0    0  0.00000000000E+00  0.00000000000E+00 -0.10003659839E+04  0.12212972013E+04  0.70059599789E+03 0.  0.
        5    1    3    3  502    0 -0.15204688337E+03 -0.22668254632E+03 -0.11753249650E+03  0.29721912671E+03  0.46999998093E+01 0.  1.
       -5    1    3    3    0  502  0.15204688337E+03  0.22668254632E+03 -0.88283348736E+03  0.92407807459E+03  0.46999998093E+01 0. -1.
</event>
<event>
 5   0  0.5113683E-03  0.7011601E+03  0.7818609E-02  0.9715250E-01
       -2   -1    0    0    0  501  0.00000000000E+00  0.00000000000E+00  0.89609045161E+02  0.89609045197E+02  0.25500000920E-02 0.  1.
        2   -1    0    0  501    0  0.00000000000E+00  0.00000000000E+00 -0.13715842479E+04  0.13715842479E+04  0.25500000920E-02 0. -1.
    10030    2    1    2    0    0  0.00000000000E+00  0.00000000000E+00 -0.12819752027E+04  0.14611932931E+04  0.70116005259E+03 0.  0.
        3    1    3    3  502    0 -0.25913737861E+03  0.99023301109E+02 -0.19427684687E+03  0.33867580160E+03  0.10100000352E+00 0.  1.
       -3    1    3    3    0  502  0.25913737861E+03 -0.99023301109E+02 -0.10876983558E+04  0.11225174915E+04  0.10100000352E+00 0. -1.
</event>
<event>
 5   0  0.5023894E-03  0.6996698E+03  0.7818609E-02  0.9717797E-01
       -2   -1    0    0    0  501  0.00000000000E+00  0.00000000000E+00  0.50277816566E+03  0.50277816566E+03  0.25500000920E-02 0. -1.
        2   -1    0    0  501    0  0.00000000000E+00  0.00000000000E+00 -0.24341641482E+03  0.24341641483E+03  0.25500000920E-02 0.  1.
    10030    2    1    2    0    0  0.00000000000E+00  0.00000000000E+00  0.25936175084E+03  0.74619458049E+03  0.69966980367E+03 0.  0.
        2    1    3    3  502    0 -0.31923582304E+03  0.74359049920E+02  0.26005389728E+03  0.41841224709E+03  0.25500000920E-02 0. -1.
       -2    1    3    3    0  502  0.31923582304E+03 -0.74359049920E+02 -0.69214643942E+00  0.32778233340E+03  0.25500000920E-02 0.  1.
</event>
<event>
 5   0  0.2913582E-03  0.7035627E+03  0.7818609E-02  0.9711159E-01
       -1   -1    0    0    0  501  0.00000000000E+00  0.00000000000E+00  0.39784306513E+03  0.39784306516E+03  0.50400001928E-02 0. -1.
        1   -1    0    0  501    0  0.00000000000E+00  0.00000000000E+00 -0.31105260067E+03  0.31105260071E+03  0.50400001928E-02 0.  1.
    10030    2    1    2    0    0  0.00000000000E+00  0.00000000000E+00  0.86790464459E+02  0.70889566587E+03  0.70356270536E+03 0.  0.
        1    1    3    3  502    0 -0.90309397129E+02  0.42383001618E+02  0.38329185732E+03  0.39606155323E+03  0.50400001928E-02 0. -1.
       -1    1    3    3    0  502  0.90309397129E+02 -0.42383001618E+02 -0.29650139286E+03  0.31283411264E+03  0.50400001928E-02 0.  1.
</event>
<event>
 5   0  0.2937617E-03  0.7043669E+03  0.7818609E-02  0.9709793E-01
        1   -1    0    0  501    0  0.00000000000E+00  0.00000000000E+00  0.29245501871E+03  0.29245501875E+03  0.50400001928E-02 0. -1.
       -1   -1    0    0    0  501  0.00000000000E+00  0.00000000000E+00 -0.42411026669E+03  0.42411026672E+03  0.50400001928E-02 0.  1.
    10030    2    1    2    0    0  0.00000000000E+00  0.00000000000E+00 -0.13165524798E+03  0.71656528547E+03  0.70436688169E+03 0.  0.
        3    1    3    3  502    0 -0.21329563229E+03 -0.64878897163E+02  0.21152711792E+03  0.30732398193E+03  0.10100000352E+00 0. -1.
       -3    1    3    3    0  502  0.21329563229E+03  0.64878897163E+02 -0.34318236591E+03  0.40924130354E+03  0.10100000352E+00 0.  1.
</event>
<event>
 5   0  0.2938783E-03  0.7000687E+03  0.7818609E-02  0.9717115E-01
       -1   -1    0    0    0  501  0.00000000000E+00  0.00000000000E+00  0.58483535669E+03  0.58483535672E+03  0.50400001928E-02 0. -1.
        1   -1    0    0  501    0  0.00000000000E+00  0.00000000000E+00 -0.20950180222E+03  0.20950180228E+03  0.50400001928E-02 0.  1.
    10030    2    1    2    0    0  0.00000000000E+00  0.00000000000E+00  0.37533355447E+03  0.79433715900E+03  0.70006874309E+03 0.  0.
        4    1    3    3  502    0 -0.32800177523E+03  0.11279734710E+03  0.24105643643E+03  0.42239581497E+03  0.12699999809E+01 0. -1.
       -4    1    3    3    0  502  0.32800177523E+03 -0.11279734710E+03  0.13427711804E+03  0.37194134402E+03  0.12699999809E+01 0.  1.
</event>
<event>
 5   0  0.1981750E-03  0.7008247E+03  0.7818609E-02  0.9715823E-01
        3   -1    0    0  501    0  0.00000000000E+00  0.00000000000E+00  0.89269324825E+03  0.89269325396E+03  0.10100000352E+00 0. -1.
       -3   -1    0    0    0  501  0.00000000000E+00  0.00000000000E+00 -0.13754869514E+03  0.13754873222E+03  0.10100000352E+00 0.  1.
    10030    2    1    2    0    0  0.00000000000E+00  0.00000000000E+00  0.75514455311E+03  0.10302419862E+04  0.70082469564E+03 0.  0.
        2    1    3    3  502    0  0.17608936995E+03  0.10646809922E+03 -0.39375614411E+02  0.20950742559E+03  0.25500000920E-02 0.  1.
       -2    1    3    3    0  502 -0.17608936995E+03 -0.10646809922E+03  0.79452016752E+03  0.82073456060E+03  0.25500000920E-02 0. -1.
</event>
<event>
 5   0  0.2913582E-03  0.7003084E+03  0.7818609E-02  0.9716705E-01
        1   -1    0    0  501    0  0.00000000000E+00  0.00000000000E+00  0.82507826580E+03  0.82507826581E+03  0.50400001928E-02 0.  1.
       -1   -1    0    0    0  501  0.00000000000E+00  0.00000000000E+00 -0.14860162150E+03  0.14860162158E+03  0.50400001928E-02 0. -1.
    10030    2    1    2    0    0  0.00000000000E+00  0.00000000000E+00  0.67647664430E+03  0.97367988739E+03  0.70030841265E+03 0.  0.
        1    1    3    3  502    0 -0.12336326611E+03 -0.72110455663E+02 -0.10621904530E+03  0.17804746235E+03  0.50400001928E-02 0. -1.
       -1    1    3    3    0  502  0.12336326611E+03  0.72110455663E+02  0.78269568960E+03  0.79563242504E+03  0.50400001928E-02 0.  1.
</event>
<event>
 5   0  0.5113683E-03  0.7042531E+03  0.7818609E-02  0.9709986E-01
        2   -1    0    0  501    0  0.00000000000E+00  0.00000000000E+00  0.54683646185E+03  0.54683646185E+03  0.25500000920E-02 0. -1.
       -2   -1    0    0    0  501  0.00000000000E+00  0.00000000000E+00 -0.22674622769E+03  0.22674622770E+03  0.25500000920E-02 0.  1.
    10030    2    1    2    0    0  0.00000000000E+00  0.00000000000E+00  0.32009023416E+03  0.77358268955E+03  0.70425309341E+03 0.  0.
        3    1    3    3  502    0 -0.31807828092E+03 -0.14192378813E+03  0.21687769021E+03  0.41030732036E+03  0.10100000352E+00 0. -1.
       -3    1    3    3    0  502  0.31807828092E+03  0.14192378813E+03  0.10321254395E+03  0.36327536919E+03  0.10100000352E+00 0.  1.
</event>
<event>
 5   0  0.3013140E-03  0.6999754E+03  0.7818609E-02  0.9717274E-01
       -1   -1    0    0    0  501  0.00000000000E+00  0.00000000000E+00  0.54286360552E+03  0.54286360554E+03  0.50400001928E-02 0.  1.
        1   -1    0    0  501    0  0.00000000000E+00  0.00000000000E+00 -0.22563932816E+03  0.22563932822E+03  0.50400001928E-02 0. -1.
    10030    2    1    2    0    0  0.00000000000E+00  0.00000000000E+00  0.31722427736E+03  0.76850293376E+03  0.69997536889E+03 0.  0.
        2    1    3    3  502    0  0.22349974200E+03  0.77036099225E+02 -0.12473260322E+03  0.26729182100E+03  0.25500000920E-02 0. -1.
       -2    1    3    3    0  502 -0.22349974200E+03 -0.77036099225E+02  0.44195688058E+03  0.50121111276E+03  0.25500000920E-02 0.  1.
</event>
<event>
 5   0  0.5072407E-03  0.7010694E+03  0.7818609E-02  0.9715405E-01
       -2   -1    0    0    0  501  0.00000000000E+00  0.00000000000E+00  0.17622589071E+03  0.17622589073E+03  0.25500000920E-02 0. -1.
        2   -1    0    0  501    0  0.00000000000E+00  0.00000000000E+00 -0.69725605979E+03  0.69725605979E+03  0.25500000920E-02 0.  1.
    10030    2    1    2    0    0  0.00000000000E+00  0.00000000000E+00 -0.52103016908E+03  0.87348195052E+03  0.70106938373E+03 0.  0.
        1    1    3    3  502    0  0.36631458120E+02  0.12448807120E+03 -0.66622762108E+03  0.67874766056E+03  0.50400001928E-02 0.  1.
       -1    1    3    3    0  502 -0.36631458120E+02 -0.12448807120E+03  0.14519745200E+03  0.19473428997E+03  0.50400001928E-02 0. -1.
</event>
<event>
 5   0  0.3013140E-03  0.7005271E+03  0.7818609E-02  0.9716331E-01
        1   -1    0    0  501    0  0.00000000000E+00  0.00000000000E+00  0.91932464422E+03  0.91932464423E+03  0.50400001928E-02 0. -1.
       -1   -1    0    0    0  501  0.00000000000E+00  0.00000000000E+00 -0.13345075072E+03  0.13345075082E+03  0.50400001928E-02 0.  1.
    10030    2    1    2    0    0  0.00000000000E+00  0.00000000000E+00  0.78587389349E+03  0.10527753950E+04  0.70052712721E+03 0.  0.
        2    1    3    3  502    0  0.11317130818E+03 -0.15703905650E+02 -0.10465791196E+03  0.15494397759E+03  0.25500000920E-02 0.  1.
       -2    1    3    3    0  502 -0.11317130818E+03  0.15703905650E+02  0.89053180545E+03  0.89783141746E+03  0.25500000920E-02 0. -1.
</event>
<event>
 5   0  0.2937617E-03  0.7001537E+03  0.7818609E-02  0.9716969E-01
        1   -1    0    0  501    0  0.00000000000E+00  0.00000000000E+00  0.35270748240E+03  0.35270748243E+03  0.50400001928E-02 0.  1.
       -1   -1    0    0    0  501  0.00000000000E+00  0.00000000000E+00 -0.34746585153E+03  0.34746585157E+03  0.50400001928E-02 0. -1.
    10030    2    1    2    0    0  0.00000000000E+00  0.00000000000E+00  0.52416308662E+01  0.70017333400E+03  0.70015371381E+03 0.  0.
        3    1    3    3  502    0 -0.16831436779E+03 -0.30347661325E+03 -0.43489199737E+02  0.34974147865E+03  0.10100000352E+00 0. -1.
       -3    1    3    3    0  502  0.16831436779E+03  0.30347661325E+03  0.48730830603E+02  0.35043185535E+03  0.10100000352E+00 0.  1.
</event>
<event>
 5   0  0.4878235E-03  0.7000981E+03  0.7818609E-02  0.9717064E-01
       -2   -1    0    0    0  501  0.00000000000E+00  0.00000000000E+00  0.82110830955E+02  0.82110830995E+02  0.25500000920E-02 0. -1.
        2   -1    0    0  501    0  0.00000000000E+00  0.00000000000E+00 -0.14923041855E+04  0.14923041855E+04  0.25500000920E-02 0.  1.
    10030    2    1    2    0    0  0.00000000000E+00  0.00000000000E+00 -0.14101933545E+04  0.15744150165E+04  0.70009809809E+03 0.  0.
        4    1    3    3  502    0  0.26985013455E+03 -0.17125506895E+03 -0.10261810726E+04  0.10748007259E+04  0.12699999809E+01 0.  1.
       -4    1    3    3    0  502 -0.26985013455E+03  0.17125506895E+03 -0.38401228190E+03  0.49961429053E+03  0.12699999809E+01 0. -1.
</event>
<event>
 5   0  0.2938783E-03  0.7016735E+03  0.7818609E-02  0.9714375E-01
       -1   -1    0    0    0  501  0.00000000000E+00  0.00000000000E+00  0.24678609443E+03  0.24678609448E+03  0.50400001928E-02 0.  1.
        1   -1    0    0  501    0  0.00000000000E+00  0.00000000000E+00 -0.49875748764E+03  0.49875748767E+03  0.50400001928E-02 0. -1.
    10030    2    1    2    0    0  0.00000000000E+00  0.00000000000E+00 -0.25197139321E+03  0.74554358215E+03  0.70167346386E+03 0.  0.
        4    1    3    3  502    0 -0.18613327413E+03 -0.15222200698E+03  0.14546253671E+03  0.28103042119E+03  0.12699999809E+01 0.  1.
       -4    1    3    3    0  502  0.18613327413E+03  0.15222200698E+03 -0.39743392992E+03  0.46451316095E+03  0.12699999809E+01 0. -1.
</event>
<event>
 5   0  0.5023894E-03  0.7017424E+03  0.7818609E-02  0.9714257E-01
       -2   -1    0    0    0  501  0.00000000000E+00  0.00000000000E+00  0.29009744211E+03  0.29009744212E+03  0.25500000920E-02 0.  1.
        2   -1    0    0  501    0  0.00000000000E+00  0.00000000000E+00 -0.42437665716E+03  0.42437665717E+03  0.25500000920E-02 0. -1.
    10030    2    1    2    0    0  0.00000000000E+00  0.00000000000E+00 -0.13427921505E+03  0.71447409929E+03  0.70174235369E+03 0.  0.
        2    1    3    3  502    0  0.30806165117E+03  0.12984303971E+03 -0.17560595110E+03  0.37762235891E+03  0.25500000920E-02 0. -1.
       -2    1    3    3    0  502 -0.30806165117E+03 -0.12984303971E+03  0.41326736051E+02  0.33685174038E+03  0.25500000920E-02 0.  1.
</event>
<event>
 5   0  0.2937617E-03  0.6995577E+03  0.7818609E-02  0.9717989E-01
       -1   -1    0    0    0  501  0.00000000000E+00  0.00000000000E+00  0.22975194360E+03  0.22975194365E+03  0.50400001928E-02 0. -1.
        1   -1    0    0  501    0  0.00000000000E+00  0.00000000000E+00 -0.53251016445E+03  0.53251016447E+03  0.50400001928E-02 0.  1.
    10030    2    1    2    0    0  0.00000000000E+00  0.00000000000E+00 -0.30275822085E+03  0.76226210812E+03  0.69955770397E+03 0.  0.
        3    1    3    3  502    0  0.10609022637E+02  0.24075483586E+02 -0.53143047606E+03  0.53208132965E+03  0.10100000352E+00 0.  1.
       -3    1    3    3    0  502 -0.10609022637E+02 -0.24075483586E+02  0.22867225522E+03  0.23018077847E+03  0.10100000352E+00 0. -1.
</event>
<event>
 5   0  0.5113683E-03  0.7003339E+03  0.7818609E-02  0.9716661E-01
        2   -1    0    0  501    0  0.00000000000E+00  0.00000000000E+00  0.44807548890E+03  0.44807548891E+03  0.25500000920E-02 0. -1.
       -2   -1    0    0    0  501  0.00000000000E+00  0.00000000000E+00 -0.27365233310E+03  0.27365233311E+03  0.25500000920E-02 0.  1.
    10030    2    1    2    0    0  0.00000000000E+00  0.00000000000E+00  0.17442315580E+03  0.72172782202E+03  0.70033392877E+03 0.  0.
        3    1    3    3  502    0  0.15800071043E+03 -0.10827275352E+03  0.38930403066E+03  0.43387193058E+03  0.10100000352E+00 0. -1.
       -3    1    3    3    0  502 -0.15800071043E+03  0.10827275352E+03 -0.21488087486E+03  0.28785589144E+03  0.10100000352E+00 0.  1.
</event>
<event>
 5   0  0.3013140E-03  0.6935743E+03  0.7818609E-02  0.9728284E-01
        1   -1    0    0  501    0  0.00000000000E+00  0.00000000000E+00  0.51212562404E+03  0.51212562407E+03  0.50400001928E-02 0. -1.
       -1   -1    0    0    0  501  0.00000000000E+00  0.00000000000E+00 -0.23482780152E+03  0.23482780157E+03  0.50400001928E-02 0.  1.
    10030    2    1    2    0    0  0.00000000000E+00  0.00000000000E+00  0.27729782253E+03  0.74695342564E+03  0.69357432024E+03 0.  0.
        2    1    3    3  502    0 -0.33406109249E+03  0.85047382680E+02  0.97902377174E+02  0.35835003318E+03  0.25500000920E-02 0. -1.
       -2    1    3    3    0  502  0.33406109249E+03 -0.85047382680E+02  0.17939544535E+03  0.38860339246E+03  0.25500000920E-02 0.  1.
</event>
<event>
 5   0  0.5023894E-03  0.6999576E+03  0.7818609E-02  0.9717305E-01
        2   -1    0    0  501    0  0.00000000000E+00  0.00000000000E+00  0.16517682613E+03  0.16517682615E+03  0.25500000920E-02 0.  1.
       -2   -1    0    0    0  501  0.00000000000E+00  0.00000000000E+00 -0.74153958254E+03  0.74153958254E+03  0.25500000920E-02 0. -1.
    10030    2    1    2    0    0  0.00000000000E+00  0.00000000000E+00 -0.57636275641E+03  0.90671640869E+03  0.69995758358E+03 0.  0.
        2    1    3    3  502    0 -0.40518123396E+02  0.22742856548E+03  0.52384100588E+02  0.23687457593E+03  0.25500000920E-02 0.  1.
       -2    1    3    3    0  502  0.40518123396E+02 -0.22742856548E+03 -0.62874685700E+03  0.66984183276E+03  0.25500000920E-02 0. -1.
</event>
<event>
 5   0  0.5072407E-03  0.7003689E+03  0.7818609E-02  0.9716602E-01
        2   -1    0    0  501    0  0.00000000000E+00  0.00000000000E+00  0.45795259924E+03  0.45795259925E+03  0.25500000920E-02 0. -1.
       -2   -1    0    0    0  501  0.00000000000E+00  0.00000000000E+00 -0.26777694773E+03  0.26777694775E+03  0.25500000920E-02 0.  1.
    10030    2    1    2    0    0  0.00000000000E+00  0.00000000000E+00  0.19017565150E+03  0.72572954699E+03  0.70036890062E+03 0.  0.
        1    1    3    3  502    0  0.19769551440E+03  0.21771797770E+03  0.29208915317E+03  0.41448848917E+03  0.50400001928E-02 0. -1.
       -1    1    3    3    0  502 -0.19769551440E+03 -0.21771797770E+03 -0.10191350166E+03  0.31124105782E+03  0.50400001928E-02 0.  1.
</event>
<event>
 5   0  0.2913582E-03  0.6993464E+03  0.7818609E-02  0.9718351E-01
       -1   -1    0    0    0  501  0.00000000000E+00  0.00000000000E+00  0.16812794457E+03  0.16812794465E+03  0.50400001928E-02 0. -1.
        1   -1    0    0  501    0  0.00000000000E+00  0.00000000000E+00 -0.72725168777E+03  0.72725168779E+03  0.50400001928E-02 0.  1.
    10030    2    1    2    0    0  0.00000000000E+00  0.00000000000E+00 -0.55912374320E+03  0.89537963244E+03  0.69934635623E+03 0.  0.
        1    1    3    3  502    0  0.13661933122E+03  0.28401640903E+03 -0.85641842044E+02  0.32659560223E+03  0.50400001928E-02 0. -1.
       -1    1    3    3    0  502 -0.13661933122E+03 -0.28401640903E+03 -0.47348190116E+03  0.56878403020E+03  0.50400001928E-02 0.  1.
</event>
<event>
 5   0  0.3013140E-03  0.7008626E+03  0.7818609E-02  0.9715758E-01
        1   -1    0    0  501    0  0.00000000000E+00  0.00000000000E+00  0.19540159039E+04  0.19540159039E+04  0.50400001928E-02 0.  1.
       -1   -1    0    0    0  501  0.00000000000E+00  0.00000000000E+00 -0.62846011676E+02  0.62846011878E+02  0.50400001928E-02 0. -1.
    10030    2    1    2    0    0  0.00000000000E+00  0.00000000000E+00  0.18911698923E+04  0.20168619158E+04  0.70086262997E+03 0.  0.
        2    1    3    3  502    0 -0.26511147517E+03 -0.22916803224E+03  0.94512765302E+03  0.10080021636E+04  0.25500000920E-02 0.  1.
       -2    1    3    3    0  502  0.26511147517E+03  0.22916803224E+03  0.94604223923E+03  0.10088597522E+04  0.25500000920E-02 0. -1.
</event>
<event>
 5   0  0.5023894E-03  0.7017666E+03  0.7818609E-02  0.9714216E-01
       -2   -1    0    0    0  501  0.00000000000E+00  0.00000000000E+00  0.20965097953E+03  0.20965097955E+03  0.25500000920E-02 0. -1.
        2   -1    0    0  501    0  0.00000000000E+00  0.00000000000E+00 -0.58725748468E+03  0.58725748468E+03  0.25500000920E-02 0.  1.
    10030    2    1    2    0    0  0.00000000000E+00  0.00000000000E+00 -0.37760650514E+03  0.79690846423E+03  0.70176664756E+03 0.  0.
        2    1    3    3  502    0 -0.41344659716E+01 -0.25990027872E+03 -0.45645669211E+03  0.52527893587E+03  0.25500000920E-02 0.  1.
       -2    1    3    3    0  502  0.41344659716E+01  0.25990027872E+03  0.78850186966E+02  0.27162952836E+03  0.25500000920E-02 0. -1.
</event>
<event>
 5   0  0.4878235E-03  0.7008039E+03  0.7818609E-02  0.9715858E-01
        2   -1    0    0  501    0  0.00000000000E+00  0.00000000000E+00  0.15548223733E+04  0.15548223733E+04  0.25500000920E-02 0.  1.
       -2   -1    0    0    0  501  0.00000000000E+00  0.00000000000E+00 -0.78968203241E+02  0.78968203282E+02  0.25500000920E-02 0. -1.
    10030    2    1    2    0    0  0.00000000000E+00  0.00000000000E+00  0.14758541701E+04  0.16337905766E+04  0.70080390756E+03 0.  0.
        4    1    3    3  502    0 -0.36106834189E+02  0.21260518712E+03  0.94066730891E+02  0.23527607576E+03  0.12699999809E+01 0. -1.
       -4    1    3    3    0  502  0.36106834189E+02 -0.21260518712E+03  0.13817874392E+04  0.13985145008E+04  0.12699999809E+01 0.  1.
</event>
<event>
 5   0  0.5113683E-03  0.6997116E+03  0.7818609E-02  0.9717725E-01
        2   -1    0    0  501    0  0.00000000000E+00  0.00000000000E+00  0.16572846829E+04  0.16572846829E+04  0.25500000920E-02 0. -1.
       -2   -1    0    0    0  501  0.00000000000E+00  0.00000000000E+00 -0.73855201250E+02  0.73855201294E+02  0.25500000920E-02 0.  1.
    10030    2    1    2    0    0  0.00000000000E+00  0.00000000000E+00  0.15834294817E+04  0.17311398842E+04  0.69971163725E+03 0.  0.
        3    1    3    3  502    0 -0.18701748328E+03  0.29561124522E+03  0.80687262729E+03  0.87943447409E+03  0.10100000352E+00 0. -1.
       -3    1    3    3    0  502  0.18701748328E+03 -0.29561124522E+03  0.77655685440E+03  0.85170541015E+03  0.10100000352E+00 0.  1.
</event>
<event>
 5   0  0.5076796E-03  0.7055442E+03  0.7818609E-02  0.9707798E-01
       -2   -1    0    0    0  501  0.00000000000E+00  0.00000000000E+00  0.16133318455E+03  0.16133318457E+03  0.25500000920E-02 0. -1.
        2   -1    0    0  501    0  0.00000000000E+00  0.00000000000E+00 -0.77137348032E+03  0.77137348033E+03  0.25500000920E-02 0.  1.
    10030    2    1    2    0    0  0.00000000000E+00  0.00000000000E+00 -0.61004029577E+03  0.93270666490E+03  0.70554415899E+03 0.  0.
        5    1    3    3  502    0  0.14583652228E+03 -0.11540455011E+03 -0.70125681323E+03  0.72551341098E+03  0.46999998093E+01 0.  1.
       -5    1    3    3    0  502 -0.14583652228E+03  0.11540455011E+03  0.91216517454E+02  0.20719325392E+03  0.46999998093E+01 0. -1.
</event>
<event>
 5   0  0.2938783E-03  0.7004861E+03  0.7818609E-02  0.9716401E-01
        1   -1    0    0  501    0  0.00000000000E+00  0.00000000000E+00  0.17611273066E+04  0.17611273066E+04  0.50400001928E-02 0.  1.
       -1   -1    0    0    0  501  0.00000000000E+00  0.00000000000E+00 -0.69654350713E+02  0.69654350895E+02  0.50400001928E-02 0. -1.
    10030    2    1    2    0    0  0.00000000000E+00  0.00000000000E+00  0.16914729558E+04  0.18307816575E+04  0.70048605763E+03 0.  0.
        4    1    3    3  502    0 -0.11795641702E+03 -0.23221408283E+03  0.14577372931E+04  0.14808229892E+04  0.12699999809E+01 0.  1.
       -4    1    3    3    0  502  0.11795641702E+03  0.23221408283E+03  0.23373566270E+03  0.34995866827E+03  0.12699999809E+01 0. -1.
</event>
<event>
 5   0  0.2937617E-03  0.7003605E+03  0.7818609E-02  0.9716616E-01
       -1   -1    0    0    0  501  0.00000000000E+00  0.00000000000E+00  0.84381154077E+03  0.84381154078E+03  0.50400001928E-02 0.  1.
        1   -1    0    0  501    0  0.00000000000E+00  0.00000000000E+00 -0.14532415606E+03  0.14532415615E+03  0.50400001928E-02 0. -1.
    10030    2    1    2    0    0  0.00000000000E+00  0.00000000000E+00  0.69848738471E+03  0.98913569693E+03  0.70036047886E+03 0.  0.
        3    1    3    3  502    0  0.25158023094E+02 -0.32402218072E+03  0.53340382499E+03  0.62461424130E+03  0.10100000352E+00 0. -1.
       -3    1    3    3    0  502 -0.25158023094E+02  0.32402218072E+03  0.16508355972E+03  0.36452145563E+03  0.10100000352E+00 0.  1.
</event>
<event>
 5   0  0.2913582E-03  0.6992272E+03  0.7818609E-02  0.9718555E-01
       -1   -1    0    0    0  501  0.00000000000E+00  0.00000000000E+00  0.10638692621E+03  0.10638692633E+03  0.50400001928E-02 0. -1.
        1   -1    0    0  501    0  0.00000000000E+00  0.00000000000E+00 -0.11489162468E+04  0.11489162468E+04  0.50400001928E-02 0.  1.
    10030    2    1    2    0    0  0.00000000000E+00  0.00000000000E+00 -0.10425293206E+04  0.12553031731E+04  0.69922719640E+03 0.  0.
        1    1    3    3  502    0  0.82057683874E+02  0.46862368741E+02 -0.11255547965E+04  0.11295145617E+04  0.50400001928E-02 0.  1.
       -1    1    3    3    0  502 -0.82057683874E+02 -0.46862368741E+02  0.83025475935E+02  0.12578861143E+03  0.50400001928E-02 0. -1.
</event>
<event>
 5   0  0.4878235E-03  0.6994530E+03  0.7818609E-02  0.9718168E-01
        2   -1    0    0  501    0  0.00000000000E+00  0.00000000000E+00  0.10562178131E+04  0.10562178131E+04  0.25500000920E-02 0.  1.
       -2   -1    0    0    0  501  0.00000000000E+00  0.00000000000E+00 -0.11579869009E+03  0.11579869012E+03  0.25500000920E-02 0. -1.
    10030    2    1    2    0    0  0.00000000000E+00  0.00000000000E+00  0.94041912301E+03  0.11720165032E+04  0.69945304125E+03 0.  0.
        4    1    3    3  502    0  0.32317857646E+03 -0.99459527042E+02  0.61980426524E+03  0.70604215873E+03  0.12699999809E+01 0. -1.
       -4    1    3    3    0  502 -0.32317857646E+03  0.99459527042E+02  0.32061485777E+03  0.46597434449E+03  0.12699999809E+01 0.  1.
</event>
<event>
 5   0  0.4878235E-03  0.6998021E+03  0.7818609E-02  0.9717571E-01
        2   -1    0    0  501    0  0.00000000000E+00  0.00000000000E+00  0.55280745392E+03  0.55280745392E+03  0.25500000920E-02 0. -1.
       -2   -1    0    0    0  501  0.00000000000E+00  0.00000000000E+00 -0.22147088232E+03  0.22147088233E+03  0.25500000920E-02 0.  1.
    10030    2    1    2    0    0  0.00000000000E+00  0.00000000000E+00  0.33133657160E+03  0.77427833626E+03  0.69980212798E+03 0.  0.
        4    1    3    3  502    0  0.26828264523E+03  0.15309332206E+03  0.34752626576E+03  0.46496156968E+03  0.12699999809E+01 0. -1.
       -4    1    3    3    0  502 -0.26828264523E+03 -0.15309332206E+03 -0.16189694162E+02  0.30931676658E+03  0.12699999809E+01 0.  1.
</event>
<event>
 5   0  0.2934483E-03  0.6995615E+03  0.7818609E-02  0.9717982E-01
       -1   -1    0    0    0  501  0.00000000000E+00  0.00000000000E+00  0.33771116184E+03  0.33771116188E+03  0.50400001928E-02 0.  1.
        1   -1    0    0  501    0  0.00000000000E+00  0.00000000000E+00 -0.36228167770E+03  0.36228167774E+03  0.50400001928E-02 0. -1.
    10030    2    1    2    0    0  0.00000000000E+00  0.00000000000E+00 -0.24570515862E+02  0.69999283961E+03  0.69956148069E+03 0.  0.
        5    1    3    3  502    0  0.16010212207E+03  0.30991120881E+03 -0.37733782734E+02  0.35088969092E+03  0.46999998093E+01 0.  1.
       -5    1    3    3    0  502 -0.16010212207E+03 -0.30991120881E+03  0.13163266872E+02  0.34910314870E+03  0.46999998093E+01 0. -1.
</event>
<event>
 5   0  0.5023894E-03  0.7005772E+03  0.7818609E-02  0.9716246E-01
        2   -1    0    0  501    0  0.00000000000E+00  0.00000000000E+00  0.15036005584E+04  0.15036005584E+04  0.25500000920E-02 0.  1.
       -2   -1    0    0    0  501  0.00000000000E+00  0.00000000000E+00 -0.81605522200E+02  0.81605522240E+02  0.25500000920E-02 0. -1.
    10030    2    1    2    0    0  0.00000000000E+00  0.00000000000E+00  0.14219950362E+04  0.15852060807E+04  0.70057721569E+03 0.  0.
        2    1    3    3  502    0 -0.14790079214E+03 -0.42292751811E+02  0.14230834047E+04  0.14313733607E+04  0.25500000920E-02 0.  1.
       -2    1    3    3    0  502  0.14790079214E+03  0.42292751811E+02 -0.10883684395E+01  0.15383271994E+03  0.25500000920E-02 0. -1.
</event>
<event>
 5   0  0.3013140E-03  0.7001584E+03  0.7818609E-02  0.9716961E-01
        1   -1    0    0  501    0  0.00000000000E+00  0.00000000000E+00  0.42233557522E+03  0.42233557525E+03  0.50400001928E-02 0.  1.
       -1   -1    0    0    0  501  0.00000000000E+00  0.00000000000E+00 -0.29018497261E+03  0.29018497265E+03  0.50400001928E-02 0. -1.
    10030    2    1    2    0    0  0.00000000000E+00  0.00000000000E+00  0.13215060261E+03  0.71252054790E+03  0.70015837452E+03 0.  0.
        2    1    3    3  502    0  0.22205750175E+03 -0.25593190180E+03 -0.23482871636E+02  0.33964999295E+03  0.25500000920E-02 0. -1.
       -2    1    3    3    0  502 -0.22205750175E+03  0.25593190180E+03  0.15563347425E+03  0.37287055496E+03  0.25500000920E-02 0.  1.
</event>
<event>
 5   0  0.2937617E-03  0.7004623E+03  0.7818609E-02  0.9716442E-01
       -1   -1    0    0    0  501  0.00000000000E+00  0.00000000000E+00  0.12336058830E+03  0.12336058840E+03  0.50400001928E-02 0. -1.
        1   -1    0    0  501    0  0.00000000000E+00  0.00000000000E+00 -0.99433575856E+03  0.99433575857E+03  0.50400001928E-02 0.  1.
    10030    2    1    2    0    0  0.00000000000E+00  0.00000000000E+00 -0.87097517026E+03  0.11176963470E+04  0.70046225938E+03 0.  0.
        3    1    3    3  502    0  0.64825933720E+02  0.32877097454E+03 -0.59797105111E+03  0.68546491052E+03  0.10100000352E+00 0.  1.
       -3    1    3    3    0  502 -0.64825933720E+02 -0.32877097454E+03 -0.27300411915E+03  0.43223143646E+03  0.10100000352E+00 0. -1.
</event>
<event>
 5   0  0.5076796E-03  0.6994580E+03  0.7818609E-02  0.9718160E-01
       -2   -1    0    0    0  501  0.00000000000E+00  0.00000000000E+00  0.11859526880E+03  0.11859526883E+03  0.25500000920E-02 0. -1.
        2   -1    0    0  501    0  0.00000000000E+00  0.00000000000E+00 -0.10313258680E+04  0.10313258680E+04  0.25500000920E-02 0.  1.
    10030    2    1    2    0    0  0.00000000000E+00  0.00000000000E+00 -0.91273059918E+03  0.11499211368E+04  0.69945798602E+03 0.  0.
        5    1    3    3  502    0 -0.10373071763E+03 -0.25754072927E+03 -0.80589203046E+03  0.85239154370E+03  0.46999998093E+01 0.  1.
       -5    1    3    3    0  502  0.10373071763E+03  0.25754072927E+03 -0.10683856872E+03  0.29752959311E+03  0.46999998093E+01 0. -1.
</event>
<event>
 5   0  0.5072407E-03  0.7012860E+03  0.7818609E-02  0.9715035E-01
        2   -1    0    0  501    0  0.00000000000E+00  0.00000000000E+00  0.41287208260E+03  0.41287208261E+03  0.25500000920E-02 0. -1.
       -2   -1    0    0    0  501  0.00000000000E+00  0.00000000000E+00 -0.29779324087E+03  0.29779324088E+03  0.25500000920E-02 0.  1.
    10030    2    1    2    0    0  0.00000000000E+00  0.00000000000E+00  0.11507884173E+03  0.71066532349E+03  0.70128600599E+03 0.  0.
        1    1    3    3  502    0  0.86173144928E+02  0.33453788915E+03  0.11841873221E+03  0.36519091767E+03  0.50400001928E-02 0. -1.
       -1    1    3    3    0  502 -0.86173144928E+02 -0.33453788915E+03 -0.33398904751E+01  0.34547440582E+03  0.50400001928E-02 0.  1.
</event>
<event>
 5   0  0.2938783E-03  0.6995720E+03  0.7818609E-02  0.9717964E-01
       -1   -1    0    0    0  501  0.00000000000E+00  0.00000000000E+00  0.42959780466E+03  0.42959780469E+03  0.50400001928E-02 0. -1.
        1   -1    0    0  501    0  0.00000000000E+00  0.00000000000E+00 -0.28480187005E+03  0.28480187010E+03  0.50400001928E-02 0.  1.
    10030    2    1    2    0    0  0.00000000000E+00  0.00000000000E+00  0.14479593461E+03  0.71439967478E+03  0.69957203536E+03 0.  0.
        4    1    3    3  502    0 -0.17107164087E+03 -0.67325346158E+02  0.37627939713E+03  0.41879112473E+03  0.12699999809E+01 0. -1.
       -4    1    3    3    0  502  0.17107164087E+03  0.67325346158E+02 -0.23148346252E+03  0.29560855006E+03  0.12699999809E+01 0.  1.
</event>
<event>
 5   0  0.2938783E-03  0.6970166E+03  0.7818609E-02  0.9722348E-01
        1   -1    0    0  501    0  0.00000000000E+00  0.00000000000E+00  0.89403975399E+03  0.89403975401E+03  0.50400001928E-02 0.  1.
       -1   -1    0    0    0  501  0.00000000000E+00  0.00000000000E+00 -0.13585304293E+03  0.13585304302E+03  0.50400001928E-02 0. -1.
    10030    2    1    2    0    0  0.00000000000E+00  0.00000000000E+00  0.75818671106E+03  0.10298927970E+04  0.69701655973E+03 0.  0.
        4    1    3    3  502    0  0.74924393287E+02  0.10833100497E+03  0.85584168063E+03  0.86591908776E+03  0.12699999809E+01 0.  1.
       -4    1    3    3    0  502 -0.74924393287E+02 -0.10833100497E+03 -0.97654969571E+02  0.16397370926E+03  0.12699999809E+01 0. -1.
</event>
<event>
 5   0  0.2937617E-03  0.7000796E+03  0.7818609E-02  0.9717096E-01
        1   -1    0    0  501    0  0.00000000000E+00  0.00000000000E+00  0.16456731841E+04  0.16456731841E+04  0.50400001928E-02 0.  1.
       -1   -1    0    0    0  501  0.00000000000E+00  0.00000000000E+00 -0.74454550746E+02  0.74454550916E+02  0.50400001928E-02 0. -1.
    10030    2    1    2    0    0  0.00000000000E+00  0.00000000000E+00  0.15712186334E+04  0.17201277350E+04  0.70007958905E+03 0.  0.
        3    1    3    3  502    0  0.10526918776E+03 -0.31617188794E+03  0.52233156167E+03  0.61957770710E+03  0.10100000352E+00 0. -1.
       -3    1    3    3    0  502 -0.10526918776E+03  0.31617188794E+03  0.10488870717E+04  0.11005500279E+04  0.10100000352E+00 0.  1.
</event>
<event>
 5   0  0.4878235E-03  0.6999791E+03  0.7818609E-02  0.9717268E-01
        2   -1    0    0  501    0  0.00000000000E+00  0.00000000000E+00  0.36287048123E+03  0.36287048124E+03  0.25500000920E-02 0. -1.
       -2   -1    0    0    0  501  0.00000000000E+00  0.00000000000E+00 -0.33756580950E+03  0.33756580951E+03  0.25500000920E-02 0.  1.
    10030    2    1    2    0    0  0.00000000000E+00  0.00000000000E+00  0.25304671730E+02  0.70043629075E+03  0.69997905040E+03 0.  0.
        4    1    3    3  502    0  0.18629661113E+03  0.42705221611E+02 -0.28073006138E+03  0.33961911538E+03  0.12699999809E+01 0.  1.
       -4    1    3    3    0  502 -0.18629661113E+03 -0.42705221611E+02  0.30603473311E+03  0.36081717537E+03  0.12699999809E+01 0. -1.
</event>
<event>
 5   0  0.2934483E-03  0.7000632E+03  0.7818609E-02  0.9717124E-01
       -1   -1    0    0    0  501  0.00000000000E+00  0.00000000000E+00  0.10773821387E+04  0.10773821388E+04  0.50400001928E-02 0. -1.
        1   -1    0    0  501    0  0.00000000000E+00  0.00000000000E+00 -0.11372206503E+03  0.11372206514E+03  0.50400001928E-02 0.  1.
    10030    2    1    2    0    0  0.00000000000E+00  0.00000000000E+00  0.96366007371E+03  0.11911042039E+04  0.70006320204E+03 0.  0.
        5    1    3    3  502    0 -0.70796612733E+02  0.33649135258E+03  0.37076157783E+03  0.50569242462E+03  0.46999998093E+01 0. -1.
       -5    1    3    3    0  502  0.70796612733E+02 -0.33649135258E+03  0.59289849589E+03  0.68541177927E+03  0.46999998093E+01 0.  1.
</event>
<event>
 5   0  0.5113683E-03  0.6988287E+03  0.7818609E-02  0.9719237E-01
       -2   -1    0    0    0  501  0.00000000000E+00  0.00000000000E+00  0.26506556263E+03  0.26506556264E+03  0.25500000920E-02 0. -1.
        2   -1    0    0  501    0  0.00000000000E+00  0.00000000000E+00 -0.46060445709E+03  0.46060445710E+03  0.25500000920E-02 0.  1.
    10030    2    1    2    0    0  0.00000000000E+00  0.00000000000E+00 -0.19553889446E+03  0.72567001974E+03  0.69882867593E+03 0.  0.
        3    1    3    3  502    0  0.45286115277E+01  0.56059340227E+02  0.26033447792E+03  0.26634039976E+03  0.10100000352E+00 0. -1.
       -3    1    3    3    0  502 -0.45286115277E+01 -0.56059340227E+02 -0.45587337238E+03  0.45932961999E+03  0.10100000352E+00 0.  1.
</event>
<event>
 5   0  0.5113683E-03  0.6994648E+03  0.7818609E-02  0.9718148E-01
       -2   -1    0    0    0  501  0.00000000000E+00  0.00000000000E+00  0.10322705607E+03  0.10322705610E+03  0.25500000920E-02 0.  1.
        2   -1    0    0  501    0  0.00000000000E+00  0.00000000000E+00 -0.11848903038E+04  0.11848903038E+04  0.25500000920E-02 0. -1.
    10030    2    1    2    0    0  0.00000000000E+00  0.00000000000E+00 -0.10816632478E+04  0.12881173599E+04  0.69946476066E+03 0.  0.
        3    1    3    3  502    0  0.29749815487E+03 -0.16527934146E+03 -0.39246969390E+03  0.51947558527E+03  0.10100000352E+00 0. -1.
       -3    1    3    3    0  502 -0.29749815487E+03  0.16527934146E+03 -0.68919355387E+03  0.76864177467E+03  0.10100000352E+00 0.  1.
</event>
<event>
 5   0  0.2934483E-03  0.6995958E+03  0.7818609E-02  0.9717924E-01
       -1   -1    0    0    0  501  0.00000000000E+00  0.00000000000E+00  0.29807738302E+03  0.29807738306E+03  0.50400001928E-02 0.  1.
        1   -1    0    0  501    0  0.00000000000E+00  0.00000000000E+00 -0.41049266317E+03  0.41049266321E+03  0.50400001928E-02 0. -1.
    10030    2    1    2    0    0  0.00000000000E+00  0.00000000000E+00 -0.11241528016E+03  0.70857004626E+03  0.69959582278E+03 0.  0.
        5    1    3    3  502    0  0.17166843944E+03  0.11494133423E+03 -0.34206007713E+03  0.39963577140E+03  0.46999998093E+01 0. -1.
       -5    1    3    3    0  502 -0.17166843944E+03 -0.11494133423E+03  0.22964479697E+03  0.30893427487E+03  0.46999998093E+01 0.  1.
</event>
<event>
 5   0  0.1981750E-03  0.7005316E+03  0.7818609E-02  0.9716324E-01
       -3   -1    0    0    0  501  0.00000000000E+00  0.00000000000E+00  0.64145510259E+03  0.64145511054E+03  0.10100000352E+00 0.  1.
        3   -1    0    0  501    0  0.00000000000E+00  0.00000000000E+00 -0.19126219134E+03  0.19126221801E+03  0.10100000352E+00 0. -1.
    10030    2    1    2    0    0  0.00000000000E+00  0.00000000000E+00  0.45019291124E+03  0.83271732855E+03  0.70053157811E+03 0.  0.
        3    1    3    3  502    0  0.90195252245E+02  0.31427877916E+03  0.75775647068E+02  0.33563118664E+03  0.10100000352E+00 0. -1.
       -3    1    3    3    0  502 -0.90195252245E+02 -0.31427877916E+03  0.37441726418E+03  0.49708614190E+03  0.10100000352E+00 0.  1.
</event>
<event>
 5   0  0.1981750E-03  0.7005167E+03  0.7818609E-02  0.9716349E-01
       -3   -1    0    0    0  501  0.00000000000E+00  0.00000000000E+00  0.16805644861E+03  0.16805647896E+03  0.10100000352E+00 0. -1.
        3   -1    0    0  501    0  0.00000000000E+00  0.00000000000E+00 -0.72999804297E+03  0.72999804996E+03  0.10100000352E+00 0.  1.
    10030    2    1    2    0    0  0.00000000000E+00  0.00000000000E+00 -0.56194159436E+03  0.89805452892E+03  0.70051665323E+03 0.  0.
        1    1    3    3  502    0 -0.64846039036E+02  0.17255698344E+03  0.10083805178E+03  0.21011719117E+03  0.50400001928E-02 0. -1.
       -1    1    3    3    0  502  0.64846039036E+02 -0.17255698344E+03 -0.66277964614E+03  0.68793733776E+03  0.50400001928E-02 0.  1.
</event>
<event>
 5   0  0.2934483E-03  0.6987743E+03  0.7818609E-02  0.9719331E-01
       -1   -1    0    0    0  501  0.00000000000E+00  0.00000000000E+00  0.62472943742E+03  0.62472943744E+03  0.50400001928E-02 0. -1.
        1   -1    0    0  501    0  0.00000000000E+00  0.00000000000E+00 -0.19539881825E+03  0.19539881832E+03  0.50400001928E-02 0.  1.
    10030    2    1    2    0    0  0.00000000000E+00  0.00000000000E+00  0.42933061917E+03  0.82012825576E+03  0.69877433792E+03 0.  0.
        5    1    3    3  502    0  0.49065198508E+02 -0.31781102786E+03  0.54434809431E+02  0.32618473541E+03  0.46999998093E+01 0.  1.
       -5    1    3    3    0  502 -0.49065198508E+02  0.31781102786E+03  0.37489580974E+03  0.49394352035E+03  0.46999998093E+01 0. -1.
</event>
<event>
 5   0  0.5113683E-03  0.6996954E+03  0.7818609E-02  0.9717753E-01
        2   -1    0    0  501    0  0.00000000000E+00  0.00000000000E+00  0.43355274307E+03  0.43355274308E+03  0.25500000920E-02 0.  1.
       -2   -1    0    0    0  501  0.00000000000E+00  0.00000000000E+00 -0.28230341268E+03  0.28230341269E+03  0.25500000920E-02 0. -1.
    10030    2    1    2    0    0  0.00000000000E+00  0.00000000000E+00  0.15124933039E+03  0.71585615577E+03  0.69969541646E+03 0.  0.
        3    1    3    3  502    0 -0.22503141077E+03  0.24197462528E+03  0.19318091017E+03  0.38276589369E+03  0.10100000352E+00 0.  1.
       -3    1    3    3    0  502  0.22503141077E+03 -0.24197462528E+03 -0.41931579779E+02  0.33309026209E+03  0.10100000352E+00 0. -1.
</event>
<event>
 5   0  0.2934483E-03  0.7011875E+03  0.7818609E-02  0.9715204E-01
        1   -1    0    0  501    0  0.00000000000E+00  0.00000000000E+00  0.14261860544E+04  0.14261860544E+04  0.50400001928E-02 0. -1.
       -1   -1    0    0    0  501  0.00000000000E+00  0.00000000000E+00 -0.86185089734E+02  0.86185089881E+02  0.50400001928E-02 0.  1.
    10030    2    1    2    0    0  0.00000000000E+00  0.00000000000E+00  0.13400009646E+04  0.15123711443E+04  0.70118748760E+03 0.  0.
        5    1    3    3  502    0 -0.34103588658E+03 -0.72018448579E+02  0.58924731661E+03  0.68463612453E+03  0.46999998093E+01 0.  1.
       -5    1    3    3    0  502  0.34103588658E+03  0.72018448579E+02  0.75075364801E+03  0.82773501972E+03  0.46999998093E+01 0. -1.
</event>
<event>
 5   0  0.5023894E-03  0.6982449E+03  0.7818609E-02  0.9720238E-01
       -2   -1    0    0    0  501  0.00000000000E+00  0.00000000000E+00  0.80887234983E+03  0.80887234983E+03  0.25500000920E-02 0. -1.
        2   -1    0    0  501    0  0.00000000000E+00  0.00000000000E+00 -0.15068693823E+03  0.15068693825E+03  0.25500000920E-02 0.  1.
    10030    2    1    2    0    0  0.00000000000E+00  0.00000000000E+00  0.65818541160E+03  0.95955928809E+03  0.69824493648E+03 0.  0.
        2    1    3    3  502    0 -0.21048941974E+02  0.24933939345E+03 -0.54823790371E+01  0.25028633117E+03  0.25500000920E-02 0.  1.
       -2    1    3    3    0  502  0.21048941974E+02 -0.24933939345E+03  0.66366779063E+03  0.70927295692E+03  0.25500000920E-02 0. -1.
</event>
<event>
 5   0  0.5072407E-03  0.6992448E+03  0.7818609E-02  0.9718524E-01
        2   -1    0    0  501    0  0.00000000000E+00  0.00000000000E+00  0.76722095065E+03  0.76722095065E+03  0.25500000920E-02 0.  1.
       -2   -1    0    0    0  501  0.00000000000E+00  0.00000000000E+00 -0.15932286467E+03  0.15932286469E+03  0.25500000920E-02 0. -1.
    10030    2    1    2    0    0  0.00000000000E+00  0.00000000000E+00  0.60789808598E+03  0.92654381535E+03  0.69924484897E+03 0.  0.
        1    1    3    3  502    0  0.47725878219E+02  0.15756546314E+03  0.71264297037E+03  0.73141276846E+03  0.50400001928E-02 0.  1.
       -1    1    3    3    0  502 -0.47725878219E+02 -0.15756546314E+03 -0.10474488439E+03  0.19513104688E+03  0.50400001928E-02 0. -1.
</event>
<event>
 5   0  0.2913582E-03  0.7008238E+03  0.7818609E-02  0.9715824E-01
       -1   -1    0    0    0  501  0.00000000000E+00  0.00000000000E+00  0.22548163201E+03  0.22548163207E+03  0.50400001928E-02 0. -1.
        1   -1    0    0  501    0  0.00000000000E+00  0.00000000000E+00 -0.54456092137E+03  0.54456092139E+03  0.50400001928E-02 0.  1.
    10030    2    1    2    0    0  0.00000000000E+00  0.00000000000E+00 -0.31907928936E+03  0.77004255346E+03  0.70082375905E+03 0.  0.
        1    1    3    3  502    0 -0.14510485123E+03 -0.31680589054E+03 -0.20016575850E+03  0.40185534839E+03  0.50400001928E-02 0. -1.
       -1    1    3    3    0  502  0.14510485123E+03  0.31680589054E+03 -0.11891353086E+03  0.36818720507E+03  0.50400001928E-02 0.  1.
</event>
<event>
 5   0  0.4878235E-03  0.7000759E+03  0.7818609E-02  0.9717102E-01
       -2   -1    0    0    0  501  0.00000000000E+00  0.00000000000E+00  0.27054813684E+03  0.27054813685E+03  0.25500000920E-02 0.  1.
        2   -1    0    0  501    0  0.00000000000E+00  0.00000000000E+00 -0.45288273665E+03  0.45288273666E+03  0.25500000920E-02 0. -1.
    10030    2    1    2    0    0  0.00000000000E+00  0.00000000000E+00 -0.18233459981E+03  0.72343087352E+03  0.70007594050E+03 0.  0.
        4    1    3    3  502    0 -0.13118366474E+03 -0.74588137962E+02 -0.41753984213E+03  0.44397486064E+03  0.12699999809E+01 0. -1.
       -4    1    3    3    0  502  0.13118366474E+03  0.74588137962E+02  0.23520524231E+03  0.27945601287E+03  0.12699999809E+01 0.  1.
</event>
<event>
 5   0  0.4878235E-03  0.6997833E+03  0.7818609E-02  0.9717603E-01
       -2   -1    0    0    0  501  0.00000000000E+00  0.00000000000E+00  0.28611142948E+03  0.28611142950E+03  0.25500000920E-02 0. -1.
        2   -1    0    0  501    0  0.00000000000E+00  0.00000000000E+00 -0.42788975513E+03  0.42788975514E+03  0.25500000920E-02 0.  1.
    10030    2    1    2    0    0  0.00000000000E+00  0.00000000000E+00 -0.14177832564E+03  0.71400118463E+03  0.69978325075E+03 0.  0.
        4    1    3    3  502    0  0.21947666478E+03  0.14255843315E+03  0.16605667401E+03  0.30995055271E+03  0.12699999809E+01 0. -1.
       -4    1    3    3    0  502 -0.21947666478E+03 -0.14255843315E+03 -0.30783499965E+03  0.40405063192E+03  0.12699999809E+01 0.  1.
</event>
<event>
 5   0  0.5076796E-03  0.6997465E+03  0.7818609E-02  0.9717666E-01
       -2   -1    0    0    0  501  0.00000000000E+00  0.00000000000E+00  0.15169975975E+03  0.15169975977E+03  0.25500000920E-02 0. -1.
        2   -1    0    0  501    0  0.00000000000E+00  0.00000000000E+00 -0.80693132347E+03  0.80693132348E+03  0.25500000920E-02 0.  1.
    10030    2    1    2    0    0  0.00000000000E+00  0.00000000000E+00 -0.65523156372E+03  0.95863108325E+03  0.69974649101E+03 0.  0.
        5    1    3    3  502    0 -0.87359170503E+02 -0.33392757867E+03 -0.24951618121E+03  0.42593387650E+03  0.46999998093E+01 0. -1.
       -5    1    3    3    0  502  0.87359170503E+02  0.33392757867E+03 -0.40571538251E+03  0.53269720675E+03  0.46999998093E+01 0.  1.
</event>
<event>
 5   0  0.1981750E-03  0.7054811E+03  0.7818609E-02  0.9707904E-01
       -3   -1    0    0    0  501  0.00000000000E+00  0.00000000000E+00  0.39507407429E+03  0.39507408720E+03  0.10100000352E+00 0.  1.
        3   -1    0    0  501    0  0.00000000000E+00  0.00000000000E+00 -0.31494320690E+03  0.31494322309E+03  0.10100000352E+00 0. -1.
    10030    2    1    2    0    0  0.00000000000E+00  0.00000000000E+00  0.80130867394E+02  0.71001731029E+03  0.70548113015E+03 0.  0.
        5    1    3    3  502    0 -0.59233042913E+02  0.39816960491E+02  0.38769901770E+03  0.39424175583E+03  0.46999998093E+01 0.  1.
       -5    1    3    3    0  502  0.59233042913E+02 -0.39816960491E+02 -0.30756815031E+03  0.31577555446E+03  0.46999998093E+01 0. -1.
</event>
<event>
 5   0  0.2938783E-03  0.6961614E+03  0.7818609E-02  0.9723819E-01
        1   -1    0    0  501    0  0.00000000000E+00  0.00000000000E+00  0.19356907008E+03  0.19356907015E+03  0.50400001928E-02 0.  1.
       -1   -1    0    0    0  501  0.00000000000E+00  0.00000000000E+00 -0.62592737225E+03  0.62592737227E+03  0.50400001928E-02 0. -1.
    10030    2    1    2    0    0  0.00000000000E+00  0.00000000000E+00 -0.43235830217E+03  0.81949644242E+03  0.69616141640E+03 0.  0.
        4    1    3    3  502    0 -0.26665297477E+03 -0.63372173881E+02 -0.46875903980E+03  0.54300689836E+03  0.12699999809E+01 0. -1.
       -4    1    3    3    0  502  0.26665297477E+03  0.63372173881E+02  0.36400737627E+02  0.27648954406E+03  0.12699999809E+01 0.  1.
</event>
<event>
 5   0  0.3013140E-03  0.6983834E+03  0.7818609E-02  0.9720001E-01
       -1   -1    0    0    0  501  0.00000000000E+00  0.00000000000E+00  0.67417536206E+03  0.67417536208E+03  0.50400001928E-02 0. -1.
        1   -1    0    0  501    0  0.00000000000E+00  0.00000000000E+00 -0.18086515765E+03  0.18086515772E+03  0.50400001928E-02 0.  1.
    10030    2    1    2    0    0  0.00000000000E+00  0.00000000000E+00  0.49331020441E+03  0.85504051980E+03  0.69838337088E+03 0.  0.
        2    1    3    3  502    0 -0.31884801901E+03 -0.13663852734E+03  0.19767203372E+03  0.39925978924E+03  0.25500000920E-02 0.  1.
       -2    1    3    3    0  502  0.31884801901E+03  0.13663852734E+03  0.29563817069E+03  0.45578073056E+03  0.25500000920E-02 0. -1.
</event>
<event>
 5   0  0.5113683E-03  0.7004520E+03  0.7818609E-02  0.9716459E-01
        2   -1    0    0  501    0  0.00000000000E+00  0.00000000000E+00  0.18179018483E+04  0.18179018483E+04  0.25500000920E-02 0. -1.
       -2   -1    0    0    0  501  0.00000000000E+00  0.00000000000E+00 -0.67472432237E+02  0.67472432286E+02  0.25500000920E-02 0.  1.
    10030    2    1    2    0    0  0.00000000000E+00  0.00000000000E+00  0.17504294160E+04  0.18853742806E+04  0.70045202354E+03 0.  0.
        3    1    3    3  502    0  0.22104131098E+03  0.25568086692E+03  0.11222944762E+04  0.11720822788E+04  0.10100000352E+00 0. -1.
       -3    1    3    3    0  502 -0.22104131098E+03 -0.25568086692E+03  0.62813493986E+03  0.71329200174E+03  0.10100000352E+00 0.  1.
</event>
<event>
 5   0  0.4878235E-03  0.6997161E+03  0.7818609E-02  0.9717718E-01
       -2   -1    0    0    0  501  0.00000000000E+00  0.00000000000E+00  0.48989182870E+03  0.48989182870E+03  0.25500000920E-02 0. -1.
        2   -1    0    0  501    0  0.00000000000E+00  0.00000000000E+00 -0.24985239868E+03  0.24985239870E+03  0.25500000920E-02 0.  1.
    10030    2    1    2    0    0  0.00000000000E+00  0.00000000000E+00  0.24003943001E+03  0.73974422740E+03  0.69971608100E+03 0.  0.
        4    1    3    3  502    0  0.14107670791E+03  0.17968076278E+03 -0.16011246072E+03  0.27897209002E+03  0.12699999809E+01 0.  1.
       -4    1    3    3    0  502 -0.14107670791E+03 -0.17968076278E+03  0.40015189074E+03  0.46077213739E+03  0.12699999809E+01 0. -1.
</event>
<event>
 5   0  0.4878235E-03  0.7017446E+03  0.7818609E-02  0.9714253E-01
        2   -1    0    0  501    0  0.00000000000E+00  0.00000000000E+00  0.33868819446E+03  0.33868819447E+03  0.25500000920E-02 0.  1.
       -2   -1    0    0    0  501  0.00000000000E+00  0.00000000000E+00 -0.36349477250E+03  0.36349477251E+03  0.25500000920E-02 0. -1.
    10030    2    1    2    0    0  0.00000000000E+00  0.00000000000E+00 -0.24806578037E+02  0.70218296698E+03  0.70174464929E+03 0.  0.
        4    1    3    3  502    0  0.22547410577E+03  0.26378916201E+03 -0.64266937151E+02  0.35292371198E+03  0.12699999809E+01 0. -1.
       -4    1    3    3    0  502 -0.22547410577E+03 -0.26378916201E+03  0.39460359113E+02  0.34925925500E+03  0.12699999809E+01 0.  1.
</event>
<event>
 5   0  0.2937617E-03  0.6912627E+03  0.7818609E-02  0.9732292E-01
       -1   -1    0    0    0  501  0.00000000000E+00  0.00000000000E+00  0.25588079150E+03  0.25588079155E+03  0.50400001928E-02 0.  1.
        1   -1    0    0  501    0  0.00000000000E+00  0.00000000000E+00 -0.46686202176E+03  0.46686202179E+03  0.50400001928E-02 0. -1.
    10030    2    1    2    0    0  0.00000000000E+00  0.00000000000E+00 -0.21098123026E+03  0.72274281334E+03  0.69126268141E+03 0.  0.
        3    1    3    3  502    0  0.11703541998E+03 -0.16088907974E+03  0.19000798300E+03  0.27511021303E+03  0.10100000352E+00 0.  1.
       -3    1    3    3    0  502 -0.11703541998E+03  0.16088907974E+03 -0.40098921326E+03  0.44763260031E+03  0.10100000352E+00 0. -1.
</event>
<event>
 5   0  0.2913582E-03  0.7025339E+03  0.7818609E-02  0.9712909E-01
       -1   -1    0    0    0  501  0.00000000000E+00  0.00000000000E+00  0.85767018378E+02  0.85767018527E+02  0.50400001928E-02 0.  1.
        1   -1    0    0  501    0  0.00000000000E+00  0.00000000000E+00 -0.14386470026E+04  0.14386470026E+04  0.50400001928E-02 0. -1.
    10030    2    1    2    0    0  0.00000000000E+00  0.00000000000E+00 -0.13528799842E+04  0.15244140211E+04  0.70253388254E+03 0.  0.
        1    1    3    3  502    0 -0.33453865094E+03 -0.96773176583E+02 -0.57683075865E+03  0.67380626358E+03  0.50400001928E-02 0. -1.
       -1    1    3    3    0  502  0.33453865094E+03  0.96773176583E+02 -0.77604922552E+03  0.85060775751E+03  0.50400001928E-02 0.  1.
</event>
<event>
 5   0  0.3013140E-03  0.6997716E+03  0.7818609E-02  0.9717623E-01
       -1   -1    0    0    0  501  0.00000000000E+00  0.00000000000E+00  0.69273989728E+02  0.69273989912E+02  0.50400001928E-02 0.  1.
        1   -1    0    0  501    0  0.00000000000E+00  0.00000000000E+00 -0.17671867134E+04  0.17671867134E+04  0.50400001928E-02 0. -1.
    10030    2    1    2    0    0  0.00000000000E+00  0.00000000000E+00 -0.16979127237E+04  0.18364607034E+04  0.69977160391E+03 0.  0.
        2    1    3    3  502    0 -0.18281393398E+03  0.11155794649E+03 -0.12283507646E+03  0.24688978492E+03  0.25500000920E-02 0.  1.
       -2    1    3    3    0  502  0.18281393398E+03 -0.11155794649E+03 -0.15750776472E+04  0.15895709184E+04  0.25500000920E-02 0. -1.
</event>
<event>
 5   0  0.5072407E-03  0.7036621E+03  0.7818609E-02  0.9710990E-01
        2   -1    0    0  501    0  0.00000000000E+00  0.00000000000E+00  0.45166260854E+03  0.45166260855E+03  0.25500000920E-02 0.  1.
       -2   -1    0    0    0  501  0.00000000000E+00  0.00000000000E+00 -0.27406535514E+03  0.27406535515E+03  0.25500000920E-02 0. -1.
    10030    2    1    2    0    0  0.00000000000E+00  0.00000000000E+00  0.17759725340E+03  0.72572796370E+03  0.70366205872E+03 0.  0.
        1    1    3    3  502    0 -0.23023135984E+03  0.50097563779E+02 -0.18067790392E+03  0.29691875983E+03  0.50400001928E-02 0. -1.
       -1    1    3    3    0  502  0.23023135984E+03 -0.50097563779E+02  0.35827515732E+03  0.42880920387E+03  0.50400001928E-02 0.  1.
</event>
<event>
 5   0  0.4878235E-03  0.7020958E+03  0.7818609E-02  0.9713655E-01
        2   -1    0    0  501    0  0.00000000000E+00  0.00000000000E+00  0.49406256508E+03  0.49406256509E+03  0.25500000920E-02 0.  1.
       -2   -1    0    0    0  501  0.00000000000E+00  0.00000000000E+00 -0.24943119104E+03  0.24943119105E+03  0.25500000920E-02 0. -1.
    10030    2    1    2    0    0  0.00000000000E+00  0.00000000000E+00  0.24463137404E+03  0.74349375614E+03  0.70209576003E+03 0.  0.
        4    1    3    3  502    0  0.24745663224E+03  0.71755748202E+02  0.37480537553E+03  0.45482343241E+03  0.12699999809E+01 0.  1.
       -4    1    3    3    0  502 -0.24745663224E+03 -0.71755748202E+02 -0.13017400149E+03  0.28867032373E+03  0.12699999809E+01 0. -1.
</event>
<event>
 5   0  0.2934483E-03  0.7005948E+03  0.7818609E-02  0.9716215E-01
       -1   -1    0    0    0  501  0.00000000000E+00  0.00000000000E+00  0.36009719386E+03  0.36009719389E+03  0.50400001928E-02 0. -1.
        1   -1    0    0  501    0  0.00000000000E+00  0.00000000000E+00 -0.34076434573E+03  0.34076434577E+03  0.50400001928E-02 0.  1.
    10030    2    1    2    0    0  0.00000000000E+00  0.00000000000E+00  0.19332848129E+02  0.70086153966E+03  0.70059484637E+03 0.  0.
        5    1    3    3  502    0 -0.18959712009E+03  0.21912629270E+03  0.20652241502E+03  0.35586092509E+03  0.46999998093E+01 0. -1.
       -5    1    3    3    0  502  0.18959712009E+03 -0.21912629270E+03 -0.18718956689E+03  0.34500061457E+03  0.46999998093E+01 0.  1.
</event>
<event>
 5   0  0.5072407E-03  0.7009779E+03  0.7818609E-02  0.9715561E-01
        2   -1    0    0  501    0  0.00000000000E+00  0.00000000000E+00  0.25771513373E+03  0.25771513374E+03  0.25500000920E-02 0.  1.
       -2   -1    0    0    0  501  0.00000000000E+00  0.00000000000E+00 -0.47666006608E+03  0.47666006609E+03  0.25500000920E-02 0. -1.
    10030    2    1    2    0    0  0.00000000000E+00  0.00000000000E+00 -0.21894493235E+03  0.73437519983E+03  0.70097792456E+03 0.  0.
        1    1    3    3  502    0  0.17011771015E+03 -0.18319772146E+03  0.14787516340E+03  0.29046256976E+03  0.50400001928E-02 0.  1.
       -1    1    3    3    0  502 -0.17011771015E+03  0.18319772146E+03 -0.36682009576E+03  0.44391263007E+03  0.50400001928E-02 0. -1.
</event>
<event>
 5   0  0.2913582E-03  0.6993871E+03  0.7818609E-02  0.9718281E-01
       -1   -1    0    0    0  501  0.00000000000E+00  0.00000000000E+00  0.99427608990E+02  0.99427609118E+02  0.50400001928E-02 0.  1.
        1   -1    0    0  501    0  0.00000000000E+00  0.00000000000E+00 -0.12298957388E+04  0.12298957388E+04  0.50400001928E-02 0. -1.
    10030    2    1    2    0    0  0.00000000000E+00  0.00000000000E+00 -0.11304681298E+04  0.13293233479E+04  0.69938713944E+03 0.  0.
        1    1    3    3  502    0  0.39593511369E+02  0.34726423525E+03 -0.54394137928E+03  0.64655418902E+03  0.50400001928E-02 0. -1.
       -1    1    3    3    0  502 -0.39593511369E+02 -0.34726423525E+03 -0.58652675048E+03  0.68276915886E+03  0.50400001928E-02 0.  1.
</event>
<event>
 5   0  0.2934483E-03  0.7016178E+03  0.7818609E-02  0.9714469E-01
        1   -1    0    0  501    0  0.00000000000E+00  0.00000000000E+00  0.15003360224E+04  0.15003360224E+04  0.50400001928E-02 0. -1.
       -1   -1    0    0    0  501  0.00000000000E+00  0.00000000000E+00 -0.82026221258E+02  0.82026221413E+02  0.50400001928E-02 0.  1.
    10030    2    1    2    0    0  0.00000000000E+00  0.00000000000E+00  0.14183098011E+04  0.15823622438E+04  0.70161782948E+03 0.  0.
        5    1    3    3  502    0 -0.27359857543E+03  0.68770150906E+01  0.21431542144E+03  0.34764445009E+03  0.46999998093E+01 0.  1.
       -5    1    3    3    0  502  0.27359857543E+03 -0.68770150906E+01  0.12039943797E+04  0.12347177937E+04  0.46999998093E+01 0. -1.
</event>
<event>
 5   0  0.2934483E-03  0.7008805E+03  0.7818609E-02  0.9715728E-01
        1   -1    0    0  501    0  0.00000000000E+00  0.00000000000E+00  0.22191229893E+04  0.22191229893E+04  0.50400001928E-02 0. -1.
       -1   -1    0    0    0  501  0.00000000000E+00  0.00000000000E+00 -0.55340945105E+02  0.55340945335E+02  0.50400001928E-02 0.  1.
    10030    2    1    2    0    0  0.00000000000E+00  0.00000000000E+00  0.21637820442E+04  0.22744639346E+04  0.70088048567E+03 0.  0.
        5    1    3    3  502    0 -0.28132174279E+03 -0.77579555567E+02  0.45241709458E+03  0.53839003323E+03  0.46999998093E+01 0.  1.
       -5    1    3    3    0  502  0.28132174279E+03  0.77579555567E+02  0.17113649496E+04  0.17360739014E+04  0.46999998093E+01 0. -1.
</event>
<event>
 5   0  0.1981750E-03  0.7001163E+03  0.7818609E-02  0.9717033E-01
        4   -1    0    0  501    0  0.00000000000E+00  0.00000000000E+00  0.29792879996E+03  0.29793150680E+03  0.12699999809E+01 0. -1.
       -4   -1    0    0    0  501  0.00000000000E+00  0.00000000000E+00 -0.41130315325E+03  0.41130511397E+03  0.12699999809E+01 0.  1.
    10030    2    1    2    0    0  0.00000000000E+00  0.00000000000E+00 -0.11337435329E+03  0.70923662076E+03  0.70011630480E+03 0.  0.
        2    1    3    3  502    0 -0.29408173496E+03  0.21434515727E+02 -0.24781719798E+03  0.38517122027E+03  0.25500000920E-02 0.  1.
       -2    1    3    3    0  502  0.29408173496E+03 -0.21434515727E+02  0.13444284469E+03  0.32406540049E+03  0.25500000920E-02 0. -1.
</event>
<event>
 5   0  0.5076796E-03  0.6969193E+03  0.7818609E-02  0.9722515E-01
       -2   -1    0    0    0  501  0.00000000000E+00  0.00000000000E+00  0.58559596913E+02  0.58559596968E+02  0.25500000920E-02 0.  1.
        2   -1    0    0  501    0  0.00000000000E+00  0.00000000000E+00 -0.20735139698E+04  0.20735139698E+04  0.25500000920E-02 0. -1.
    10030    2    1    2    0    0  0.00000000000E+00  0.00000000000E+00 -0.20149543729E+04  0.21320735668E+04  0.69691934204E+03 0.  0.
        5    1    3    3  502    0  0.13803154855E+03  0.20254736814E+03 -0.17650677878E+04  0.17820113721E+04  0.46999998093E+01 0. -1.
       -5    1    3    3    0  502 -0.13803154855E+03 -0.20254736814E+03 -0.24988658508E+03  0.35006219467E+03  0.46999998093E+01 0.  1.
</event>
<event>
 5   0  0.4878235E-03  0.7000023E+03  0.7818609E-02  0.9717228E-01
       -2   -1    0    0    0  501  0.00000000000E+00  0.00000000000E+00  0.22295724763E+03  0.22295724764E+03  0.25500000920E-02 0. -1.
        2   -1    0    0  501    0  0.00000000000E+00  0.00000000000E+00 -0.54943632812E+03  0.54943632812E+03  0.25500000920E-02 0.  1.
    10030    2    1    2    0    0  0.00000000000E+00  0.00000000000E+00 -0.32647908049E+03  0.77239357576E+03  0.70000231849E+03 0.  0.
        4    1    3    3  502    0 -0.26324349249E+03  0.22985094276E+03 -0.14199753068E+03  0.37721811177E+03  0.12699999809E+01 0. -1.
       -4    1    3    3    0  502  0.26324349249E+03 -0.22985094276E+03 -0.18448154981E+03  0.39517546400E+03  0.12699999809E+01 0.  1.
</event>
<event>
 5   0  0.2913582E-03  0.6988184E+03  0.7818609E-02  0.9719255E-01
       -1   -1    0    0    0  501  0.00000000000E+00  0.00000000000E+00  0.34399063251E+03  0.34399063255E+03  0.50400001928E-02 0. -1.
        1   -1    0    0  501    0  0.00000000000E+00  0.00000000000E+00 -0.35491308340E+03  0.35491308344E+03  0.50400001928E-02 0.  1.
    10030    2    1    2    0    0  0.00000000000E+00  0.00000000000E+00 -0.10922450888E+02  0.69890371599E+03  0.69881836287E+03 0.  0.
        1    1    3    3  502    0  0.15038476917E+03  0.26884068981E+03  0.15947065299E+03  0.34687430646E+03  0.50400001928E-02 0. -1.
       -1    1    3    3    0  502 -0.15038476917E+03 -0.26884068981E+03 -0.17039310388E+03  0.35202940952E+03  0.50400001928E-02 0.  1.
</event>
<event>
 5   0  0.5076796E-03  0.7010257E+03  0.7818609E-02  0.9715480E-01
        2   -1    0    0  501    0  0.00000000000E+00  0.00000000000E+00  0.35370666692E+03  0.35370666693E+03  0.25500000920E-02 0.  1.
       -2   -1    0    0    0  501  0.00000000000E+00  0.00000000000E+00 -0.34734782748E+03  0.34734782749E+03  0.25500000920E-02 0. -1.
    10030    2    1    2    0    0  0.00000000000E+00  0.00000000000E+00  0.63588394431E+01  0.70105449441E+03  0.70102565524E+03 0.  0.
        5    1    3    3  502    0  0.28714071832E+03  0.16313810137E+03 -0.11418519738E+03  0.34946270406E+03  0.46999998093E+01 0. -1.
       -5    1    3    3    0  502 -0.28714071832E+03 -0.16313810137E+03  0.12054403682E+03  0.35159179035E+03  0.46999998093E+01 0.  1.
</event>
<event>
 5   0  0.2937617E-03  0.7003241E+03  0.7818609E-02  0.9716678E-01
        1   -1    0    0  501    0  0.00000000000E+00  0.00000000000E+00  0.49278155019E+03  0.49278155022E+03  0.50400001928E-02 0.  1.
       -1   -1    0    0    0  501  0.00000000000E+00  0.00000000000E+00 -0.24881912641E+03  0.24881912646E+03  0.50400001928E-02 0. -1.
    10030    2    1    2    0    0  0.00000000000E+00  0.00000000000E+00  0.24396242378E+03  0.74160067667E+03  0.70032413883E+03 0.  0.
        3    1    3    3  502    0 -0.32383689795E+03 -0.19029442228E+02  0.26158863394E+03  0.41672662472E+03  0.10100000352E+00 0. -1.
       -3    1    3    3    0  502  0.32383689795E+03  0.19029442228E+02 -0.17626210159E+02  0.32487405195E+03  0.10100000352E+00 0.  1.
</event>
<event>
 5   0  0.5113683E-03  0.7000416E+03  0.7818609E-02  0.9717161E-01
        2   -1    0    0  501    0  0.00000000000E+00  0.00000000000E+00  0.19662102585E+04  0.19662102585E+04  0.25500000920E-02 0.  1.
       -2   -1    0    0    0  501  0.00000000000E+00  0.00000000000E+00 -0.62309997907E+02  0.62309997960E+02  0.25500000920E-02 0. -1.
    10030    2    1    2    0    0  0.00000000000E+00  0.00000000000E+00  0.19039002606E+04  0.20285202565E+04  0.70004159062E+03 0.  0.
        3    1    3    3  502    0  0.15526313563E+03 -0.17704388542E+03  0.20154086594E+03  0.30995146313E+03  0.10100000352E+00 0. -1.
       -3    1    3    3    0  502 -0.15526313563E+03  0.17704388542E+03  0.17023593947E+04  0.17185687934E+04  0.10100000352E+00 0.  1.
</event>
<event>
 5   0  0.5076796E-03  0.6994112E+03  0.7818609E-02  0.9718240E-01
       -2   -1    0    0    0  501  0.00000000000E+00  0.00000000000E+00  0.99440709645E+02  0.99440709678E+02  0.25500000920E-02 0.  1.
        2   -1    0    0  501    0  0.00000000000E+00  0.00000000000E+00 -0.12298182440E+04  0.12298182440E+04  0.25500000920E-02 0. -1.
    10030    2    1    2    0    0  0.00000000000E+00  0.00000000000E+00 -0.11303775343E+04  0.13292589537E+04  0.69941117789E+03 0.  0.
        5    1    3    3  502    0  0.10266378720E+03 -0.27568327645E+03 -0.20593749443E+03  0.35912875647E+03  0.46999998093E+01 0.  1.
       -5    1    3    3    0  502 -0.10266378720E+03  0.27568327645E+03 -0.92444003991E+03  0.97013019719E+03  0.46999998093E+01 0. -1.
</event>
<event>
 5   0  0.2938783E-03  0.6986717E+03  0.7818609E-02  0.9719506E-01
        1   -1    0    0  501    0  0.00000000000E+00  0.00000000000E+00  0.30008494520E+03  0.30008494524E+03  0.50400001928E-02 0.  1.
       -1   -1    0    0    0  501  0.00000000000E+00  0.00000000000E+00 -0.40666996464E+03  0.40666996467E+03  0.50400001928E-02 0. -1.
    10030    2    1    2    0    0  0.00000000000E+00  0.00000000000E+00 -0.10658501945E+03  0.70675490991E+03  0.69867169423E+03 0.  0.
        4    1    3    3  502    0 -0.42111482403E+02 -0.34674919183E+03 -0.58404909043E+02  0.35414845092E+03  0.12699999809E+01 0.  1.
       -4    1    3    3    0  502  0.42111482403E+02  0.34674919183E+03 -0.48180110404E+02  0.35260645900E+03  0.12699999809E+01 0. -1.
</event>
<event>
 5   0  0.5113683E-03  0.7000064E+03  0.7818609E-02  0.9717221E-01
       -2   -1    0    0    0  501  0.00000000000E+00  0.00000000000E+00  0.36524349078E+03  0.36524349079E+03  0.25500000920E-02 0.  1.
        2   -1    0    0  501    0  0.00000000000E+00  0.00000000000E+00 -0.33539880268E+03  0.33539880269E+03  0.25500000920E-02 0. -1.
    10030    2    1    2    0    0  0.00000000000E+00  0.00000000000E+00  0.29844688094E+02  0.70064229348E+03  0.70000636997E+03 0.  0.
        3    1    3    3  502    0  0.12317425569E+03 -0.32121614773E+03  0.79405310709E+02  0.35306787506E+03  0.10100000352E+00 0. -1.
       -3    1    3    3    0  502 -0.12317425569E+03  0.32121614773E+03 -0.49560622615E+02  0.34757441842E+03  0.10100000352E+00 0.  1.
</event>
<event>
 5   0  0.5023894E-03  0.6992134E+03  0.7818609E-02  0.9718578E-01
        2   -1    0    0  501    0  0.00000000000E+00  0.00000000000E+00  0.90138641139E+03  0.90138641139E+03  0.25500000920E-02 0.  1.
       -2   -1    0    0    0  501  0.00000000000E+00  0.00000000000E+00 -0.13559650371E+03  0.13559650374E+03  0.25500000920E-02 0. -1.
    10030    2    1    2    0    0  0.00000000000E+00  0.00000000000E+00  0.76578990768E+03  0.10369829151E+04  0.69921340345E+03 0.  0.
        2    1    3    3  502    0  0.15404853988E+03  0.22246155472E+03  0.71120256038E+03  0.76093966769E+03  0.25500000920E-02 0.  1.
       -2    1    3    3    0  502 -0.15404853988E+03 -0.22246155472E+03  0.54587347301E+02  0.27604324744E+03  0.25500000920E-02 0. -1.
</event>
<event>
 5   0  0.4878235E-03  0.7000089E+03  0.7818609E-02  0.9717217E-01
        2   -1    0    0  501    0  0.00000000000E+00  0.00000000000E+00  0.13067782637E+04  0.13067782637E+04  0.25500000920E-02 0. -1.
       -2   -1    0    0    0  501  0.00000000000E+00  0.00000000000E+00 -0.93744365180E+02  0.93744365214E+02  0.25500000920E-02 0.  1.
    10030    2    1    2    0    0  0.00000000000E+00  0.00000000000E+00  0.12130338986E+04  0.14005226290E+04  0.70000885363E+03 0.  0.
        4    1    3    3  502    0  0.27837938922E+03 -0.18493065532E+03  0.39852799870E+03  0.52011595848E+03  0.12699999809E+01 0.  1.
       -4    1    3    3    0  502 -0.27837938922E+03  0.18493065532E+03  0.81450589986E+03  0.88040667047E+03  0.12699999809E+01 0. -1.
</event>
<event>
 5   0  0.5076796E-03  0.7042550E+03  0.7818609E-02  0.9709983E-01
        2   -1    0    0  501    0  0.00000000000E+00  0.00000000000E+00  0.84908074687E+03  0.84908074687E+03  0.25500000920E-02 0.  1.
       -2   -1    0    0    0  501  0.00000000000E+00  0.00000000000E+00 -0.14603297049E+03  0.14603297052E+03  0.25500000920E-02 0. -1.
    10030    2    1    2    0    0  0.00000000000E+00  0.00000000000E+00  0.70304777638E+03  0.99511371739E+03  0.70425502105E+03 0.  0.
        5    1    3    3  502    0 -0.24723602966E+03 -0.18965490069E+03  0.58317459240E+03  0.66121806610E+03  0.46999998093E+01 0.  1.
       -5    1    3    3    0  502  0.24723602966E+03  0.18965490069E+03  0.11987318398E+03  0.33389565129E+03  0.46999998093E+01 0. -1.
</event>
<event>
 5   0  0.5072407E-03  0.7007059E+03  0.7818609E-02  0.9716026E-01
        2   -1    0    0  501    0  0.00000000000E+00  0.00000000000E+00  0.27697016968E+03  0.27697016969E+03  0.25500000920E-02 0.  1.
       -2   -1    0    0    0  501  0.00000000000E+00  0.00000000000E+00 -0.44317836820E+03  0.44317836820E+03  0.25500000920E-02 0. -1.
    10030    2    1    2    0    0  0.00000000000E+00  0.00000000000E+00 -0.16620819852E+03  0.72014853789E+03  0.70070589506E+03 0.  0.
        1    1    3    3  502    0 -0.94232298659E+02 -0.33672009392E+02 -0.42817879260E+03  0.43971650956E+03  0.50400001928E-02 0. -1.
       -1    1    3    3    0  502  0.94232298659E+02  0.33672009392E+02  0.26197059408E+03  0.28043202833E+03  0.50400001928E-02 0.  1.
</event>
<event>
 5   0  0.5072407E-03  0.6998587E+03  0.7818609E-02  0.9717474E-01
       -2   -1    0    0    0  501  0.00000000000E+00  0.00000000000E+00  0.99770887460E+02  0.99770887492E+02  0.25500000920E-02 0.  1.
        2   -1    0    0  501    0  0.00000000000E+00  0.00000000000E+00 -0.12273172804E+04  0.12273172804E+04  0.25500000920E-02 0. -1.
    10030    2    1    2    0    0  0.00000000000E+00  0.00000000000E+00 -0.11275463930E+04  0.13270881679E+04  0.69985865512E+03 0.  0.
        1    1    3    3  502    0 -0.98224188825E+02  0.14046592180E+03  0.14720530597E+02  0.17203302155E+03  0.50400001928E-02 0.  1.
       -1    1    3    3    0  502  0.98224188825E+02 -0.14046592180E+03 -0.11422669236E+04  0.11550551464E+04  0.50400001928E-02 0. -1.
</event>
<event>
 5   0  0.2913582E-03  0.7024968E+03  0.7818609E-02  0.9712972E-01
       -1   -1    0    0    0  501  0.00000000000E+00  0.00000000000E+00  0.13871702981E+03  0.13871702990E+03  0.50400001928E-02 0. -1.
        1   -1    0    0  501    0  0.00000000000E+00  0.00000000000E+00 -0.88940379515E+03  0.88940379516E+03  0.50400001928E-02 0.  1.
    10030    2    1    2    0    0  0.00000000000E+00  0.00000000000E+00 -0.75068676534E+03  0.10281208251E+04  0.70249684076E+03 0.  0.
        1    1    3    3  502    0 -0.29188231694E+03 -0.19341584549E+03 -0.33471968058E+03  0.48439884477E+03  0.50400001928E-02 0.  1.
       -1    1    3    3    0  502  0.29188231694E+03  0.19341584549E+03 -0.41596708476E+03  0.54372198029E+03  0.50400001928E-02 0. -1.
</event>
<event>
 5   0  0.3013140E-03  0.7004832E+03  0.7818609E-02  0.9716406E-01
        1   -1    0    0  501    0  0.00000000000E+00  0.00000000000E+00  0.82315166802E+03  0.82315166804E+03  0.50400001928E-02 0. -1.
       -1   -1    0    0    0  501  0.00000000000E+00  0.00000000000E+00 -0.14902378067E+03  0.14902378075E+03  0.50400001928E-02 0.  1.
    10030    2    1    2    0    0  0.00000000000E+00  0.00000000000E+00  0.67412788736E+03  0.97217544879E+03  0.70048318661E+03 0.  0.
        2    1    3    3  502    0  0.23111757262E+02  0.17664677107E+03  0.75557098633E+03  0.77628973356E+03  0.25500000920E-02 0. -1.
       -2    1    3    3    0  502 -0.23111757262E+02 -0.17664677107E+03 -0.81443098969E+02  0.19588571523E+03  0.25500000920E-02 0.  1.
</event>
<event>
 5   0  0.5072407E-03  0.7005252E+03  0.7818609E-02  0.9716335E-01
        2   -1    0    0  501    0  0.00000000000E+00  0.00000000000E+00  0.72294746086E+03  0.72294746086E+03  0.25500000920E-02 0. -1.
       -2   -1    0    0    0  501  0.00000000000E+00  0.00000000000E+00 -0.16969956754E+03  0.16969956756E+03  0.25500000920E-02 0.  1.
    10030    2    1    2    0    0  0.00000000000E+00  0.00000000000E+00  0.55324789332E+03  0.89264702842E+03  0.70052515007E+03 0.  0.
        1    1    3    3  502    0 -0.66286500975E+02 -0.20361737184E+03  0.62982441488E+03  0.66523133414E+03  0.50400001928E-02 0. -1.
       -1    1    3    3    0  502  0.66286500975E+02  0.20361737184E+03 -0.76576521553E+02  0.22741569428E+03  0.50400001928E-02 0.  1.
</event>
<event>
 5   0  0.2937617E-03  0.6997855E+03  0.7818609E-02  0.9717599E-01
        1   -1    0    0  501    0  0.00000000000E+00  0.00000000000E+00  0.24378817761E+03  0.24378817766E+03  0.50400001928E-02 0.  1.
       -1   -1    0    0    0  501  0.00000000000E+00  0.00000000000E+00 -0.50217752835E+03  0.50217752837E+03  0.50400001928E-02 0. -1.
    10030    2    1    2    0    0  0.00000000000E+00  0.00000000000E+00 -0.25838935074E+03  0.74596570604E+03  0.69978552287E+03 0.  0.
        3    1    3    3  502    0  0.21225961016E+03  0.41873877647E+02  0.16393831236E+03  0.27144676126E+03  0.10100000352E+00 0.  1.
       -3    1    3    3    0  502 -0.21225961016E+03 -0.41873877647E+02 -0.42232766310E+03  0.47451894478E+03  0.10100000352E+00 0. -1.
</event>
<event>
 5   0  0.5076796E-03  0.7053331E+03  0.7818609E-02  0.9708155E-01
        2   -1    0    0  501    0  0.00000000000E+00  0.00000000000E+00  0.10408054266E+04  0.10408054266E+04  0.25500000920E-02 0.  1.
       -2   -1    0    0    0  501  0.00000000000E+00  0.00000000000E+00 -0.11949754599E+03  0.11949754602E+03  0.25500000920E-02 0. -1.
    10030    2    1    2    0    0  0.00000000000E+00  0.00000000000E+00  0.92130788065E+03  0.11603029727E+04  0.70533309678E+03 0.  0.
        5    1    3    3  502    0 -0.91945271278E+02 -0.38360634458E+02 -0.95813493130E+02  0.13830324165E+03  0.46999998093E+01 0. -1.
       -5    1    3    3    0  502  0.91945271278E+02  0.38360634458E+02  0.10171213738E+04  0.10219997310E+04  0.46999998093E+01 0.  1.
</event>
<event>
 5   0  0.2937617E-03  0.6982907E+03  0.7818609E-02  0.9720160E-01
        1   -1    0    0  501    0  0.00000000000E+00  0.00000000000E+00  0.38932221888E+03  0.38932221891E+03  0.50400001928E-02 0.  1.
       -1   -1    0    0    0  501  0.00000000000E+00  0.00000000000E+00 -0.31311456902E+03  0.31311456906E+03  0.50400001928E-02 0. -1.
    10030    2    1    2    0    0  0.00000000000E+00  0.00000000000E+00  0.76207649861E+02  0.70243678797E+03  0.69829065237E+03 0.  0.
        3    1    3    3  502    0  0.25729468496E+02  0.26027091250E+03 -0.19456910666E+03  0.32597561398E+03  0.10100000352E+00 0. -1.
       -3    1    3    3    0  502 -0.25729468496E+02 -0.26027091250E+03  0.27077675652E+03  0.37646117398E+03  0.10100000352E+00 0.  1.
</event>
<event>
 5   0  0.5023894E-03  0.6984705E+03  0.7818609E-02  0.9719851E-01
        2   -1    0    0  501    0  0.00000000000E+00  0.00000000000E+00  0.75052379957E+03  0.75052379957E+03  0.25500000920E-02 0. -1.
       -2   -1    0    0    0  501  0.00000000000E+00  0.00000000000E+00 -0.16250683328E+03  0.16250683330E+03  0.25500000920E-02 0.  1.
    10030    2    1    2    0    0  0.00000000000E+00  0.00000000000E+00  0.58801696629E+03  0.91303063287E+03  0.69847046030E+03 0.  0.
        2    1    3    3  502    0 -0.22677102584E+03 -0.93670118386E+02 -0.30863487647E+02  0.24728878687E+03  0.25500000920E-02 0.  1.
       -2    1    3    3    0  502  0.22677102584E+03  0.93670118386E+02  0.61888045394E+03  0.66574184600E+03  0.25500000920E-02 0. -1.
</event>
<event>
 5   0  0.2938783E-03  0.6999260E+03  0.7818609E-02  0.9717359E-01
        1   -1    0    0  501    0  0.00000000000E+00  0.00000000000E+00  0.68304941195E+03  0.68304941197E+03  0.50400001928E-02 0. -1.
       -1   -1    0    0    0  501  0.00000000000E+00  0.00000000000E+00 -0.17930488959E+03  0.17930488966E+03  0.50400001928E-02 0.  1.
    10030    2    1    2    0    0  0.00000000000E+00  0.00000000000E+00  0.50374452236E+03  0.86235430163E+03  0.69992599448E+03 0.  0.
        4    1    3    3  502    0  0.10856022604E+03 -0.32686788268E+03  0.17547875701E+03  0.38655186259E+03  0.12699999809E+01 0.  1.
       -4    1    3    3    0  502 -0.10856022604E+03  0.32686788268E+03  0.32826576534E+03  0.47580243905E+03  0.12699999809E+01 0. -1.
</event>
<event>
 5   0  0.2934483E-03  0.6980399E+03  0.7818609E-02  0.9720590E-01
        1   -1    0    0  501    0  0.00000000000E+00  0.00000000000E+00  0.13085343692E+03  0.13085343701E+03  0.50400001928E-02 0.  1.
       -1   -1    0    0    0  501  0.00000000000E+00  0.00000000000E+00 -0.93092648473E+03  0.93092648474E+03  0.50400001928E-02 0. -1.
    10030    2    1    2    0    0  0.00000000000E+00  0.00000000000E+00 -0.80007304782E+03  0.10617799218E+04  0.69803991319E+03 0.  0.
        5    1    3    3  502    0  0.37102408378E+02 -0.20907009226E+03 -0.82131451750E+03  0.84833160900E+03  0.46999998093E+01 0. -1.
       -5    1    3    3    0  502 -0.37102408378E+02  0.20907009226E+03  0.21241469682E+02  0.21344831275E+03  0.46999998093E+01 0.  1.
</event>
<event>
 5   0  0.2913582E-03  0.7002170E+03  0.7818609E-02  0.9716861E-01
       -1   -1    0    0    0  501  0.00000000000E+00  0.00000000000E+00  0.31170544957E+03  0.31170544961E+03  0.50400001928E-02 0.  1.
        1   -1    0    0  501    0  0.00000000000E+00  0.00000000000E+00 -0.39324287694E+03  0.39324287697E+03  0.50400001928E-02 0. -1.
    10030    2    1    2    0    0  0.00000000000E+00  0.00000000000E+00 -0.81537427370E+02  0.70494832658E+03  0.70021696001E+03 0.  0.
        1    1    3    3  502    0  0.15361530380E+03  0.28740289873E+03  0.88072033664E+02  0.33757187516E+03  0.50400001928E-02 0. -1.
       -1    1    3    3    0  502 -0.15361530380E+03 -0.28740289873E+03 -0.16960946103E+03  0.36737645142E+03  0.50400001928E-02 0.  1.
</event>
<event>
 5   0  0.3013140E-03  0.6998223E+03  0.7818609E-02  0.9717536E-01
       -1   -1    0    0    0  501  0.00000000000E+00  0.00000000000E+00  0.22852079799E+03  0.22852079805E+03  0.50400001928E-02 0. -1.
        1   -1    0    0  501    0  0.00000000000E+00  0.00000000000E+00 -0.53578417380E+03  0.53578417382E+03  0.50400001928E-02 0.  1.
    10030    2    1    2    0    0  0.00000000000E+00  0.00000000000E+00 -0.30726337580E+03  0.76430497187E+03  0.69982234025E+03 0.  0.
        2    1    3    3  502    0 -0.20828522794E+02  0.25540198292E+03  0.10659567848E+03  0.27753673435E+03  0.25500000920E-02 0. -1.
       -2    1    3    3    0  502  0.20828522794E+02 -0.25540198292E+03 -0.41385905428E+03  0.48676823752E+03  0.25500000920E-02 0.  1.
</event>
<event>
 5   0  0.5113683E-03  0.7003600E+03  0.7818609E-02  0.9716617E-01
       -2   -1    0    0    0  501  0.00000000000E+00  0.00000000000E+00  0.95007921305E+02  0.95007921340E+02  0.25500000920E-02 0. -1.
        2   -1    0    0  501    0  0.00000000000E+00  0.00000000000E+00 -0.12906928049E+04  0.12906928049E+04  0.25500000920E-02 0.  1.
    10030    2    1    2    0    0  0.00000000000E+00  0.00000000000E+00 -0.11956848835E+04  0.13857007262E+04  0.70036002301E+03 0.  0.
        3    1    3    3  502    0  0.11877679319E+03 -0.27277549864E+03 -0.96326835315E+03  0.10081668164E+04  0.10100000352E+00 0.  1.
       -3    1    3    3    0  502 -0.11877679319E+03  0.27277549864E+03 -0.23241653040E+03  0.37753390982E+03  0.10100000352E+00 0. -1.
</event>
<event>
 5   0  0.5072407E-03  0.6998965E+03  0.7818609E-02  0.9717409E-01
        2   -1    0    0  501    0  0.00000000000E+00  0.00000000000E+00  0.57208721696E+03  0.57208721696E+03  0.25500000920E-02 0. -1.
       -2   -1    0    0    0  501  0.00000000000E+00  0.00000000000E+00 -0.21406484520E+03  0.21406484522E+03  0.25500000920E-02 0.  1.
    10030    2    1    2    0    0  0.00000000000E+00  0.00000000000E+00  0.35802237175E+03  0.78615206218E+03  0.69989645391E+03 0.  0.
        1    1    3    3  502    0 -0.18148852925E+03  0.29710911271E+03  0.21875311863E+03  0.41117494822E+03  0.50400001928E-02 0. -1.
       -1    1    3    3    0  502  0.18148852925E+03 -0.29710911271E+03  0.13926925312E+03  0.37497711396E+03  0.50400001928E-02 0.  1.
</event>
<event>
 5   0  0.3013140E-03  0.6997862E+03  0.7818609E-02  0.9717598E-01
       -1   -1    0    0    0  501  0.00000000000E+00  0.00000000000E+00  0.27164224765E+03  0.27164224769E+03  0.50400001928E-02 0.  1.
        1   -1    0    0  501    0  0.00000000000E+00  0.00000000000E+00 -0.45068539057E+03  0.45068539059E+03  0.50400001928E-02 0. -1.
    10030    2    1    2    0    0  0.00000000000E+00  0.00000000000E+00 -0.17904314292E+03  0.72232763829E+03  0.69978623165E+03 0.  0.
        2    1    3    3  502    0 -0.87002173860E+01 -0.29429650657E+03  0.10561579155E+03  0.31279517738E+03  0.25500000920E-02 0.  1.
       -2    1    3    3    0  502  0.87002173860E+01  0.29429650657E+03 -0.28465893447E+03  0.40953246091E+03  0.25500000920E-02 0. -1.
</event>
<event>
 5   0  0.2938783E-03  0.6974310E+03  0.7818609E-02  0.9721636E-01
        1   -1    0    0  501    0  0.00000000000E+00  0.00000000000E+00  0.35414238336E+03  0.35414238339E+03  0.50400001928E-02 0.  1.
       -1   -1    0    0    0  501  0.00000000000E+00  0.00000000000E+00 -0.34337181103E+03  0.34337181106E+03  0.50400001928E-02 0. -1.
    10030    2    1    2    0    0  0.00000000000E+00  0.00000000000E+00  0.10770572329E+02  0.69751419446E+03  0.69743103332E+03 0.  0.
        4    1    3    3  502    0 -0.33365992499E+02  0.10558257500E+03  0.33609060186E+03  0.35386363922E+03  0.12699999809E+01 0.  1.
       -4    1    3    3    0  502  0.33365992499E+02 -0.10558257500E+03 -0.32532002953E+03  0.34365055524E+03  0.12699999809E+01 0. -1.
</event>
<event>
 5   0  0.2937617E-03  0.6993148E+03  0.7818609E-02  0.9718405E-01
       -1   -1    0    0    0  501  0.00000000000E+00  0.00000000000E+00  0.28144623921E+03  0.28144623925E+03  0.50400001928E-02 0.  1.
        1   -1    0    0  501    0  0.00000000000E+00  0.00000000000E+00 -0.43440023113E+03  0.43440023116E+03  0.50400001928E-02 0. -1.
    10030    2    1    2    0    0  0.00000000000E+00  0.00000000000E+00 -0.15295399193E+03  0.71584647041E+03  0.69931484008E+03 0.  0.
        3    1    3    3  502    0 -0.42671245737E+01 -0.25630342908E+03  0.16694842244E+03  0.30591084006E+03  0.10100000352E+00 0.  1.
       -3    1    3    3    0  502  0.42671245737E+01  0.25630342908E+03 -0.31990241437E+03  0.40993563035E+03  0.10100000352E+00 0. -1.
</event>
<event>
 5   0  0.2938783E-03  0.6994827E+03  0.7818609E-02  0.9718117E-01
       -1   -1    0    0    0  501  0.00000000000E+00  0.00000000000E+00  0.10936018803E+03  0.10936018815E+03  0.50400001928E-02 0. -1.
        1   -1    0    0  501    0  0.00000000000E+00  0.00000000000E+00 -0.11184967080E+04  0.11184967080E+04  0.50400001928E-02 0.  1.
    10030    2    1    2    0    0  0.00000000000E+00  0.00000000000E+00 -0.10091365200E+04  0.12278568962E+04  0.69948269565E+03 0.  0.
        4    1    3    3  502    0 -0.17426548410E+03  0.18288271225E+03 -0.92914803075E+03  0.96287705412E+03  0.12699999809E+01 0.  1.
       -4    1    3    3    0  502  0.17426548410E+03 -0.18288271225E+03 -0.79988489240E+02  0.26497984206E+03  0.12699999809E+01 0. -1.
</event>
<event>
 5   0  0.5023894E-03  0.7004554E+03  0.7818609E-02  0.9716454E-01
       -2   -1    0    0    0  501  0.00000000000E+00  0.00000000000E+00  0.49722010397E+02  0.49722010462E+02  0.25500000920E-02 0. -1.
        2   -1    0    0  501    0  0.00000000000E+00  0.00000000000E+00 -0.24669041294E+04  0.24669041294E+04  0.25500000920E-02 0.  1.
    10030    2    1    2    0    0  0.00000000000E+00  0.00000000000E+00 -0.24171821190E+04  0.25166261399E+04  0.70045537433E+03 0.  0.
        2    1    3    3  502    0 -0.28749609684E+03 -0.53571730759E+02 -0.51622965436E+03  0.59331019887E+03  0.25500000920E-02 0. -1.
       -2    1    3    3    0  502  0.28749609684E+03  0.53571730759E+02 -0.19009524647E+04  0.19233159410E+04  0.25500000920E-02 0.  1.
</event>
<event>
 5   0  0.5072407E-03  0.6974338E+03  0.7818609E-02  0.9721631E-01
        2   -1    0    0  501    0  0.00000000000E+00  0.00000000000E+00  0.40814232307E+03  0.40814232308E+03  0.25500000920E-02 0.  1.
       -2   -1    0    0    0  501  0.00000000000E+00  0.00000000000E+00 -0.29794381960E+03  0.29794381961E+03  0.25500000920E-02 0. -1.
    10030    2    1    2    0    0  0.00000000000E+00  0.00000000000E+00  0.11019850347E+03  0.70608614268E+03  0.69743381817E+03 0.  0.
        1    1    3    3  502    0 -0.38785802783E+02 -0.20528505039E+03  0.33777124446E+03  0.39715954480E+03  0.50400001928E-02 0.  1.
       -1    1    3    3    0  502  0.38785802783E+02  0.20528505039E+03 -0.22757274099E+03  0.30892659789E+03  0.50400001928E-02 0. -1.
</event>
<event>
 5   0  0.1981750E-03  0.6999530E+03  0.7818609E-02  0.9717313E-01
        3   -1    0    0  501    0  0.00000000000E+00  0.00000000000E+00  0.21279812447E+03  0.21279814844E+03  0.10100000352E+00 0.  1.
       -3   -1    0    0    0  501  0.00000000000E+00  0.00000000000E+00 -0.57558563481E+03  0.57558564367E+03  0.10100000352E+00 0. -1.
    10030    2    1    2    0    0  0.00000000000E+00  0.00000000000E+00 -0.36278751034E+03  0.78838379211E+03  0.69995301700E+03 0.  0.
        4    1    3    3  502    0 -0.21125951508E+03 -0.18408053278E+03  0.54776872691E+02  0.28551417468E+03  0.12699999809E+01 0.  1.
       -4    1    3    3    0  502  0.21125951508E+03  0.18408053278E+03 -0.41756438303E+03  0.50286961743E+03  0.12699999809E+01 0. -1.
</event>
<event>
 5   0  0.2913582E-03  0.6978692E+03  0.7818609E-02  0.9720883E-01
        1   -1    0    0  501    0  0.00000000000E+00  0.00000000000E+00  0.13354645834E+03  0.13354645843E+03  0.50400001928E-02 0.  1.
       -1   -1    0    0    0  501  0.00000000000E+00  0.00000000000E+00 -0.91170775161E+03  0.91170775162E+03  0.50400001928E-02 0. -1.
    10030    2    1    2    0    0  0.00000000000E+00  0.00000000000E+00 -0.77816129327E+03  0.10452542101E+04  0.69786916058E+03 0.  0.
        1    1    3    3  502    0 -0.31194800641E+03  0.68447246178E+02 -0.17854398633E+03  0.36588869796E+03  0.50400001928E-02 0.  1.
       -1    1    3    3    0  502  0.31194800641E+03 -0.68447246178E+02 -0.59961730694E+03  0.67936551210E+03  0.50400001928E-02 0. -1.
</event>
<event>
 5   0  0.5023894E-03  0.6990346E+03  0.7818609E-02  0.9718885E-01
       -2   -1    0    0    0  501  0.00000000000E+00  0.00000000000E+00  0.23030997219E+03  0.23030997220E+03  0.25500000920E-02 0.  1.
        2   -1    0    0  501    0  0.00000000000E+00  0.00000000000E+00 -0.53042575245E+03  0.53042575245E+03  0.25500000920E-02 0. -1.
    10030    2    1    2    0    0  0.00000000000E+00  0.00000000000E+00 -0.30011578026E+03  0.76073572465E+03  0.69903459228E+03 0.  0.
        2    1    3    3  502    0 -0.33535993512E+02 -0.32956496312E+03 -0.27136229472E+03  0.42822333283E+03  0.25500000920E-02 0. -1.
       -2    1    3    3    0  502  0.33535993512E+02  0.32956496312E+03 -0.28753485543E+02  0.33251239182E+03  0.25500000920E-02 0.  1.
</event>
<event>
 5   0  0.2913582E-03  0.7050145E+03  0.7818609E-02  0.9708695E-01
       -1   -1    0    0    0  501  0.00000000000E+00  0.00000000000E+00  0.83518497709E+02  0.83518497861E+02  0.50400001928E-02 0.  1.
        1   -1    0    0  501    0  0.00000000000E+00  0.00000000000E+00 -0.14878303050E+04  0.14878303050E+04  0.50400001928E-02 0. -1.
    10030    2    1    2    0    0  0.00000000000E+00  0.00000000000E+00 -0.14043118073E+04  0.15713488029E+04  0.70501447375E+03 0.  0.
        1    1    3    3  502    0  0.27409899837E+03  0.19100837956E+03 -0.95280516984E+03  0.10096792331E+04  0.50400001928E-02 0.  1.
       -1    1    3    3    0  502 -0.27409899837E+03 -0.19100837956E+03 -0.45150663749E+03  0.56166956985E+03  0.50400001928E-02 0. -1.
</event>
<event>
 5   0  0.5072407E-03  0.7006758E+03  0.7818609E-02  0.9716077E-01
        2   -1    0    0  501    0  0.00000000000E+00  0.00000000000E+00  0.71172310973E+03  0.71172310974E+03  0.25500000920E-02 0.  1.
       -2   -1    0    0    0  501  0.00000000000E+00  0.00000000000E+00 -0.17245001275E+03  0.17245001277E+03  0.25500000920E-02 0. -1.
    10030    2    1    2    0    0  0.00000000000E+00  0.00000000000E+00  0.53927309698E+03  0.88417312251E+03  0.70067584335E+03 0.  0.
        1    1    3    3  502    0  0.12085330500E+03  0.32357652656E+03  0.19573946436E+03  0.39701539996E+03  0.50400001928E-02 0. -1.
       -1    1    3    3    0  502 -0.12085330500E+03 -0.32357652656E+03  0.34353363262E+03  0.48715772255E+03  0.50400001928E-02 0.  1.
</event>
<event>
 5   0  0.2937617E-03  0.6982794E+03  0.7818609E-02  0.9720179E-01
       -1   -1    0    0    0  501  0.00000000000E+00  0.00000000000E+00  0.28376947975E+03  0.28376947979E+03  0.50400001928E-02 0. -1.
        1   -1    0    0  501    0  0.00000000000E+00  0.00000000000E+00 -0.42956887123E+03  0.42956887126E+03  0.50400001928E-02 0.  1.
    10030    2    1    2    0    0  0.00000000000E+00  0.00000000000E+00 -0.14579939148E+03  0.71333835106E+03  0.69827941437E+03 0.  0.
        3    1    3    3  502    0  0.29205115986E+03  0.99041894324E+02 -0.24012270572E+03  0.39084792543E+03  0.10100000352E+00 0.  1.
       -3    1    3    3    0  502 -0.29205115986E+03 -0.99041894324E+02  0.94323314241E+02  0.32249042562E+03  0.10100000352E+00 0. -1.
</event>
<event>
 5   0  0.5076796E-03  0.7004116E+03  0.7818609E-02  0.9716529E-01
        2   -1    0    0  501    0  0.00000000000E+00  0.00000000000E+00  0.17142186891E+04  0.17142186891E+04  0.25500000920E-02 0.  1.
       -2   -1    0    0    0  501  0.00000000000E+00  0.00000000000E+00 -0.71545180401E+02  0.71545180447E+02  0.25500000920E-02 0. -1.
    10030    2    1    2    0    0  0.00000000000E+00  0.00000000000E+00  0.16426735087E+04  0.17857638695E+04  0.70041155159E+03 0.  0.
        5    1    3    3  502    0 -0.23080746988E+03  0.21245266089E+03  0.12180730877E+04  0.12578284296E+04  0.46999998093E+01 0.  1.
       -5    1    3    3    0  502  0.23080746988E+03 -0.21245266089E+03  0.42460042100E+03  0.52793543997E+03  0.46999998093E+01 0. -1.
</event>
<event>
 5   0  0.5072407E-03  0.7002309E+03  0.7818609E-02  0.9716837E-01
       -2   -1    0    0    0  501  0.00000000000E+00  0.00000000000E+00  0.20993386941E+03  0.20993386943E+03  0.25500000920E-02 0. -1.
        2   -1    0    0  501    0  0.00000000000E+00  0.00000000000E+00 -0.58390202776E+03  0.58390202776E+03  0.25500000920E-02 0.  1.
    10030    2    1    2    0    0  0.00000000000E+00  0.00000000000E+00 -0.37396815835E+03  0.79383589719E+03  0.70023085351E+03 0.  0.
        1    1    3    3  502    0  0.25261113507E+03  0.18912752527E+03 -0.35891180135E+03  0.47791138043E+03  0.50400001928E-02 0.  1.
       -1    1    3    3    0  502 -0.25261113507E+03 -0.18912752527E+03 -0.15056357001E+02  0.31592451676E+03  0.50400001928E-02 0. -1.
</event>
<event>
 5   0  0.3013140E-03  0.7004036E+03  0.7818609E-02  0.9716542E-01
       -1   -1    0    0    0  501  0.00000000000E+00  0.00000000000E+00  0.32904725321E+03  0.32904725325E+03  0.50400001928E-02 0.  1.
        1   -1    0    0  501    0  0.00000000000E+00  0.00000000000E+00 -0.37271635994E+03  0.37271635998E+03  0.50400001928E-02 0. -1.
    10030    2    1    2    0    0  0.00000000000E+00  0.00000000000E+00 -0.43669106730E+02  0.70176361323E+03  0.70040358220E+03 0.  0.
        2    1    3    3  502    0  0.28949879906E+02 -0.33357496059E+02 -0.36991448762E+03  0.37254200602E+03  0.25500000920E-02 0. -1.
       -2    1    3    3    0  502 -0.28949879906E+02  0.33357496059E+02  0.32624538089E+03  0.32922160720E+03  0.25500000920E-02 0.  1.
</event>
<event>
 5   0  0.5023894E-03  0.6997655E+03  0.7818609E-02  0.9717633E-01
        2   -1    0    0  501    0  0.00000000000E+00  0.00000000000E+00  0.76467434006E+03  0.76467434007E+03  0.25500000920E-02 0. -1.
       -2   -1    0    0    0  501  0.00000000000E+00  0.00000000000E+00 -0.16009161907E+03  0.16009161909E+03  0.25500000920E-02 0.  1.
    10030    2    1    2    0    0  0.00000000000E+00  0.00000000000E+00  0.60458272099E+03  0.92476595916E+03  0.69976554124E+03 0.  0.
        2    1    3    3  502    0 -0.34858799045E+03  0.17019670294E+02  0.33505633210E+03  0.48380368121E+03  0.25500000920E-02 0.  1.
       -2    1    3    3    0  502  0.34858799045E+03 -0.17019670294E+02  0.26952638889E+03  0.44096227795E+03  0.25500000920E-02 0. -1.
</event>
<event>
 5   0  0.5072407E-03  0.7000823E+03  0.7818609E-02  0.9717091E-01
        2   -1    0    0  501    0  0.00000000000E+00  0.00000000000E+00  0.83509380937E+03  0.83509380937E+03  0.25500000920E-02 0.  1.
       -2   -1    0    0    0  501  0.00000000000E+00  0.00000000000E+00 -0.14672460654E+03  0.14672460656E+03  0.25500000920E-02 0. -1.
    10030    2    1    2    0    0  0.00000000000E+00  0.00000000000E+00  0.68836920283E+03  0.98181841593E+03  0.70008231121E+03 0.  0.
        1    1    3    3  502    0  0.26697752903E+03  0.13571695173E+03  0.59830263822E+03  0.66907558536E+03  0.50400001928E-02 0.  1.
       -1    1    3    3    0  502 -0.26697752903E+03 -0.13571695173E+03  0.90066564603E+02  0.31274283058E+03  0.50400001928E-02 0. -1.
</event>
<event>
 5   0  0.3013140E-03  0.6996396E+03  0.7818609E-02  0.9717849E-01
       -1   -1    0    0    0  501  0.00000000000E+00  0.00000000000E+00  0.23047626554E+03  0.23047626560E+03  0.50400001928E-02 0. -1.
        1   -1    0    0  501    0  0.00000000000E+00  0.00000000000E+00 -0.53096094234E+03  0.53096094236E+03  0.50400001928E-02 0.  1.
    10030    2    1    2    0    0  0.00000000000E+00  0.00000000000E+00 -0.30048467680E+03  0.76143720796E+03  0.69963960771E+03 0.  0.
        2    1    3    3  502    0 -0.22207108606E+03 -0.21783522820E+03 -0.32439566551E+03  0.44944443674E+03  0.25500000920E-02 0.  1.
       -2    1    3    3    0  502  0.22207108606E+03  0.21783522820E+03  0.23910988713E+02  0.31199277122E+03  0.25500000920E-02 0. -1.
</event>
<event>
 5   0  0.2938783E-03  0.7028786E+03  0.7818609E-02  0.9712322E-01
        1   -1    0    0  501    0  0.00000000000E+00  0.00000000000E+00  0.57703065753E+03  0.57703065755E+03  0.50400001928E-02 0.  1.
       -1   -1    0    0    0  501  0.00000000000E+00  0.00000000000E+00 -0.21404335997E+03  0.21404336003E+03  0.50400001928E-02 0. -1.
    10030    2    1    2    0    0  0.00000000000E+00  0.00000000000E+00  0.36298729756E+03  0.79107401758E+03  0.70287859770E+03 0.  0.
        4    1    3    3  502    0  0.15148918159E+02 -0.33928330441E+03  0.79793089911E+02  0.34887132365E+03  0.12699999809E+01 0. -1.
       -4    1    3    3    0  502 -0.15148918159E+02  0.33928330441E+03  0.28319420765E+03  0.44220269393E+03  0.12699999809E+01 0.  1.
</event>
<event>
 5   0  0.5076796E-03  0.6993557E+03  0.7818609E-02  0.9718335E-01
       -2   -1    0    0    0  501  0.00000000000E+00  0.00000000000E+00  0.12416069748E+03  0.12416069750E+03  0.25500000920E-02 0.  1.
        2   -1    0    0  501    0  0.00000000000E+00  0.00000000000E+00 -0.98480928941E+03  0.98480928942E+03  0.25500000920E-02 0. -1.
    10030    2    1    2    0    0  0.00000000000E+00  0.00000000000E+00 -0.86064859193E+03  0.11089699869E+04  0.69935572714E+03 0.  0.
        5    1    3    3  502    0  0.48555028273E+02  0.14601296227E+02 -0.97889875735E+03  0.98022224814E+03  0.46999998093E+01 0. -1.
       -5    1    3    3    0  502 -0.48555028273E+02 -0.14601296227E+02  0.11825016541E+03  0.12874773878E+03  0.46999998093E+01 0.  1.
</event>
<event>
 5   0  0.2937617E-03  0.6994401E+03  0.7818609E-02  0.9718190E-01
       -1   -1    0    0    0  501  0.00000000000E+00  0.00000000000E+00  0.31448807155E+03  0.31448807159E+03  0.50400001928E-02 0. -1.
        1   -1    0    0  501    0  0.00000000000E+00  0.00000000000E+00 -0.38889900446E+03  0.38889900450E+03  0.50400001928E-02 0.  1.
    10030    2    1    2    0    0  0.00000000000E+00  0.00000000000E+00 -0.74410932913E+02  0.70338707609E+03  0.69944005595E+03 0.  0.
        3    1    3    3  502    0 -0.42699264412E+01  0.33071322586E+03 -0.15148926377E+03  0.36378355827E+03  0.10100000352E+00 0.  1.
       -3    1    3    3    0  502  0.42699264412E+01 -0.33071322586E+03  0.77078330855E+02  0.33960351782E+03  0.10100000352E+00 0. -1.
</event>
<event>
 5   0  0.2913582E-03  0.7011294E+03  0.7818609E-02  0.9715303E-01
       -1   -1    0    0    0  501  0.00000000000E+00  0.00000000000E+00  0.14832783798E+03  0.14832783806E+03  0.50400001928E-02 0.  1.
        1   -1    0    0  501    0  0.00000000000E+00  0.00000000000E+00 -0.82854043684E+03  0.82854043685E+03  0.50400001928E-02 0. -1.
    10030    2    1    2    0    0  0.00000000000E+00  0.00000000000E+00 -0.68021259886E+03  0.97686827491E+03  0.70112940809E+03 0.  0.
        1    1    3    3  502    0 -0.26737770539E+03  0.62251473112E+02 -0.64385859928E+03  0.69994283990E+03  0.50400001928E-02 0. -1.
       -1    1    3    3    0  502  0.26737770539E+03 -0.62251473112E+02 -0.36353999586E+02  0.27692543501E+03  0.50400001928E-02 0.  1.
</event>
<event>
 5   0  0.5113683E-03  0.6972255E+03  0.7818609E-02  0.9721989E-01
       -2   -1    0    0    0  501  0.00000000000E+00  0.00000000000E+00  0.80697844102E+02  0.80697844142E+02  0.25500000920E-02 0.  1.
        2   -1    0    0  501    0  0.00000000000E+00  0.00000000000E+00 -0.15059988830E+04  0.15059988830E+04  0.25500000920E-02 0. -1.
    10030    2    1    2    0    0  0.00000000000E+00  0.00000000000E+00 -0.14253010389E+04  0.15866967272E+04  0.69722553915E+03 0.  0.
        3    1    3    3  502    0  0.74957411023E+02  0.27525557870E+03 -0.11686297445E+04  0.12029462736E+04  0.10100000352E+00 0. -1.
       -3    1    3    3    0  502 -0.74957411023E+02 -0.27525557870E+03 -0.25667129438E+03  0.38375045360E+03  0.10100000352E+00 0.  1.
</event>
<event>
 5   0  0.5076796E-03  0.7007209E+03  0.7818609E-02  0.9716000E-01
       -2   -1    0    0    0  501  0.00000000000E+00  0.00000000000E+00  0.22961131178E+03  0.22961131179E+03  0.25500000920E-02 0. -1.
        2   -1    0    0  501    0  0.00000000000E+00  0.00000000000E+00 -0.53460979284E+03  0.53460979284E+03  0.25500000920E-02 0.  1.
    10030    2    1    2    0    0  0.00000000000E+00  0.00000000000E+00 -0.30499848106E+03  0.76422110464E+03  0.70072093113E+03 0.  0.
        5    1    3    3  502    0 -0.34790813454E+03 -0.17344199898E+02 -0.19315286063E+03  0.39833529710E+03  0.46999998093E+01 0.  1.
       -5    1    3    3    0  502  0.34790813454E+03  0.17344199898E+02 -0.11184562042E+03  0.36588580753E+03  0.46999998093E+01 0. -1.
</event>
<event>
 5   0  0.2934483E-03  0.7094746E+03  0.7818609E-02  0.9701165E-01
       -1   -1    0    0    0  501  0.00000000000E+00  0.00000000000E+00  0.28000347355E+03  0.28000347360E+03  0.50400001928E-02 0. -1.
        1   -1    0    0  501    0  0.00000000000E+00  0.00000000000E+00 -0.44941778578E+03  0.44941778580E+03  0.50400001928E-02 0.  1.
    10030    2    1    2    0    0  0.00000000000E+00  0.00000000000E+00 -0.16941431223E+03  0.72942125940E+03  0.70947456929E+03 0.  0.
        5    1    3    3  502    0  0.20852012885E+03  0.26381952883E+03  0.31315321672E+02  0.33776341912E+03  0.46999998093E+01 0.  1.
       -5    1    3    3    0  502 -0.20852012885E+03 -0.26381952883E+03 -0.20072963390E+03  0.39165784028E+03  0.46999998093E+01 0. -1.
</event>
<event>
 5   0  0.3013140E-03  0.6977711E+03  0.7818609E-02  0.9721051E-01
        1   -1    0    0  501    0  0.00000000000E+00  0.00000000000E+00  0.47520737905E+03  0.47520737907E+03  0.50400001928E-02 0. -1.
       -1   -1    0    0    0  501  0.00000000000E+00  0.00000000000E+00 -0.25614319635E+03  0.25614319640E+03  0.50400001928E-02 0.  1.
    10030    2    1    2    0    0  0.00000000000E+00  0.00000000000E+00  0.21906418270E+03  0.73135057547E+03  0.69777112874E+03 0.  0.
        2    1    3    3  502    0  0.13063474416E+03  0.15925270782E+02  0.44819466184E+03  0.46711615851E+03  0.25500000920E-02 0. -1.
       -2    1    3    3    0  502 -0.13063474416E+03 -0.15925270782E+02 -0.22913047914E+03  0.26423441696E+03  0.25500000920E-02 0.  1.
</event>
<event>
 5   0  0.4878235E-03  0.6999891E+03  0.7818609E-02  0.9717251E-01
        2   -1    0    0  501    0  0.00000000000E+00  0.00000000000E+00  0.28263534242E+03  0.28263534243E+03  0.25500000920E-02 0. -1.
       -2   -1    0    0    0  501  0.00000000000E+00  0.00000000000E+00 -0.43340722657E+03  0.43340722657E+03  0.25500000920E-02 0.  1.
    10030    2    1    2    0    0  0.00000000000E+00  0.00000000000E+00 -0.15077188414E+03  0.71604256901E+03  0.69998914247E+03 0.  0.
        4    1    3    3  502    0 -0.30959775633E+02 -0.26081499818E+03  0.16124502117E+03  0.30819562089E+03  0.12699999809E+01 0. -1.
       -4    1    3    3    0  502  0.30959775633E+02  0.26081499818E+03 -0.31201690531E+03  0.40784694811E+03  0.12699999809E+01 0.  1.
</event>
<event>
 5   0  0.5076796E-03  0.6988972E+03  0.7818609E-02  0.9719120E-01
        2   -1    0    0  501    0  0.00000000000E+00  0.00000000000E+00  0.37937505256E+03  0.37937505257E+03  0.25500000920E-02 0. -1.
       -2   -1    0    0    0  501  0.00000000000E+00  0.00000000000E+00 -0.32188288095E+03  0.32188288096E+03  0.25500000920E-02 0.  1.
    10030    2    1    2    0    0  0.00000000000E+00  0.00000000000E+00  0.57492171610E+02  0.70125793353E+03  0.69889723103E+03 0.  0.
        5    1    3    3  502    0  0.51374228853E+02  0.28896625596E+03  0.21899517717E+03  0.36622641370E+03  0.46999998093E+01 0. -1.
       -5    1    3    3    0  502 -0.51374228853E+02 -0.28896625596E+03 -0.16150300556E+03  0.33503151983E+03  0.46999998093E+01 0.  1.
</event>
<event>
 5   0  0.2938783E-03  0.7040171E+03  0.7818609E-02  0.9710387E-01
       -1   -1    0    0    0  501  0.00000000000E+00  0.00000000000E+00  0.26201399492E+03  0.26201399497E+03  0.50400001928E-02 0. -1.
        1   -1    0    0  501    0  0.00000000000E+00  0.00000000000E+00 -0.47291371839E+03  0.47291371842E+03  0.50400001928E-02 0.  1.
    10030    2    1    2    0    0  0.00000000000E+00  0.00000000000E+00 -0.21089972347E+03  0.73492771339E+03  0.70401708115E+03 0.  0.
        4    1    3    3  502    0  0.32313262324E+03  0.13033707990E+03 -0.53192449352E+02  0.35246772358E+03  0.12699999809E+01 0. -1.
       -4    1    3    3    0  502 -0.32313262324E+03 -0.13033707990E+03 -0.15770727412E+03  0.38245998981E+03  0.12699999809E+01 0.  1.
</event>
<event>
 5   0  0.5023894E-03  0.7004326E+03  0.7818609E-02  0.9716493E-01
        2   -1    0    0  501    0  0.00000000000E+00  0.00000000000E+00  0.66327575188E+03  0.66327575188E+03  0.25500000920E-02 0. -1.
       -2   -1    0    0    0  501  0.00000000000E+00  0.00000000000E+00 -0.18491774323E+03  0.18491774325E+03  0.25500000920E-02 0.  1.
    10030    2    1    2    0    0  0.00000000000E+00  0.00000000000E+00  0.47835800865E+03  0.84819349513E+03  0.70043259543E+03 0.  0.
        2    1    3    3  502    0 -0.75214213023E+02 -0.29599499586E+03  0.44674855626E+03  0.54116031630E+03  0.25500000920E-02 0. -1.
       -2    1    3    3    0  502  0.75214213023E+02  0.29599499586E+03  0.31609452390E+02  0.30703317883E+03  0.25500000920E-02 0.  1.
</event>
<event>
 5   0  0.1981750E-03  0.7000018E+03  0.7818609E-02  0.9717229E-01
       -3   -1    0    0    0  501  0.00000000000E+00  0.00000000000E+00  0.32336483656E+03  0.32336485233E+03  0.10100000352E+00 0.  1.
        3   -1    0    0  501    0  0.00000000000E+00  0.00000000000E+00 -0.37883094493E+03  0.37883095840E+03  0.10100000352E+00 0. -1.
    10030    2    1    2    0    0  0.00000000000E+00  0.00000000000E+00 -0.55466108371E+02  0.70219581073E+03  0.70000176245E+03 0.  0.
        3    1    3    3  502    0 -0.33541506476E+03  0.62759719833E+02 -0.10581376451E+03  0.35726546301E+03  0.10100000352E+00 0. -1.
       -3    1    3    3    0  502  0.33541506476E+03 -0.62759719833E+02  0.50347656135E+02  0.34493034772E+03  0.10100000352E+00 0.  1.
</event>
<event>
 5   0  0.3013140E-03  0.6998050E+03  0.7818609E-02  0.9717566E-01
        1   -1    0    0  501    0  0.00000000000E+00  0.00000000000E+00  0.14147367144E+04  0.14147367144E+04  0.50400001928E-02 0.  1.
       -1   -1    0    0    0  501  0.00000000000E+00  0.00000000000E+00 -0.86540324847E+02  0.86540324994E+02  0.50400001928E-02 0. -1.
    10030    2    1    2    0    0  0.00000000000E+00  0.00000000000E+00  0.13281963896E+04  0.15012770394E+04  0.69980504416E+03 0.  0.
        2    1    3    3  502    0  0.22788566312E+03 -0.20849406967E+03  0.10168000794E+04  0.10626777752E+04  0.25500000920E-02 0.  1.
       -2    1    3    3    0  502 -0.22788566312E+03  0.20849406967E+03  0.31139631021E+03  0.43859926420E+03  0.25500000920E-02 0. -1.
</event>
<event>
 5   0  0.5072407E-03  0.7006347E+03  0.7818609E-02  0.9716147E-01
        2   -1    0    0  501    0  0.00000000000E+00  0.00000000000E+00  0.30784054969E+03  0.30784054970E+03  0.25500000920E-02 0. -1.
       -2   -1    0    0    0  501  0.00000000000E+00  0.00000000000E+00 -0.39865519149E+03  0.39865519150E+03  0.25500000920E-02 0.  1.
    10030    2    1    2    0    0  0.00000000000E+00  0.00000000000E+00 -0.90814641800E+02  0.70649574120E+03  0.70063466455E+03 0.  0.
        1    1    3    3  502    0  0.26980097863E+01 -0.22005014912E+03  0.22944002149E+03  0.31791833994E+03  0.50400001928E-02 0. -1.
       -1    1    3    3    0  502 -0.26980097863E+01  0.22005014912E+03 -0.32025466329E+03  0.38857740126E+03  0.50400001928E-02 0.  1.
</event>
<event>
 5   0  0.2913582E-03  0.7000525E+03  0.7818609E-02  0.9717142E-01
       -1   -1    0    0    0  501  0.00000000000E+00  0.00000000000E+00  0.31608311899E+03  0.31608311903E+03  0.50400001928E-02 0. -1.
        1   -1    0    0  501    0  0.00000000000E+00  0.00000000000E+00 -0.38761442264E+03  0.38761442267E+03  0.50400001928E-02 0.  1.
    10030    2    1    2    0    0  0.00000000000E+00  0.00000000000E+00 -0.71531303646E+02  0.70369754170E+03  0.70005250003E+03 0.  0.
        1    1    3    3  502    0 -0.10300655329E+03 -0.22296929593E+02  0.29975496445E+03  0.31774288635E+03  0.50400001928E-02 0. -1.
       -1    1    3    3    0  502  0.10300655329E+03  0.22296929593E+02 -0.37128626809E+03  0.38595465535E+03  0.50400001928E-02 0.  1.
</event>
<event>
 5   0  0.2937617E-03  0.6997661E+03  0.7818609E-02  0.9717632E-01
       -1   -1    0    0    0  501  0.00000000000E+00  0.00000000000E+00  0.93789100421E+03  0.93789100422E+03  0.50400001928E-02 0.  1.
        1   -1    0    0  501    0  0.00000000000E+00  0.00000000000E+00 -0.13052491989E+03  0.13052491999E+03  0.50400001928E-02 0. -1.
    10030    2    1    2    0    0  0.00000000000E+00  0.00000000000E+00  0.80736608431E+03  0.10684159242E+04  0.69976609878E+03 0.  0.
        3    1    3    3  502    0 -0.23513741992E+03 -0.15993351020E+03  0.92459856310E+02  0.29902703751E+03  0.10100000352E+00 0. -1.
       -3    1    3    3    0  502  0.23513741992E+03  0.15993351020E+03  0.71490622800E+03  0.76938888670E+03  0.10100000352E+00 0.  1.
</event>
<event>
 5   0  0.4878235E-03  0.7003780E+03  0.7818609E-02  0.9716586E-01
        2   -1    0    0  501    0  0.00000000000E+00  0.00000000000E+00  0.75333106532E+03  0.75333106532E+03  0.25500000920E-02 0.  1.
       -2   -1    0    0    0  501  0.00000000000E+00  0.00000000000E+00 -0.16278677052E+03  0.16278677054E+03  0.25500000920E-02 0. -1.
    10030    2    1    2    0    0  0.00000000000E+00  0.00000000000E+00  0.59054429480E+03  0.91611783587E+03  0.70037798729E+03 0.  0.
        4    1    3    3  502    0  0.24491678064E+03  0.75481712402E+02  0.60742111432E+03  0.65927516362E+03  0.12699999809E+01 0.  1.
       -4    1    3    3    0  502 -0.24491678064E+03 -0.75481712402E+02 -0.16876819527E+02  0.25684267224E+03  0.12699999809E+01 0. -1.
</event>
<event>
 5   0  0.5072407E-03  0.7001071E+03  0.7818609E-02  0.9717049E-01
        2   -1    0    0  501    0  0.00000000000E+00  0.00000000000E+00  0.16149122464E+04  0.16149122464E+04  0.25500000920E-02 0. -1.
       -2   -1    0    0    0  501  0.00000000000E+00  0.00000000000E+00 -0.75878727759E+02  0.75878727802E+02  0.25500000920E-02 0.  1.
    10030    2    1    2    0    0  0.00000000000E+00  0.00000000000E+00  0.15390335187E+04  0.16907909742E+04  0.70010709678E+03 0.  0.
        1    1    3    3  502    0 -0.44427449298E+02 -0.12516417576E+03 -0.12666025251E+02  0.13341775507E+03  0.50400001928E-02 0.  1.
       -1    1    3    3    0  502  0.44427449298E+02  0.12516417576E+03  0.15516995439E+04  0.15573732192E+04  0.50400001928E-02 0. -1.
</event>
<event>
 5   0  0.1981750E-03  0.7005407E+03  0.7818609E-02  0.9716308E-01
        4   -1    0    0  501    0  0.00000000000E+00  0.00000000000E+00  0.18907371686E+03  0.18907798207E+03  0.12699999809E+01 0. -1.
       -4   -1    0    0    0  501  0.00000000000E+00  0.00000000000E+00 -0.64888456971E+03  0.64888581253E+03  0.12699999809E+01 0.  1.
    10030    2    1    2    0    0  0.00000000000E+00  0.00000000000E+00 -0.45981085285E+03  0.83796379461E+03  0.70054072021E+03 0.  0.
        4    1    3    3  502    0  0.11331353600E+03  0.24063780726E+02 -0.62530822335E+03  0.63594890524E+03  0.12699999809E+01 0.  1.
       -4    1    3    3    0  502 -0.11331353600E+03 -0.24063780726E+02  0.16549737050E+03  0.20201488937E+03  0.12699999809E+01 0. -1.
</event>
<event>
 5   0  0.2938783E-03  0.6961464E+03  0.7818609E-02  0.9723845E-01
        1   -1    0    0  501    0  0.00000000000E+00  0.00000000000E+00  0.18925781679E+03  0.18925781686E+03  0.50400001928E-02 0.  1.
       -1   -1    0    0    0  501  0.00000000000E+00  0.00000000000E+00 -0.64015818779E+03  0.64015818781E+03  0.50400001928E-02 0. -1.
    10030    2    1    2    0    0  0.00000000000E+00  0.00000000000E+00 -0.45090037100E+03  0.82941600467E+03  0.69614636696E+03 0.  0.
        4    1    3    3  502    0  0.23033275918E+03 -0.15918431710E+02 -0.53578920268E+03  0.58341945376E+03  0.12699999809E+01 0. -1.
       -4    1    3    3    0  502 -0.23033275918E+03  0.15918431710E+02  0.84888831674E+02  0.24599655091E+03  0.12699999809E+01 0.  1.
</event>
<event>
 5   0  0.2934483E-03  0.7003078E+03  0.7818609E-02  0.9716706E-01
       -1   -1    0    0    0  501  0.00000000000E+00  0.00000000000E+00  0.38212233636E+03  0.38212233640E+03  0.50400001928E-02 0.  1.
        1   -1    0    0  501    0  0.00000000000E+00  0.00000000000E+00 -0.32085999479E+03  0.32085999483E+03  0.50400001928E-02 0. -1.
    10030    2    1    2    0    0  0.00000000000E+00  0.00000000000E+00  0.61262341573E+02  0.70298233123E+03  0.70030784911E+03 0.  0.
        5    1    3    3  502    0 -0.13510716242E+03 -0.24795614299E+02  0.35391219009E+03  0.37966392522E+03  0.46999998093E+01 0.  1.
       -5    1    3    3    0  502  0.13510716242E+03  0.24795614299E+02 -0.29264984851E+03  0.32331840600E+03  0.46999998093E+01 0. -1.
</event>
<event>
 5   0  0.5023894E-03  0.6995921E+03  0.7818609E-02  0.9717930E-01
        2   -1    0    0  501    0  0.00000000000E+00  0.00000000000E+00  0.47132991503E+03  0.47132991504E+03  0.25500000920E-02 0.  1.
       -2   -1    0    0    0  501  0.00000000000E+00  0.00000000000E+00 -0.25960007264E+03  0.25960007266E+03  0.25500000920E-02 0. -1.
    10030    2    1    2    0    0  0.00000000000E+00  0.00000000000E+00  0.21172984239E+03  0.73092998769E+03  0.69959211027E+03 0.  0.
        2    1    3    3  502    0  0.18295234537E+03 -0.11030136696E+03 -0.18352491357E+03  0.28163690479E+03  0.25500000920E-02 0. -1.
       -2    1    3    3    0  502 -0.18295234537E+03  0.11030136696E+03  0.39525475596E+03  0.44929308291E+03  0.25500000920E-02 0.  1.
</event>
<event>
 5   0  0.2938783E-03  0.6950336E+03  0.7818609E-02  0.9725763E-01
        1   -1    0    0  501    0  0.00000000000E+00  0.00000000000E+00  0.10604256258E+04  0.10604256258E+04  0.50400001928E-02 0. -1.
       -1   -1    0    0    0  501  0.00000000000E+00  0.00000000000E+00 -0.11388627983E+03  0.11388627994E+03  0.50400001928E-02 0.  1.
    10030    2    1    2    0    0  0.00000000000E+00  0.00000000000E+00  0.94653934598E+03  0.11743119058E+04  0.69503360963E+03 0.  0.
        4    1    3    3  502    0 -0.44332358465E+02  0.87046033932E+02 -0.90208124799E+02  0.13297175907E+03  0.12699999809E+01 0.  1.
       -4    1    3    3    0  502  0.44332358465E+02 -0.87046033932E+02  0.10367474708E+04  0.10413401467E+04  0.12699999809E+01 0. -1.
</event>
<event>
 5   0  0.5076796E-03  0.7003981E+03  0.7818609E-02  0.9716552E-01
        2   -1    0    0  501    0  0.00000000000E+00  0.00000000000E+00  0.87462523570E+03  0.87462523570E+03  0.25500000920E-02 0. -1.
       -2   -1    0    0    0  501  0.00000000000E+00  0.00000000000E+00 -0.14021932754E+03  0.14021932756E+03  0.25500000920E-02 0.  1.
    10030    2    1    2    0    0  0.00000000000E+00  0.00000000000E+00  0.73440590816E+03  0.10148445633E+04  0.70039806514E+03 0.  0.
        5    1    3    3  502    0 -0.27339928584E+03  0.67148364501E+02  0.66892374563E+03  0.72576658770E+03  0.46999998093E+01 0. -1.
       -5    1    3    3    0  502  0.27339928584E+03 -0.67148364501E+02  0.65482162527E+02  0.28907797557E+03  0.46999998093E+01 0.  1.
</event>
<event>
 5   0  0.2934483E-03  0.7005754E+03  0.7818609E-02  0.9716249E-01
        1   -1    0    0  501    0  0.00000000000E+00  0.00000000000E+00  0.48151868075E+03  0.48151868078E+03  0.50400001928E-02 0.  1.
       -1   -1    0    0    0  501  0.00000000000E+00  0.00000000000E+00 -0.25482180940E+03  0.25482180945E+03  0.50400001928E-02 0. -1.
    10030    2    1    2    0    0  0.00000000000E+00  0.00000000000E+00  0.22669687135E+03  0.73634049023E+03  0.70057536787E+03 0.  0.
        5    1    3    3  502    0  0.31435363711E+03 -0.11816397667E+03  0.21791844093E+03  0.40036417352E+03  0.46999998093E+01 0.  1.
       -5    1    3    3    0  502 -0.31435363711E+03  0.11816397667E+03  0.87784304177E+01  0.33597631670E+03  0.46999998093E+01 0. -1.
</event>
<event>
 5   0  0.2913582E-03  0.7013000E+03  0.7818609E-02  0.9715012E-01
       -1   -1    0    0    0  501  0.00000000000E+00  0.00000000000E+00  0.39011901163E+03  0.39011901166E+03  0.50400001928E-02 0.  1.
        1   -1    0    0  501    0  0.00000000000E+00  0.00000000000E+00 -0.31517411663E+03  0.31517411667E+03  0.50400001928E-02 0. -1.
    10030    2    1    2    0    0  0.00000000000E+00  0.00000000000E+00  0.74944894999E+02  0.70529312833E+03  0.70129997832E+03 0.  0.
        1    1    3    3  502    0 -0.30264004103E+03  0.69570367938E+02  0.20126286247E+03  0.37005103751E+03  0.50400001928E-02 0. -1.
       -1    1    3    3    0  502  0.30264004103E+03 -0.69570367938E+02 -0.12631796747E+03  0.33524209082E+03  0.50400001928E-02 0.  1.
</event>
<event>
 5   0  0.5023894E-03  0.6998667E+03  0.7818609E-02  0.9717460E-01
        2   -1    0    0  501    0  0.00000000000E+00  0.00000000000E+00  0.10091891804E+04  0.10091891804E+04  0.25500000920E-02 0.  1.
       -2   -1    0    0    0  501  0.00000000000E+00  0.00000000000E+00 -0.12133833514E+03  0.12133833516E+03  0.25500000920E-02 0. -1.
    10030    2    1    2    0    0  0.00000000000E+00  0.00000000000E+00  0.88785084523E+03  0.11305275155E+04  0.69986665873E+03 0.  0.
        2    1    3    3  502    0  0.33103649147E+03 -0.42898939792E+02  0.61355883592E+03  0.69848401762E+03  0.25500000920E-02 0.  1.
       -2    1    3    3    0  502 -0.33103649147E+03  0.42898939792E+02  0.27429200931E+03  0.43204349792E+03  0.25500000920E-02 0. -1.
</event>
<event>
 5   0  0.2934483E-03  0.6995523E+03  0.7818609E-02  0.9717998E-01
        1   -1    0    0  501    0  0.00000000000E+00  0.00000000000E+00  0.36175822817E+03  0.36175822821E+03  0.50400001928E-02 0.  1.
       -1   -1    0    0    0  501  0.00000000000E+00  0.00000000000E+00 -0.33819090070E+03  0.33819090073E+03  0.50400001928E-02 0. -1.
    10030    2    1    2    0    0  0.00000000000E+00  0.00000000000E+00  0.23567327475E+02  0.69994912894E+03  0.69955225979E+03 0.  0.
        5    1    3    3  502    0  0.67161664072E+02 -0.22289120430E+03 -0.24938179692E+03  0.34118110837E+03  0.46999998093E+01 0. -1.
       -5    1    3    3    0  502 -0.67161664072E+02  0.22289120430E+03  0.27294912440E+03  0.35876802057E+03  0.46999998093E+01 0.  1.
</event>
<event>
 5   0  0.5072407E-03  0.6997829E+03  0.7818609E-02  0.9717603E-01
        2   -1    0    0  501    0  0.00000000000E+00  0.00000000000E+00  0.57261772376E+03  0.57261772377E+03  0.25500000920E-02 0.  1.
       -2   -1    0    0    0  501  0.00000000000E+00  0.00000000000E+00 -0.21379715101E+03  0.21379715103E+03  0.25500000920E-02 0. -1.
    10030    2    1    2    0    0  0.00000000000E+00  0.00000000000E+00  0.35882057275E+03  0.78641487480E+03  0.69978293196E+03 0.  0.
        1    1    3    3  502    0 -0.15909562740E+03 -0.27867008660E+03  0.22659144990E+02  0.32168598462E+03  0.50400001928E-02 0.  1.
       -1    1    3    3    0  502  0.15909562740E+03  0.27867008660E+03  0.33616142776E+03  0.46472889018E+03  0.50400001928E-02 0. -1.
</event>
<event>
 5   0  0.2913582E-03  0.7001960E+03  0.7818609E-02  0.9716897E-01
        1   -1    0    0  501    0  0.00000000000E+00  0.00000000000E+00  0.53808838920E+03  0.53808838922E+03  0.50400001928E-02 0. -1.
       -1   -1    0    0    0  501  0.00000000000E+00  0.00000000000E+00 -0.22778527288E+03  0.22778527294E+03  0.50400001928E-02 0.  1.
    10030    2    1    2    0    0  0.00000000000E+00  0.00000000000E+00  0.31030311632E+03  0.76587366216E+03  0.70019600284E+03 0.  0.
        1    1    3    3  502    0  0.38168547664E+02 -0.20910829969E+03 -0.14912414889E+03  0.25965579299E+03  0.50400001928E-02 0.  1.
       -1    1    3    3    0  502 -0.38168547664E+02  0.20910829969E+03  0.45942726520E+03  0.50621786917E+03  0.50400001928E-02 0. -1.
</event>
<event>
 5   0  0.3013140E-03  0.6997280E+03  0.7818609E-02  0.9717697E-01
        1   -1    0    0  501    0  0.00000000000E+00  0.00000000000E+00  0.50758082176E+03  0.50758082179E+03  0.50400001928E-02 0. -1.
       -1   -1    0    0    0  501  0.00000000000E+00  0.00000000000E+00 -0.24115336393E+03  0.24115336398E+03  0.50400001928E-02 0.  1.
    10030    2    1    2    0    0  0.00000000000E+00  0.00000000000E+00  0.26642745784E+03  0.74873418577E+03  0.69972801191E+03 0.  0.
        2    1    3    3  502    0  0.52426458617E+01 -0.28570586013E+03  0.34921660719E+03  0.45122894698E+03  0.25500000920E-02 0. -1.
       -2    1    3    3    0  502 -0.52426458617E+01  0.28570586013E+03 -0.82789149346E+02  0.29750523879E+03  0.25500000920E-02 0.  1.
</event>
<event>
 5   0  0.4878235E-03  0.7012146E+03  0.7818609E-02  0.9715157E-01
        2   -1    0    0  501    0  0.00000000000E+00  0.00000000000E+00  0.81331091785E+03  0.81331091786E+03  0.25500000920E-02 0. -1.
       -2   -1    0    0    0  501  0.00000000000E+00  0.00000000000E+00 -0.15114203002E+03  0.15114203004E+03  0.25500000920E-02 0.  1.
    10030    2    1    2    0    0  0.00000000000E+00  0.00000000000E+00  0.66216888783E+03  0.96445294790E+03  0.70121455539E+03 0.  0.
        4    1    3    3  502    0 -0.12188285314E+03  0.27725214556E+03  0.88141041202E+02  0.31542770670E+03  0.12699999809E+01 0.  1.
       -4    1    3    3    0  502  0.12188285314E+03 -0.27725214556E+03  0.57402784663E+03  0.64902524120E+03  0.12699999809E+01 0. -1.
</event>
<event>
 5   0  0.5023894E-03  0.7005971E+03  0.7818609E-02  0.9716212E-01
        2   -1    0    0  501    0  0.00000000000E+00  0.00000000000E+00  0.95752863654E+03  0.95752863655E+03  0.25500000920E-02 0.  1.
       -2   -1    0    0    0  501  0.00000000000E+00  0.00000000000E+00 -0.12815185307E+03  0.12815185309E+03  0.25500000920E-02 0. -1.
    10030    2    1    2    0    0  0.00000000000E+00  0.00000000000E+00  0.82937678348E+03  0.10856804896E+04  0.70059708579E+03 0.  0.
        2    1    3    3  502    0  0.73764207313E+02 -0.29388566731E+03  0.14228858167E+03  0.33474764258E+03  0.25500000920E-02 0.  1.
       -2    1    3    3    0  502 -0.73764207313E+02  0.29388566731E+03  0.68708820181E+03  0.75093284706E+03  0.25500000920E-02 0. -1.
</event>
<event>
 5   0  0.4878235E-03  0.7017151E+03  0.7818609E-02  0.9714304E-01
        2   -1    0    0  501    0  0.00000000000E+00  0.00000000000E+00  0.67585447458E+03  0.67585447458E+03  0.25500000920E-02 0.  1.
       -2   -1    0    0    0  501  0.00000000000E+00  0.00000000000E+00 -0.18214130290E+03  0.18214130292E+03  0.25500000920E-02 0. -1.
    10030    2    1    2    0    0  0.00000000000E+00  0.00000000000E+00  0.49371317168E+03  0.85799577750E+03  0.70171508343E+03 0.  0.
        4    1    3    3  502    0  0.26900525226E+03 -0.55028281420E+02  0.51392191147E+03  0.58267424989E+03  0.12699999809E+01 0.  1.
       -4    1    3    3    0  502 -0.26900525226E+03  0.55028281420E+02 -0.20208739788E+02  0.27532152761E+03  0.12699999809E+01 0. -1.
</event>
<event>
 5   0  0.3013140E-03  0.7027048E+03  0.7818609E-02  0.9712618E-01
       -1   -1    0    0    0  501  0.00000000000E+00  0.00000000000E+00  0.41815260008E+03  0.41815260011E+03  0.50400001928E-02 0.  1.
        1   -1    0    0  501    0  0.00000000000E+00  0.00000000000E+00 -0.29522356525E+03  0.29522356529E+03  0.50400001928E-02 0. -1.
    10030    2    1    2    0    0  0.00000000000E+00  0.00000000000E+00  0.12292903484E+03  0.71337616540E+03  0.70270477852E+03 0.  0.
        2    1    3    3  502    0  0.13599068362E+03 -0.19684949859E+03  0.32267590183E+03  0.40170004824E+03  0.25500000920E-02 0.  1.
       -2    1    3    3    0  502 -0.13599068362E+03  0.19684949859E+03 -0.19974686700E+03  0.31167611716E+03  0.25500000920E-02 0. -1.
</event>
<event>
 5   0  0.5072407E-03  0.7000504E+03  0.7818609E-02  0.9717146E-01
        2   -1    0    0  501    0  0.00000000000E+00  0.00000000000E+00  0.55159528144E+03  0.55159528145E+03  0.25500000920E-02 0. -1.
       -2   -1    0    0    0  501  0.00000000000E+00  0.00000000000E+00 -0.22211508476E+03  0.22211508478E+03  0.25500000920E-02 0.  1.
    10030    2    1    2    0    0  0.00000000000E+00  0.00000000000E+00  0.32948019668E+03  0.77371036622E+03  0.70005037733E+03 0.  0.
        1    1    3    3  502    0 -0.12264283384E+03  0.13389903639E+03 -0.16599147036E+03  0.24601500950E+03  0.50400001928E-02 0.  1.
       -1    1    3    3    0  502  0.12264283384E+03 -0.13389903639E+03  0.49547166704E+03  0.52769535672E+03  0.50400001928E-02 0. -1.
</event>
<event>
 5   0  0.2938783E-03  0.6994733E+03  0.7818609E-02  0.9718133E-01
        1   -1    0    0  501    0  0.00000000000E+00  0.00000000000E+00  0.11645094368E+04  0.11645094368E+04  0.50400001928E-02 0.  1.
       -1   -1    0    0    0  501  0.00000000000E+00  0.00000000000E+00 -0.10503627127E+03  0.10503627139E+03  0.50400001928E-02 0. -1.
    10030    2    1    2    0    0  0.00000000000E+00  0.00000000000E+00  0.10594731655E+04  0.12695457082E+04  0.69947331381E+03 0.  0.
        4    1    3    3  502    0  0.84079516905E+02 -0.32861582736E+03  0.68434654482E+03  0.76379940656E+03  0.12699999809E+01 0.  1.
       -4    1    3    3    0  502 -0.84079516905E+02  0.32861582736E+03  0.37512662068E+03  0.50574630161E+03  0.12699999809E+01 0. -1.
</event>
<event>
 5   0  0.3013140E-03  0.7001408E+03  0.7818609E-02  0.9716991E-01
        1   -1    0    0  501    0  0.00000000000E+00  0.00000000000E+00  0.18520293243E+03  0.18520293249E+03  0.50400001928E-02 0. -1.
       -1   -1    0    0    0  501  0.00000000000E+00  0.00000000000E+00 -0.66170268537E+03  0.66170268538E+03  0.50400001928E-02 0.  1.
    10030    2    1    2    0    0  0.00000000000E+00  0.00000000000E+00 -0.47649975294E+03  0.84690561788E+03  0.70014077944E+03 0.  0.
        2    1    3    3  502    0  0.11597768295E+03  0.76142068727E+02  0.15052802115E+03  0.20471229258E+03  0.25500000920E-02 0. -1.
       -2    1    3    3    0  502 -0.11597768295E+03 -0.76142068727E+02 -0.62702777409E+03  0.64219332530E+03  0.25500000920E-02 0.  1.
</event>
<event>
 5   0  0.2913582E-03  0.7046630E+03  0.7818609E-02  0.9709291E-01
       -1   -1    0    0    0  501  0.00000000000E+00  0.00000000000E+00  0.12303689045E+03  0.12303689056E+03  0.50400001928E-02 0. -1.
        1   -1    0    0  501    0  0.00000000000E+00  0.00000000000E+00 -0.10089451641E+04  0.10089451641E+04  0.50400001928E-02 0.  1.
    10030    2    1    2    0    0  0.00000000000E+00  0.00000000000E+00 -0.88590827368E+03  0.11319820547E+04  0.70466297107E+03 0.  0.
        1    1    3    3  502    0 -0.22179588855E+03 -0.18963256603E+03 -0.12577925942E+03  0.31776461162E+03  0.50400001928E-02 0. -1.
       -1    1    3    3    0  502  0.22179588855E+03  0.18963256603E+03 -0.76012901425E+03  0.81421744307E+03  0.50400001928E-02 0.  1.
</event>
<event>
 5   0  0.5072407E-03  0.6980208E+03  0.7818609E-02  0.9720623E-01
       -2   -1    0    0    0  501  0.00000000000E+00  0.00000000000E+00  0.41091544384E+03  0.41091544385E+03  0.25500000920E-02 0.  1.
        2   -1    0    0  501    0  0.00000000000E+00  0.00000000000E+00 -0.29643146419E+03  0.29643146420E+03  0.25500000920E-02 0. -1.
    10030    2    1    2    0    0  0.00000000000E+00  0.00000000000E+00  0.11448397965E+03  0.70734690805E+03  0.69802082113E+03 0.  0.
        1    1    3    3  502    0 -0.18833233085E+03 -0.79626301067E+01 -0.24040984941E+03  0.30549855325E+03  0.50400001928E-02 0. -1.
       -1    1    3    3    0  502  0.18833233085E+03  0.79626301067E+01  0.35489382906E+03  0.40184835480E+03  0.50400001928E-02 0.  1.
</event>
<event>
 5   0  0.2913582E-03  0.7006477E+03  0.7818609E-02  0.9716125E-01
       -1   -1    0    0    0  501  0.00000000000E+00  0.00000000000E+00  0.95841206398E+02  0.95841206530E+02  0.50400001928E-02 0. -1.
        1   -1    0    0  501    0  0.00000000000E+00  0.00000000000E+00 -0.12805221926E+04  0.12805221926E+04  0.50400001928E-02 0.  1.
    10030    2    1    2    0    0  0.00000000000E+00  0.00000000000E+00 -0.11846809862E+04  0.13763633992E+04  0.70064767710E+03 0.  0.
        1    1    3    3  502    0  0.10897212487E+02 -0.12512455378E+03  0.50092235208E+02  0.13521884207E+03  0.50400001928E-02 0. -1.
       -1    1    3    3    0  502 -0.10897212487E+02  0.12512455378E+03 -0.12347732214E+04  0.12411445571E+04  0.50400001928E-02 0.  1.
</event>
<event>
 5   0  0.2934483E-03  0.7013733E+03  0.7818609E-02  0.9714887E-01
       -1   -1    0    0    0  501  0.00000000000E+00  0.00000000000E+00  0.50553285204E+03  0.50553285207E+03  0.50400001928E-02 0. -1.
        1   -1    0    0  501    0  0.00000000000E+00  0.00000000000E+00 -0.24327029025E+03  0.24327029030E+03  0.50400001928E-02 0.  1.
    10030    2    1    2    0    0  0.00000000000E+00  0.00000000000E+00  0.26226256179E+03  0.74880314237E+03  0.70137329198E+03 0.  0.
        5    1    3    3  502    0 -0.24714742225E+03  0.24418174695E+02  0.39542152777E+03  0.46696720463E+03  0.46999998093E+01 0. -1.
       -5    1    3    3    0  502  0.24714742225E+03 -0.24418174695E+02 -0.13315896598E+03  0.28183593774E+03  0.46999998093E+01 0.  1.
</event>
<event>
 5   0  0.2937617E-03  0.6992256E+03  0.7818609E-02  0.9718557E-01
        1   -1    0    0  501    0  0.00000000000E+00  0.00000000000E+00  0.16214064692E+04  0.16214064692E+04  0.50400001928E-02 0. -1.
       -1   -1    0    0    0  501  0.00000000000E+00  0.00000000000E+00 -0.75384621284E+02  0.75384621452E+02  0.50400001928E-02 0.  1.
    10030    2    1    2    0    0  0.00000000000E+00  0.00000000000E+00  0.15460218480E+04  0.16967910907E+04  0.69922560817E+03 0.  0.
        3    1    3    3  502    0 -0.84637365714E+02 -0.87362463665E+02 -0.22380214310E+02  0.12367929465E+03  0.10100000352E+00 0.  1.
       -3    1    3    3    0  502  0.84637365714E+02  0.87362463665E+02  0.15684020623E+04  0.15731117960E+04  0.10100000352E+00 0. -1.
</event>
<event>
 5   0  0.5023894E-03  0.6998976E+03  0.7818609E-02  0.9717407E-01
        2   -1    0    0  501    0  0.00000000000E+00  0.00000000000E+00  0.73154304913E+03  0.73154304913E+03  0.25500000920E-02 0.  1.
       -2   -1    0    0    0  501  0.00000000000E+00  0.00000000000E+00 -0.16740524831E+03  0.16740524833E+03  0.25500000920E-02 0. -1.
    10030    2    1    2    0    0  0.00000000000E+00  0.00000000000E+00  0.56413780082E+03  0.89894829747E+03  0.69989755194E+03 0.  0.
        2    1    3    3  502    0  0.33022539272E+02  0.34800306937E+03  0.30307664883E+03  0.46265762662E+03  0.25500000920E-02 0.  1.
       -2    1    3    3    0  502 -0.33022539272E+02 -0.34800306937E+03  0.26106115198E+03  0.43629067085E+03  0.25500000920E-02 0. -1.
</event>
<event>
 5   0  0.5023894E-03  0.7007540E+03  0.7818609E-02  0.9715944E-01
        2   -1    0    0  501    0  0.00000000000E+00  0.00000000000E+00  0.77264954349E+03  0.77264954349E+03  0.25500000920E-02 0. -1.
       -2   -1    0    0    0  501  0.00000000000E+00  0.00000000000E+00 -0.15888708809E+03  0.15888708811E+03  0.25500000920E-02 0.  1.
    10030    2    1    2    0    0  0.00000000000E+00  0.00000000000E+00  0.61376245540E+03  0.93153663161E+03  0.70075398277E+03 0.  0.
        2    1    3    3  502    0 -0.16845501436E+03  0.27751456526E+03  0.13166799532E+03  0.35032540129E+03  0.25500000920E-02 0.  1.
       -2    1    3    3    0  502  0.16845501436E+03 -0.27751456526E+03  0.48209446008E+03  0.58121123031E+03  0.25500000920E-02 0. -1.
</event>
<event>
 5   0  0.1981750E-03  0.7007632E+03  0.7818609E-02  0.9715928E-01
       -3   -1    0    0    0  501  0.00000000000E+00  0.00000000000E+00  0.58799087857E+03  0.58799088724E+03  0.10100000352E+00 0. -1.
        3   -1    0    0  501    0  0.00000000000E+00  0.00000000000E+00 -0.20879110153E+03  0.20879112596E+03  0.10100000352E+00 0.  1.
    10030    2    1    2    0    0  0.00000000000E+00  0.00000000000E+00  0.37919977704E+03  0.79678201320E+03  0.70076323080E+03 0.  0.
        3    1    3    3  502    0 -0.19495386319E+03 -0.46485633738E+02  0.51638067422E+03  0.55391058287E+03  0.10100000352E+00 0. -1.
       -3    1    3    3    0  502  0.19495386319E+03  0.46485633738E+02 -0.13718089718E+03  0.24287143032E+03  0.10100000352E+00 0.  1.
</event>
<event>
 5   0  0.4878235E-03  0.6987517E+03  0.7818609E-02  0.9719369E-01
        2   -1    0    0  501    0  0.00000000000E+00  0.00000000000E+00  0.86973628549E+03  0.86973628549E+03  0.25500000920E-02 0. -1.
       -2   -1    0    0    0  501  0.00000000000E+00  0.00000000000E+00 -0.14034539585E+03  0.14034539587E+03  0.25500000920E-02 0.  1.
    10030    2    1    2    0    0  0.00000000000E+00  0.00000000000E+00  0.72939088964E+03  0.10100816814E+04  0.69875169634E+03 0.  0.
        4    1    3    3  502    0 -0.50446640893E+02  0.29726268934E+03  0.61983388262E+03  0.68927906177E+03  0.12699999809E+01 0.  1.
       -4    1    3    3    0  502  0.50446640893E+02 -0.29726268934E+03  0.10955700702E+03  0.32080261959E+03  0.12699999809E+01 0. -1.
</event>
<event>
 5   0  0.1981750E-03  0.7017415E+03  0.7818609E-02  0.9714259E-01
        3   -1    0    0  501    0  0.00000000000E+00  0.00000000000E+00  0.90889669088E+02  0.90889725205E+02  0.10100000352E+00 0.  1.
       -3   -1    0    0    0  501  0.00000000000E+00  0.00000000000E+00 -0.13545021724E+04  0.13545021761E+04  0.10100000352E+00 0. -1.
    10030    2    1    2    0    0  0.00000000000E+00  0.00000000000E+00 -0.12636125033E+04  0.14453919013E+04  0.70174154074E+03 0.  0.
        3    1    3    3  502    0 -0.74859806799E+02 -0.24713159847E+03 -0.14250966090E+03  0.29493563923E+03  0.10100000352E+00 0.  1.
       -3    1    3    3    0  502  0.74859806799E+02  0.24713159847E+03 -0.11211028424E+04  0.11504562621E+04  0.10100000352E+00 0. -1.
</event>
<event>
 5   0  0.2934483E-03  0.6999194E+03  0.7818609E-02  0.9717370E-01
        1   -1    0    0  501    0  0.00000000000E+00  0.00000000000E+00  0.53500233597E+03  0.53500233600E+03  0.50400001928E-02 0.  1.
       -1   -1    0    0    0  501  0.00000000000E+00  0.00000000000E+00 -0.22891823199E+03  0.22891823205E+03  0.50400001928E-02 0. -1.
    10030    2    1    2    0    0  0.00000000000E+00  0.00000000000E+00  0.30608410398E+03  0.76392056804E+03  0.69991939219E+03 0.  0.
        5    1    3    3  502    0  0.97466492205E+02  0.29942979560E+02 -0.21231096316E+03  0.23557235450E+03  0.46999998093E+01 0. -1.
       -5    1    3    3    0  502 -0.97466492205E+02 -0.29942979560E+02  0.51839506714E+03  0.52834821355E+03  0.46999998093E+01 0.  1.
</event>
<event>
 5   0  0.2913582E-03  0.7006848E+03  0.7818609E-02  0.9716062E-01
       -1   -1    0    0    0  501  0.00000000000E+00  0.00000000000E+00  0.58515776652E+03  0.58515776654E+03  0.50400001928E-02 0.  1.
        1   -1    0    0  501    0  0.00000000000E+00  0.00000000000E+00 -0.20975502915E+03  0.20975502921E+03  0.50400001928E-02 0. -1.
    10030    2    1    2    0    0  0.00000000000E+00  0.00000000000E+00  0.37540273737E+03  0.79491279576E+03  0.70068476338E+03 0.  0.
        1    1    3    3  502    0  0.24845942890E+03 -0.17333748125E+03  0.38732410944E+03  0.49172953541E+03  0.50400001928E-02 0.  1.
       -1    1    3    3    0  502 -0.24845942890E+03  0.17333748125E+03 -0.11921372074E+02  0.30318326035E+03  0.50400001928E-02 0. -1.
</event>
<event>
 5   0  0.2938783E-03  0.6999143E+03  0.7818609E-02  0.9717379E-01
        1   -1    0    0  501    0  0.00000000000E+00  0.00000000000E+00  0.87818685557E+03  0.87818685558E+03  0.50400001928E-02 0.  1.
       -1   -1    0    0    0  501  0.00000000000E+00  0.00000000000E+00 -0.13945778539E+03  0.13945778548E+03  0.50400001928E-02 0. -1.
    10030    2    1    2    0    0  0.00000000000E+00  0.00000000000E+00  0.73872907018E+03  0.10176446411E+04  0.69991426357E+03 0.  0.
        4    1    3    3  502    0 -0.32635434196E+03  0.10593219521E+03  0.46946173020E+03  0.58148492286E+03  0.12699999809E+01 0. -1.
       -4    1    3    3    0  502  0.32635434196E+03 -0.10593219521E+03  0.26926733998E+03  0.43615971820E+03  0.12699999809E+01 0.  1.
</event>
<event>
 5   0  0.5076796E-03  0.7071482E+03  0.7818609E-02  0.9705085E-01
       -2   -1    0    0    0  501  0.00000000000E+00  0.00000000000E+00  0.15166629416E+03  0.15166629418E+03  0.25500000920E-02 0.  1.
        2   -1    0    0  501    0  0.00000000000E+00  0.00000000000E+00 -0.82427435982E+03  0.82427435982E+03  0.25500000920E-02 0. -1.
    10030    2    1    2    0    0  0.00000000000E+00  0.00000000000E+00 -0.67260806566E+03  0.97594065400E+03  0.70714818117E+03 0.  0.
        5    1    3    3  502    0  0.99301608697E+02  0.75142010509E+02  0.12035401713E+03  0.17324638718E+03  0.46999998093E+01 0.  1.
       -5    1    3    3    0  502 -0.99301608697E+02 -0.75142010509E+02 -0.79296208280E+03  0.80269426682E+03  0.46999998093E+01 0. -1.
</event>
<event>
 5   0  0.2937617E-03  0.7003793E+03  0.7818609E-02  0.9716584E-01
       -1   -1    0    0    0  501  0.00000000000E+00  0.00000000000E+00  0.34716086712E+03  0.34716086716E+03  0.50400001928E-02 0.  1.
        1   -1    0    0  501    0  0.00000000000E+00  0.00000000000E+00 -0.35324483772E+03  0.35324483776E+03  0.50400001928E-02 0. -1.
    10030    2    1    2    0    0  0.00000000000E+00  0.00000000000E+00 -0.60839705985E+01  0.70040570491E+03  0.70037928066E+03 0.  0.
        3    1    3    3  502    0 -0.30096575440E+03  0.11874326136E+03 -0.13703370600E+03  0.35136675173E+03  0.10100000352E+00 0. -1.
       -3    1    3    3    0  502  0.30096575440E+03 -0.11874326136E+03  0.13094973540E+03  0.34903895319E+03  0.10100000352E+00 0.  1.
</event>
<event>
 5   0  0.3013140E-03  0.6987069E+03  0.7818609E-02  0.9719446E-01
       -1   -1    0    0    0  501  0.00000000000E+00  0.00000000000E+00  0.17236042514E+03  0.17236042521E+03  0.50400001928E-02 0. -1.
        1   -1    0    0  501    0  0.00000000000E+00  0.00000000000E+00 -0.70809665040E+03  0.70809665042E+03  0.50400001928E-02 0.  1.
    10030    2    1    2    0    0  0.00000000000E+00  0.00000000000E+00 -0.53573622526E+03  0.88045707563E+03  0.69870691922E+03 0.  0.
        2    1    3    3  502    0  0.12300825305E+02 -0.32712302247E+03 -0.42161898134E+03  0.53378211619E+03  0.25500000920E-02 0.  1.
       -2    1    3    3    0  502 -0.12300825305E+02  0.32712302247E+03 -0.11411724392E+03  0.34667495943E+03  0.25500000920E-02 0. -1.
</event>
<event>
 5   0  0.5113683E-03  0.7006457E+03  0.7818609E-02  0.9716129E-01
        2   -1    0    0  501    0  0.00000000000E+00  0.00000000000E+00  0.45309677732E+03  0.45309677733E+03  0.25500000920E-02 0. -1.
       -2   -1    0    0    0  501  0.00000000000E+00  0.00000000000E+00 -0.27086070976E+03  0.27086070978E+03  0.25500000920E-02 0.  1.
    10030    2    1    2    0    0  0.00000000000E+00  0.00000000000E+00  0.18223606756E+03  0.72395748711E+03  0.70064574417E+03 0.  0.
        3    1    3    3  502    0 -0.96757172679E+02 -0.31120677471E+03 -0.41666427575E+02  0.32855396585E+03  0.10100000352E+00 0. -1.
       -3    1    3    3    0  502  0.96757172679E+02  0.31120677471E+03  0.22390249514E+03  0.39540352125E+03  0.10100000352E+00 0.  1.
</event>
<event>
 5   0  0.2937617E-03  0.7018413E+03  0.7818609E-02  0.9714089E-01
       -1   -1    0    0    0  501  0.00000000000E+00  0.00000000000E+00  0.13422038228E+03  0.13422038238E+03  0.50400001928E-02 0. -1.
        1   -1    0    0  501    0  0.00000000000E+00  0.00000000000E+00 -0.91748577531E+03  0.91748577532E+03  0.50400001928E-02 0.  1.
    10030    2    1    2    0    0  0.00000000000E+00  0.00000000000E+00 -0.78326539303E+03  0.10517061577E+04  0.70184126855E+03 0.  0.
        3    1    3    3  502    0  0.11113363346E+02 -0.11369335598E+03 -0.88884342096E+03  0.89615418496E+03  0.10100000352E+00 0.  1.
       -3    1    3    3    0  502 -0.11113363346E+02  0.11369335598E+03  0.10557802794E+03  0.15555197274E+03  0.10100000352E+00 0. -1.
</event>
<event>
 5   0  0.2937617E-03  0.7008332E+03  0.7818609E-02  0.9715808E-01
       -1   -1    0    0    0  501  0.00000000000E+00  0.00000000000E+00  0.24410789227E+03  0.24410789233E+03  0.50400001928E-02 0. -1.
        1   -1    0    0  501    0  0.00000000000E+00  0.00000000000E+00 -0.50302265589E+03  0.50302265592E+03  0.50400001928E-02 0.  1.
    10030    2    1    2    0    0  0.00000000000E+00  0.00000000000E+00 -0.25891476362E+03  0.74713054824E+03  0.70083321932E+03 0.  0.
        3    1    3    3  502    0 -0.15392866730E+03 -0.29960067089E+03 -0.23246989780E+03  0.40926380270E+03  0.10100000352E+00 0.  1.
       -3    1    3    3    0  502  0.15392866730E+03  0.29960067089E+03 -0.26444865818E+02  0.33786674554E+03  0.10100000352E+00 0. -1.
</event>
<event>
 5   0  0.2913582E-03  0.6996952E+03  0.7818609E-02  0.9717754E-01
        1   -1    0    0  501    0  0.00000000000E+00  0.00000000000E+00  0.41752161352E+03  0.41752161355E+03  0.50400001928E-02 0. -1.
       -1   -1    0    0    0  501  0.00000000000E+00  0.00000000000E+00 -0.29314254683E+03  0.29314254688E+03  0.50400001928E-02 0.  1.
    10030    2    1    2    0    0  0.00000000000E+00  0.00000000000E+00  0.12437906669E+03  0.71066416043E+03  0.69969521700E+03 0.  0.
        1    1    3    3  502    0 -0.20232295169E+03 -0.89812327885E+02 -0.21296799729E+03  0.30717454145E+03  0.50400001928E-02 0.  1.
       -1    1    3    3    0  502  0.20232295169E+03  0.89812327885E+02  0.33734706398E+03  0.40348961898E+03  0.50400001928E-02 0. -1.
</event>
<event>
 5   0  0.1981750E-03  0.7010481E+03  0.7818609E-02  0.9715441E-01
        4   -1    0    0  501    0  0.00000000000E+00  0.00000000000E+00  0.89065802793E+02  0.89074856874E+02  0.12699999809E+01 0.  1.
       -4   -1    0    0    0  501  0.00000000000E+00  0.00000000000E+00 -0.13794300678E+04  0.13794306525E+04  0.12699999809E+01 0. -1.
    10030    2    1    2    0    0  0.00000000000E+00  0.00000000000E+00 -0.12903642650E+04  0.14685055093E+04  0.70104813989E+03 0.  0.
        4    1    3    3  502    0 -0.30926469855E+03  0.14207036556E+03 -0.46946364908E+03  0.57985030245E+03  0.12699999809E+01 0.  1.
       -4    1    3    3    0  502  0.30926469855E+03 -0.14207036556E+03 -0.82090061595E+03  0.88865520688E+03  0.12699999809E+01 0. -1.
</event>
<event>
 5   0  0.2938783E-03  0.7003011E+03  0.7818609E-02  0.9716717E-01
        1   -1    0    0  501    0  0.00000000000E+00  0.00000000000E+00  0.36284645009E+03  0.36284645013E+03  0.50400001928E-02 0.  1.
       -1   -1    0    0    0  501  0.00000000000E+00  0.00000000000E+00 -0.33789891741E+03  0.33789891744E+03  0.50400001928E-02 0. -1.
    10030    2    1    2    0    0  0.00000000000E+00  0.00000000000E+00  0.24947532683E+02  0.70074536757E+03  0.70030114293E+03 0.  0.
        4    1    3    3  502    0 -0.26751051707E+03 -0.18802728147E+03 -0.11285613126E+03  0.34591076101E+03  0.12699999809E+01 0. -1.
       -4    1    3    3    0  502  0.26751051707E+03  0.18802728147E+03  0.13780366395E+03  0.35483460656E+03  0.12699999809E+01 0.  1.
</event>
<event>
 5   0  0.3013140E-03  0.6996946E+03  0.7818609E-02  0.9717755E-01
       -1   -1    0    0    0  501  0.00000000000E+00  0.00000000000E+00  0.57020727444E+03  0.57020727447E+03  0.50400001928E-02 0.  1.
        1   -1    0    0  501    0  0.00000000000E+00  0.00000000000E+00 -0.21464673932E+03  0.21464673938E+03  0.50400001928E-02 0. -1.
    10030    2    1    2    0    0  0.00000000000E+00  0.00000000000E+00  0.35556053512E+03  0.78485401385E+03  0.69969459689E+03 0.  0.
        2    1    3    3  502    0 -0.19301383449E+03  0.12956010872E+02  0.50475602813E+03  0.54055605303E+03  0.25500000920E-02 0.  1.
       -2    1    3    3    0  502  0.19301383449E+03 -0.12956010872E+02 -0.14919549301E+03  0.24429796082E+03  0.25500000920E-02 0. -1.
</event>
<event>
 5   0  0.5113683E-03  0.7012791E+03  0.7818609E-02  0.9715047E-01
        2   -1    0    0  501    0  0.00000000000E+00  0.00000000000E+00  0.10487633049E+04  0.10487633049E+04  0.25500000920E-02 0. -1.
       -2   -1    0    0    0  501  0.00000000000E+00  0.00000000000E+00 -0.11723151411E+03  0.11723151414E+03  0.25500000920E-02 0.  1.
    10030    2    1    2    0    0  0.00000000000E+00  0.00000000000E+00  0.93153179077E+03  0.11659948190E+04  0.70127914612E+03 0.  0.
        3    1    3    3  502    0 -0.18570354402E+03 -0.85923262439E+02  0.93920180049E+03  0.96123287788E+03  0.10100000352E+00 0. -1.
       -3    1    3    3    0  502  0.18570354402E+03  0.85923262439E+02 -0.76700097210E+01  0.20476194114E+03  0.10100000352E+00 0.  1.
</event>
<event>
 5   0  0.4878235E-03  0.7094125E+03  0.7818609E-02  0.9701270E-01
       -2   -1    0    0    0  501  0.00000000000E+00  0.00000000000E+00  0.36130115188E+03  0.36130115189E+03  0.25500000920E-02 0.  1.
        2   -1    0    0  501    0  0.00000000000E+00  0.00000000000E+00 -0.34823175225E+03  0.34823175226E+03  0.25500000920E-02 0. -1.
    10030    2    1    2    0    0  0.00000000000E+00  0.00000000000E+00  0.13069399629E+02  0.70953290415E+03  0.70941252658E+03 0.  0.
        4    1    3    3  502    0 -0.14790693589E+03  0.54607197090E+02  0.32432516134E+03  0.36062006438E+03  0.12699999809E+01 0.  1.
       -4    1    3    3    0  502  0.14790693589E+03 -0.54607197090E+02 -0.31125576171E+03  0.34891283977E+03  0.12699999809E+01 0. -1.
</event>
<event>
 5   0  0.4878235E-03  0.6997482E+03  0.7818609E-02  0.9717663E-01
       -2   -1    0    0    0  501  0.00000000000E+00  0.00000000000E+00  0.71735574862E+02  0.71735574907E+02  0.25500000920E-02 0. -1.
        2   -1    0    0  501    0  0.00000000000E+00  0.00000000000E+00 -0.17064319913E+04  0.17064319913E+04  0.25500000920E-02 0.  1.
    10030    2    1    2    0    0  0.00000000000E+00  0.00000000000E+00 -0.16346964165E+04  0.17781675663E+04  0.69974818300E+03 0.  0.
        4    1    3    3  502    0 -0.23430832573E+03 -0.78669840395E+02 -0.14466156725E+04  0.14675789083E+04  0.12699999809E+01 0.  1.
       -4    1    3    3    0  502  0.23430832573E+03  0.78669840395E+02 -0.18808074401E+03  0.31058865798E+03  0.12699999809E+01 0. -1.
</event>
<event>
 5   0  0.2934483E-03  0.6961367E+03  0.7818609E-02  0.9723862E-01
        1   -1    0    0  501    0  0.00000000000E+00  0.00000000000E+00  0.10064126838E+03  0.10064126851E+03  0.50400001928E-02 0.  1.
       -1   -1    0    0    0  501  0.00000000000E+00  0.00000000000E+00 -0.12037960867E+04  0.12037960867E+04  0.50400001928E-02 0. -1.
    10030    2    1    2    0    0  0.00000000000E+00  0.00000000000E+00 -0.11031548183E+04  0.13044373552E+04  0.69613666797E+03 0.  0.
        5    1    3    3  502    0  0.12714723888E+03 -0.12698265360E+03 -0.11100851913E+04  0.11245453466E+04  0.46999998093E+01 0. -1.
       -5    1    3    3    0  502 -0.12714723888E+03  0.12698265360E+03  0.69303730336E+01  0.17989200854E+03  0.46999998093E+01 0.  1.
</event>
<event>
 5   0  0.2937617E-03  0.7004431E+03  0.7818609E-02  0.9716475E-01
        1   -1    0    0  501    0  0.00000000000E+00  0.00000000000E+00  0.25333068294E+03  0.25333068299E+03  0.50400001928E-02 0. -1.
       -1   -1    0    0    0  501  0.00000000000E+00  0.00000000000E+00 -0.48416999964E+03  0.48416999966E+03  0.50400001928E-02 0.  1.
    10030    2    1    2    0    0  0.00000000000E+00  0.00000000000E+00 -0.23083931670E+03  0.73750068265E+03  0.70044305034E+03 0.  0.
        3    1    3    3  502    0  0.26036616417E+02  0.31643162649E+03 -0.27105122678E+03  0.41746336052E+03  0.10100000352E+00 0.  1.
       -3    1    3    3    0  502 -0.26036616417E+02 -0.31643162649E+03  0.40211910087E+02  0.32003732212E+03  0.10100000352E+00 0. -1.
</event>
<event>
 5   0  0.4878235E-03  0.7007591E+03  0.7818609E-02  0.9715935E-01
       -2   -1    0    0    0  501  0.00000000000E+00  0.00000000000E+00  0.17157666732E+03  0.17157666734E+03  0.25500000920E-02 0. -1.
        2   -1    0    0  501    0  0.00000000000E+00  0.00000000000E+00 -0.71551583773E+03  0.71551583774E+03  0.25500000920E-02 0.  1.
    10030    2    1    2    0    0  0.00000000000E+00  0.00000000000E+00 -0.54393917041E+03  0.88709250508E+03  0.70075908232E+03 0.  0.
        4    1    3    3  502    0 -0.30199393829E+03 -0.38728561588E+02 -0.52475239323E+02  0.30895874140E+03  0.12699999809E+01 0. -1.
       -4    1    3    3    0  502  0.30199393829E+03  0.38728561588E+02 -0.49146393109E+03  0.57813376368E+03  0.12699999809E+01 0.  1.
</event>
<event>
 5   0  0.1981750E-03  0.7019743E+03  0.7818609E-02  0.9713862E-01
       -3   -1    0    0    0  501  0.00000000000E+00  0.00000000000E+00  0.29795365318E+03  0.29795367030E+03  0.10100000352E+00 0. -1.
        3   -1    0    0  501    0  0.00000000000E+00  0.00000000000E+00 -0.41346022034E+03  0.41346023267E+03  0.10100000352E+00 0.  1.
    10030    2    1    2    0    0  0.00000000000E+00  0.00000000000E+00 -0.11550656716E+03  0.71141390297E+03  0.70197434019E+03 0.  0.
        3    1    3    3  502    0  0.59898728040E+02 -0.34583563444E+03 -0.59127879390E+02  0.35593013358E+03  0.10100000352E+00 0.  1.
       -3    1    3    3    0  502 -0.59898728040E+02  0.34583563444E+03 -0.56378687767E+02  0.35548376939E+03  0.10100000352E+00 0. -1.
</event>
<event>
 5   0  0.5076796E-03  0.6948198E+03  0.7818609E-02  0.9726132E-01
       -2   -1    0    0    0  501  0.00000000000E+00  0.00000000000E+00  0.36209944465E+03  0.36209944466E+03  0.25500000920E-02 0. -1.
        2   -1    0    0  501    0  0.00000000000E+00  0.00000000000E+00 -0.33331626025E+03  0.33331626026E+03  0.25500000920E-02 0.  1.
    10030    2    1    2    0    0  0.00000000000E+00  0.00000000000E+00  0.28783184401E+02  0.69541570492E+03  0.69481978307E+03 0.  0.
        5    1    3    3  502    0  0.22433919198E+03 -0.11412940693E+03  0.25400859783E+03  0.35762557564E+03  0.46999998093E+01 0. -1.
       -5    1    3    3    0  502 -0.22433919198E+03  0.11412940693E+03 -0.22522541343E+03  0.33779012928E+03  0.46999998093E+01 0.  1.
</event>
<event>
 5   0  0.2934483E-03  0.7006283E+03  0.7818609E-02  0.9716158E-01
       -1   -1    0    0    0  501  0.00000000000E+00  0.00000000000E+00  0.77093493171E+03  0.77093493172E+03  0.50400001928E-02 0. -1.
        1   -1    0    0  501    0  0.00000000000E+00  0.00000000000E+00 -0.15918334564E+03  0.15918334572E+03  0.50400001928E-02 0.  1.
    10030    2    1    2    0    0  0.00000000000E+00  0.00000000000E+00  0.61175158606E+03  0.93011827745E+03  0.70062829446E+03 0.  0.
        5    1    3    3  502    0 -0.20427469147E+02 -0.33711373387E+03  0.42923759058E+03  0.54619588997E+03  0.46999998093E+01 0. -1.
       -5    1    3    3    0  502  0.20427469147E+02  0.33711373387E+03  0.18251399549E+03  0.38392238748E+03  0.46999998093E+01 0.  1.
</event>
<event>
 5   0  0.2937617E-03  0.7002537E+03  0.7818609E-02  0.9716798E-01
        1   -1    0    0  501    0  0.00000000000E+00  0.00000000000E+00  0.11867995513E+04  0.11867995513E+04  0.50400001928E-02 0.  1.
       -1   -1    0    0    0  501  0.00000000000E+00  0.00000000000E+00 -0.10329362460E+03  0.10329362472E+03  0.50400001928E-02 0. -1.
    10030    2    1    2    0    0  0.00000000000E+00  0.00000000000E+00  0.10835059267E+04  0.12900931761E+04  0.70025374663E+03 0.  0.
        3    1    3    3  502    0 -0.57141092665E+02 -0.22266035384E+03  0.10283007905E+04  0.10536817658E+04  0.10100000352E+00 0.  1.
       -3    1    3    3    0  502  0.57141092665E+02  0.22266035384E+03  0.55205136258E+02  0.23641141029E+03  0.10100000352E+00 0. -1.
</event>
<event>
 5   0  0.5023894E-03  0.7003475E+03  0.7818609E-02  0.9716638E-01
        2   -1    0    0  501    0  0.00000000000E+00  0.00000000000E+00  0.13784897324E+03  0.13784897327E+03  0.25500000920E-02 0. -1.
       -2   -1    0    0    0  501  0.00000000000E+00  0.00000000000E+00 -0.88953618563E+03  0.88953618563E+03  0.25500000920E-02 0.  1.
    10030    2    1    2    0    0  0.00000000000E+00  0.00000000000E+00 -0.75168721238E+03  0.10273851589E+04  0.70034748480E+03 0.  0.
        2    1    3    3  502    0  0.18174963327E+03 -0.10017728141E+02  0.62993157050E+02  0.19261729391E+03  0.25500000920E-02 0. -1.
       -2    1    3    3    0  502 -0.18174963327E+03  0.10017728141E+02 -0.81468036943E+03  0.83476786499E+03  0.25500000920E-02 0.  1.
</event>
<event>
 5   0  0.5076796E-03  0.6989102E+03  0.7818609E-02  0.9719098E-01
        2   -1    0    0  501    0  0.00000000000E+00  0.00000000000E+00  0.45351949870E+03  0.45351949870E+03  0.25500000920E-02 0. -1.
       -2   -1    0    0    0  501  0.00000000000E+00  0.00000000000E+00 -0.26926927681E+03  0.26926927682E+03  0.25500000920E-02 0.  1.
    10030    2    1    2    0    0  0.00000000000E+00  0.00000000000E+00  0.18425022189E+03  0.72278877553E+03  0.69891020150E+03 0.  0.
        5    1    3    3  502    0 -0.10866269239E+03 -0.15316317200E+03  0.39686234361E+03  0.43907669916E+03  0.46999998093E+01 0. -1.
       -5    1    3    3    0  502  0.10866269239E+03  0.15316317200E+03 -0.21261212172E+03  0.28371207636E+03  0.46999998093E+01 0.  1.
</event>
<event>
 5   0  0.5072407E-03  0.6994830E+03  0.7818609E-02  0.9718117E-01
        2   -1    0    0  501    0  0.00000000000E+00  0.00000000000E+00  0.14753631933E+04  0.14753631933E+04  0.25500000920E-02 0.  1.
       -2   -1    0    0    0  501  0.00000000000E+00  0.00000000000E+00 -0.82907806827E+02  0.82907806866E+02  0.25500000920E-02 0. -1.
    10030    2    1    2    0    0  0.00000000000E+00  0.00000000000E+00  0.13924553864E+04  0.15582710001E+04  0.69948302812E+03 0.  0.
        1    1    3    3  502    0 -0.46205097623E+02  0.33914179621E+03  0.85636313436E+03  0.92223092927E+03  0.50400001928E-02 0.  1.
       -1    1    3    3    0  502  0.46205097623E+02 -0.33914179621E+03  0.53609225207E+03  0.63604007086E+03  0.50400001928E-02 0. -1.
</event>
<event>
 5   0  0.4878235E-03  0.7020576E+03  0.7818609E-02  0.9713720E-01
       -2   -1    0    0    0  501  0.00000000000E+00  0.00000000000E+00  0.18857424659E+03  0.18857424661E+03  0.25500000920E-02 0. -1.
        2   -1    0    0  501    0  0.00000000000E+00  0.00000000000E+00 -0.65343605596E+03  0.65343605597E+03  0.25500000920E-02 0.  1.
    10030    2    1    2    0    0  0.00000000000E+00  0.00000000000E+00 -0.46486180937E+03  0.84201030258E+03  0.70205758156E+03 0.  0.
        4    1    3    3  502    0  0.20448673497E+03  0.22501367622E+03 -0.44282520173E+03  0.53716082457E+03  0.12699999809E+01 0.  1.
       -4    1    3    3    0  502 -0.20448673497E+03 -0.22501367622E+03 -0.22036607642E+02  0.30484947801E+03  0.12699999809E+01 0. -1.
</event>
<event>
 5   0  0.5076796E-03  0.6974301E+03  0.7818609E-02  0.9721637E-01
        2   -1    0    0  501    0  0.00000000000E+00  0.00000000000E+00  0.12672101929E+04  0.12672101929E+04  0.25500000920E-02 0. -1.
       -2   -1    0    0    0  501  0.00000000000E+00  0.00000000000E+00 -0.95960561843E+02  0.95960561877E+02  0.25500000920E-02 0.  1.
    10030    2    1    2    0    0  0.00000000000E+00  0.00000000000E+00  0.11712496310E+04  0.13631707548E+04  0.69743014592E+03 0.  0.
        5    1    3    3  502    0 -0.63879632339E+02 -0.10721645985E+03  0.12219966487E+04  0.12283622740E+04  0.46999998093E+01 0. -1.
       -5    1    3    3    0  502  0.63879632339E+02  0.10721645985E+03 -0.50747017668E+02  0.13480848078E+03  0.46999998093E+01 0.  1.
</event>
<event>
 5   0  0.5113683E-03  0.6986596E+03  0.7818609E-02  0.9719527E-01
       -2   -1    0    0    0  501  0.00000000000E+00  0.00000000000E+00  0.22130767299E+03  0.22130767300E+03  0.25500000920E-02 0. -1.
        2   -1    0    0  501    0  0.00000000000E+00  0.00000000000E+00 -0.55141016473E+03  0.55141016473E+03  0.25500000920E-02 0.  1.
    10030    2    1    2    0    0  0.00000000000E+00  0.00000000000E+00 -0.33010249174E+03  0.77271783774E+03  0.69865957498E+03 0.  0.
        3    1    3    3  502    0 -0.31889707528E+03  0.90757744614E+02 -0.28670615960E+03  0.43832949363E+03  0.10100000352E+00 0.  1.
       -3    1    3    3    0  502  0.31889707528E+03 -0.90757744614E+02 -0.43396332137E+02  0.33438834411E+03  0.10100000352E+00 0. -1.
</event>
<event>
 5   0  0.3013140E-03  0.7009876E+03  0.7818609E-02  0.9715545E-01
        1   -1    0    0  501    0  0.00000000000E+00  0.00000000000E+00  0.41307877325E+03  0.41307877328E+03  0.50400001928E-02 0.  1.
       -1   -1    0    0    0  501  0.00000000000E+00  0.00000000000E+00 -0.29739101509E+03  0.29739101514E+03  0.50400001928E-02 0. -1.
    10030    2    1    2    0    0  0.00000000000E+00  0.00000000000E+00  0.11568775815E+03  0.71046978841E+03  0.70098763389E+03 0.  0.
        2    1    3    3  502    0  0.24170264124E+03 -0.21751961345E+03 -0.74734446965E+02  0.33364679916E+03  0.25500000920E-02 0.  1.
       -2    1    3    3    0  502 -0.24170264124E+03  0.21751961345E+03  0.19042220512E+03  0.37682298925E+03  0.25500000920E-02 0. -1.
</event>
<event>
 5   0  0.5076796E-03  0.6999138E+03  0.7818609E-02  0.9717380E-01
       -2   -1    0    0    0  501  0.00000000000E+00  0.00000000000E+00  0.19996670981E+03  0.19996670982E+03  0.25500000920E-02 0.  1.
        2   -1    0    0  501    0  0.00000000000E+00  0.00000000000E+00 -0.61245101482E+03  0.61245101483E+03  0.25500000920E-02 0. -1.
    10030    2    1    2    0    0  0.00000000000E+00  0.00000000000E+00 -0.41248430501E+03  0.81241772465E+03  0.69991375001E+03 0.  0.
        5    1    3    3  502    0 -0.27705336592E+03  0.18538030537E+03 -0.82726682431E+02  0.34349704390E+03  0.46999998093E+01 0.  1.
       -5    1    3    3    0  502  0.27705336592E+03 -0.18538030537E+03 -0.32975762258E+03  0.46892068075E+03  0.46999998093E+01 0. -1.
</event>
<event>
 5   0  0.2934483E-03  0.7005060E+03  0.7818609E-02  0.9716367E-01
       -1   -1    0    0    0  501  0.00000000000E+00  0.00000000000E+00  0.10274085007E+03  0.10274085019E+03  0.50400001928E-02 0.  1.
        1   -1    0    0  501    0  0.00000000000E+00  0.00000000000E+00 -0.11940446911E+04  0.11940446911E+04  0.50400001928E-02 0. -1.
    10030    2    1    2    0    0  0.00000000000E+00  0.00000000000E+00 -0.10913038410E+04  0.12967855413E+04  0.70050600758E+03 0.  0.
        5    1    3    3  502    0 -0.30081595193E+02 -0.13321023677E+03  0.51361146896E+02  0.14597920043E+03  0.46999998093E+01 0.  1.
       -5    1    3    3    0  502  0.30081595193E+02  0.13321023677E+03 -0.11426649879E+04  0.11508063408E+04  0.46999998093E+01 0. -1.
</event>
<event>
 5   0  0.2934483E-03  0.6993900E+03  0.7818609E-02  0.9718276E-01
        1   -1    0    0  501    0  0.00000000000E+00  0.00000000000E+00  0.27915418628E+03  0.27915418633E+03  0.50400001928E-02 0. -1.
       -1   -1    0    0    0  501  0.00000000000E+00  0.00000000000E+00 -0.43806117006E+03  0.43806117009E+03  0.50400001928E-02 0.  1.
    10030    2    1    2    0    0  0.00000000000E+00  0.00000000000E+00 -0.15890698378E+03  0.71721535642E+03  0.69939004710E+03 0.  0.
        5    1    3    3  502    0 -0.33039105276E+03  0.10421575901E+03 -0.12804628886E+03  0.36937394908E+03  0.46999998093E+01 0.  1.
       -5    1    3    3    0  502  0.33039105276E+03 -0.10421575901E+03 -0.30860694916E+02  0.34784140734E+03  0.46999998093E+01 0. -1.
</event>
<event>
 5   0  0.2934483E-03  0.7000490E+03  0.7818609E-02  0.9717148E-01
        1   -1    0    0  501    0  0.00000000000E+00  0.00000000000E+00  0.77276609690E+03  0.77276609692E+03  0.50400001928E-02 0. -1.
       -1   -1    0    0    0  501  0.00000000000E+00  0.00000000000E+00 -0.15854366276E+03  0.15854366284E+03  0.50400001928E-02 0.  1.
    10030    2    1    2    0    0  0.00000000000E+00  0.00000000000E+00  0.61422243414E+03  0.93130975976E+03  0.70004904830E+03 0.  0.
        5    1    3    3  502    0  0.92345968871E+02 -0.33161461298E+03  0.39123988128E+03  0.52113987010E+03  0.46999998093E+01 0. -1.
       -5    1    3    3    0  502 -0.92345968871E+02  0.33161461298E+03  0.22298255286E+03  0.41016988966E+03  0.46999998093E+01 0.  1.
</event>
<event>
 5   0  0.2938783E-03  0.6999689E+03  0.7818609E-02  0.9717285E-01
       -1   -1    0    0    0  501  0.00000000000E+00  0.00000000000E+00  0.22242172537E+03  0.22242172543E+03  0.50400001928E-02 0.  1.
        1   -1    0    0  501    0  0.00000000000E+00  0.00000000000E+00 -0.55070661025E+03  0.55070661027E+03  0.50400001928E-02 0. -1.
    10030    2    1    2    0    0  0.00000000000E+00  0.00000000000E+00 -0.32828488488E+03  0.77312833571E+03  0.69996889776E+03 0.  0.
        4    1    3    3  502    0  0.16078672758E+03  0.28833378236E+01  0.17919540703E+03  0.24077643614E+03  0.12699999809E+01 0.  1.
       -4    1    3    3    0  502 -0.16078672758E+03 -0.28833378236E+01 -0.50748029190E+03  0.53235189956E+03  0.12699999809E+01 0. -1.
</event>
<event>
 5   0  0.5113683E-03  0.6998231E+03  0.7818609E-02  0.9717535E-01
        2   -1    0    0  501    0  0.00000000000E+00  0.00000000000E+00  0.10916524324E+04  0.10916524324E+04  0.25500000920E-02 0. -1.
       -2   -1    0    0    0  501  0.00000000000E+00  0.00000000000E+00 -0.11215849977E+03  0.11215849980E+03  0.25500000920E-02 0.  1.
    10030    2    1    2    0    0  0.00000000000E+00  0.00000000000E+00  0.97949393263E+03  0.12038109322E+04  0.69982311795E+03 0.  0.
        3    1    3    3  502    0  0.14380483005E+03 -0.16165367441E+03  0.16697489752E+02  0.21700358513E+03  0.10100000352E+00 0.  1.
       -3    1    3    3    0  502 -0.14380483005E+03  0.16165367441E+03  0.96279644287E+03  0.98680734706E+03  0.10100000352E+00 0. -1.
</event>
<event>
 5   0  0.1981750E-03  0.6966573E+03  0.7818609E-02  0.9722966E-01
        4   -1    0    0  501    0  0.00000000000E+00  0.00000000000E+00  0.25919436019E+03  0.25919747155E+03  0.12699999809E+01 0. -1.
       -4   -1    0    0    0  501  0.00000000000E+00  0.00000000000E+00 -0.46810852411E+03  0.46811024689E+03  0.12699999809E+01 0.  1.
    10030    2    1    2    0    0  0.00000000000E+00  0.00000000000E+00 -0.20891416391E+03  0.72730771843E+03  0.69665729696E+03 0.  0.
        4    1    3    3  502    0 -0.10659834398E+03 -0.54537126903E+02 -0.44594722204E+03  0.46174456456E+03  0.12699999809E+01 0.  1.
       -4    1    3    3    0  502  0.10659834398E+03  0.54537126903E+02  0.23703305813E+03  0.26556315388E+03  0.12699999809E+01 0. -1.
</event>
<event>
 5   0  0.2938783E-03  0.6997510E+03  0.7818609E-02  0.9717658E-01
       -1   -1    0    0    0  501  0.00000000000E+00  0.00000000000E+00  0.16193270311E+03  0.16193270318E+03  0.50400001928E-02 0. -1.
        1   -1    0    0  501    0  0.00000000000E+00  0.00000000000E+00 -0.75594894655E+03  0.75594894657E+03  0.50400001928E-02 0.  1.
    10030    2    1    2    0    0  0.00000000000E+00  0.00000000000E+00 -0.59401624345E+03  0.91788164975E+03  0.69975097390E+03 0.  0.
        4    1    3    3  502    0 -0.17231591297E+03 -0.30319017103E+03 -0.26004187761E+03  0.43501775215E+03  0.12699999809E+01 0. -1.
       -4    1    3    3    0  502  0.17231591297E+03  0.30319017103E+03 -0.33397436584E+03  0.48286389760E+03  0.12699999809E+01 0.  1.
</event>
<event>
 5   0  0.5023894E-03  0.6969051E+03  0.7818609E-02  0.9722540E-01
       -2   -1    0    0    0  501  0.00000000000E+00  0.00000000000E+00  0.10234629580E+04  0.10234629580E+04  0.25500000920E-02 0.  1.
        2   -1    0    0  501    0  0.00000000000E+00  0.00000000000E+00 -0.11863562671E+03  0.11863562674E+03  0.25500000920E-02 0. -1.
    10030    2    1    2    0    0  0.00000000000E+00  0.00000000000E+00  0.90482733131E+03  0.11420985848E+04  0.69690507090E+03 0.  0.
        2    1    3    3  502    0 -0.35768039855E+02 -0.27252968985E+03  0.80339333365E+03  0.84911285062E+03  0.25500000920E-02 0.  1.
       -2    1    3    3    0  502  0.35768039855E+02  0.27252968985E+03  0.10143399765E+03  0.29298573414E+03  0.25500000920E-02 0. -1.
</event>
<event>
 5   0  0.5023894E-03  0.6958161E+03  0.7818609E-02  0.9724414E-01
        2   -1    0    0  501    0  0.00000000000E+00  0.00000000000E+00  0.14659968551E+04  0.14659968551E+04  0.25500000920E-02 0. -1.
       -2   -1    0    0    0  501  0.00000000000E+00  0.00000000000E+00 -0.82564980948E+02  0.82564980988E+02  0.25500000920E-02 0.  1.
    10030    2    1    2    0    0  0.00000000000E+00  0.00000000000E+00  0.13834318741E+04  0.15485618361E+04  0.69581607467E+03 0.  0.
        2    1    3    3  502    0 -0.83700276136E+02 -0.23898861193E+03  0.16075616626E+03  0.29993972371E+03  0.25500000920E-02 0.  1.
       -2    1    3    3    0  502  0.83700276136E+02  0.23898861193E+03  0.12226757079E+04  0.12486221124E+04  0.25500000920E-02 0. -1.
</event>
<event>
 5   0  0.2938783E-03  0.7006116E+03  0.7818609E-02  0.9716187E-01
       -1   -1    0    0    0  501  0.00000000000E+00  0.00000000000E+00  0.21639143449E+03  0.21639143455E+03  0.50400001928E-02 0.  1.
        1   -1    0    0  501    0  0.00000000000E+00  0.00000000000E+00 -0.56709344189E+03  0.56709344192E+03  0.50400001928E-02 0. -1.
    10030    2    1    2    0    0  0.00000000000E+00  0.00000000000E+00 -0.35070200741E+03  0.78348487646E+03  0.70061162826E+03 0.  0.
        4    1    3    3  502    0 -0.33457069040E+03 -0.68872524079E+02 -0.88501210399E+02  0.35286689925E+03  0.12699999809E+01 0.  1.
       -4    1    3    3    0  502  0.33457069040E+03  0.68872524079E+02 -0.26220079701E+03  0.43061797721E+03  0.12699999809E+01 0. -1.
</event>
<event>
 5   0  0.5076796E-03  0.6996101E+03  0.7818609E-02  0.9717899E-01
       -2   -1    0    0    0  501  0.00000000000E+00  0.00000000000E+00  0.88493124479E+02  0.88493124515E+02  0.25500000920E-02 0.  1.
        2   -1    0    0  501    0  0.00000000000E+00  0.00000000000E+00 -0.13827467758E+04  0.13827467758E+04  0.25500000920E-02 0. -1.
    10030    2    1    2    0    0  0.00000000000E+00  0.00000000000E+00 -0.12942536514E+04  0.14712399004E+04  0.69961012739E+03 0.  0.
        5    1    3    3  502    0 -0.31427836520E+03  0.12621623878E+03 -0.83093967693E+03  0.89732060405E+03  0.46999998093E+01 0. -1.
       -5    1    3    3    0  502  0.31427836520E+03 -0.12621623878E+03 -0.46331397443E+03  0.57391929630E+03  0.46999998093E+01 0.  1.
</event>
<event>
 5   0  0.1981750E-03  0.7004983E+03  0.7818609E-02  0.9716380E-01
       -3   -1    0    0    0  501  0.00000000000E+00  0.00000000000E+00  0.90870840539E+02  0.90870896668E+02  0.10100000352E+00 0.  1.
        3   -1    0    0  501    0  0.00000000000E+00  0.00000000000E+00 -0.13499867114E+04  0.13499867152E+04  0.10100000352E+00 0. -1.
    10030    2    1    2    0    0  0.00000000000E+00  0.00000000000E+00 -0.12591158709E+04  0.14408576119E+04  0.70049830933E+03 0.  0.
        5    1    3    3  502    0 -0.17461708479E+03  0.23641994261E+03 -0.10212718331E+04  0.10627340978E+04  0.46999998093E+01 0. -1.
       -5    1    3    3    0  502  0.17461708479E+03 -0.23641994261E+03 -0.23784403775E+03  0.37812351402E+03  0.46999998093E+01 0.  1.
</event>
<event>
 5   0  0.2937617E-03  0.6995587E+03  0.7818609E-02  0.9717987E-01
       -1   -1    0    0    0  501  0.00000000000E+00  0.00000000000E+00  0.96692455270E+03  0.96692455271E+03  0.50400001928E-02 0.  1.
        1   -1    0    0  501    0  0.00000000000E+00  0.00000000000E+00 -0.12653065659E+03  0.12653065669E+03  0.50400001928E-02 0. -1.
    10030    2    1    2    0    0  0.00000000000E+00  0.00000000000E+00  0.84039389611E+03  0.10934552094E+04  0.69955871402E+03 0.  0.
        3    1    3    3  502    0  0.22040929418E+03 -0.13330956626E+03  0.50328614225E+02  0.26245890541E+03  0.10100000352E+00 0. -1.
       -3    1    3    3    0  502 -0.22040929418E+03  0.13330956626E+03  0.79006528188E+03  0.83099630399E+03  0.10100000352E+00 0.  1.
</event>
<event>
 5   0  0.4878235E-03  0.6996010E+03  0.7818609E-02  0.9717915E-01
        2   -1    0    0  501    0  0.00000000000E+00  0.00000000000E+00  0.14037190175E+04  0.14037190175E+04  0.25500000920E-02 0.  1.
       -2   -1    0    0    0  501  0.00000000000E+00  0.00000000000E+00 -0.87168710845E+02  0.87168710882E+02  0.25500000920E-02 0. -1.
    10030    2    1    2    0    0  0.00000000000E+00  0.00000000000E+00  0.13165503066E+04  0.14908877283E+04  0.69960096389E+03 0.  0.
        4    1    3    3  502    0 -0.12881114702E+02  0.13862379737E+03  0.13421287709E+04  0.13493308456E+04  0.12699999809E+01 0.  1.
       -4    1    3    3    0  502  0.12881114702E+02 -0.13862379737E+03 -0.25578464296E+02  0.14155688273E+03  0.12699999809E+01 0. -1.
</event>
<event>
 5   0  0.1981750E-03  0.6997991E+03  0.7818609E-02  0.9717576E-01
        3   -1    0    0  501    0  0.00000000000E+00  0.00000000000E+00  0.71012590163E+03  0.71012590881E+03  0.10100000352E+00 0. -1.
       -3   -1    0    0    0  501  0.00000000000E+00  0.00000000000E+00 -0.17240558672E+03  0.17240561630E+03  0.10100000352E+00 0.  1.
    10030    2    1    2    0    0  0.00000000000E+00  0.00000000000E+00  0.53772031491E+03  0.88253152512E+03  0.69979908242E+03 0.  0.
        2    1    3    3  502    0  0.23307242864E+03 -0.25562463498E+03  0.33514978321E+03  0.48165557009E+03  0.25500000920E-02 0.  1.
       -2    1    3    3    0  502 -0.23307242864E+03  0.25562463498E+03  0.20257053170E+03  0.40087595503E+03  0.25500000920E-02 0. -1.
</event>
<event>
 5   0  0.1981750E-03  0.6994067E+03  0.7818609E-02  0.9718247E-01
       -4   -1    0    0    0  501  0.00000000000E+00  0.00000000000E+00  0.28084736140E+03  0.28085023287E+03  0.12699999809E+01 0.  1.
        4   -1    0    0  501    0  0.00000000000E+00  0.00000000000E+00 -0.43543484001E+03  0.43543669207E+03  0.12699999809E+01 0. -1.
    10030    2    1    2    0    0  0.00000000000E+00  0.00000000000E+00 -0.15458747862E+03  0.71628692494E+03  0.69940665588E+03 0.  0.
        4    1    3    3  502    0 -0.15465294302E+03  0.94697289860E+02  0.22893070478E+03  0.29205477223E+03  0.12699999809E+01 0.  1.
       -4    1    3    3    0  502  0.15465294302E+03 -0.94697289860E+02 -0.38351818340E+03  0.42423215270E+03  0.12699999809E+01 0. -1.
</event>
<event>
 5   0  0.2913582E-03  0.6997742E+03  0.7818609E-02  0.9717618E-01
        1   -1    0    0  501    0  0.00000000000E+00  0.00000000000E+00  0.18289992026E+03  0.18289992033E+03  0.50400001928E-02 0.  1.
       -1   -1    0    0    0  501  0.00000000000E+00  0.00000000000E+00 -0.66933308748E+03  0.66933308750E+03  0.50400001928E-02 0. -1.
    10030    2    1    2    0    0  0.00000000000E+00  0.00000000000E+00 -0.48643316722E+03  0.85223300783E+03  0.69977415890E+03 0.  0.
        1    1    3    3  502    0  0.10702678674E+03  0.29504566585E+02 -0.64731361468E+03  0.65676492621E+03  0.50400001928E-02 0. -1.
       -1    1    3    3    0  502 -0.10702678674E+03 -0.29504566585E+02  0.16088044746E+03  0.19546808161E+03  0.50400001928E-02 0.  1.
</event>
<event>
 5   0  0.2913582E-03  0.6992679E+03  0.7818609E-02  0.9718485E-01
       -1   -1    0    0    0  501  0.00000000000E+00  0.00000000000E+00  0.20291332403E+03  0.20291332409E+03  0.50400001928E-02 0. -1.
        1   -1    0    0  501    0  0.00000000000E+00  0.00000000000E+00 -0.60244391516E+03  0.60244391518E+03  0.50400001928E-02 0.  1.
    10030    2    1    2    0    0  0.00000000000E+00  0.00000000000E+00 -0.39953059113E+03  0.80535723928E+03  0.69926789545E+03 0.  0.
        1    1    3    3  502    0 -0.21920972131E+03  0.11921454831E+03  0.82296442919E+02  0.26275029018E+03  0.50400001928E-02 0. -1.
       -1    1    3    3    0  502  0.21920972131E+03 -0.11921454831E+03 -0.48182703405E+03  0.54260694910E+03  0.50400001928E-02 0.  1.
</event>
<event>
 5   0  0.2937617E-03  0.6992896E+03  0.7818609E-02  0.9718448E-01
        1   -1    0    0  501    0  0.00000000000E+00  0.00000000000E+00  0.28807346651E+03  0.28807346656E+03  0.50400001928E-02 0.  1.
       -1   -1    0    0    0  501  0.00000000000E+00  0.00000000000E+00 -0.42437604183E+03  0.42437604186E+03  0.50400001928E-02 0. -1.
    10030    2    1    2    0    0  0.00000000000E+00  0.00000000000E+00 -0.13630257532E+03  0.71244950842E+03  0.69928957522E+03 0.  0.
        3    1    3    3  502    0  0.14774962958E+03  0.26242606912E+03 -0.24912885522E+03  0.39084855315E+03  0.10100000352E+00 0. -1.
       -3    1    3    3    0  502 -0.14774962958E+03 -0.26242606912E+03  0.11282627990E+03  0.32160095527E+03  0.10100000352E+00 0.  1.
</event>
<event>
 5   0  0.4878235E-03  0.6996027E+03  0.7818609E-02  0.9717912E-01
       -2   -1    0    0    0  501  0.00000000000E+00  0.00000000000E+00  0.25952432799E+03  0.25952432800E+03  0.25500000920E-02 0. -1.
        2   -1    0    0  501    0  0.00000000000E+00  0.00000000000E+00 -0.47148172488E+03  0.47148172489E+03  0.25500000920E-02 0.  1.
    10030    2    1    2    0    0  0.00000000000E+00  0.00000000000E+00 -0.21195739690E+03  0.73100605289E+03  0.69960268100E+03 0.  0.
        4    1    3    3  502    0  0.92142070912E+02  0.17422326535E+02 -0.45810059669E+03  0.46760182665E+03  0.12699999809E+01 0.  1.
       -4    1    3    3    0  502 -0.92142070912E+02 -0.17422326535E+02  0.24614319980E+03  0.26340422624E+03  0.12699999809E+01 0. -1.
</event>
<event>
 5   0  0.5072407E-03  0.6999304E+03  0.7818609E-02  0.9717351E-01
       -2   -1    0    0    0  501  0.00000000000E+00  0.00000000000E+00  0.10193867041E+03  0.10193867044E+03  0.25500000920E-02 0. -1.
        2   -1    0    0  501    0  0.00000000000E+00  0.00000000000E+00 -0.12014638410E+04  0.12014638410E+04  0.25500000920E-02 0.  1.
    10030    2    1    2    0    0  0.00000000000E+00  0.00000000000E+00 -0.10995251706E+04  0.13034025115E+04  0.69993035801E+03 0.  0.
        1    1    3    3  502    0 -0.28453307566E+03 -0.19860780179E+03 -0.46500749010E+03  0.58020349529E+03  0.50400001928E-02 0.  1.
       -1    1    3    3    0  502  0.28453307566E+03  0.19860780179E+03 -0.63451768050E+03  0.72319901616E+03  0.50400001928E-02 0. -1.
</event>
<event>
 5   0  0.1981750E-03  0.6983900E+03  0.7818609E-02  0.9719990E-01
        4   -1    0    0  501    0  0.00000000000E+00  0.00000000000E+00  0.11954456994E+03  0.11955131576E+03  0.12699999809E+01 0.  1.
       -4   -1    0    0    0  501  0.00000000000E+00  0.00000000000E+00 -0.10199780955E+04  0.10199788862E+04  0.12699999809E+01 0. -1.
    10030    2    1    2    0    0  0.00000000000E+00  0.00000000000E+00 -0.90043352558E+03  0.11395302019E+04  0.69838996781E+03 0.  0.
        4    1    3    3  502    0  0.31554156946E+03  0.14704166948E+03 -0.49483551902E+03  0.60502193217E+03  0.12699999809E+01 0.  1.
       -4    1    3    3    0  502 -0.31554156946E+03 -0.14704166948E+03 -0.40559800656E+03  0.53450826977E+03  0.12699999809E+01 0. -1.
</event>
<event>
 5   0  0.3013140E-03  0.6984078E+03  0.7818609E-02  0.9719959E-01
        1   -1    0    0  501    0  0.00000000000E+00  0.00000000000E+00  0.92342259545E+03  0.92342259547E+03  0.50400001928E-02 0.  1.
       -1   -1    0    0    0  501  0.00000000000E+00  0.00000000000E+00 -0.13205585310E+03  0.13205585319E+03  0.50400001928E-02 0. -1.
    10030    2    1    2    0    0  0.00000000000E+00  0.00000000000E+00  0.79136674236E+03  0.10554784487E+04  0.69840778538E+03 0.  0.
        2    1    3    3  502    0 -0.19304787641E+02  0.16433164212E+03 -0.69053722416E+02  0.17929300046E+03  0.25500000920E-02 0. -1.
       -2    1    3    3    0  502  0.19304787641E+02 -0.16433164212E+03  0.86042046477E+03  0.87618544820E+03  0.25500000920E-02 0.  1.
</event>
<event>
 5   0  0.1981750E-03  0.7095959E+03  0.7818609E-02  0.9700961E-01
        3   -1    0    0  501    0  0.00000000000E+00  0.00000000000E+00  0.11955080848E+03  0.11955085115E+03  0.10100000352E+00 0.  1.
       -3   -1    0    0    0  501  0.00000000000E+00  0.00000000000E+00 -0.10529545294E+04  0.10529545342E+04  0.10100000352E+00 0. -1.
    10030    2    1    2    0    0  0.00000000000E+00  0.00000000000E+00 -0.93340372089E+03  0.11725053854E+04  0.70959592201E+03 0.  0.
        3    1    3    3  502    0 -0.18181731084E+03  0.29849628276E+03 -0.56753646440E+03  0.66652472870E+03  0.10100000352E+00 0. -1.
       -3    1    3    3    0  502  0.18181731084E+03 -0.29849628276E+03 -0.36586725649E+03  0.50598065667E+03  0.10100000352E+00 0.  1.
</event>
<event>
 5   0  0.2934483E-03  0.6965185E+03  0.7818609E-02  0.9723205E-01
        1   -1    0    0  501    0  0.00000000000E+00  0.00000000000E+00  0.12171128896E+04  0.12171128897E+04  0.50400001928E-02 0.  1.
       -1   -1    0    0    0  501  0.00000000000E+00  0.00000000000E+00 -0.99649357820E+02  0.99649357947E+02  0.50400001928E-02 0. -1.
    10030    2    1    2    0    0  0.00000000000E+00  0.00000000000E+00  0.11174635318E+04  0.13167622476E+04  0.69651853655E+03 0.  0.
        5    1    3    3  502    0  0.29104078280E+03  0.33158943063E+00  0.92019440206E+03  0.96513453714E+03  0.46999998093E+01 0.  1.
       -5    1    3    3    0  502 -0.29104078280E+03 -0.33158943063E+00  0.19726912976E+03  0.35162771045E+03  0.46999998093E+01 0. -1.
</event>
<event>
 5   0  0.4878235E-03  0.6998474E+03  0.7818609E-02  0.9717493E-01
        2   -1    0    0  501    0  0.00000000000E+00  0.00000000000E+00  0.16345166949E+03  0.16345166951E+03  0.25500000920E-02 0. -1.
       -2   -1    0    0    0  501  0.00000000000E+00  0.00000000000E+00 -0.74913034688E+03  0.74913034688E+03  0.25500000920E-02 0.  1.
    10030    2    1    2    0    0  0.00000000000E+00  0.00000000000E+00 -0.58567867739E+03  0.91258201639E+03  0.69984742872E+03 0.  0.
        4    1    3    3  502    0 -0.21899113863E+02 -0.34860432029E+03 -0.26547300139E+03  0.43872778653E+03  0.12699999809E+01 0. -1.
       -4    1    3    3    0  502  0.21899113863E+02  0.34860432029E+03 -0.32020567600E+03  0.47385422986E+03  0.12699999809E+01 0.  1.
</event>
<event>
 5   0  0.2937617E-03  0.6997667E+03  0.7818609E-02  0.9717631E-01
       -1   -1    0    0    0  501  0.00000000000E+00  0.00000000000E+00  0.10231097646E+03  0.10231097659E+03  0.50400001928E-02 0.  1.
        1   -1    0    0  501    0  0.00000000000E+00  0.00000000000E+00 -0.11965319545E+04  0.11965319546E+04  0.50400001928E-02 0. -1.
    10030    2    1    2    0    0  0.00000000000E+00  0.00000000000E+00 -0.10942209781E+04  0.12988429311E+04  0.69976668319E+03 0.  0.
        3    1    3    3  502    0 -0.16402094796E+03 -0.19639888560E+03 -0.99002851009E+03  0.10225614185E+04  0.10100000352E+00 0. -1.
       -3    1    3    3    0  502  0.16402094796E+03  0.19639888560E+03 -0.10419246799E+03  0.27628151263E+03  0.10100000352E+00 0.  1.
</event>
<event>
 5   0  0.4878235E-03  0.6997877E+03  0.7818609E-02  0.9717595E-01
       -2   -1    0    0    0  501  0.00000000000E+00  0.00000000000E+00  0.80552435755E+03  0.80552435756E+03  0.25500000920E-02 0. -1.
        2   -1    0    0  501    0  0.00000000000E+00  0.00000000000E+00 -0.15198262927E+03  0.15198262929E+03  0.25500000920E-02 0.  1.
    10030    2    1    2    0    0  0.00000000000E+00  0.00000000000E+00  0.65354172828E+03  0.95750698685E+03  0.69978771013E+03 0.  0.
        4    1    3    3  502    0 -0.13618675292E+03  0.27873051904E+03  0.54818986719E+03  0.62988195506E+03  0.12699999809E+01 0.  1.
       -4    1    3    3    0  502  0.13618675292E+03 -0.27873051904E+03  0.10535186109E+03  0.32762503179E+03  0.12699999809E+01 0. -1.
</event>
<event>
 5   0  0.2913582E-03  0.6990369E+03  0.7818609E-02  0.9718881E-01
        1   -1    0    0  501    0  0.00000000000E+00  0.00000000000E+00  0.32699374949E+03  0.32699374953E+03  0.50400001928E-02 0.  1.
       -1   -1    0    0    0  501  0.00000000000E+00  0.00000000000E+00 -0.37359474277E+03  0.37359474280E+03  0.50400001928E-02 0. -1.
    10030    2    1    2    0    0  0.00000000000E+00  0.00000000000E+00 -0.46600993276E+02  0.70058849234E+03  0.69903689675E+03 0.  0.
        1    1    3    3  502    0 -0.22406618254E+03  0.21472539112E+03  0.13783727624E+03  0.33957585677E+03  0.50400001928E-02 0.  1.
       -1    1    3    3    0  502  0.22406618254E+03 -0.21472539112E+03 -0.18443826952E+03  0.36101263557E+03  0.50400001928E-02 0. -1.
</event>
<event>
 5   0  0.2913582E-03  0.7011328E+03  0.7818609E-02  0.9715297E-01
       -1   -1    0    0    0  501  0.00000000000E+00  0.00000000000E+00  0.85891212125E+02  0.85891212273E+02  0.50400001928E-02 0. -1.
        1   -1    0    0  501    0  0.00000000000E+00  0.00000000000E+00 -0.14308427384E+04  0.14308427384E+04  0.50400001928E-02 0.  1.
    10030    2    1    2    0    0  0.00000000000E+00  0.00000000000E+00 -0.13449515263E+04  0.15167339507E+04  0.70113284699E+03 0.  0.
        1    1    3    3  502    0 -0.78655656151E+02 -0.32930733382E+03 -0.47578796736E+03  0.58395566806E+03  0.50400001928E-02 0.  1.
       -1    1    3    3    0  502  0.78655656151E+02  0.32930733382E+03 -0.86916355895E+03  0.93277828265E+03  0.50400001928E-02 0. -1.
</event>
<event>
 5   0  0.4878235E-03  0.6984094E+03  0.7818609E-02  0.9719956E-01
       -2   -1    0    0    0  501  0.00000000000E+00  0.00000000000E+00  0.98817152177E+02  0.98817152210E+02  0.25500000920E-02 0. -1.
        2   -1    0    0  501    0  0.00000000000E+00  0.00000000000E+00 -0.12340359045E+04  0.12340359045E+04  0.25500000920E-02 0.  1.
    10030    2    1    2    0    0  0.00000000000E+00  0.00000000000E+00 -0.11352187524E+04  0.13328530568E+04  0.69840937506E+03 0.  0.
        4    1    3    3  502    0 -0.91684987648E+02 -0.98568300281E+02 -0.11825223752E+04  0.11901607570E+04  0.12699999809E+01 0.  1.
       -4    1    3    3    0  502  0.91684987648E+02  0.98568300281E+02  0.47303622816E+02  0.14269229976E+03  0.12699999809E+01 0. -1.
</event>
<event>
 5   0  0.5072407E-03  0.6985605E+03  0.7818609E-02  0.9719697E-01
        2   -1    0    0  501    0  0.00000000000E+00  0.00000000000E+00  0.50998458311E+03  0.50998458312E+03  0.25500000920E-02 0.  1.
       -2   -1    0    0    0  501  0.00000000000E+00  0.00000000000E+00 -0.23921643216E+03  0.23921643217E+03  0.25500000920E-02 0. -1.
    10030    2    1    2    0    0  0.00000000000E+00  0.00000000000E+00  0.27076815095E+03  0.74920101529E+03  0.69856049827E+03 0.  0.
        1    1    3    3  502    0  0.32170204805E+03 -0.47568205399E+02 -0.12977439164E+01  0.32520243857E+03  0.50400001928E-02 0. -1.
       -1    1    3    3    0  502 -0.32170204805E+03  0.47568205399E+02  0.27206589487E+03  0.42399857672E+03  0.50400001928E-02 0.  1.
</event>
<event>
 5   0  0.4878235E-03  0.7007847E+03  0.7818609E-02  0.9715891E-01
        2   -1    0    0  501    0  0.00000000000E+00  0.00000000000E+00  0.15883538776E+04  0.15883538776E+04  0.25500000920E-02 0. -1.
       -2   -1    0    0    0  501  0.00000000000E+00  0.00000000000E+00 -0.77296885615E+02  0.77296885657E+02  0.25500000920E-02 0.  1.
    10030    2    1    2    0    0  0.00000000000E+00  0.00000000000E+00  0.15110569920E+04  0.16656507632E+04  0.70078472594E+03 0.  0.
        4    1    3    3  502    0  0.29917164385E+03 -0.16582293043E+03  0.57494712137E+03  0.66900427653E+03  0.12699999809E+01 0.  1.
       -4    1    3    3    0  502 -0.29917164385E+03  0.16582293043E+03  0.93610987059E+03  0.99664648670E+03  0.12699999809E+01 0. -1.
</event>
<event>
 5   0  0.4878235E-03  0.7035544E+03  0.7818609E-02  0.9711173E-01
        2   -1    0    0  501    0  0.00000000000E+00  0.00000000000E+00  0.18432798645E+04  0.18432798645E+04  0.25500000920E-02 0. -1.
       -2   -1    0    0    0  501  0.00000000000E+00  0.00000000000E+00 -0.67134238743E+02  0.67134238791E+02  0.25500000920E-02 0.  1.
    10030    2    1    2    0    0  0.00000000000E+00  0.00000000000E+00  0.17761456257E+04  0.19104141033E+04  0.70355437754E+03 0.  0.
        4    1    3    3  502    0  0.13696307735E+03  0.10142559192E+03  0.52462509834E+02  0.17832544151E+03  0.12699999809E+01 0.  1.
       -4    1    3    3    0  502 -0.13696307735E+03 -0.10142559192E+03  0.17236831159E+04  0.17320886618E+04  0.12699999809E+01 0. -1.
</event>
<event>
 5   0  0.2913582E-03  0.6980706E+03  0.7818609E-02  0.9720537E-01
       -1   -1    0    0    0  501  0.00000000000E+00  0.00000000000E+00  0.13989882133E+03  0.13989882142E+03  0.50400001928E-02 0.  1.
        1   -1    0    0  501    0  0.00000000000E+00  0.00000000000E+00 -0.87081255366E+03  0.87081255368E+03  0.50400001928E-02 0. -1.
    10030    2    1    2    0    0  0.00000000000E+00  0.00000000000E+00 -0.73091373234E+03  0.10107113751E+04  0.69807062653E+03 0.  0.
        1    1    3    3  502    0 -0.17022331633E+03 -0.78293935755E+02  0.60913245373E+02  0.19701863182E+03  0.50400001928E-02 0.  1.
       -1    1    3    3    0  502  0.17022331633E+03  0.78293935755E+02 -0.79182697771E+03  0.81369274327E+03  0.50400001928E-02 0. -1.
</event>
<event>
 5   0  0.2937617E-03  0.7012988E+03  0.7818609E-02  0.9715014E-01
        1   -1    0    0  501    0  0.00000000000E+00  0.00000000000E+00  0.91953901102E+03  0.91953901103E+03  0.50400001928E-02 0.  1.
       -1   -1    0    0    0  501  0.00000000000E+00  0.00000000000E+00 -0.13371375663E+03  0.13371375672E+03  0.50400001928E-02 0. -1.
    10030    2    1    2    0    0  0.00000000000E+00  0.00000000000E+00  0.78582525439E+03  0.10532527678E+04  0.70129883954E+03 0.  0.
        3    1    3    3  502    0  0.34312447777E+03 -0.72252129151E+02  0.39362971374E+03  0.52716139763E+03  0.10100000352E+00 0.  1.
       -3    1    3    3    0  502 -0.34312447777E+03  0.72252129151E+02  0.39219554065E+03  0.52609137012E+03  0.10100000352E+00 0. -1.
</event>
<event>
 5   0  0.5023894E-03  0.7014410E+03  0.7818609E-02  0.9714771E-01
       -2   -1    0    0    0  501  0.00000000000E+00  0.00000000000E+00  0.81954757868E+03  0.81954757868E+03  0.25500000920E-02 0. -1.
        2   -1    0    0  501    0  0.00000000000E+00  0.00000000000E+00 -0.15008875579E+03  0.15008875582E+03  0.25500000920E-02 0.  1.
    10030    2    1    2    0    0  0.00000000000E+00  0.00000000000E+00  0.66945882289E+03  0.96963633450E+03  0.70144102079E+03 0.  0.
        2    1    3    3  502    0 -0.30879556303E+03 -0.15782538954E+03  0.40710595384E+03  0.53478856662E+03  0.25500000920E-02 0. -1.
       -2    1    3    3    0  502  0.30879556303E+03  0.15782538954E+03  0.26235286905E+03  0.43484776788E+03  0.25500000920E-02 0.  1.
</event>
<event>
 5   0  0.1981750E-03  0.6999759E+03  0.7818609E-02  0.9717273E-01
        3   -1    0    0  501    0  0.00000000000E+00  0.00000000000E+00  0.75791765865E+03  0.75791766538E+03  0.10100000352E+00 0. -1.
       -3   -1    0    0    0  501  0.00000000000E+00  0.00000000000E+00 -0.16161590709E+03  0.16161593865E+03  0.10100000352E+00 0.  1.
    10030    2    1    2    0    0  0.00000000000E+00  0.00000000000E+00  0.59630175156E+03  0.91953360402E+03  0.69997590674E+03 0.  0.
        1    1    3    3  502    0  0.18315222706E+03  0.27768221876E+03  0.44108950980E+03  0.55246005156E+03  0.50400001928E-02 0. -1.
       -1    1    3    3    0  502 -0.18315222706E+03 -0.27768221876E+03  0.15521224176E+03  0.36707355246E+03  0.50400001928E-02 0.  1.
</event>
<event>
 5   0  0.3013140E-03  0.6997361E+03  0.7818609E-02  0.9717684E-01
       -1   -1    0    0    0  501  0.00000000000E+00  0.00000000000E+00  0.10254859854E+04  0.10254859854E+04  0.50400001928E-02 0.  1.
        1   -1    0    0  501    0  0.00000000000E+00  0.00000000000E+00 -0.11936551029E+03  0.11936551039E+03  0.50400001928E-02 0. -1.
    10030    2    1    2    0    0  0.00000000000E+00  0.00000000000E+00  0.90612047507E+03  0.11448514958E+04  0.69973611599E+03 0.  0.
        2    1    3    3  502    0 -0.26610404422E+03 -0.20986715618E+03  0.31087715081E+03  0.45989149644E+03  0.25500000920E-02 0. -1.
       -2    1    3    3    0  502  0.26610404422E+03  0.20986715618E+03  0.59524332427E+03  0.68495999933E+03  0.25500000920E-02 0.  1.
</event>
<event>
 5   0  0.3013140E-03  0.6982326E+03  0.7818609E-02  0.9720259E-01
        1   -1    0    0  501    0  0.00000000000E+00  0.00000000000E+00  0.12477244567E+04  0.12477244567E+04  0.50400001928E-02 0.  1.
       -1   -1    0    0    0  501  0.00000000000E+00  0.00000000000E+00 -0.97683580772E+02  0.97683580902E+02  0.50400001928E-02 0. -1.
    10030    2    1    2    0    0  0.00000000000E+00  0.00000000000E+00  0.11500408759E+04  0.13454080376E+04  0.69823260547E+03 0.  0.
        2    1    3    3  502    0 -0.31560880521E+03  0.45661320571E+02  0.30123901982E+03  0.43867849411E+03  0.25500000920E-02 0. -1.
       -2    1    3    3    0  502  0.31560880521E+03 -0.45661320571E+02  0.84880185606E+03  0.90672954346E+03  0.25500000920E-02 0.  1.
</event>
<event>
 5   0  0.2938783E-03  0.7002593E+03  0.7818609E-02  0.9716789E-01
        1   -1    0    0  501    0  0.00000000000E+00  0.00000000000E+00  0.61264798161E+03  0.61264798163E+03  0.50400001928E-02 0. -1.
       -1   -1    0    0    0  501  0.00000000000E+00  0.00000000000E+00 -0.20009982799E+03  0.20009982805E+03  0.50400001928E-02 0.  1.
    10030    2    1    2    0    0  0.00000000000E+00  0.00000000000E+00  0.41254815362E+03  0.81274780969E+03  0.70025925420E+03 0.  0.
        4    1    3    3  502    0 -0.28125123123E+03  0.20225085244E+03  0.26524411030E+03  0.43630690269E+03  0.12699999809E+01 0. -1.
       -4    1    3    3    0  502  0.28125123123E+03 -0.20225085244E+03  0.14730404332E+03  0.37644090700E+03  0.12699999809E+01 0.  1.
</event>
<event>
 5   0  0.5023894E-03  0.7031651E+03  0.7818609E-02  0.9711835E-01
       -2   -1    0    0    0  501  0.00000000000E+00  0.00000000000E+00  0.28241003531E+03  0.28241003532E+03  0.25500000920E-02 0.  1.
        2   -1    0    0  501    0  0.00000000000E+00  0.00000000000E+00 -0.43769789422E+03  0.43769789423E+03  0.25500000920E-02 0. -1.
    10030    2    1    2    0    0  0.00000000000E+00  0.00000000000E+00 -0.15528785891E+03  0.72010792955E+03  0.70316506673E+03 0.  0.
        2    1    3    3  502    0  0.49120368576E+02 -0.40471132003E+01 -0.43414244857E+03  0.43693117924E+03  0.25500000920E-02 0. -1.
       -2    1    3    3    0  502 -0.49120368576E+02  0.40471132003E+01  0.27885458966E+03  0.28317675031E+03  0.25500000920E-02 0.  1.
</event>
<event>
 5   0  0.2913582E-03  0.7005596E+03  0.7818609E-02  0.9716276E-01
        1   -1    0    0  501    0  0.00000000000E+00  0.00000000000E+00  0.76958296150E+03  0.76958296152E+03  0.50400001928E-02 0.  1.
       -1   -1    0    0    0  501  0.00000000000E+00  0.00000000000E+00 -0.15943173759E+03  0.15943173767E+03  0.50400001928E-02 0. -1.
    10030    2    1    2    0    0  0.00000000000E+00  0.00000000000E+00  0.61015122391E+03  0.92901469918E+03  0.70055963005E+03 0.  0.
        1    1    3    3  502    0 -0.20783526450E+03  0.19190522048E+03  0.31137005834E+02  0.28459203076E+03  0.50400001928E-02 0. -1.
       -1    1    3    3    0  502  0.20783526450E+03 -0.19190522048E+03  0.57901421808E+03  0.64442266842E+03  0.50400001928E-02 0.  1.
</event>
<event>
 5   0  0.5023894E-03  0.7011212E+03  0.7818609E-02  0.9715317E-01
        2   -1    0    0  501    0  0.00000000000E+00  0.00000000000E+00  0.14174972469E+03  0.14174972472E+03  0.25500000920E-02 0. -1.
       -2   -1    0    0    0  501  0.00000000000E+00  0.00000000000E+00 -0.86696981982E+03  0.86696981982E+03  0.25500000920E-02 0.  1.
    10030    2    1    2    0    0  0.00000000000E+00  0.00000000000E+00 -0.72522009513E+03  0.10087195445E+04  0.70112119720E+03 0.  0.
        2    1    3    3  502    0 -0.30107546771E+03 -0.96490345787E+02 -0.14472104118E+03  0.34770821655E+03  0.25500000920E-02 0. -1.
       -2    1    3    3    0  502  0.30107546771E+03  0.96490345787E+02 -0.58049905395E+03  0.66101132799E+03  0.25500000920E-02 0.  1.
</event>
<event>
 5   0  0.5023894E-03  0.6992844E+03  0.7818609E-02  0.9718457E-01
       -2   -1    0    0    0  501  0.00000000000E+00  0.00000000000E+00  0.15455449513E+03  0.15455449515E+03  0.25500000920E-02 0.  1.
        2   -1    0    0  501    0  0.00000000000E+00  0.00000000000E+00 -0.79098088766E+03  0.79098088766E+03  0.25500000920E-02 0. -1.
    10030    2    1    2    0    0  0.00000000000E+00  0.00000000000E+00 -0.63642639253E+03  0.94553538281E+03  0.69928435349E+03 0.  0.
        2    1    3    3  502    0  0.22913125481E+03  0.17263835091E+03 -0.58845502771E+03  0.65466361727E+03  0.25500000920E-02 0. -1.
       -2    1    3    3    0  502 -0.22913125481E+03 -0.17263835091E+03 -0.47971364817E+02  0.29087176554E+03  0.25500000920E-02 0.  1.
</event>
<event>
 5   0  0.5023894E-03  0.6994964E+03  0.7818609E-02  0.9718094E-01
       -2   -1    0    0    0  501  0.00000000000E+00  0.00000000000E+00  0.58492604353E+02  0.58492604409E+02  0.25500000920E-02 0.  1.
        2   -1    0    0  501    0  0.00000000000E+00  0.00000000000E+00 -0.20912693854E+04  0.20912693854E+04  0.25500000920E-02 0. -1.
    10030    2    1    2    0    0  0.00000000000E+00  0.00000000000E+00 -0.20327767811E+04  0.21497619899E+04  0.69949636974E+03 0.  0.
        2    1    3    3  502    0  0.71161739630E+02 -0.16443281526E+03 -0.19395129277E+04  0.19477711725E+04  0.25500000920E-02 0. -1.
       -2    1    3    3    0  502 -0.71161739630E+02  0.16443281526E+03 -0.93263853405E+02  0.20199081731E+03  0.25500000920E-02 0.  1.
</event>
<event>
 5   0  0.5072407E-03  0.7014973E+03  0.7818609E-02  0.9714675E-01
        2   -1    0    0  501    0  0.00000000000E+00  0.00000000000E+00  0.54499175477E+03  0.54499175478E+03  0.25500000920E-02 0. -1.
       -2   -1    0    0    0  501  0.00000000000E+00  0.00000000000E+00 -0.22573664212E+03  0.22573664213E+03  0.25500000920E-02 0.  1.
    10030    2    1    2    0    0  0.00000000000E+00  0.00000000000E+00  0.31925511266E+03  0.77072839691E+03  0.70149728071E+03 0.  0.
        1    1    3    3  502    0 -0.17388820082E+03  0.26900658941E+03  0.26148924962E+01  0.32032559876E+03  0.50400001928E-02 0.  1.
       -1    1    3    3    0  502  0.17388820082E+03 -0.26900658941E+03  0.31664022016E+03  0.45040279815E+03  0.50400001928E-02 0. -1.
</event>
<event>
 5   0  0.3013140E-03  0.7005247E+03  0.7818609E-02  0.9716335E-01
       -1   -1    0    0    0  501  0.00000000000E+00  0.00000000000E+00  0.46291534285E+03  0.46291534288E+03  0.50400001928E-02 0. -1.
        1   -1    0    0  501    0  0.00000000000E+00  0.00000000000E+00 -0.26502410843E+03  0.26502410848E+03  0.50400001928E-02 0.  1.
    10030    2    1    2    0    0  0.00000000000E+00  0.00000000000E+00  0.19789123442E+03  0.72793945136E+03  0.70052473489E+03 0.  0.
        2    1    3    3  502    0  0.13213427094E+03 -0.83102251123E+02  0.42477399835E+03  0.45254657150E+03  0.25500000920E-02 0. -1.
       -2    1    3    3    0  502 -0.13213427094E+03  0.83102251123E+02 -0.22688276393E+03  0.27539287986E+03  0.25500000920E-02 0.  1.
</event>
<event>
 5   0  0.4878235E-03  0.7002027E+03  0.7818609E-02  0.9716886E-01
       -2   -1    0    0    0  501  0.00000000000E+00  0.00000000000E+00  0.58103229853E+02  0.58103229909E+02  0.25500000920E-02 0.  1.
        2   -1    0    0  501    0  0.00000000000E+00  0.00000000000E+00 -0.21095375092E+04  0.21095375092E+04  0.25500000920E-02 0. -1.
    10030    2    1    2    0    0  0.00000000000E+00  0.00000000000E+00 -0.20514342794E+04  0.21676407391E+04  0.70020266450E+03 0.  0.
        4    1    3    3  502    0 -0.16382772141E+03 -0.30939975899E+03 -0.10218052559E+04  0.10801182005E+04  0.12699999809E+01 0. -1.
       -4    1    3    3    0  502  0.16382772141E+03  0.30939975899E+03 -0.10296290235E+04  0.10875225387E+04  0.12699999809E+01 0.  1.
</event>
<event>
 5   0  0.5076796E-03  0.6989805E+03  0.7818609E-02  0.9718977E-01
       -2   -1    0    0    0  501  0.00000000000E+00  0.00000000000E+00  0.88384530215E+03  0.88384530215E+03  0.25500000920E-02 0.  1.
        2   -1    0    0  501    0  0.00000000000E+00  0.00000000000E+00 -0.13819548539E+03  0.13819548542E+03  0.25500000920E-02 0. -1.
    10030    2    1    2    0    0  0.00000000000E+00  0.00000000000E+00  0.74564981676E+03  0.10220407876E+04  0.69898048773E+03 0.  0.
        5    1    3    3  502    0  0.23511830691E+01  0.14303737868E+03 -0.93372593483E+02  0.17089690159E+03  0.46999998093E+01 0. -1.
       -5    1    3    3    0  502 -0.23511830691E+01 -0.14303737868E+03  0.83902241024E+03  0.85114388598E+03  0.46999998093E+01 0.  1.
</event>
<event>
 5   0  0.2937617E-03  0.6997034E+03  0.7818609E-02  0.9717740E-01
       -1   -1    0    0    0  501  0.00000000000E+00  0.00000000000E+00  0.11619705722E+03  0.11619705733E+03  0.50400001928E-02 0.  1.
        1   -1    0    0  501    0  0.00000000000E+00  0.00000000000E+00 -0.10533503181E+04  0.10533503181E+04  0.50400001928E-02 0. -1.
    10030    2    1    2    0    0  0.00000000000E+00  0.00000000000E+00 -0.93715326089E+03  0.11695473754E+04  0.69970338646E+03 0.  0.
        3    1    3    3  502    0 -0.52083255041E+01  0.12764362071E+03  0.75816669413E+02  0.14855368768E+03  0.10100000352E+00 0.  1.
       -3    1    3    3    0  502  0.52083255041E+01 -0.12764362071E+03 -0.10129699303E+04  0.10209936878E+04  0.10100000352E+00 0. -1.
</event>
<event>
 5   0  0.5076796E-03  0.6983179E+03  0.7818609E-02  0.9720113E-01
       -2   -1    0    0    0  501  0.00000000000E+00  0.00000000000E+00  0.75486782254E+02  0.75486782297E+02  0.25500000920E-02 0.  1.
        2   -1    0    0  501    0  0.00000000000E+00  0.00000000000E+00 -0.16150108044E+04  0.16150108044E+04  0.25500000920E-02 0. -1.
    10030    2    1    2    0    0  0.00000000000E+00  0.00000000000E+00 -0.15395240221E+04  0.16904975867E+04  0.69831789027E+03 0.  0.
        5    1    3    3  502    0 -0.12998095863E+02 -0.31035623429E+03 -0.38394826183E+03  0.49389098030E+03  0.46999998093E+01 0.  1.
       -5    1    3    3    0  502  0.12998095863E+02  0.31035623429E+03 -0.11555757603E+04  0.11966066064E+04  0.46999998093E+01 0. -1.
</event>
<event>
 5   0  0.2937617E-03  0.6998944E+03  0.7818609E-02  0.9717413E-01
        1   -1    0    0  501    0  0.00000000000E+00  0.00000000000E+00  0.23109722786E+03  0.23109722791E+03  0.50400001928E-02 0. -1.
       -1   -1    0    0    0  501  0.00000000000E+00  0.00000000000E+00 -0.52991995418E+03  0.52991995421E+03  0.50400001928E-02 0.  1.
    10030    2    1    2    0    0  0.00000000000E+00  0.00000000000E+00 -0.29882272633E+03  0.76101718212E+03  0.69989437040E+03 0.  0.
        3    1    3    3  502    0  0.44830505134E+02  0.24856769561E+03 -0.41277765754E+03  0.48392259531E+03  0.10100000352E+00 0.  1.
       -3    1    3    3    0  502 -0.44830505134E+02 -0.24856769561E+03  0.11395493121E+03  0.27709458681E+03  0.10100000352E+00 0. -1.
</event>
<event>
 5   0  0.5076796E-03  0.7005778E+03  0.7818609E-02  0.9716245E-01
       -2   -1    0    0    0  501  0.00000000000E+00  0.00000000000E+00  0.11516643117E+03  0.11516643119E+03  0.25500000920E-02 0.  1.
        2   -1    0    0  501    0  0.00000000000E+00  0.00000000000E+00 -0.10654346572E+04  0.10654346572E+04  0.25500000920E-02 0. -1.
    10030    2    1    2    0    0  0.00000000000E+00  0.00000000000E+00 -0.95026822606E+03  0.11806010884E+04  0.70057778193E+03 0.  0.
        5    1    3    3  502    0 -0.75819079719E+02 -0.32285962937E+03 -0.66499471099E+03  0.74311972707E+03  0.46999998093E+01 0. -1.
       -5    1    3    3    0  502  0.75819079719E+02  0.32285962937E+03 -0.28527351508E+03  0.43748136135E+03  0.46999998093E+01 0.  1.
</event>
<event>
 5   0  0.5023894E-03  0.7025006E+03  0.7818609E-02  0.9712965E-01
       -2   -1    0    0    0  501  0.00000000000E+00  0.00000000000E+00  0.19598758238E+03  0.19598758239E+03  0.25500000920E-02 0. -1.
        2   -1    0    0  501    0  0.00000000000E+00  0.00000000000E+00 -0.62951319605E+03  0.62951319606E+03  0.25500000920E-02 0.  1.
    10030    2    1    2    0    0  0.00000000000E+00  0.00000000000E+00 -0.43352561367E+03  0.82550077845E+03  0.70250058897E+03 0.  0.
        2    1    3    3  502    0  0.79544339675E+02 -0.31818646459E+02 -0.61704762390E+03  0.62296669124E+03  0.25500000920E-02 0.  1.
       -2    1    3    3    0  502 -0.79544339675E+02  0.31818646459E+02  0.18352201022E+03  0.20253408720E+03  0.25500000920E-02 0. -1.
</event>
<event>
 5   0  0.2913582E-03  0.6991280E+03  0.7818609E-02  0.9718725E-01
        1   -1    0    0  501    0  0.00000000000E+00  0.00000000000E+00  0.32341291454E+03  0.32341291458E+03  0.50400001928E-02 0.  1.
       -1   -1    0    0    0  501  0.00000000000E+00  0.00000000000E+00 -0.37782970138E+03  0.37782970141E+03  0.50400001928E-02 0. -1.
    10030    2    1    2    0    0  0.00000000000E+00  0.00000000000E+00 -0.54416786844E+02  0.70124261599E+03  0.69912804249E+03 0.  0.
        1    1    3    3  502    0 -0.10443496834E+03  0.32872815668E+03 -0.84179318643E+02  0.35504228103E+03  0.50400001928E-02 0. -1.
       -1    1    3    3    0  502  0.10443496834E+03 -0.32872815668E+03  0.29762531800E+02  0.34620033496E+03  0.50400001928E-02 0.  1.
</event>
<event>
 5   0  0.2913582E-03  0.6992010E+03  0.7818609E-02  0.9718599E-01
       -1   -1    0    0    0  501  0.00000000000E+00  0.00000000000E+00  0.98212403076E+02  0.98212403206E+02  0.50400001928E-02 0. -1.
        1   -1    0    0  501    0  0.00000000000E+00  0.00000000000E+00 -0.12444510066E+04  0.12444510066E+04  0.50400001928E-02 0.  1.
    10030    2    1    2    0    0  0.00000000000E+00  0.00000000000E+00 -0.11462386035E+04  0.13426634098E+04  0.69920104108E+03 0.  0.
        1    1    3    3  502    0  0.31849587224E+03  0.89792510084E+02 -0.78967920891E+03  0.85621000257E+03  0.50400001928E-02 0. -1.
       -1    1    3    3    0  502 -0.31849587224E+03 -0.89792510084E+02 -0.35655939460E+03  0.48645340722E+03  0.50400001928E-02 0.  1.
</event>
<event>
 5   0  0.4878235E-03  0.6999580E+03  0.7818609E-02  0.9717304E-01
        2   -1    0    0  501    0  0.00000000000E+00  0.00000000000E+00  0.10350868227E+04  0.10350868227E+04  0.25500000920E-02 0. -1.
       -2   -1    0    0    0  501  0.00000000000E+00  0.00000000000E+00 -0.11833336122E+03  0.11833336125E+03  0.25500000920E-02 0.  1.
    10030    2    1    2    0    0  0.00000000000E+00  0.00000000000E+00  0.91675346148E+03  0.11534201840E+04  0.69995800703E+03 0.  0.
        4    1    3    3  502    0  0.30234641426E+03  0.14138077142E+03  0.28490809026E+03  0.43883494567E+03  0.12699999809E+01 0.  1.
       -4    1    3    3    0  502 -0.30234641426E+03 -0.14138077142E+03  0.63184537122E+03  0.71458523829E+03  0.12699999809E+01 0. -1.
</event>
<event>
 5   0  0.4878235E-03  0.7018398E+03  0.7818609E-02  0.9714091E-01
        2   -1    0    0  501    0  0.00000000000E+00  0.00000000000E+00  0.82110803013E+03  0.82110803014E+03  0.25500000920E-02 0.  1.
       -2   -1    0    0    0  501  0.00000000000E+00  0.00000000000E+00 -0.14997388233E+03  0.14997388236E+03  0.25500000920E-02 0. -1.
    10030    2    1    2    0    0  0.00000000000E+00  0.00000000000E+00  0.67113414780E+03  0.97108191249E+03  0.70183975125E+03 0.  0.
        4    1    3    3  502    0  0.21338230550E+03 -0.10706775681E+03 -0.20289552975E+02  0.23960131826E+03  0.12699999809E+01 0. -1.
       -4    1    3    3    0  502 -0.21338230550E+03  0.10706775681E+03  0.69142370077E+03  0.73148059424E+03  0.12699999809E+01 0.  1.
</event>
<event>
 5   0  0.5072407E-03  0.6990724E+03  0.7818609E-02  0.9718820E-01
        2   -1    0    0  501    0  0.00000000000E+00  0.00000000000E+00  0.31700329978E+03  0.31700329979E+03  0.25500000920E-02 0. -1.
       -2   -1    0    0    0  501  0.00000000000E+00  0.00000000000E+00 -0.38540786472E+03  0.38540786473E+03  0.25500000920E-02 0.  1.
    10030    2    1    2    0    0  0.00000000000E+00  0.00000000000E+00 -0.68404564948E+02  0.70241116452E+03  0.69907242796E+03 0.  0.
        1    1    3    3  502    0 -0.30503964190E+03  0.75901282691E+02  0.11938513181E+03  0.33624841645E+03  0.50400001928E-02 0. -1.
       -1    1    3    3    0  502  0.30503964190E+03 -0.75901282691E+02 -0.18778969676E+03  0.36616274807E+03  0.50400001928E-02 0.  1.
</event>
<event>
 5   0  0.1981750E-03  0.6965567E+03  0.7818609E-02  0.9723139E-01
        4   -1    0    0  501    0  0.00000000000E+00  0.00000000000E+00  0.50865056309E+03  0.50865214855E+03  0.12699999809E+01 0. -1.
       -4   -1    0    0    0  501  0.00000000000E+00  0.00000000000E+00 -0.23846617742E+03  0.23846955921E+03  0.12699999809E+01 0.  1.
    10030    2    1    2    0    0  0.00000000000E+00  0.00000000000E+00  0.27018438567E+03  0.74712170777E+03  0.69655670548E+03 0.  0.
        2    1    3    3  502    0  0.25885025238E+03 -0.17352212855E+03 -0.31710398912E+02  0.31323941588E+03  0.25500000920E-02 0.  1.
       -2    1    3    3    0  502 -0.25885025238E+03  0.17352212855E+03  0.30189478458E+03  0.43388229189E+03  0.25500000920E-02 0. -1.
</event>
<event>
 5   0  0.2937617E-03  0.6997870E+03  0.7818609E-02  0.9717597E-01
       -1   -1    0    0    0  501  0.00000000000E+00  0.00000000000E+00  0.86606216433E+03  0.86606216434E+03  0.50400001928E-02 0.  1.
        1   -1    0    0  501    0  0.00000000000E+00  0.00000000000E+00 -0.14135873087E+03  0.14135873096E+03  0.50400001928E-02 0. -1.
    10030    2    1    2    0    0  0.00000000000E+00  0.00000000000E+00  0.72470343346E+03  0.10074208953E+04  0.69978696317E+03 0.  0.
        3    1    3    3  502    0  0.10417822754E+03  0.15852282964E+03 -0.60910634028E+02  0.19923028421E+03  0.10100000352E+00 0. -1.
       -3    1    3    3    0  502 -0.10417822754E+03 -0.15852282964E+03  0.78561406749E+03  0.80819061108E+03  0.10100000352E+00 0.  1.
</event>
<event>
 5   0  0.2913582E-03  0.7047573E+03  0.7818609E-02  0.9709131E-01
       -1   -1    0    0    0  501  0.00000000000E+00  0.00000000000E+00  0.21827570792E+03  0.21827570797E+03  0.50400001928E-02 0. -1.
        1   -1    0    0  501    0  0.00000000000E+00  0.00000000000E+00 -0.56887089555E+03  0.56887089557E+03  0.50400001928E-02 0.  1.
    10030    2    1    2    0    0  0.00000000000E+00  0.00000000000E+00 -0.35059518764E+03  0.78714660355E+03  0.70475725600E+03 0.  0.
        1    1    3    3  502    0  0.18239902938E+03 -0.18544976796E+03 -0.44080551051E+03  0.51183055837E+03  0.50400001928E-02 0.  1.
       -1    1    3    3    0  502 -0.18239902938E+03  0.18544976796E+03  0.90210322874E+02  0.27531604518E+03  0.50400001928E-02 0. -1.
</event>
<event>
 5   0  0.5023894E-03  0.6993162E+03  0.7818609E-02  0.9718402E-01
        2   -1    0    0  501    0  0.00000000000E+00  0.00000000000E+00  0.13925281317E+04  0.13925281317E+04  0.25500000920E-02 0. -1.
       -2   -1    0    0    0  501  0.00000000000E+00  0.00000000000E+00 -0.87797715341E+02  0.87797715378E+02  0.25500000920E-02 0.  1.
    10030    2    1    2    0    0  0.00000000000E+00  0.00000000000E+00  0.13047304163E+04  0.14803258470E+04  0.69931620470E+03 0.  0.
        2    1    3    3  502    0 -0.29475468200E+03 -0.16751847665E+03  0.47128094811E+03  0.58055877794E+03  0.25500000920E-02 0.  1.
       -2    1    3    3    0  502  0.29475468200E+03  0.16751847665E+03  0.83344946821E+03  0.89976706911E+03  0.25500000920E-02 0. -1.
</event>
<event>
 5   0  0.2934483E-03  0.7011453E+03  0.7818609E-02  0.9715276E-01
        1   -1    0    0  501    0  0.00000000000E+00  0.00000000000E+00  0.88533105502E+03  0.88533105503E+03  0.50400001928E-02 0. -1.
       -1   -1    0    0    0  501  0.00000000000E+00  0.00000000000E+00 -0.13881947355E+03  0.13881947364E+03  0.50400001928E-02 0.  1.
    10030    2    1    2    0    0  0.00000000000E+00  0.00000000000E+00  0.74651158147E+03  0.10241505287E+04  0.70114532311E+03 0.  0.
        5    1    3    3  502    0  0.18930501082E+02 -0.19346964748E+03  0.79934016495E+03  0.82265160164E+03  0.46999998093E+01 0. -1.
       -5    1    3    3    0  502 -0.18930501082E+02  0.19346964748E+03 -0.52828583488E+02  0.20149892704E+03  0.46999998093E+01 0.  1.
</event>
<event>
 5   0  0.2913582E-03  0.6987719E+03  0.7818609E-02  0.9719335E-01
        1   -1    0    0  501    0  0.00000000000E+00  0.00000000000E+00  0.86057958652E+03  0.86057958654E+03  0.50400001928E-02 0. -1.
       -1   -1    0    0    0  501  0.00000000000E+00  0.00000000000E+00 -0.14184690016E+03  0.14184690025E+03  0.50400001928E-02 0.  1.
    10030    2    1    2    0    0  0.00000000000E+00  0.00000000000E+00  0.71873268636E+03  0.10024264868E+04  0.69877191340E+03 0.  0.
        1    1    3    3  502    0 -0.21702824070E+03 -0.97403245590E+02 -0.77280232189E+01  0.23800918445E+03  0.50400001928E-02 0.  1.
       -1    1    3    3    0  502  0.21702824070E+03  0.97403245590E+02  0.72646070958E+03  0.76441730233E+03  0.50400001928E-02 0. -1.
</event>
<event>
 5   0  0.3013140E-03  0.6995402E+03  0.7818609E-02  0.9718019E-01
       -1   -1    0    0    0  501  0.00000000000E+00  0.00000000000E+00  0.13046618851E+03  0.13046618861E+03  0.50400001928E-02 0. -1.
        1   -1    0    0  501    0  0.00000000000E+00  0.00000000000E+00 -0.93770748343E+03  0.93770748344E+03  0.50400001928E-02 0.  1.
    10030    2    1    2    0    0  0.00000000000E+00  0.00000000000E+00 -0.80724129492E+03  0.10681736721E+04  0.69954019573E+03 0.  0.
        2    1    3    3  502    0  0.13388478800E+03  0.20748460491E+03 -0.78187720286E+03  0.81994326516E+03  0.25500000920E-02 0.  1.
       -2    1    3    3    0  502 -0.13388478800E+03 -0.20748460491E+03 -0.25364092059E+02  0.24823040689E+03  0.25500000920E-02 0. -1.
</event>
<event>
 5   0  0.5023894E-03  0.6998819E+03  0.7818609E-02  0.9717434E-01
        2   -1    0    0  501    0  0.00000000000E+00  0.00000000000E+00  0.41059961672E+03  0.41059961673E+03  0.25500000920E-02 0. -1.
       -2   -1    0    0    0  501  0.00000000000E+00  0.00000000000E+00 -0.29824350371E+03  0.29824350372E+03  0.25500000920E-02 0.  1.
    10030    2    1    2    0    0  0.00000000000E+00  0.00000000000E+00  0.11235611301E+03  0.70884312045E+03  0.69988189952E+03 0.  0.
        2    1    3    3  502    0  0.28043765684E+03 -0.19363134312E+03  0.13669623381E+03  0.36718420003E+03  0.25500000920E-02 0. -1.
       -2    1    3    3    0  502 -0.28043765684E+03  0.19363134312E+03 -0.24340120806E+02  0.34165892041E+03  0.25500000920E-02 0.  1.
</event>
<event>
 5   0  0.5113683E-03  0.7035578E+03  0.7818609E-02  0.9711167E-01
       -2   -1    0    0    0  501  0.00000000000E+00  0.00000000000E+00  0.14503068650E+03  0.14503068652E+03  0.25500000920E-02 0. -1.
        2   -1    0    0  501    0  0.00000000000E+00  0.00000000000E+00 -0.85325653317E+03  0.85325653317E+03  0.25500000920E-02 0.  1.
    10030    2    1    2    0    0  0.00000000000E+00  0.00000000000E+00 -0.70822584667E+03  0.99828721970E+03  0.70355776104E+03 0.  0.
        3    1    3    3  502    0 -0.27125981529E+03  0.22026029928E+03 -0.41178233137E+03  0.54005665023E+03  0.10100000352E+00 0. -1.
       -3    1    3    3    0  502  0.27125981529E+03 -0.22026029928E+03 -0.29644351530E+03  0.45823056947E+03  0.10100000352E+00 0.  1.
</event>
<event>
 5   0  0.2934483E-03  0.6999238E+03  0.7818609E-02  0.9717363E-01
        1   -1    0    0  501    0  0.00000000000E+00  0.00000000000E+00  0.46242619137E+03  0.46242619140E+03  0.50400001928E-02 0.  1.
       -1   -1    0    0    0  501  0.00000000000E+00  0.00000000000E+00 -0.26484946247E+03  0.26484946251E+03  0.50400001928E-02 0. -1.
    10030    2    1    2    0    0  0.00000000000E+00  0.00000000000E+00  0.19757672891E+03  0.72727565391E+03  0.69992379083E+03 0.  0.
        5    1    3    3  502    0  0.34949182888E+03  0.17238473698E+02  0.95579847045E+02  0.36276617895E+03  0.46999998093E+01 0.  1.
       -5    1    3    3    0  502 -0.34949182888E+03 -0.17238473698E+02  0.10199688186E+03  0.36450947496E+03  0.46999998093E+01 0. -1.
</event>
<event>
 5   0  0.2913582E-03  0.7005074E+03  0.7818609E-02  0.9716365E-01
        1   -1    0    0  501    0  0.00000000000E+00  0.00000000000E+00  0.99198717619E+03  0.99198717620E+03  0.50400001928E-02 0. -1.
       -1   -1    0    0    0  501  0.00000000000E+00  0.00000000000E+00 -0.12366860478E+03  0.12366860488E+03  0.50400001928E-02 0.  1.
    10030    2    1    2    0    0  0.00000000000E+00  0.00000000000E+00  0.86831857141E+03  0.11156557811E+04  0.70050744492E+03 0.  0.
        1    1    3    3  502    0  0.93754244133E+02  0.21358348541E+03  0.85029224898E+03  0.88170554736E+03  0.50400001928E-02 0. -1.
       -1    1    3    3    0  502 -0.93754244133E+02 -0.21358348541E+03  0.18026322431E+02  0.23395023372E+03  0.50400001928E-02 0.  1.
</event>
<event>
 5   0  0.2937617E-03  0.7000302E+03  0.7818609E-02  0.9717181E-01
        1   -1    0    0  501    0  0.00000000000E+00  0.00000000000E+00  0.14980772856E+03  0.14980772865E+03  0.50400001928E-02 0. -1.
       -1   -1    0    0    0  501  0.00000000000E+00  0.00000000000E+00 -0.81778532968E+03  0.81778532970E+03  0.50400001928E-02 0.  1.
    10030    2    1    2    0    0  0.00000000000E+00  0.00000000000E+00 -0.66797760112E+03  0.96759305834E+03  0.70003017860E+03 0.  0.
        3    1    3    3  502    0  0.29470297615E+03 -0.18882989846E+03 -0.33674556264E+03  0.48569965911E+03  0.10100000352E+00 0. -1.
       -3    1    3    3    0  502 -0.29470297615E+03  0.18882989846E+03 -0.33123203848E+03  0.48189339923E+03  0.10100000352E+00 0.  1.
</event>
<event>
 5   0  0.5076796E-03  0.7021403E+03  0.7818609E-02  0.9713579E-01
        2   -1    0    0  501    0  0.00000000000E+00  0.00000000000E+00  0.86790018091E+03  0.86790018091E+03  0.25500000920E-02 0.  1.
       -2   -1    0    0    0  501  0.00000000000E+00  0.00000000000E+00 -0.14200971164E+03  0.14200971166E+03  0.25500000920E-02 0. -1.
    10030    2    1    2    0    0  0.00000000000E+00  0.00000000000E+00  0.72589046927E+03  0.10099098926E+04  0.70214031200E+03 0.  0.
        5    1    3    3  502    0  0.72618287462E+01  0.10900205987E+03 -0.11689267627E+03  0.16006302188E+03  0.46999998093E+01 0. -1.
       -5    1    3    3    0  502 -0.72618287462E+01 -0.10900205987E+03  0.84278314554E+03  0.84984687068E+03  0.46999998093E+01 0.  1.
</event>
<event>
 5   0  0.2934483E-03  0.6993434E+03  0.7818609E-02  0.9718356E-01
       -1   -1    0    0    0  501  0.00000000000E+00  0.00000000000E+00  0.19214407412E+03  0.19214407419E+03  0.50400001928E-02 0.  1.
        1   -1    0    0  501    0  0.00000000000E+00  0.00000000000E+00 -0.63634691354E+03  0.63634691356E+03  0.50400001928E-02 0. -1.
    10030    2    1    2    0    0  0.00000000000E+00  0.00000000000E+00 -0.44420283942E+03  0.82849098775E+03  0.69934337362E+03 0.  0.
        5    1    3    3  502    0  0.13999524643E+03  0.14264834400E+03  0.11775840282E+03  0.23202661593E+03  0.46999998093E+01 0.  1.
       -5    1    3    3    0  502 -0.13999524643E+03 -0.14264834400E+03 -0.56196124224E+03  0.59646437181E+03  0.46999998093E+01 0. -1.
</event>
<event>
 5   0  0.5023894E-03  0.7000079E+03  0.7818609E-02  0.9717219E-01
       -2   -1    0    0    0  501  0.00000000000E+00  0.00000000000E+00  0.10010854516E+03  0.10010854519E+03  0.25500000920E-02 0.  1.
        2   -1    0    0  501    0  0.00000000000E+00  0.00000000000E+00 -0.12236993804E+04  0.12236993804E+04  0.25500000920E-02 0. -1.
    10030    2    1    2    0    0  0.00000000000E+00  0.00000000000E+00 -0.11235908352E+04  0.13238079256E+04  0.70000789912E+03 0.  0.
        2    1    3    3  502    0 -0.14585677401E+02  0.21478323461E+03 -0.10836870435E+04  0.11048629725E+04  0.25500000920E-02 0. -1.
       -2    1    3    3    0  502  0.14585677401E+02 -0.21478323461E+03 -0.39903791709E+02  0.21894495302E+03  0.25500000920E-02 0.  1.
</event>
<event>
 5   0  0.5023894E-03  0.6995314E+03  0.7818609E-02  0.9718034E-01
       -2   -1    0    0    0  501  0.00000000000E+00  0.00000000000E+00  0.12705823727E+03  0.12705823729E+03  0.25500000920E-02 0. -1.
        2   -1    0    0  501    0  0.00000000000E+00  0.00000000000E+00 -0.96283447409E+03  0.96283447409E+03  0.25500000920E-02 0.  1.
    10030    2    1    2    0    0  0.00000000000E+00  0.00000000000E+00 -0.83577623682E+03  0.10898927114E+04  0.69953141765E+03 0.  0.
        2    1    3    3  502    0  0.10683403814E+03  0.31193582738E+03 -0.23606779734E+03  0.40551877522E+03  0.25500000920E-02 0. -1.
       -2    1    3    3    0  502 -0.10683403814E+03 -0.31193582738E+03 -0.59970843948E+03  0.68437393616E+03  0.25500000920E-02 0.  1.
</event>
<event>
 5   0  0.5076796E-03  0.6999976E+03  0.7818609E-02  0.9717236E-01
        2   -1    0    0  501    0  0.00000000000E+00  0.00000000000E+00  0.36216184854E+03  0.36216184855E+03  0.25500000920E-02 0. -1.
       -2   -1    0    0    0  501  0.00000000000E+00  0.00000000000E+00 -0.33824421823E+03  0.33824421824E+03  0.25500000920E-02 0.  1.
    10030    2    1    2    0    0  0.00000000000E+00  0.00000000000E+00  0.23917630318E+02  0.70040606679E+03  0.69999757525E+03 0.  0.
        5    1    3    3  502    0  0.48635516348E+02 -0.13498404850E+03 -0.30743108526E+03  0.33929643231E+03  0.46999998093E+01 0.  1.
       -5    1    3    3    0  502 -0.48635516348E+02  0.13498404850E+03  0.33134871558E+03  0.36110963448E+03  0.46999998093E+01 0. -1.
</event>
<event>
 5   0  0.5072407E-03  0.6995332E+03  0.7818609E-02  0.9718031E-01
       -2   -1    0    0    0  501  0.00000000000E+00  0.00000000000E+00  0.16959583005E+03  0.16959583007E+03  0.25500000920E-02 0. -1.
        2   -1    0    0  501    0  0.00000000000E+00  0.00000000000E+00 -0.72134243499E+03  0.72134243499E+03  0.25500000920E-02 0.  1.
    10030    2    1    2    0    0  0.00000000000E+00  0.00000000000E+00 -0.55174660493E+03  0.89093826507E+03  0.69953318442E+03 0.  0.
        1    1    3    3  502    0 -0.10972404309E+03 -0.84919794878E+02 -0.68479390405E+03  0.69870840001E+03  0.50400001928E-02 0.  1.
       -1    1    3    3    0  502  0.10972404309E+03  0.84919794878E+02  0.13304729911E+03  0.19222986506E+03  0.50400001928E-02 0. -1.
</event>
<event>
 5   0  0.5023894E-03  0.7007679E+03  0.7818609E-02  0.9715920E-01
       -2   -1    0    0    0  501  0.00000000000E+00  0.00000000000E+00  0.71015405324E+02  0.71015405370E+02  0.25500000920E-02 0.  1.
        2   -1    0    0  501    0  0.00000000000E+00  0.00000000000E+00 -0.17287646957E+04  0.17287646957E+04  0.25500000920E-02 0. -1.
    10030    2    1    2    0    0  0.00000000000E+00  0.00000000000E+00 -0.16577492904E+04  0.17997801011E+04  0.70076793768E+03 0.  0.
        2    1    3    3  502    0  0.13913391357E+03 -0.11839008246E+03 -0.60981934859E+02  0.19259609008E+03  0.25500000920E-02 0.  1.
       -2    1    3    3    0  502 -0.13913391357E+03  0.11839008246E+03 -0.15967673556E+04  0.16071840110E+04  0.25500000920E-02 0. -1.
</event>
<event>
 5   0  0.5072407E-03  0.7000573E+03  0.7818609E-02  0.9717134E-01
       -2   -1    0    0    0  501  0.00000000000E+00  0.00000000000E+00  0.11135068326E+03  0.11135068329E+03  0.25500000920E-02 0.  1.
        2   -1    0    0  501    0  0.00000000000E+00  0.00000000000E+00 -0.11003079770E+04  0.11003079770E+04  0.25500000920E-02 0. -1.
    10030    2    1    2    0    0  0.00000000000E+00  0.00000000000E+00 -0.98895729371E+03  0.12116586603E+04  0.70005726922E+03 0.  0.
        1    1    3    3  502    0 -0.16068124297E+03 -0.78868624291E+02 -0.10151050544E+04  0.10307652465E+04  0.50400001928E-02 0. -1.
       -1    1    3    3    0  502  0.16068124297E+03  0.78868624291E+02  0.26147760723E+02  0.18089341380E+03  0.50400001928E-02 0.  1.
</event>
<event>
 5   0  0.3013140E-03  0.7004367E+03  0.7818609E-02  0.9716486E-01
       -1   -1    0    0    0  501  0.00000000000E+00  0.00000000000E+00  0.13793979054E+03  0.13793979063E+03  0.50400001928E-02 0.  1.
        1   -1    0    0  501    0  0.00000000000E+00  0.00000000000E+00 -0.88917700533E+03  0.88917700535E+03  0.50400001928E-02 0. -1.
    10030    2    1    2    0    0  0.00000000000E+00  0.00000000000E+00 -0.75123721480E+03  0.10271167960E+04  0.70043669213E+03 0.  0.
        2    1    3    3  502    0 -0.21318492459E+02  0.71455245956E+01  0.13688033465E+03  0.13871468078E+03  0.25500000920E-02 0.  1.
       -2    1    3    3    0  502  0.21318492459E+02 -0.71455245956E+01 -0.88811754945E+03  0.88840211520E+03  0.25500000920E-02 0. -1.
</event>
<event>
 5   0  0.2938783E-03  0.7008860E+03  0.7818609E-02  0.9715718E-01
        1   -1    0    0  501    0  0.00000000000E+00  0.00000000000E+00  0.99414140546E+03  0.99414140547E+03  0.50400001928E-02 0. -1.
       -1   -1    0    0    0  501  0.00000000000E+00  0.00000000000E+00 -0.12353404586E+03  0.12353404596E+03  0.50400001928E-02 0.  1.
    10030    2    1    2    0    0  0.00000000000E+00  0.00000000000E+00  0.87060735959E+03  0.11176754514E+04  0.70088603935E+03 0.  0.
        4    1    3    3  502    0  0.10405703978E+03  0.28673535680E+03  0.16019043138E+03  0.34453972133E+03  0.12699999809E+01 0.  1.
       -4    1    3    3    0  502 -0.10405703978E+03 -0.28673535680E+03  0.71041692822E+03  0.77313573011E+03  0.12699999809E+01 0. -1.
</event>
<event>
 5   0  0.2938783E-03  0.7017163E+03  0.7818609E-02  0.9714302E-01
       -1   -1    0    0    0  501  0.00000000000E+00  0.00000000000E+00  0.11794394306E+03  0.11794394317E+03  0.50400001928E-02 0.  1.
        1   -1    0    0  501    0  0.00000000000E+00  0.00000000000E+00 -0.10437282917E+04  0.10437282917E+04  0.50400001928E-02 0. -1.
    10030    2    1    2    0    0  0.00000000000E+00  0.00000000000E+00 -0.92578434861E+03  0.11616722348E+04  0.70171626822E+03 0.  0.
        4    1    3    3  502    0 -0.43630907537E+02  0.28600590365E+03 -0.79148074399E+03  0.84270185358E+03  0.12699999809E+01 0. -1.
       -4    1    3    3    0  502  0.43630907537E+02 -0.28600590365E+03 -0.13430360462E+03  0.31897038127E+03  0.12699999809E+01 0.  1.
</event>
<event>
 5   0  0.4878235E-03  0.7010881E+03  0.7818609E-02  0.9715373E-01
        2   -1    0    0  501    0  0.00000000000E+00  0.00000000000E+00  0.67797672108E+03  0.67797672108E+03  0.25500000920E-02 0.  1.
       -2   -1    0    0    0  501  0.00000000000E+00  0.00000000000E+00 -0.18124681462E+03  0.18124681463E+03  0.25500000920E-02 0. -1.
    10030    2    1    2    0    0  0.00000000000E+00  0.00000000000E+00  0.49672990646E+03  0.85922353572E+03  0.70108807176E+03 0.  0.
        4    1    3    3  502    0 -0.22806844376E+03  0.11905428773E+03 -0.43437024594E+02  0.26091670409E+03  0.12699999809E+01 0. -1.
       -4    1    3    3    0  502  0.22806844376E+03 -0.11905428773E+03  0.54016693106E+03  0.59830683163E+03  0.12699999809E+01 0.  1.
</event>
<event>
 5   0  0.2934483E-03  0.7006852E+03  0.7818609E-02  0.9716061E-01
        1   -1    0    0  501    0  0.00000000000E+00  0.00000000000E+00  0.21031796112E+03  0.21031796118E+03  0.50400001928E-02 0. -1.
       -1   -1    0    0    0  501  0.00000000000E+00  0.00000000000E+00 -0.58359233054E+03  0.58359233056E+03  0.50400001928E-02 0.  1.
    10030    2    1    2    0    0  0.00000000000E+00  0.00000000000E+00 -0.37327436943E+03  0.79391029174E+03  0.70068523351E+03 0.  0.
        5    1    3    3  502    0 -0.14925061015E+03  0.56135777001E+02 -0.54005183838E+03  0.56312081140E+03  0.46999998093E+01 0.  1.
       -5    1    3    3    0  502  0.14925061015E+03 -0.56135777001E+02  0.16677746896E+03  0.23078948034E+03  0.46999998093E+01 0. -1.
</event>
<event>
 5   0  0.3013140E-03  0.6967887E+03  0.7818609E-02  0.9722740E-01
       -1   -1    0    0    0  501  0.00000000000E+00  0.00000000000E+00  0.16533948438E+03  0.16533948446E+03  0.50400001928E-02 0.  1.
        1   -1    0    0  501    0  0.00000000000E+00  0.00000000000E+00 -0.73411761727E+03  0.73411761729E+03  0.50400001928E-02 0. -1.
    10030    2    1    2    0    0  0.00000000000E+00  0.00000000000E+00 -0.56877813289E+03  0.89945710175E+03  0.69678871506E+03 0.  0.
        2    1    3    3  502    0  0.12343887247E+03 -0.49895027058E+02 -0.69998195250E+03  0.71253168547E+03  0.25500000920E-02 0. -1.
       -2    1    3    3    0  502 -0.12343887247E+03  0.49895027058E+02  0.13120381961E+03  0.18692541628E+03  0.25500000920E-02 0.  1.
</event>
<event>
 5   0  0.2938783E-03  0.6987342E+03  0.7818609E-02  0.9719399E-01
        1   -1    0    0  501    0  0.00000000000E+00  0.00000000000E+00  0.34018322017E+03  0.34018322021E+03  0.50400001928E-02 0. -1.
       -1   -1    0    0    0  501  0.00000000000E+00  0.00000000000E+00 -0.35879895073E+03  0.35879895076E+03  0.50400001928E-02 0.  1.
    10030    2    1    2    0    0  0.00000000000E+00  0.00000000000E+00 -0.18615730558E+02  0.69898217097E+03  0.69873423411E+03 0.  0.
        4    1    3    3  502    0  0.18287618784E+01 -0.26591319280E+03  0.21736159029E+03  0.34345428271E+03  0.12699999809E+01 0. -1.
       -4    1    3    3    0  502 -0.18287618784E+01  0.26591319280E+03 -0.23597732085E+03  0.35552788826E+03  0.12699999809E+01 0.  1.
</event>
<event>
 5   0  0.2938783E-03  0.7000289E+03  0.7818609E-02  0.9717183E-01
       -1   -1    0    0    0  501  0.00000000000E+00  0.00000000000E+00  0.29185460510E+03  0.29185460514E+03  0.50400001928E-02 0.  1.
        1   -1    0    0  501    0  0.00000000000E+00  0.00000000000E+00 -0.41976420913E+03  0.41976420916E+03  0.50400001928E-02 0. -1.
    10030    2    1    2    0    0  0.00000000000E+00  0.00000000000E+00 -0.12790960404E+03  0.71161881430E+03  0.70002890659E+03 0.  0.
        4    1    3    3  502    0 -0.21570887632E+02  0.96250385736E+02 -0.40534079028E+03  0.41717167822E+03  0.12699999809E+01 0. -1.
       -4    1    3    3    0  502  0.21570887632E+02 -0.96250385736E+02  0.27743118624E+03  0.29444713608E+03  0.12699999809E+01 0.  1.
</event>
<event>
 5   0  0.5113683E-03  0.7151073E+03  0.7818609E-02  0.9691740E-01
        2   -1    0    0  501    0  0.00000000000E+00  0.00000000000E+00  0.15070804910E+03  0.15070804912E+03  0.25500000920E-02 0. -1.
       -2   -1    0    0    0  501  0.00000000000E+00  0.00000000000E+00 -0.84829312299E+03  0.84829312300E+03  0.25500000920E-02 0.  1.
    10030    2    1    2    0    0  0.00000000000E+00  0.00000000000E+00 -0.69758507389E+03  0.99900117212E+03  0.71510726928E+03 0.  0.
        3    1    3    3  502    0  0.20495156211E+03  0.16557528538E+03 -0.68646174972E+03  0.73528910095E+03  0.10100000352E+00 0.  1.
       -3    1    3    3    0  502 -0.20495156211E+03 -0.16557528538E+03 -0.11123324172E+02  0.26371207117E+03  0.10100000352E+00 0. -1.
</event>
<event>
 5   0  0.3013140E-03  0.6998210E+03  0.7818609E-02  0.9717538E-01
        1   -1    0    0  501    0  0.00000000000E+00  0.00000000000E+00  0.39685931743E+03  0.39685931746E+03  0.50400001928E-02 0. -1.
       -1   -1    0    0    0  501  0.00000000000E+00  0.00000000000E+00 -0.30851575267E+03  0.30851575271E+03  0.50400001928E-02 0.  1.
    10030    2    1    2    0    0  0.00000000000E+00  0.00000000000E+00  0.88343564760E+02  0.70537507018E+03  0.69982098010E+03 0.  0.
        2    1    3    3  502    0  0.19697089452E+03 -0.16223530084E+03 -0.19714328494E+03  0.32246441809E+03  0.25500000920E-02 0.  1.
       -2    1    3    3    0  502 -0.19697089452E+03  0.16223530084E+03  0.28548684970E+03  0.38291065209E+03  0.25500000920E-02 0. -1.
</event>
<event>
 5   0  0.5113683E-03  0.7004606E+03  0.7818609E-02  0.9716445E-01
        2   -1    0    0  501    0  0.00000000000E+00  0.00000000000E+00  0.12121638585E+04  0.12121638586E+04  0.25500000920E-02 0. -1.
       -2   -1    0    0    0  501  0.00000000000E+00  0.00000000000E+00 -0.10119198736E+03  0.10119198739E+03  0.25500000920E-02 0.  1.
    10030    2    1    2    0    0  0.00000000000E+00  0.00000000000E+00  0.11109718712E+04  0.13133558459E+04  0.70046061953E+03 0.  0.
        3    1    3    3  502    0  0.91084913231E+02 -0.21833306223E+03  0.10397105516E+04  0.10662850598E+04  0.10100000352E+00 0. -1.
       -3    1    3    3    0  502 -0.91084913231E+02  0.21833306223E+03  0.71261319575E+02  0.24707078611E+03  0.10100000352E+00 0.  1.
</event>
<event>
 5   0  0.2934483E-03  0.7023665E+03  0.7818609E-02  0.9713194E-01
       -1   -1    0    0    0  501  0.00000000000E+00  0.00000000000E+00  0.83537987490E+02  0.83537987642E+02  0.50400001928E-02 0. -1.
        1   -1    0    0  501    0  0.00000000000E+00  0.00000000000E+00 -0.14763305477E+04  0.14763305477E+04  0.50400001928E-02 0.  1.
    10030    2    1    2    0    0  0.00000000000E+00  0.00000000000E+00 -0.13927925602E+04  0.15598685354E+04  0.70236652241E+03 0.  0.
        5    1    3    3  502    0 -0.81702483084E+02 -0.74044318348E+01 -0.14546796136E+04  0.14569986237E+04  0.46999998093E+01 0.  1.
       -5    1    3    3    0  502  0.81702483084E+02  0.74044318348E+01  0.61887053350E+02  0.10286991165E+03  0.46999998093E+01 0. -1.
</event>
<event>
 5   0  0.5113683E-03  0.6991032E+03  0.7818609E-02  0.9718767E-01
       -2   -1    0    0    0  501  0.00000000000E+00  0.00000000000E+00  0.65979623929E+02  0.65979623978E+02  0.25500000920E-02 0. -1.
        2   -1    0    0  501    0  0.00000000000E+00  0.00000000000E+00 -0.18518794691E+04  0.18518794691E+04  0.25500000920E-02 0.  1.
    10030    2    1    2    0    0  0.00000000000E+00  0.00000000000E+00 -0.17858998452E+04  0.19178590931E+04  0.69910317117E+03 0.  0.
        3    1    3    3  502    0  0.12806820689E+03 -0.72773795498E+02 -0.17625794457E+04  0.17687237782E+04  0.10100000352E+00 0.  1.
       -3    1    3    3    0  502 -0.12806820689E+03  0.72773795498E+02 -0.23320399525E+02  0.14913531494E+03  0.10100000352E+00 0. -1.
</event>
<event>
 5   0  0.2913582E-03  0.6999772E+03  0.7818609E-02  0.9717271E-01
       -1   -1    0    0    0  501  0.00000000000E+00  0.00000000000E+00  0.14897032086E+03  0.14897032095E+03  0.50400001928E-02 0. -1.
        1   -1    0    0  501    0  0.00000000000E+00  0.00000000000E+00 -0.82225787438E+03  0.82225787439E+03  0.50400001928E-02 0.  1.
    10030    2    1    2    0    0  0.00000000000E+00  0.00000000000E+00 -0.67328755351E+03  0.97122819534E+03  0.69997719799E+03 0.  0.
        1    1    3    3  502    0  0.19872094055E+03 -0.47591882685E+02  0.57608079043E+02  0.21230565303E+03  0.50400001928E-02 0. -1.
       -1    1    3    3    0  502 -0.19872094055E+03  0.47591882685E+02 -0.73089563256E+03  0.75892254231E+03  0.50400001928E-02 0.  1.
</event>
<event>
 5   0  0.2934483E-03  0.6989222E+03  0.7818609E-02  0.9719077E-01
       -1   -1    0    0    0  501  0.00000000000E+00  0.00000000000E+00  0.27754651224E+03  0.27754651229E+03  0.50400001928E-02 0. -1.
        1   -1    0    0  501    0  0.00000000000E+00  0.00000000000E+00 -0.44000935853E+03  0.44000935856E+03  0.50400001928E-02 0.  1.
    10030    2    1    2    0    0  0.00000000000E+00  0.00000000000E+00 -0.16246284629E+03  0.71755587084E+03  0.69892220694E+03 0.  0.
        5    1    3    3  502    0 -0.16059324137E+03  0.28054005155E+03  0.55001688408E+02  0.32793320268E+03  0.46999998093E+01 0.  1.
       -5    1    3    3    0  502  0.16059324137E+03 -0.28054005155E+03 -0.21746453470E+03  0.38962266816E+03  0.46999998093E+01 0. -1.
</event>
<event>
 5   0  0.5076796E-03  0.7013264E+03  0.7818609E-02  0.9714967E-01
        2   -1    0    0  501    0  0.00000000000E+00  0.00000000000E+00  0.40069030396E+03  0.40069030397E+03  0.25500000920E-02 0.  1.
       -2   -1    0    0    0  501  0.00000000000E+00  0.00000000000E+00 -0.30688207207E+03  0.30688207208E+03  0.25500000920E-02 0. -1.
    10030    2    1    2    0    0  0.00000000000E+00  0.00000000000E+00  0.93808231884E+02  0.70757237605E+03  0.70132637408E+03 0.  0.
        5    1    3    3  502    0  0.57593444683E+00 -0.29492347529E+03 -0.14442232296E+03  0.32842059215E+03  0.46999998093E+01 0. -1.
       -5    1    3    3    0  502 -0.57593444683E+00  0.29492347529E+03  0.23823055484E+03  0.37915178390E+03  0.46999998093E+01 0.  1.
</event>
<event>
 5   0  0.2913582E-03  0.6999648E+03  0.7818609E-02  0.9717292E-01
       -1   -1    0    0    0  501  0.00000000000E+00  0.00000000000E+00  0.71728357254E+03  0.71728357255E+03  0.50400001928E-02 0.  1.
        1   -1    0    0  501    0  0.00000000000E+00  0.00000000000E+00 -0.17076603097E+03  0.17076603104E+03  0.50400001928E-02 0. -1.
    10030    2    1    2    0    0  0.00000000000E+00  0.00000000000E+00  0.54651754157E+03  0.88804960360E+03  0.69996476711E+03 0.  0.
        1    1    3    3  502    0  0.34027491672E+03 -0.55002081123E+02  0.35017439777E+03  0.49135970201E+03  0.50400001928E-02 0.  1.
       -1    1    3    3    0  502 -0.34027491672E+03  0.55002081123E+02  0.19634314380E+03  0.39668990159E+03  0.50400001928E-02 0. -1.
</event>
<event>
 5   0  0.3013140E-03  0.7004804E+03  0.7818609E-02  0.9716411E-01
        1   -1    0    0  501    0  0.00000000000E+00  0.00000000000E+00  0.17486560627E+04  0.17486560627E+04  0.50400001928E-02 0. -1.
       -1   -1    0    0    0  501  0.00000000000E+00  0.00000000000E+00 -0.70149982329E+02  0.70149982510E+02  0.50400001928E-02 0.  1.
    10030    2    1    2    0    0  0.00000000000E+00  0.00000000000E+00  0.16785060804E+04  0.18188060453E+04  0.70048038394E+03 0.  0.
        2    1    3    3  502    0 -0.24543556766E+03  0.23551215923E+03  0.10559272530E+04  0.11093633123E+04  0.25500000920E-02 0. -1.
       -2    1    3    3    0  502  0.24543556766E+03 -0.23551215923E+03  0.62257882742E+03  0.70944273297E+03  0.25500000920E-02 0.  1.
</event>
<event>
 5   0  0.5023894E-03  0.7005528E+03  0.7818609E-02  0.9716287E-01
       -2   -1    0    0    0  501  0.00000000000E+00  0.00000000000E+00  0.16329767274E+03  0.16329767276E+03  0.25500000920E-02 0.  1.
        2   -1    0    0  501    0  0.00000000000E+00  0.00000000000E+00 -0.75134910620E+03  0.75134910621E+03  0.25500000920E-02 0. -1.
    10030    2    1    2    0    0  0.00000000000E+00  0.00000000000E+00 -0.58805143347E+03  0.91464677896E+03  0.70055281162E+03 0.  0.
        2    1    3    3  502    0  0.26216734667E+03  0.23198475633E+03 -0.30974273468E+03  0.46742829024E+03  0.25500000920E-02 0. -1.
       -2    1    3    3    0  502 -0.26216734667E+03 -0.23198475633E+03 -0.27830869879E+03  0.44721848872E+03  0.25500000920E-02 0.  1.
</event>
<event>
 5   0  0.5023894E-03  0.7004780E+03  0.7818609E-02  0.9716415E-01
        2   -1    0    0  501    0  0.00000000000E+00  0.00000000000E+00  0.99293392392E+03  0.99293392392E+03  0.25500000920E-02 0.  1.
       -2   -1    0    0    0  501  0.00000000000E+00  0.00000000000E+00 -0.12354028899E+03  0.12354028901E+03  0.25500000920E-02 0. -1.
    10030    2    1    2    0    0  0.00000000000E+00  0.00000000000E+00  0.86939363493E+03  0.11164742129E+04  0.70047796232E+03 0.  0.
        2    1    3    3  502    0  0.16968585913E+03  0.26893023878E+03  0.20071414358E+03  0.37603581153E+03  0.25500000920E-02 0. -1.
       -2    1    3    3    0  502 -0.16968585913E+03 -0.26893023878E+03  0.66867949135E+03  0.74043840140E+03  0.25500000920E-02 0.  1.
</event>
<event>
 5   0  0.4878235E-03  0.7000190E+03  0.7818609E-02  0.9717200E-01
       -2   -1    0    0    0  501  0.00000000000E+00  0.00000000000E+00  0.27491593496E+03  0.27491593497E+03  0.25500000920E-02 0. -1.
        2   -1    0    0  501    0  0.00000000000E+00  0.00000000000E+00 -0.44561492606E+03  0.44561492607E+03  0.25500000920E-02 0.  1.
    10030    2    1    2    0    0  0.00000000000E+00  0.00000000000E+00 -0.17069899110E+03  0.72053086104E+03  0.70001898271E+03 0.  0.
        4    1    3    3  502    0 -0.19188987367E+03  0.27082249666E+03  0.28984044382E+02  0.33317898500E+03  0.12699999809E+01 0. -1.
       -4    1    3    3    0  502  0.19188987367E+03 -0.27082249666E+03 -0.19968303548E+03  0.38735187605E+03  0.12699999809E+01 0.  1.
</event>
<event>
 5   0  0.5072407E-03  0.7000838E+03  0.7818609E-02  0.9717089E-01
        2   -1    0    0  501    0  0.00000000000E+00  0.00000000000E+00  0.25838435740E+03  0.25838435741E+03  0.25500000920E-02 0.  1.
       -2   -1    0    0    0  501  0.00000000000E+00  0.00000000000E+00 -0.47421343970E+03  0.47421343971E+03  0.25500000920E-02 0. -1.
    10030    2    1    2    0    0  0.00000000000E+00  0.00000000000E+00 -0.21582908230E+03  0.73259779711E+03  0.70008380896E+03 0.  0.
        1    1    3    3  502    0 -0.34084129784E+03 -0.38213261817E+02 -0.34691258778E+02  0.34472674273E+03  0.50400001928E-02 0.  1.
       -1    1    3    3    0  502  0.34084129784E+03  0.38213261817E+02 -0.18113782352E+03  0.38787105438E+03  0.50400001928E-02 0. -1.
</event>
<event>
 5   0  0.1981750E-03  0.7011647E+03  0.7818609E-02  0.9715243E-01
        4   -1    0    0  501    0  0.00000000000E+00  0.00000000000E+00  0.19909407632E+03  0.19909812688E+03  0.12699999809E+01 0.  1.
       -4   -1    0    0    0  501  0.00000000000E+00  0.00000000000E+00 -0.61732518126E+03  0.61732648762E+03  0.12699999809E+01 0. -1.
    10030    2    1    2    0    0  0.00000000000E+00  0.00000000000E+00 -0.41823110493E+03  0.81642461450E+03  0.70116466969E+03 0.  0.
        4    1    3    3  502    0 -0.28369389568E+03 -0.14390729000E+03 -0.38069854676E+03  0.49610939415E+03  0.12699999809E+01 0. -1.
       -4    1    3    3    0  502  0.28369389568E+03  0.14390729000E+03 -0.37532558171E+02  0.32031522034E+03  0.12699999809E+01 0.  1.
</event>
<event>
 5   0  0.4878235E-03  0.6998639E+03  0.7818609E-02  0.9717465E-01
        2   -1    0    0  501    0  0.00000000000E+00  0.00000000000E+00  0.90628259942E+03  0.90628259943E+03  0.25500000920E-02 0.  1.
       -2   -1    0    0    0  501  0.00000000000E+00  0.00000000000E+00 -0.13511498080E+03  0.13511498082E+03  0.25500000920E-02 0. -1.
    10030    2    1    2    0    0  0.00000000000E+00  0.00000000000E+00  0.77116761863E+03  0.10413975802E+04  0.69986386113E+03 0.  0.
        4    1    3    3  502    0 -0.15146769068E+03  0.24155768562E+03  0.83706128565E+02  0.29715468305E+03  0.12699999809E+01 0. -1.
       -4    1    3    3    0  502  0.15146769068E+03 -0.24155768562E+03  0.68746149006E+03  0.74424289719E+03  0.12699999809E+01 0.  1.
</event>
<event>
 5   0  0.5113683E-03  0.7013743E+03  0.7818609E-02  0.9714885E-01
       -2   -1    0    0    0  501  0.00000000000E+00  0.00000000000E+00  0.15153074508E+03  0.15153074510E+03  0.25500000920E-02 0. -1.
        2   -1    0    0  501    0  0.00000000000E+00  0.00000000000E+00 -0.81159425484E+03  0.81159425485E+03  0.25500000920E-02 0.  1.
    10030    2    1    2    0    0  0.00000000000E+00  0.00000000000E+00 -0.66006350976E+03  0.96312499994E+03  0.70137431418E+03 0.  0.
        3    1    3    3  502    0 -0.85960623296E+02  0.21387625815E+03  0.32890402784E+02  0.23283915339E+03  0.10100000352E+00 0. -1.
       -3    1    3    3    0  502  0.85960623296E+02 -0.21387625815E+03 -0.69295391255E+03  0.73028584655E+03  0.10100000352E+00 0.  1.
</event>
<event>
 5   0  0.2934483E-03  0.7006673E+03  0.7818609E-02  0.9716092E-01
       -1   -1    0    0    0  501  0.00000000000E+00  0.00000000000E+00  0.69378745804E+02  0.69378745987E+02  0.50400001928E-02 0.  1.
        1   -1    0    0  501    0  0.00000000000E+00  0.00000000000E+00 -0.17690382240E+04  0.17690382241E+04  0.50400001928E-02 0. -1.
    10030    2    1    2    0    0  0.00000000000E+00  0.00000000000E+00 -0.16996594782E+04  0.18384169700E+04  0.70066726322E+03 0.  0.
        5    1    3    3  502    0  0.12662490495E+03 -0.20623386529E+03 -0.18529975883E+03  0.30483497891E+03  0.46999998093E+01 0.  1.
       -5    1    3    3    0  502 -0.12662490495E+03  0.20623386529E+03 -0.15143597194E+04  0.15335819911E+04  0.46999998093E+01 0. -1.
</event>
<event>
 5   0  0.2934483E-03  0.7000836E+03  0.7818609E-02  0.9717089E-01
        1   -1    0    0  501    0  0.00000000000E+00  0.00000000000E+00  0.29828100530E+03  0.29828100534E+03  0.50400001928E-02 0.  1.
       -1   -1    0    0    0  501  0.00000000000E+00  0.00000000000E+00 -0.41078471646E+03  0.41078471649E+03  0.50400001928E-02 0. -1.
    10030    2    1    2    0    0  0.00000000000E+00  0.00000000000E+00 -0.11250371116E+03  0.70906572183E+03  0.70008364704E+03 0.  0.
        5    1    3    3  502    0 -0.33730057193E+03  0.86389521441E+02 -0.20124009545E+02  0.34880064650E+03  0.46999998093E+01 0.  1.
       -5    1    3    3    0  502  0.33730057193E+03 -0.86389521441E+02 -0.92379701616E+02  0.36026507534E+03  0.46999998093E+01 0. -1.
</event>
<event>
 5   0  0.2937617E-03  0.6999247E+03  0.7818609E-02  0.9717361E-01
       -1   -1    0    0    0  501  0.00000000000E+00  0.00000000000E+00  0.29314046805E+03  0.29314046809E+03  0.50400001928E-02 0. -1.
        1   -1    0    0  501    0  0.00000000000E+00  0.00000000000E+00 -0.41779845591E+03  0.41779845594E+03  0.50400001928E-02 0.  1.
    10030    2    1    2    0    0  0.00000000000E+00  0.00000000000E+00 -0.12465798786E+03  0.71093892403E+03  0.69992466721E+03 0.  0.
        3    1    3    3  502    0 -0.26825555134E+03  0.41112432165E+02  0.16210588014E+03  0.31611643342E+03  0.10100000352E+00 0. -1.
       -3    1    3    3    0  502  0.26825555134E+03 -0.41112432165E+02 -0.28676386800E+03  0.39482249061E+03  0.10100000352E+00 0.  1.
</event>
<event>
 5   0  0.1981750E-03  0.7001334E+03  0.7818609E-02  0.9717004E-01
        3   -1    0    0  501    0  0.00000000000E+00  0.00000000000E+00  0.86414010729E+03  0.86414011320E+03  0.10100000352E+00 0.  1.
       -3   -1    0    0    0  501  0.00000000000E+00  0.00000000000E+00 -0.14181343800E+03  0.14181347397E+03  0.10100000352E+00 0. -1.
    10030    2    1    2    0    0  0.00000000000E+00  0.00000000000E+00  0.72232666929E+03  0.10059535872E+04  0.70013341755E+03 0.  0.
        5    1    3    3  502    0 -0.15820174176E+03  0.13810569512E+03  0.76352873162E+03  0.79189594526E+03  0.46999998093E+01 0.  1.
       -5    1    3    3    0  502  0.15820174176E+03 -0.13810569512E+03 -0.41202062326E+02  0.21405764191E+03  0.46999998093E+01 0. -1.
</event>
<event>
 5   0  0.5076796E-03  0.7010327E+03  0.7818609E-02  0.9715468E-01
       -2   -1    0    0    0  501  0.00000000000E+00  0.00000000000E+00  0.35940010323E+03  0.35940010324E+03  0.25500000920E-02 0.  1.
        2   -1    0    0  501    0  0.00000000000E+00  0.00000000000E+00 -0.34185214369E+03  0.34185214370E+03  0.25500000920E-02 0. -1.
    10030    2    1    2    0    0  0.00000000000E+00  0.00000000000E+00  0.17547959545E+02  0.70125224694E+03  0.70103265470E+03 0.  0.
        5    1    3    3  502    0 -0.32299945523E+03 -0.13424378102E+03  0.30907024550E+02  0.35117997521E+03  0.46999998093E+01 0.  1.
       -5    1    3    3    0  502  0.32299945523E+03  0.13424378102E+03 -0.13359065005E+02  0.35007227173E+03  0.46999998093E+01 0. -1.
</event>
<event>
 5   0  0.2938783E-03  0.7003335E+03  0.7818609E-02  0.9716662E-01
       -1   -1    0    0    0  501  0.00000000000E+00  0.00000000000E+00  0.13826102107E+04  0.13826102108E+04  0.50400001928E-02 0. -1.
        1   -1    0    0  501    0  0.00000000000E+00  0.00000000000E+00 -0.88684986792E+02  0.88684986935E+02  0.50400001928E-02 0.  1.
    10030    2    1    2    0    0  0.00000000000E+00  0.00000000000E+00  0.12939252239E+04  0.14712951977E+04  0.70033354451E+03 0.  0.
        4    1    3    3  502    0 -0.10401613879E+03 -0.24895156515E+03  0.11158753474E+04  0.11480312028E+04  0.12699999809E+01 0. -1.
       -4    1    3    3    0  502  0.10401613879E+03  0.24895156515E+03  0.17804987659E+03  0.32326399486E+03  0.12699999809E+01 0.  1.
</event>
<event>
 5   0  0.5072407E-03  0.7011193E+03  0.7818609E-02  0.9715320E-01
        2   -1    0    0  501    0  0.00000000000E+00  0.00000000000E+00  0.16529462293E+04  0.16529462293E+04  0.25500000920E-02 0. -1.
       -2   -1    0    0    0  501  0.00000000000E+00  0.00000000000E+00 -0.74347295118E+02  0.74347295162E+02  0.25500000920E-02 0.  1.
    10030    2    1    2    0    0  0.00000000000E+00  0.00000000000E+00  0.15785989342E+04  0.17272935245E+04  0.70111933697E+03 0.  0.
        1    1    3    3  502    0 -0.79070741396E+02  0.21484722251E+03  0.13525254917E+03  0.26590367287E+03  0.50400001928E-02 0.  1.
       -1    1    3    3    0  502  0.79070741396E+02 -0.21484722251E+03  0.14433463851E+04  0.14613898516E+04  0.50400001928E-02 0. -1.
</event>
<event>
 5   0  0.1981750E-03  0.7012874E+03  0.7818609E-02  0.9715033E-01
        3   -1    0    0  501    0  0.00000000000E+00  0.00000000000E+00  0.19508260584E+03  0.19508263198E+03  0.10100000352E+00 0. -1.
       -3   -1    0    0    0  501  0.00000000000E+00  0.00000000000E+00 -0.63025083621E+03  0.63025084431E+03  0.10100000352E+00 0.  1.
    10030    2    1    2    0    0  0.00000000000E+00  0.00000000000E+00 -0.43516823038E+03  0.82533347629E+03  0.70128735790E+03 0.  0.
        4    1    3    3  502    0 -0.59736798987E+02 -0.34204886501E+03 -0.16012778495E+03  0.38237211146E+03  0.12699999809E+01 0. -1.
       -4    1    3    3    0  502  0.59736798987E+02  0.34204886501E+03 -0.27504044543E+03  0.44296136483E+03  0.12699999809E+01 0.  1.
</event>
<event>
 5   0  0.5023894E-03  0.6961979E+03  0.7818609E-02  0.9723756E-01
        2   -1    0    0  501    0  0.00000000000E+00  0.00000000000E+00  0.61032201614E+03  0.61032201615E+03  0.25500000920E-02 0. -1.
       -2   -1    0    0    0  501  0.00000000000E+00  0.00000000000E+00 -0.19853928231E+03  0.19853928233E+03  0.25500000920E-02 0.  1.
    10030    2    1    2    0    0  0.00000000000E+00  0.00000000000E+00  0.41178273383E+03  0.80886129848E+03  0.69619794620E+03 0.  0.
        2    1    3    3  502    0 -0.86847932303E+02 -0.17987338834E+03 -0.12533294088E+03  0.23580785664E+03  0.25500000920E-02 0.  1.
       -2    1    3    3    0  502  0.86847932303E+02  0.17987338834E+03  0.53711567471E+03  0.57305344184E+03  0.25500000920E-02 0. -1.
</event>
<event>
 5   0  0.2934483E-03  0.6989000E+03  0.7818609E-02  0.9719115E-01
       -1   -1    0    0    0  501  0.00000000000E+00  0.00000000000E+00  0.18227090982E+03  0.18227090989E+03  0.50400001928E-02 0. -1.
        1   -1    0    0  501    0  0.00000000000E+00  0.00000000000E+00 -0.66996595609E+03  0.66996595611E+03  0.50400001928E-02 0.  1.
    10030    2    1    2    0    0  0.00000000000E+00  0.00000000000E+00 -0.48769504627E+03  0.85223686600E+03  0.69890000545E+03 0.  0.
        5    1    3    3  502    0 -0.62203336769E+02 -0.25251151368E+03  0.40724136295E+02  0.26327146621E+03  0.46999998093E+01 0. -1.
       -5    1    3    3    0  502  0.62203336769E+02  0.25251151368E+03 -0.52841918256E+03  0.58896539979E+03  0.46999998093E+01 0.  1.
</event>
<event>
 5   0  0.4878235E-03  0.7009037E+03  0.7818609E-02  0.9715688E-01
       -2   -1    0    0    0  501  0.00000000000E+00  0.00000000000E+00  0.18701220939E+03  0.18701220941E+03  0.25500000920E-02 0.  1.
        2   -1    0    0  501    0  0.00000000000E+00  0.00000000000E+00 -0.65672980532E+03  0.65672980533E+03  0.25500000920E-02 0. -1.
    10030    2    1    2    0    0  0.00000000000E+00  0.00000000000E+00 -0.46971759593E+03  0.84374201474E+03  0.70090367919E+03 0.  0.
        4    1    3    3  502    0 -0.24432036107E+03 -0.40427327168E+02 -0.53336047233E+03  0.58804915947E+03  0.12699999809E+01 0. -1.
       -4    1    3    3    0  502  0.24432036107E+03  0.40427327168E+02  0.63642876394E+02  0.25569285526E+03  0.12699999809E+01 0.  1.
</event>
<event>
 5   0  0.5076796E-03  0.7022463E+03  0.7818609E-02  0.9713398E-01
        2   -1    0    0  501    0  0.00000000000E+00  0.00000000000E+00  0.57068076275E+03  0.57068076275E+03  0.25500000920E-02 0. -1.
       -2   -1    0    0    0  501  0.00000000000E+00  0.00000000000E+00 -0.21603581023E+03  0.21603581025E+03  0.25500000920E-02 0.  1.
    10030    2    1    2    0    0  0.00000000000E+00  0.00000000000E+00  0.35464495252E+03  0.78671657300E+03  0.70224634131E+03 0.  0.
        5    1    3    3  502    0 -0.14365033523E+03  0.19421443087E+03 -0.10809926451E+03  0.26469266132E+03  0.46999998093E+01 0.  1.
       -5    1    3    3    0  502  0.14365033523E+03 -0.19421443087E+03  0.46274421703E+03  0.52202391168E+03  0.46999998093E+01 0. -1.
</event>
<event>
 5   0  0.2938783E-03  0.7024349E+03  0.7818609E-02  0.9713077E-01
        1   -1    0    0  501    0  0.00000000000E+00  0.00000000000E+00  0.57689494786E+03  0.57689494788E+03  0.50400001928E-02 0.  1.
       -1   -1    0    0    0  501  0.00000000000E+00  0.00000000000E+00 -0.21382352072E+03  0.21382352078E+03  0.50400001928E-02 0. -1.
    10030    2    1    2    0    0  0.00000000000E+00  0.00000000000E+00  0.36307142713E+03  0.79071846866E+03  0.70243493327E+03 0.  0.
        4    1    3    3  502    0 -0.20317499132E+01 -0.69149894821E+02 -0.20607550786E+03  0.21738114868E+03  0.12699999809E+01 0. -1.
       -4    1    3    3    0  502  0.20317499132E+01  0.69149894821E+02  0.56914693500E+03  0.57333731998E+03  0.12699999809E+01 0.  1.
</event>
<event>
 5   0  0.5113683E-03  0.6936490E+03  0.7818609E-02  0.9728155E-01
        2   -1    0    0  501    0  0.00000000000E+00  0.00000000000E+00  0.21902472362E+04  0.21902472362E+04  0.25500000920E-02 0. -1.
       -2   -1    0    0    0  501  0.00000000000E+00  0.00000000000E+00 -0.54919477191E+02  0.54919477250E+02  0.25500000920E-02 0.  1.
    10030    2    1    2    0    0  0.00000000000E+00  0.00000000000E+00  0.21353277591E+04  0.22451667135E+04  0.69364899827E+03 0.  0.
        3    1    3    3  502    0 -0.30728936863E+03 -0.11988300891E+03  0.14145932623E+04  0.14525401199E+04  0.10100000352E+00 0. -1.
       -3    1    3    3    0  502  0.30728936863E+03  0.11988300891E+03  0.72073449674E+03  0.79262659361E+03  0.10100000352E+00 0.  1.
</event>
<event>
 5   0  0.2934483E-03  0.7000597E+03  0.7818609E-02  0.9717130E-01
       -1   -1    0    0    0  501  0.00000000000E+00  0.00000000000E+00  0.41603549775E+03  0.41603549779E+03  0.50400001928E-02 0. -1.
        1   -1    0    0  501    0  0.00000000000E+00  0.00000000000E+00 -0.29449621626E+03  0.29449621630E+03  0.50400001928E-02 0.  1.
    10030    2    1    2    0    0  0.00000000000E+00  0.00000000000E+00  0.12153928150E+03  0.71053171408E+03  0.70005965444E+03 0.  0.
        5    1    3    3  502    0 -0.11334370217E+03  0.26740796289E+03  0.25899859676E+03  0.38917371000E+03  0.46999998093E+01 0. -1.
       -5    1    3    3    0  502  0.11334370217E+03 -0.26740796289E+03 -0.13745931526E+03  0.32135800408E+03  0.46999998093E+01 0.  1.
</event>
<event>
 5   0  0.2913582E-03  0.6994137E+03  0.7818609E-02  0.9718235E-01
        1   -1    0    0  501    0  0.00000000000E+00  0.00000000000E+00  0.18428390259E+03  0.18428390265E+03  0.50400001928E-02 0.  1.
       -1   -1    0    0    0  501  0.00000000000E+00  0.00000000000E+00 -0.66362207084E+03  0.66362207086E+03  0.50400001928E-02 0. -1.
    10030    2    1    2    0    0  0.00000000000E+00  0.00000000000E+00 -0.47933816825E+03  0.84790597351E+03  0.69941365470E+03 0.  0.
        1    1    3    3  502    0  0.28290778441E+03  0.32323505363E+02 -0.48578062275E+03  0.56308475112E+03  0.50400001928E-02 0. -1.
       -1    1    3    3    0  502 -0.28290778441E+03 -0.32323505363E+02  0.64424544997E+01  0.28482122239E+03  0.50400001928E-02 0.  1.
</event>
<event>
 5   0  0.2937617E-03  0.6993956E+03  0.7818609E-02  0.9718266E-01
        1   -1    0    0  501    0  0.00000000000E+00  0.00000000000E+00  0.96221818360E+03  0.96221818361E+03  0.50400001928E-02 0. -1.
       -1   -1    0    0    0  501  0.00000000000E+00  0.00000000000E+00 -0.12709026882E+03  0.12709026892E+03  0.50400001928E-02 0.  1.
    10030    2    1    2    0    0  0.00000000000E+00  0.00000000000E+00  0.83512791478E+03  0.10893084525E+04  0.69939564676E+03 0.  0.
        3    1    3    3  502    0 -0.15664639999E+03 -0.24343061253E+03  0.11199221836E+03  0.31038496246E+03  0.10100000352E+00 0.  1.
       -3    1    3    3    0  502  0.15664639999E+03  0.24343061253E+03  0.72313569642E+03  0.77892349007E+03  0.10100000352E+00 0. -1.
</event>
<event>
 5   0  0.2938783E-03  0.7014841E+03  0.7818609E-02  0.9714698E-01
       -1   -1    0    0    0  501  0.00000000000E+00  0.00000000000E+00  0.49055892063E+03  0.49055892065E+03  0.50400001928E-02 0. -1.
        1   -1    0    0  501    0  0.00000000000E+00  0.00000000000E+00 -0.25077513402E+03  0.25077513407E+03  0.50400001928E-02 0.  1.
    10030    2    1    2    0    0  0.00000000000E+00  0.00000000000E+00  0.23978378661E+03  0.74133405472E+03  0.70148408134E+03 0.  0.
        4    1    3    3  502    0  0.33054227814E+03 -0.87250215839E+02  0.37031342635E+02  0.34386586199E+03  0.12699999809E+01 0.  1.
       -4    1    3    3    0  502 -0.33054227814E+03  0.87250215839E+02  0.20275244397E+03  0.39746819274E+03  0.12699999809E+01 0. -1.
</event>
<event>
 5   0  0.5113683E-03  0.7006886E+03  0.7818609E-02  0.9716055E-01
        2   -1    0    0  501    0  0.00000000000E+00  0.00000000000E+00  0.50350967340E+03  0.50350967341E+03  0.25500000920E-02 0. -1.
       -2   -1    0    0    0  501  0.00000000000E+00  0.00000000000E+00 -0.24377113239E+03  0.24377113241E+03  0.25500000920E-02 0.  1.
    10030    2    1    2    0    0  0.00000000000E+00  0.00000000000E+00  0.25973854101E+03  0.74728080581E+03  0.70068858493E+03 0.  0.
        3    1    3    3  502    0  0.92455789735E+02 -0.22352360236E+03 -0.14041984351E+03  0.27969379063E+03  0.10100000352E+00 0.  1.
       -3    1    3    3    0  502 -0.92455789735E+02  0.22352360236E+03  0.40015838452E+03  0.46758701518E+03  0.10100000352E+00 0. -1.
</event>
<event>
 5   0  0.2934483E-03  0.6972388E+03  0.7818609E-02  0.9721966E-01
        1   -1    0    0  501    0  0.00000000000E+00  0.00000000000E+00  0.56650732130E+03  0.56650732132E+03  0.50400001928E-02 0.  1.
       -1   -1    0    0    0  501  0.00000000000E+00  0.00000000000E+00 -0.21453473975E+03  0.21453473981E+03  0.50400001928E-02 0. -1.
    10030    2    1    2    0    0  0.00000000000E+00  0.00000000000E+00  0.35197258155E+03  0.78104206113E+03  0.69723884221E+03 0.  0.
        5    1    3    3  502    0  0.13489811568E+03  0.24470440455E+02  0.53500264985E+03  0.55230990342E+03  0.46999998093E+01 0.  1.
       -5    1    3    3    0  502 -0.13489811568E+03 -0.24470440455E+02 -0.18303006830E+03  0.22873215771E+03  0.46999998093E+01 0. -1.
</event>
<event>
 5   0  0.5113683E-03  0.7008403E+03  0.7818609E-02  0.9715796E-01
       -2   -1    0    0    0  501  0.00000000000E+00  0.00000000000E+00  0.87061799966E+02  0.87061800003E+02  0.25500000920E-02 0.  1.
        2   -1    0    0  501    0  0.00000000000E+00  0.00000000000E+00 -0.14104266627E+04  0.14104266627E+04  0.25500000920E-02 0. -1.
    10030    2    1    2    0    0  0.00000000000E+00  0.00000000000E+00 -0.13233648627E+04  0.14974884627E+04  0.70084030707E+03 0.  0.
        3    1    3    3  502    0  0.20172960746E+03  0.19828943787E+03 -0.11036277628E+04  0.11393014459E+04  0.10100000352E+00 0. -1.
       -3    1    3    3    0  502 -0.20172960746E+03 -0.19828943787E+03 -0.21973709996E+03  0.35818701679E+03  0.10100000352E+00 0.  1.
</event>
<event>
 5   0  0.5076796E-03  0.7001123E+03  0.7818609E-02  0.9717040E-01
       -2   -1    0    0    0  501  0.00000000000E+00  0.00000000000E+00  0.58521579740E+03  0.58521579741E+03  0.25500000920E-02 0.  1.
        2   -1    0    0  501    0  0.00000000000E+00  0.00000000000E+00 -0.20939164348E+03  0.20939164349E+03  0.25500000920E-02 0. -1.
    10030    2    1    2    0    0  0.00000000000E+00  0.00000000000E+00  0.37582415393E+03  0.79460744090E+03  0.70011226990E+03 0.  0.
        5    1    3    3  502    0  0.22117227640E+03  0.32785869697E+00 -0.11999780153E+03  0.25167209959E+03  0.46999998093E+01 0. -1.
       -5    1    3    3    0  502 -0.22117227640E+03 -0.32785869697E+00  0.49582195546E+03  0.54293534132E+03  0.46999998093E+01 0.  1.
</event>
<event>
 5   0  0.3013140E-03  0.6998668E+03  0.7818609E-02  0.9717460E-01
        1   -1    0    0  501    0  0.00000000000E+00  0.00000000000E+00  0.14665708602E+04  0.14665708602E+04  0.50400001928E-02 0. -1.
       -1   -1    0    0    0  501  0.00000000000E+00  0.00000000000E+00 -0.83496389455E+02  0.83496389607E+02  0.50400001928E-02 0.  1.
    10030    2    1    2    0    0  0.00000000000E+00  0.00000000000E+00  0.13830744708E+04  0.15500672498E+04  0.69986676399E+03 0.  0.
        2    1    3    3  502    0 -0.22443209209E+03 -0.48376841597E+02  0.12764436484E+04  0.12969265478E+04  0.25500000920E-02 0. -1.
       -2    1    3    3    0  502  0.22443209209E+03  0.48376841597E+02  0.10663082238E+03  0.25314070208E+03  0.25500000920E-02 0.  1.
</event>
<event>
 5   0  0.2938783E-03  0.7041292E+03  0.7818609E-02  0.9710197E-01
        1   -1    0    0  501    0  0.00000000000E+00  0.00000000000E+00  0.24156518991E+03  0.24156518996E+03  0.50400001928E-02 0. -1.
       -1   -1    0    0    0  501  0.00000000000E+00  0.00000000000E+00 -0.51310985441E+03  0.51310985443E+03  0.50400001928E-02 0.  1.
    10030    2    1    2    0    0  0.00000000000E+00  0.00000000000E+00 -0.27154466450E+03  0.75467504439E+03  0.70412919114E+03 0.  0.
        4    1    3    3  502    0 -0.30935330992E+02  0.71990120059E+01 -0.51156868361E+03  0.51255531548E+03  0.12699999809E+01 0.  1.
       -4    1    3    3    0  502  0.30935330992E+02 -0.71990120059E+01  0.24002401911E+03  0.24211972891E+03  0.12699999809E+01 0. -1.
</event>
<event>
 5   0  0.5023894E-03  0.6999722E+03  0.7818609E-02  0.9717280E-01
       -2   -1    0    0    0  501  0.00000000000E+00  0.00000000000E+00  0.40406549618E+03  0.40406549619E+03  0.25500000920E-02 0.  1.
        2   -1    0    0  501    0  0.00000000000E+00  0.00000000000E+00 -0.30314461440E+03  0.30314461441E+03  0.25500000920E-02 0. -1.
    10030    2    1    2    0    0  0.00000000000E+00  0.00000000000E+00  0.10092088178E+03  0.70721011060E+03  0.69997222527E+03 0.  0.
        2    1    3    3  502    0  0.15255744271E+03  0.28048845498E+03 -0.94348960066E+02  0.33294034447E+03  0.25500000920E-02 0. -1.
       -2    1    3    3    0  502 -0.15255744271E+03 -0.28048845498E+03  0.19526984184E+03  0.37426976613E+03  0.25500000920E-02 0.  1.
</event>
<event>
 5   0  0.5113683E-03  0.7014902E+03  0.7818609E-02  0.9714687E-01
        2   -1    0    0  501    0  0.00000000000E+00  0.00000000000E+00  0.45544172367E+03  0.45544172368E+03  0.25500000920E-02 0.  1.
       -2   -1    0    0    0  501  0.00000000000E+00  0.00000000000E+00 -0.27011606587E+03  0.27011606588E+03  0.25500000920E-02 0. -1.
    10030    2    1    2    0    0  0.00000000000E+00  0.00000000000E+00  0.18532565780E+03  0.72555778956E+03  0.70149020417E+03 0.  0.
        3    1    3    3  502    0 -0.42132996544E+01  0.14690407279E+03  0.42205996507E+03  0.44691518526E+03  0.10100000352E+00 0.  1.
       -3    1    3    3    0  502  0.42132996544E+01 -0.14690407279E+03 -0.23673430726E+03  0.27864260431E+03  0.10100000352E+00 0. -1.
</event>
<event>
 5   0  0.2913582E-03  0.7006066E+03  0.7818609E-02  0.9716195E-01
        1   -1    0    0  501    0  0.00000000000E+00  0.00000000000E+00  0.30687689451E+03  0.30687689456E+03  0.50400001928E-02 0. -1.
       -1   -1    0    0    0  501  0.00000000000E+00  0.00000000000E+00 -0.39987504038E+03  0.39987504041E+03  0.50400001928E-02 0.  1.
    10030    2    1    2    0    0  0.00000000000E+00  0.00000000000E+00 -0.92998145861E+02  0.70675193496E+03  0.70060662461E+03 0.  0.
        1    1    3    3  502    0  0.17169646772E+03 -0.15608788140E+03 -0.31123057428E+03  0.38821073419E+03  0.50400001928E-02 0.  1.
       -1    1    3    3    0  502 -0.17169646772E+03  0.15608788140E+03  0.21823242842E+03  0.31854120077E+03  0.50400001928E-02 0. -1.
</event>
<event>
 5   0  0.5076796E-03  0.6987352E+03  0.7818609E-02  0.9719398E-01
       -2   -1    0    0    0  501  0.00000000000E+00  0.00000000000E+00  0.16356389329E+03  0.16356389331E+03  0.25500000920E-02 0. -1.
        2   -1    0    0  501    0  0.00000000000E+00  0.00000000000E+00 -0.74623881173E+03  0.74623881174E+03  0.25500000920E-02 0.  1.
    10030    2    1    2    0    0  0.00000000000E+00  0.00000000000E+00 -0.58267491844E+03  0.90980270505E+03  0.69873521561E+03 0.  0.
        5    1    3    3  502    0 -0.12011940130E+03 -0.32801235781E+03 -0.29635642101E+03  0.45811570123E+03  0.46999998093E+01 0. -1.
       -5    1    3    3    0  502  0.12011940130E+03  0.32801235781E+03 -0.28631849744E+03  0.45168700382E+03  0.46999998093E+01 0.  1.
</event>
<event>
 5   0  0.2938783E-03  0.7025938E+03  0.7818609E-02  0.9712807E-01
       -1   -1    0    0    0  501  0.00000000000E+00  0.00000000000E+00  0.17114412365E+03  0.17114412372E+03  0.50400001928E-02 0. -1.
        1   -1    0    0  501    0  0.00000000000E+00  0.00000000000E+00 -0.72108523479E+03  0.72108523481E+03  0.50400001928E-02 0.  1.
    10030    2    1    2    0    0  0.00000000000E+00  0.00000000000E+00 -0.54994111114E+03  0.89222935853E+03  0.70259376776E+03 0.  0.
        4    1    3    3  502    0  0.19498340833E+03  0.72915403876E+02 -0.63431791542E+03  0.66760468570E+03  0.12699999809E+01 0.  1.
       -4    1    3    3    0  502 -0.19498340833E+03 -0.72915403876E+02  0.84376804278E+02  0.22462467283E+03  0.12699999809E+01 0. -1.
</event>
<event>
 5   0  0.2934483E-03  0.6989744E+03  0.7818609E-02  0.9718988E-01
       -1   -1    0    0    0  501  0.00000000000E+00  0.00000000000E+00  0.19010901417E+03  0.19010901424E+03  0.50400001928E-02 0. -1.
        1   -1    0    0  501    0  0.00000000000E+00  0.00000000000E+00 -0.64248042579E+03  0.64248042581E+03  0.50400001928E-02 0.  1.
    10030    2    1    2    0    0  0.00000000000E+00  0.00000000000E+00 -0.45237141162E+03  0.83258944005E+03  0.69897444992E+03 0.  0.
        5    1    3    3  502    0 -0.30041258136E+03 -0.17820158217E+03 -0.23899869068E+03  0.42325640819E+03  0.46999998093E+01 0.  1.
       -5    1    3    3    0  502  0.30041258136E+03  0.17820158217E+03 -0.21337272093E+03  0.40933303186E+03  0.46999998093E+01 0. -1.
</event>
<event>
 5   0  0.5023894E-03  0.7014339E+03  0.7818609E-02  0.9714783E-01
        2   -1    0    0  501    0  0.00000000000E+00  0.00000000000E+00  0.14669845399E+04  0.14669845399E+04  0.25500000920E-02 0. -1.
       -2   -1    0    0    0  501  0.00000000000E+00  0.00000000000E+00 -0.83847084328E+02  0.83847084366E+02  0.25500000920E-02 0.  1.
    10030    2    1    2    0    0  0.00000000000E+00  0.00000000000E+00  0.13831374556E+04  0.15508316243E+04  0.70143389270E+03 0.  0.
        2    1    3    3  502    0  0.16786846138E+03  0.18927770962E+03  0.15454800714E+03  0.29646409260E+03  0.25500000920E-02 0.  1.
       -2    1    3    3    0  502 -0.16786846138E+03 -0.18927770962E+03  0.12285894484E+04  0.12543675317E+04  0.25500000920E-02 0. -1.
</event>
<event>
 5   0  0.2913582E-03  0.6978749E+03  0.7818609E-02  0.9720873E-01
       -1   -1    0    0    0  501  0.00000000000E+00  0.00000000000E+00  0.11403052148E+03  0.11403052160E+03  0.50400001928E-02 0.  1.
        1   -1    0    0  501    0  0.00000000000E+00  0.00000000000E+00 -0.10677609341E+04  0.10677609341E+04  0.50400001928E-02 0. -1.
    10030    2    1    2    0    0  0.00000000000E+00  0.00000000000E+00 -0.95373041258E+03  0.11817914557E+04  0.69787487763E+03 0.  0.
        1    1    3    3  502    0  0.22800816083E+03 -0.22751069999E+03 -0.24961619368E+03  0.40750102354E+03  0.50400001928E-02 0.  1.
       -1    1    3    3    0  502 -0.22800816083E+03  0.22751069999E+03 -0.70411421890E+03  0.77429043214E+03  0.50400001928E-02 0. -1.
</event>
<event>
 5   0  0.3013140E-03  0.6997124E+03  0.7818609E-02  0.9717724E-01
       -1   -1    0    0    0  501  0.00000000000E+00  0.00000000000E+00  0.57213965222E+03  0.57213965224E+03  0.50400001928E-02 0. -1.
        1   -1    0    0  501    0  0.00000000000E+00  0.00000000000E+00 -0.21393267069E+03  0.21393267075E+03  0.50400001928E-02 0.  1.
    10030    2    1    2    0    0  0.00000000000E+00  0.00000000000E+00  0.35820698153E+03  0.78607232299E+03  0.69971240903E+03 0.  0.
        2    1    3    3  502    0  0.91934904362E+02 -0.33720501632E+03  0.16169537309E+03  0.38510341904E+03  0.25500000920E-02 0.  1.
       -2    1    3    3    0  502 -0.91934904362E+02  0.33720501632E+03  0.19651160845E+03  0.40096890395E+03  0.25500000920E-02 0. -1.
</event>
<event>
 5   0  0.5076796E-03  0.6997581E+03  0.7818609E-02  0.9717646E-01
        2   -1    0    0  501    0  0.00000000000E+00  0.00000000000E+00  0.16662715626E+04  0.16662715626E+04  0.25500000920E-02 0.  1.
       -2   -1    0    0    0  501  0.00000000000E+00  0.00000000000E+00 -0.73466618473E+02  0.73466618518E+02  0.25500000920E-02 0. -1.
    10030    2    1    2    0    0  0.00000000000E+00  0.00000000000E+00  0.15928049442E+04  0.17397381812E+04  0.69975806449E+03 0.  0.
        5    1    3    3  502    0 -0.24366434724E+02 -0.97229752375E+02 -0.36922881159E+02  0.10692397785E+03  0.46999998093E+01 0. -1.
       -5    1    3    3    0  502  0.24366434724E+02  0.97229752375E+02  0.16297278253E+04  0.16328142033E+04  0.46999998093E+01 0.  1.
</event>
<event>
 5   0  0.4878235E-03  0.7104983E+03  0.7818609E-02  0.9699445E-01
       -2   -1    0    0    0  501  0.00000000000E+00  0.00000000000E+00  0.35074637237E+03  0.35074637238E+03  0.25500000920E-02 0.  1.
        2   -1    0    0  501    0  0.00000000000E+00  0.00000000000E+00 -0.35980974117E+03  0.35980974118E+03  0.25500000920E-02 0. -1.
    10030    2    1    2    0    0  0.00000000000E+00  0.00000000000E+00 -0.90633687996E+01  0.71055611357E+03  0.71049830814E+03 0.  0.
        4    1    3    3  502    0 -0.26442431300E+03 -0.89671648860E+02  0.21512025924E+03  0.35247632651E+03  0.12699999809E+01 0.  1.
       -4    1    3    3    0  502  0.26442431300E+03  0.89671648860E+02 -0.22418362804E+03  0.35807978705E+03  0.12699999809E+01 0. -1.
</event>
<event>
 5   0  0.3013140E-03  0.7009938E+03  0.7818609E-02  0.9715534E-01
        1   -1    0    0  501    0  0.00000000000E+00  0.00000000000E+00  0.33186614164E+03  0.33186614168E+03  0.50400001928E-02 0.  1.
       -1   -1    0    0    0  501  0.00000000000E+00  0.00000000000E+00 -0.37017361446E+03  0.37017361449E+03  0.50400001928E-02 0. -1.
    10030    2    1    2    0    0  0.00000000000E+00  0.00000000000E+00 -0.38307472820E+02  0.70203975617E+03  0.70099383504E+03 0.  0.
        2    1    3    3  502    0 -0.13243630397E+03 -0.88690467936E+01  0.30572209655E+03  0.33329271658E+03  0.25500000920E-02 0.  1.
       -2    1    3    3    0  502  0.13243630397E+03  0.88690467936E+01 -0.34402956937E+03  0.36874703959E+03  0.25500000920E-02 0. -1.
</event>
<event>
 5   0  0.2937617E-03  0.6997286E+03  0.7818609E-02  0.9717696E-01
        1   -1    0    0  501    0  0.00000000000E+00  0.00000000000E+00  0.48854347324E+03  0.48854347326E+03  0.50400001928E-02 0.  1.
       -1   -1    0    0    0  501  0.00000000000E+00  0.00000000000E+00 -0.25055096740E+03  0.25055096745E+03  0.50400001928E-02 0. -1.
    10030    2    1    2    0    0  0.00000000000E+00  0.00000000000E+00  0.23799250584E+03  0.73909444072E+03  0.69972863273E+03 0.  0.
        3    1    3    3  502    0  0.14272620335E+03  0.28494848313E+03  0.27147341273E+03  0.41864571082E+03  0.10100000352E+00 0.  1.
       -3    1    3    3    0  502 -0.14272620335E+03 -0.28494848313E+03 -0.33480906897E+02  0.32044872990E+03  0.10100000352E+00 0. -1.
</event>
<event>
 5   0  0.3013140E-03  0.6991432E+03  0.7818609E-02  0.9718699E-01
        1   -1    0    0  501    0  0.00000000000E+00  0.00000000000E+00  0.76919433673E+03  0.76919433674E+03  0.50400001928E-02 0. -1.
       -1   -1    0    0    0  501  0.00000000000E+00  0.00000000000E+00 -0.15886789630E+03  0.15886789638E+03  0.50400001928E-02 0.  1.
    10030    2    1    2    0    0  0.00000000000E+00  0.00000000000E+00  0.61032644042E+03  0.92806223312E+03  0.69914315034E+03 0.  0.
        2    1    3    3  502    0  0.52801889822E+02  0.29552010501E+02  0.76218982813E+03  0.76458792497E+03  0.25500000920E-02 0. -1.
       -2    1    3    3    0  502 -0.52801889822E+02 -0.29552010501E+02 -0.15186338771E+03  0.16347430815E+03  0.25500000920E-02 0.  1.
</event>
<event>
 5   0  0.5113683E-03  0.6994921E+03  0.7818609E-02  0.9718101E-01
        2   -1    0    0  501    0  0.00000000000E+00  0.00000000000E+00  0.48023899763E+03  0.48023899763E+03  0.25500000920E-02 0.  1.
       -2   -1    0    0    0  501  0.00000000000E+00  0.00000000000E+00 -0.25471129111E+03  0.25471129113E+03  0.25500000920E-02 0. -1.
    10030    2    1    2    0    0  0.00000000000E+00  0.00000000000E+00  0.22552770651E+03  0.73495028876E+03  0.69949208755E+03 0.  0.
        3    1    3    3  502    0 -0.21390475091E+03  0.26897941343E+03  0.18099505429E+03  0.38841265065E+03  0.10100000352E+00 0.  1.
       -3    1    3    3    0  502  0.21390475091E+03 -0.26897941343E+03  0.44532652220E+02  0.34653763811E+03  0.10100000352E+00 0. -1.
</event>
<event>
 5   0  0.2934483E-03  0.6995717E+03  0.7818609E-02  0.9717965E-01
       -1   -1    0    0    0  501  0.00000000000E+00  0.00000000000E+00  0.11848067773E+03  0.11848067784E+03  0.50400001928E-02 0. -1.
        1   -1    0    0  501    0  0.00000000000E+00  0.00000000000E+00 -0.10326590474E+04  0.10326590474E+04  0.50400001928E-02 0.  1.
    10030    2    1    2    0    0  0.00000000000E+00  0.00000000000E+00 -0.91417836962E+03  0.11511397252E+04  0.69957170860E+03 0.  0.
        5    1    3    3  502    0  0.18585557188E+03  0.28250910094E+03 -0.60403050747E+03  0.69226341060E+03  0.46999998093E+01 0.  1.
       -5    1    3    3    0  502 -0.18585557188E+03 -0.28250910094E+03 -0.31014786215E+03  0.45887631460E+03  0.46999998093E+01 0. -1.
</event>
<event>
 5   0  0.2938783E-03  0.6976042E+03  0.7818609E-02  0.9721338E-01
       -1   -1    0    0    0  501  0.00000000000E+00  0.00000000000E+00  0.42015422791E+03  0.42015422794E+03  0.50400001928E-02 0.  1.
        1   -1    0    0  501    0  0.00000000000E+00  0.00000000000E+00 -0.28956726321E+03  0.28956726325E+03  0.50400001928E-02 0. -1.
    10030    2    1    2    0    0  0.00000000000E+00  0.00000000000E+00  0.13058696470E+03  0.70972149119E+03  0.69760421423E+03 0.  0.
        4    1    3    3  502    0 -0.66365483457E+02  0.20565026970E+02  0.41304055472E+03  0.41884533001E+03  0.12699999809E+01 0.  1.
       -4    1    3    3    0  502  0.66365483457E+02 -0.20565026970E+02 -0.28245359002E+03  0.29087616118E+03  0.12699999809E+01 0. -1.
</event>
<event>
 5   0  0.2913582E-03  0.6995970E+03  0.7818609E-02  0.9717922E-01
        1   -1    0    0  501    0  0.00000000000E+00  0.00000000000E+00  0.13161539522E+04  0.13161539522E+04  0.50400001928E-02 0. -1.
       -1   -1    0    0    0  501  0.00000000000E+00  0.00000000000E+00 -0.92967093570E+02  0.92967093707E+02  0.50400001928E-02 0.  1.
    10030    2    1    2    0    0  0.00000000000E+00  0.00000000000E+00  0.12231868587E+04  0.14091210460E+04  0.69959704897E+03 0.  0.
        1    1    3    3  502    0  0.30830441170E+03 -0.11387038709E+03  0.37038691849E+03  0.49518132512E+03  0.50400001928E-02 0. -1.
       -1    1    3    3    0  502 -0.30830441170E+03  0.11387038709E+03  0.85279994017E+03  0.91393972083E+03  0.50400001928E-02 0.  1.
</event>
<event>
 5   0  0.5072407E-03  0.6997070E+03  0.7818609E-02  0.9717733E-01
       -2   -1    0    0    0  501  0.00000000000E+00  0.00000000000E+00  0.30275754377E+03  0.30275754378E+03  0.25500000920E-02 0.  1.
        2   -1    0    0  501    0  0.00000000000E+00  0.00000000000E+00 -0.40427552707E+03  0.40427552708E+03  0.25500000920E-02 0. -1.
    10030    2    1    2    0    0  0.00000000000E+00  0.00000000000E+00 -0.10151798330E+03  0.70703307086E+03  0.69970698321E+03 0.  0.
        1    1    3    3  502    0 -0.30866533708E+03  0.29921347240E+02 -0.21440491159E+03  0.37701332002E+03  0.50400001928E-02 0. -1.
       -1    1    3    3    0  502  0.30866533708E+03 -0.29921347240E+02  0.11288692829E+03  0.33001975083E+03  0.50400001928E-02 0.  1.
</event>
<event>
 5   0  0.2913582E-03  0.7005500E+03  0.7818609E-02  0.9716292E-01
       -1   -1    0    0    0  501  0.00000000000E+00  0.00000000000E+00  0.10079607319E+03  0.10079607331E+03  0.50400001928E-02 0. -1.
        1   -1    0    0  501    0  0.00000000000E+00  0.00000000000E+00 -0.12172356474E+04  0.12172356474E+04  0.50400001928E-02 0.  1.
    10030    2    1    2    0    0  0.00000000000E+00  0.00000000000E+00 -0.11164395742E+04  0.13180317207E+04  0.70054999389E+03 0.  0.
        1    1    3    3  502    0 -0.82571504279E+02 -0.23869950855E+03 -0.10162226052E+03  0.27225464653E+03  0.50400001928E-02 0. -1.
       -1    1    3    3    0  502  0.82571504279E+02  0.23869950855E+03 -0.10148173136E+04  0.10457770741E+04  0.50400001928E-02 0.  1.
</event>
<event>
 5   0  0.5113683E-03  0.6988772E+03  0.7818609E-02  0.9719154E-01
       -2   -1    0    0    0  501  0.00000000000E+00  0.00000000000E+00  0.10024740886E+03  0.10024740890E+03  0.25500000920E-02 0. -1.
        2   -1    0    0  501    0  0.00000000000E+00  0.00000000000E+00 -0.12180598386E+04  0.12180598386E+04  0.25500000920E-02 0.  1.
    10030    2    1    2    0    0  0.00000000000E+00  0.00000000000E+00 -0.11178124297E+04  0.13183072475E+04  0.69887722150E+03 0.  0.
        3    1    3    3  502    0  0.12452141975E+03 -0.20599294494E+03 -0.81072023318E+02  0.25399086698E+03  0.10100000352E+00 0. -1.
       -3    1    3    3    0  502 -0.12452141975E+03  0.20599294494E+03 -0.10367404064E+04  0.10643163805E+04  0.10100000352E+00 0.  1.
</event>
<event>
 5   0  0.5113683E-03  0.7009009E+03  0.7818609E-02  0.9715693E-01
       -2   -1    0    0    0  501  0.00000000000E+00  0.00000000000E+00  0.43227748128E+03  0.43227748129E+03  0.25500000920E-02 0. -1.
        2   -1    0    0  501    0  0.00000000000E+00  0.00000000000E+00 -0.28411268565E+03  0.28411268566E+03  0.25500000920E-02 0.  1.
    10030    2    1    2    0    0  0.00000000000E+00  0.00000000000E+00  0.14816479563E+03  0.71639016695E+03  0.70090089502E+03 0.  0.
        3    1    3    3  502    0  0.48186100203E+02  0.34342251433E+03  0.12574222578E+03  0.36887943986E+03  0.10100000352E+00 0. -1.
       -3    1    3    3    0  502 -0.48186100203E+02 -0.34342251433E+03  0.22422569846E+02  0.34751072709E+03  0.10100000352E+00 0.  1.
</event>
<event>
 5   0  0.4878235E-03  0.7000704E+03  0.7818609E-02  0.9717112E-01
       -2   -1    0    0    0  501  0.00000000000E+00  0.00000000000E+00  0.14655600951E+03  0.14655600953E+03  0.25500000920E-02 0.  1.
        2   -1    0    0  501    0  0.00000000000E+00  0.00000000000E+00 -0.83602608955E+03  0.83602608955E+03  0.25500000920E-02 0. -1.
    10030    2    1    2    0    0  0.00000000000E+00  0.00000000000E+00 -0.68947008004E+03  0.98258209908E+03  0.70007041801E+03 0.  0.
        4    1    3    3  502    0  0.13703980556E+03 -0.17135103155E+03 -0.72752532048E+03  0.75989195887E+03  0.12699999809E+01 0. -1.
       -4    1    3    3    0  502 -0.13703980556E+03  0.17135103155E+03  0.38055240436E+02  0.22269014021E+03  0.12699999809E+01 0.  1.
</event>
<event>
 5   0  0.2937617E-03  0.6996501E+03  0.7818609E-02  0.9717831E-01
        1   -1    0    0  501    0  0.00000000000E+00  0.00000000000E+00  0.34601791376E+03  0.34601791379E+03  0.50400001928E-02 0. -1.
       -1   -1    0    0    0  501  0.00000000000E+00  0.00000000000E+00 -0.35367408293E+03  0.35367408296E+03  0.50400001928E-02 0.  1.
    10030    2    1    2    0    0  0.00000000000E+00  0.00000000000E+00 -0.76561691736E+01  0.69969199676E+03  0.69965010784E+03 0.  0.
        3    1    3    3  502    0  0.91219846673E+02 -0.33303941585E+03  0.52222083687E+02  0.34923268627E+03  0.10100000352E+00 0. -1.
       -3    1    3    3    0  502 -0.91219846673E+02  0.33303941585E+03 -0.59878252860E+02  0.35045931048E+03  0.10100000352E+00 0.  1.
</event>
<event>
 5   0  0.4878235E-03  0.7001413E+03  0.7818609E-02  0.9716991E-01
        2   -1    0    0  501    0  0.00000000000E+00  0.00000000000E+00  0.87301975713E+03  0.87301975714E+03  0.25500000920E-02 0.  1.
       -2   -1    0    0    0  501  0.00000000000E+00  0.00000000000E+00 -0.14037420416E+03  0.14037420418E+03  0.25500000920E-02 0. -1.
    10030    2    1    2    0    0  0.00000000000E+00  0.00000000000E+00  0.73264555297E+03  0.10133939613E+04  0.70014128185E+03 0.  0.
        4    1    3    3  502    0  0.54524149220E+02  0.36815255634E+02 -0.13134252311E+03  0.14690376841E+03  0.12699999809E+01 0. -1.
       -4    1    3    3    0  502 -0.54524149220E+02 -0.36815255634E+02  0.86398807608E+03  0.86649019291E+03  0.12699999809E+01 0.  1.
</event>
<event>
 5   0  0.2934483E-03  0.6985243E+03  0.7818609E-02  0.9719759E-01
       -1   -1    0    0    0  501  0.00000000000E+00  0.00000000000E+00  0.21055682990E+03  0.21055682996E+03  0.50400001928E-02 0.  1.
        1   -1    0    0  501    0  0.00000000000E+00  0.00000000000E+00 -0.57934021467E+03  0.57934021470E+03  0.50400001928E-02 0. -1.
    10030    2    1    2    0    0  0.00000000000E+00  0.00000000000E+00 -0.36878338477E+03  0.78989704466E+03  0.69852427036E+03 0.  0.
        5    1    3    3  502    0  0.25591988472E+03 -0.10434129798E+03 -0.42581292293E+03  0.50766212109E+03  0.46999998093E+01 0. -1.
       -5    1    3    3    0  502 -0.25591988472E+03  0.10434129798E+03  0.57029538165E+02  0.28223492356E+03  0.46999998093E+01 0.  1.
</event>
<event>
 5   0  0.5072407E-03  0.6994381E+03  0.7818609E-02  0.9718194E-01
       -2   -1    0    0    0  501  0.00000000000E+00  0.00000000000E+00  0.69727138423E+02  0.69727138470E+02  0.25500000920E-02 0. -1.
        2   -1    0    0  501    0  0.00000000000E+00  0.00000000000E+00 -0.17540288081E+04  0.17540288081E+04  0.25500000920E-02 0.  1.
    10030    2    1    2    0    0  0.00000000000E+00  0.00000000000E+00 -0.16843016697E+04  0.18237559466E+04  0.69943808746E+03 0.  0.
        1    1    3    3  502    0 -0.11498082461E+02  0.27199322396E+03 -0.26975045211E+03  0.38324643015E+03  0.50400001928E-02 0. -1.
       -1    1    3    3    0  502  0.11498082461E+02 -0.27199322396E+03 -0.14145512176E+04  0.14405095165E+04  0.50400001928E-02 0.  1.
</event>
<event>
 5   0  0.3013140E-03  0.7005802E+03  0.7818609E-02  0.9716241E-01
       -1   -1    0    0    0  501  0.00000000000E+00  0.00000000000E+00  0.39428460526E+03  0.39428460529E+03  0.50400001928E-02 0. -1.
        1   -1    0    0  501    0  0.00000000000E+00  0.00000000000E+00 -0.31120450659E+03  0.31120450663E+03  0.50400001928E-02 0.  1.
    10030    2    1    2    0    0  0.00000000000E+00  0.00000000000E+00  0.83080098668E+02  0.70548911192E+03  0.70058017688E+03 0.  0.
        2    1    3    3  502    0  0.19681178131E+02 -0.17851664411E+03  0.34439244032E+03  0.38840918366E+03  0.25500000920E-02 0. -1.
       -2    1    3    3    0  502 -0.19681178131E+02  0.17851664411E+03 -0.26131234165E+03  0.31707992826E+03  0.25500000920E-02 0.  1.
</event>
<event>
 5   0  0.5076796E-03  0.7004254E+03  0.7818609E-02  0.9716505E-01
       -2   -1    0    0    0  501  0.00000000000E+00  0.00000000000E+00  0.20074725353E+03  0.20074725355E+03  0.25500000920E-02 0.  1.
        2   -1    0    0  501    0  0.00000000000E+00  0.00000000000E+00 -0.61096187949E+03  0.61096187949E+03  0.25500000920E-02 0. -1.
    10030    2    1    2    0    0  0.00000000000E+00  0.00000000000E+00 -0.41021462595E+03  0.81170913304E+03  0.70042535456E+03 0.  0.
        5    1    3    3  502    0 -0.10549821491E+03 -0.19847958588E+03 -0.51628945719E+03  0.56311713965E+03  0.46999998093E+01 0. -1.
       -5    1    3    3    0  502  0.10549821491E+03  0.19847958588E+03  0.10607483124E+03  0.24859199339E+03  0.46999998093E+01 0.  1.
</event>
<event>
 5   0  0.2937617E-03  0.7001288E+03  0.7818609E-02  0.9717012E-01
        1   -1    0    0  501    0  0.00000000000E+00  0.00000000000E+00  0.12965667247E+04  0.12965667247E+04  0.50400001928E-02 0.  1.
       -1   -1    0    0    0  501  0.00000000000E+00  0.00000000000E+00 -0.94515073430E+02  0.94515073564E+02  0.50400001928E-02 0. -1.
    10030    2    1    2    0    0  0.00000000000E+00  0.00000000000E+00  0.12020516512E+04  0.13910817982E+04  0.70012884325E+03 0.  0.
        3    1    3    3  502    0  0.10870167295E+03 -0.32040345120E+03  0.42252948061E+03  0.54129991449E+03  0.10100000352E+00 0.  1.
       -3    1    3    3    0  502 -0.10870167295E+03  0.32040345120E+03  0.77952217062E+03  0.84978188374E+03  0.10100000352E+00 0. -1.
</event>
<event>
 5   0  0.2913582E-03  0.7003723E+03  0.7818609E-02  0.9716596E-01
       -1   -1    0    0    0  501  0.00000000000E+00  0.00000000000E+00  0.61099083698E+03  0.61099083700E+03  0.50400001928E-02 0.  1.
        1   -1    0    0  501    0  0.00000000000E+00  0.00000000000E+00 -0.20070733770E+03  0.20070733777E+03  0.50400001928E-02 0. -1.
    10030    2    1    2    0    0  0.00000000000E+00  0.00000000000E+00  0.41028349928E+03  0.81169817477E+03  0.70037231324E+03 0.  0.
        1    1    3    3  502    0  0.74288071745E+02 -0.33522077912E+03  0.28492159438E+03  0.44617485735E+03  0.50400001928E-02 0.  1.
       -1    1    3    3    0  502 -0.74288071745E+02  0.33522077912E+03  0.12536190489E+03  0.36552331742E+03  0.50400001928E-02 0. -1.
</event>
<event>
 5   0  0.1981750E-03  0.7049705E+03  0.7818609E-02  0.9708769E-01
       -3   -1    0    0    0  501  0.00000000000E+00  0.00000000000E+00  0.68920733502E+03  0.68920734242E+03  0.10100000352E+00 0. -1.
        3   -1    0    0  501    0  0.00000000000E+00  0.00000000000E+00 -0.18027354252E+03  0.18027357081E+03  0.10100000352E+00 0.  1.
    10030    2    1    2    0    0  0.00000000000E+00  0.00000000000E+00  0.50893379250E+03  0.86948091324E+03  0.70497053366E+03 0.  0.
        5    1    3    3  502    0  0.13812448926E+03  0.31464992503E+03  0.15781677682E+03  0.37816818335E+03  0.46999998093E+01 0.  1.
       -5    1    3    3    0  502 -0.13812448926E+03 -0.31464992503E+03  0.35111701568E+03  0.49131272989E+03  0.46999998093E+01 0. -1.
</event>
<event>
 5   0  0.2934483E-03  0.6999665E+03  0.7818609E-02  0.9717289E-01
        1   -1    0    0  501    0  0.00000000000E+00  0.00000000000E+00  0.12115905553E+04  0.12115905553E+04  0.50400001928E-02 0. -1.
       -1   -1    0    0    0  501  0.00000000000E+00  0.00000000000E+00 -0.10109709695E+03  0.10109709708E+03  0.50400001928E-02 0.  1.
    10030    2    1    2    0    0  0.00000000000E+00  0.00000000000E+00  0.11104934583E+04  0.13126876523E+04  0.69996653611E+03 0.  0.
        5    1    3    3  502    0  0.21978591960E+03 -0.21758711484E+03  0.86234876761E+03  0.91614272359E+03  0.46999998093E+01 0. -1.
       -5    1    3    3    0  502 -0.21978591960E+03  0.21758711484E+03  0.24814469070E+03  0.39654492875E+03  0.46999998093E+01 0.  1.
</event>
<event>
 5   0  0.2913582E-03  0.6998698E+03  0.7818609E-02  0.9717455E-01
        1   -1    0    0  501    0  0.00000000000E+00  0.00000000000E+00  0.42847237436E+03  0.42847237439E+03  0.50400001928E-02 0. -1.
       -1   -1    0    0    0  501  0.00000000000E+00  0.00000000000E+00 -0.28579310142E+03  0.28579310146E+03  0.50400001928E-02 0.  1.
    10030    2    1    2    0    0  0.00000000000E+00  0.00000000000E+00  0.14267927294E+03  0.71426547585E+03  0.69986984151E+03 0.  0.
        1    1    3    3  502    0 -0.34635934578E+03 -0.42500703398E+02  0.44661124138E+02  0.35180352789E+03  0.50400001928E-02 0.  1.
       -1    1    3    3    0  502  0.34635934578E+03  0.42500703398E+02  0.98018148801E+02  0.36246194796E+03  0.50400001928E-02 0. -1.
</event>
<event>
 5   0  0.3013140E-03  0.6974905E+03  0.7818609E-02  0.9721533E-01
        1   -1    0    0  501    0  0.00000000000E+00  0.00000000000E+00  0.37641946179E+03  0.37641946183E+03  0.50400001928E-02 0.  1.
       -1   -1    0    0    0  501  0.00000000000E+00  0.00000000000E+00 -0.32310564610E+03  0.32310564614E+03  0.50400001928E-02 0. -1.
    10030    2    1    2    0    0  0.00000000000E+00  0.00000000000E+00  0.53313815695E+02  0.69952510796E+03  0.69749051157E+03 0.  0.
        2    1    3    3  502    0  0.21324375216E+03  0.25375898455E+03 -0.82087851705E+02  0.34147464837E+03  0.25500000920E-02 0. -1.
       -2    1    3    3    0  502 -0.21324375216E+03 -0.25375898455E+03  0.13540166740E+03  0.35805045960E+03  0.25500000920E-02 0.  1.
</event>
<event>
 5   0  0.2937617E-03  0.7105491E+03  0.7818609E-02  0.9699360E-01
       -1   -1    0    0    0  501  0.00000000000E+00  0.00000000000E+00  0.80766220090E+02  0.80766220247E+02  0.50400001928E-02 0. -1.
        1   -1    0    0  501    0  0.00000000000E+00  0.00000000000E+00 -0.15627821588E+04  0.15627821588E+04  0.50400001928E-02 0.  1.
    10030    2    1    2    0    0  0.00000000000E+00  0.00000000000E+00 -0.14820159387E+04  0.16435483790E+04  0.71054910576E+03 0.  0.
        3    1    3    3  502    0 -0.34461958196E+03 -0.75085665676E+02 -0.83967283910E+03  0.91074200540E+03  0.10100000352E+00 0.  1.
       -3    1    3    3    0  502  0.34461958196E+03  0.75085665676E+02 -0.64234309960E+03  0.73280637365E+03  0.10100000352E+00 0. -1.
</event>
<event>
 5   0  0.5076796E-03  0.7004661E+03  0.7818609E-02  0.9716435E-01
        2   -1    0    0  501    0  0.00000000000E+00  0.00000000000E+00  0.52802168658E+03  0.52802168658E+03  0.25500000920E-02 0. -1.
       -2   -1    0    0    0  501  0.00000000000E+00  0.00000000000E+00 -0.23230711807E+03  0.23230711808E+03  0.25500000920E-02 0.  1.
    10030    2    1    2    0    0  0.00000000000E+00  0.00000000000E+00  0.29571456851E+03  0.76032880466E+03  0.70046611993E+03 0.  0.
        5    1    3    3  502    0  0.23547769128E+03  0.15705502543E+03 -0.75982299963E+02  0.29310650625E+03  0.46999998093E+01 0.  1.
       -5    1    3    3    0  502 -0.23547769128E+03 -0.15705502543E+03  0.37169686847E+03  0.46722229841E+03  0.46999998093E+01 0. -1.
</event>
<event>
 5   0  0.2934483E-03  0.6991857E+03  0.7818609E-02  0.9718626E-01
       -1   -1    0    0    0  501  0.00000000000E+00  0.00000000000E+00  0.13485592634E+03  0.13485592643E+03  0.50400001928E-02 0.  1.
        1   -1    0    0  501    0  0.00000000000E+00  0.00000000000E+00 -0.90626465241E+03  0.90626465242E+03  0.50400001928E-02 0. -1.
    10030    2    1    2    0    0  0.00000000000E+00  0.00000000000E+00 -0.77140872607E+03  0.10411205789E+04  0.69918569569E+03 0.  0.
        5    1    3    3  502    0  0.81845639635E+02  0.22871873997E+03 -0.75999203201E+03  0.79788529844E+03  0.46999998093E+01 0. -1.
       -5    1    3    3    0  502 -0.81845639635E+02 -0.22871873997E+03 -0.11416694055E+02  0.24323528042E+03  0.46999998093E+01 0.  1.
</event>
<event>
 5   0  0.5072407E-03  0.6974481E+03  0.7818609E-02  0.9721606E-01
        2   -1    0    0  501    0  0.00000000000E+00  0.00000000000E+00  0.26937974602E+03  0.26937974603E+03  0.25500000920E-02 0. -1.
       -2   -1    0    0    0  501  0.00000000000E+00  0.00000000000E+00 -0.45143874882E+03  0.45143874883E+03  0.25500000920E-02 0.  1.
    10030    2    1    2    0    0  0.00000000000E+00  0.00000000000E+00 -0.18205900281E+03  0.72081849486E+03  0.69744807837E+03 0.  0.
        1    1    3    3  502    0 -0.29669819843E+03  0.69736741632E+02  0.84104970129E+02  0.31617507826E+03  0.50400001928E-02 0. -1.
       -1    1    3    3    0  502  0.29669819843E+03 -0.69736741632E+02 -0.26616397293E+03  0.40464341660E+03  0.50400001928E-02 0.  1.
</event>
<event>
 5   0  0.2913582E-03  0.6994689E+03  0.7818609E-02  0.9718141E-01
       -1   -1    0    0    0  501  0.00000000000E+00  0.00000000000E+00  0.30546218501E+03  0.30546218505E+03  0.50400001928E-02 0. -1.
        1   -1    0    0  501    0  0.00000000000E+00  0.00000000000E+00 -0.40042336197E+03  0.40042336200E+03  0.50400001928E-02 0.  1.
    10030    2    1    2    0    0  0.00000000000E+00  0.00000000000E+00 -0.94961176963E+02  0.70588554705E+03  0.69946892741E+03 0.  0.
        1    1    3    3  502    0  0.17571753437E+03 -0.27351386243E+03 -0.17761198404E+03  0.37044905416E+03  0.50400001928E-02 0.  1.
       -1    1    3    3    0  502 -0.17571753437E+03  0.27351386243E+03  0.82650807082E+02  0.33543649289E+03  0.50400001928E-02 0. -1.
</event>
<event>
 5   0  0.4878235E-03  0.6998985E+03  0.7818609E-02  0.9717406E-01
        2   -1    0    0  501    0  0.00000000000E+00  0.00000000000E+00  0.79323942128E+03  0.79323942128E+03  0.25500000920E-02 0. -1.
       -2   -1    0    0    0  501  0.00000000000E+00  0.00000000000E+00 -0.15438528011E+03  0.15438528013E+03  0.25500000920E-02 0.  1.
    10030    2    1    2    0    0  0.00000000000E+00  0.00000000000E+00  0.63885414117E+03  0.94762470141E+03  0.69989853624E+03 0.  0.
        4    1    3    3  502    0  0.17207457154E+03 -0.25114901014E+02  0.73059538649E+03  0.75100708924E+03  0.12699999809E+01 0. -1.
       -4    1    3    3    0  502 -0.17207457154E+03  0.25114901014E+02 -0.91741245321E+02  0.19661761217E+03  0.12699999809E+01 0.  1.
</event>
<event>
 5   0  0.5113683E-03  0.7000367E+03  0.7818609E-02  0.9717169E-01
       -2   -1    0    0    0  501  0.00000000000E+00  0.00000000000E+00  0.34143573921E+03  0.34143573922E+03  0.25500000920E-02 0.  1.
        2   -1    0    0  501    0  0.00000000000E+00  0.00000000000E+00 -0.35881670503E+03  0.35881670504E+03  0.25500000920E-02 0. -1.
    10030    2    1    2    0    0  0.00000000000E+00  0.00000000000E+00 -0.17380965822E+02  0.70025244426E+03  0.70003670456E+03 0.  0.
        3    1    3    3  502    0 -0.26253347394E+03 -0.21896964339E+03  0.66441299400E+02  0.34826137617E+03  0.10100000352E+00 0.  1.
       -3    1    3    3    0  502  0.26253347394E+03  0.21896964339E+03 -0.83822265222E+02  0.35199106809E+03  0.10100000352E+00 0. -1.
</event>
<event>
 5   0  0.2937617E-03  0.7002677E+03  0.7818609E-02  0.9716775E-01
       -1   -1    0    0    0  501  0.00000000000E+00  0.00000000000E+00  0.20109272759E+03  0.20109272766E+03  0.50400001928E-02 0. -1.
        1   -1    0    0  501    0  0.00000000000E+00  0.00000000000E+00 -0.60963769842E+03  0.60963769844E+03  0.50400001928E-02 0.  1.
    10030    2    1    2    0    0  0.00000000000E+00  0.00000000000E+00 -0.40854497082E+03  0.81073042609E+03  0.70026768497E+03 0.  0.
        3    1    3    3  502    0 -0.14461227266E+03  0.24156355542E+03  0.36716332809E+02  0.28392562408E+03  0.10100000352E+00 0. -1.
       -3    1    3    3    0  502  0.14461227266E+03 -0.24156355542E+03 -0.44526130363E+03  0.52680480201E+03  0.10100000352E+00 0.  1.
</event>
<event>
 5   0  0.2934483E-03  0.7002195E+03  0.7818609E-02  0.9716857E-01
       -1   -1    0    0    0  501  0.00000000000E+00  0.00000000000E+00  0.13488829832E+03  0.13488829842E+03  0.50400001928E-02 0. -1.
        1   -1    0    0  501    0  0.00000000000E+00  0.00000000000E+00 -0.90872840906E+03  0.90872840907E+03  0.50400001928E-02 0.  1.
    10030    2    1    2    0    0  0.00000000000E+00  0.00000000000E+00 -0.77384011073E+03  0.10436167075E+04  0.70021947643E+03 0.  0.
        5    1    3    3  502    0 -0.20059489737E+03  0.80586732440E+02 -0.79731787086E+03  0.82611767412E+03  0.46999998093E+01 0.  1.
       -5    1    3    3    0  502  0.20059489737E+03 -0.80586732440E+02  0.23477760131E+02  0.21749903337E+03  0.46999998093E+01 0. -1.
</event>
<event>
 5   0  0.2934483E-03  0.6999500E+03  0.7818609E-02  0.9717318E-01
       -1   -1    0    0    0  501  0.00000000000E+00  0.00000000000E+00  0.39958478413E+03  0.39958478417E+03  0.50400001928E-02 0.  1.
        1   -1    0    0  501    0  0.00000000000E+00  0.00000000000E+00 -0.30652445050E+03  0.30652445054E+03  0.50400001928E-02 0. -1.
    10030    2    1    2    0    0  0.00000000000E+00  0.00000000000E+00  0.93060333635E+02  0.70610923471E+03  0.69995001653E+03 0.  0.
        5    1    3    3  502    0 -0.82425256214E+02 -0.19047735435E+03 -0.23770233322E+03  0.31559473157E+03  0.46999998093E+01 0. -1.
       -5    1    3    3    0  502  0.82425256214E+02  0.19047735435E+03  0.33076266685E+03  0.39051450314E+03  0.46999998093E+01 0.  1.
</event>
<event>
 5   0  0.3013140E-03  0.6951442E+03  0.7818609E-02  0.9725573E-01
       -1   -1    0    0    0  501  0.00000000000E+00  0.00000000000E+00  0.15539745545E+03  0.15539745553E+03  0.50400001928E-02 0. -1.
        1   -1    0    0  501    0  0.00000000000E+00  0.00000000000E+00 -0.77740237644E+03  0.77740237646E+03  0.50400001928E-02 0.  1.
    10030    2    1    2    0    0  0.00000000000E+00  0.00000000000E+00 -0.62200492099E+03  0.93279983199E+03  0.69514416118E+03 0.  0.
        2    1    3    3  502    0 -0.12037080211E+03  0.24999642301E+03 -0.30106910550E+02  0.27909454955E+03  0.25500000920E-02 0. -1.
       -2    1    3    3    0  502  0.12037080211E+03 -0.24999642301E+03 -0.59189801044E+03  0.65370528244E+03  0.25500000920E-02 0.  1.
</event>
<event>
 5   0  0.5076796E-03  0.6964117E+03  0.7818609E-02  0.9723388E-01
        2   -1    0    0  501    0  0.00000000000E+00  0.00000000000E+00  0.70932785293E+03  0.70932785294E+03  0.25500000920E-02 0.  1.
       -2   -1    0    0    0  501  0.00000000000E+00  0.00000000000E+00 -0.17093269035E+03  0.17093269037E+03  0.25500000920E-02 0. -1.
    10030    2    1    2    0    0  0.00000000000E+00  0.00000000000E+00  0.53839516258E+03  0.88026054331E+03  0.69641171229E+03 0.  0.
        5    1    3    3  502    0 -0.13342868581E+03  0.23822042745E+03 -0.38750800320E+01  0.27311040349E+03  0.46999998093E+01 0. -1.
       -5    1    3    3    0  502  0.13342868581E+03 -0.23822042745E+03  0.54227024261E+03  0.60715013981E+03  0.46999998093E+01 0.  1.
</event>
<event>
 5   0  0.5023894E-03  0.6997736E+03  0.7818609E-02  0.9717620E-01
       -2   -1    0    0    0  501  0.00000000000E+00  0.00000000000E+00  0.20973394573E+03  0.20973394574E+03  0.25500000920E-02 0. -1.
        2   -1    0    0  501    0  0.00000000000E+00  0.00000000000E+00 -0.58369548865E+03  0.58369548865E+03  0.25500000920E-02 0.  1.
    10030    2    1    2    0    0  0.00000000000E+00  0.00000000000E+00 -0.37396154292E+03  0.79342943439E+03  0.69977355750E+03 0.  0.
        2    1    3    3  502    0  0.14293427053E+03 -0.30336476975E+03 -0.30013961177E+03  0.45004908152E+03  0.25500000920E-02 0.  1.
       -2    1    3    3    0  502 -0.14293427053E+03  0.30336476975E+03 -0.73821931150E+02  0.34338035288E+03  0.25500000920E-02 0. -1.
</event>
<event>
 5   0  0.5113683E-03  0.6912051E+03  0.7818609E-02  0.9732392E-01
        2   -1    0    0  501    0  0.00000000000E+00  0.00000000000E+00  0.58538180609E+03  0.58538180610E+03  0.25500000920E-02 0.  1.
       -2   -1    0    0    0  501  0.00000000000E+00  0.00000000000E+00 -0.20403970354E+03  0.20403970356E+03  0.25500000920E-02 0. -1.
    10030    2    1    2    0    0  0.00000000000E+00  0.00000000000E+00  0.38134210255E+03  0.78942150966E+03  0.69120512204E+03 0.  0.
        3    1    3    3  502    0  0.78480276513E+02  0.28325495546E+03  0.39829551201E+03  0.49500691782E+03  0.10100000352E+00 0.  1.
       -3    1    3    3    0  502 -0.78480276513E+02 -0.28325495546E+03 -0.16953409464E+02  0.29441459184E+03  0.10100000352E+00 0. -1.
</event>
<event>
 5   0  0.5023894E-03  0.7000649E+03  0.7818609E-02  0.9717121E-01
        2   -1    0    0  501    0  0.00000000000E+00  0.00000000000E+00  0.15917384761E+04  0.15917384761E+04  0.25500000920E-02 0.  1.
       -2   -1    0    0    0  501  0.00000000000E+00  0.00000000000E+00 -0.76974143311E+02  0.76974143354E+02  0.25500000920E-02 0. -1.
    10030    2    1    2    0    0  0.00000000000E+00  0.00000000000E+00  0.15147643328E+04  0.16687126195E+04  0.70006487017E+03 0.  0.
        2    1    3    3  502    0  0.31253191931E+03  0.40944177055E+02  0.11202153723E+04  0.11637160765E+04  0.25500000920E-02 0.  1.
       -2    1    3    3    0  502 -0.31253191931E+03 -0.40944177055E+02  0.39454896047E+03  0.50499654300E+03  0.25500000920E-02 0. -1.
</event>
<event>
 5   0  0.5113683E-03  0.7004349E+03  0.7818609E-02  0.9716489E-01
       -2   -1    0    0    0  501  0.00000000000E+00  0.00000000000E+00  0.23160530768E+03  0.23160530769E+03  0.25500000920E-02 0.  1.
        2   -1    0    0  501    0  0.00000000000E+00  0.00000000000E+00 -0.52957449733E+03  0.52957449734E+03  0.25500000920E-02 0. -1.
    10030    2    1    2    0    0  0.00000000000E+00  0.00000000000E+00 -0.29796918965E+03  0.76117980503E+03  0.70043490604E+03 0.  0.
        3    1    3    3  502    0 -0.19187597829E+03 -0.28735242007E+03 -0.21107499745E+03  0.40489562743E+03  0.10100000352E+00 0.  1.
       -3    1    3    3    0  502  0.19187597829E+03  0.28735242007E+03 -0.86894192206E+02  0.35628417760E+03  0.10100000352E+00 0. -1.
</event>
<event>
 5   0  0.5076796E-03  0.6999253E+03  0.7818609E-02  0.9717360E-01
        2   -1    0    0  501    0  0.00000000000E+00  0.00000000000E+00  0.16545066096E+03  0.16545066098E+03  0.25500000920E-02 0. -1.
       -2   -1    0    0    0  501  0.00000000000E+00  0.00000000000E+00 -0.74024394064E+03  0.74024394065E+03  0.25500000920E-02 0.  1.
    10030    2    1    2    0    0  0.00000000000E+00  0.00000000000E+00 -0.57479327968E+03  0.90569460163E+03  0.69992527962E+03 0.  0.
        5    1    3    3  502    0  0.15520311624E+03 -0.13265978710E+03  0.80344362592E+02  0.21946282830E+03  0.46999998093E+01 0. -1.
       -5    1    3    3    0  502 -0.15520311624E+03  0.13265978710E+03 -0.65513764227E+03  0.68623177333E+03  0.46999998093E+01 0.  1.
</event>
<event>
 5   0  0.4878235E-03  0.6998058E+03  0.7818609E-02  0.9717564E-01
        2   -1    0    0  501    0  0.00000000000E+00  0.00000000000E+00  0.23026491374E+04  0.23026491374E+04  0.25500000920E-02 0.  1.
       -2   -1    0    0    0  501  0.00000000000E+00  0.00000000000E+00 -0.53170085032E+02  0.53170085093E+02  0.25500000920E-02 0. -1.
    10030    2    1    2    0    0  0.00000000000E+00  0.00000000000E+00  0.22494790524E+04  0.23558192225E+04  0.69980583166E+03 0.  0.
        4    1    3    3  502    0  0.26455308761E+03 -0.22332230869E+03  0.12953742476E+04  0.13408419907E+04  0.12699999809E+01 0. -1.
       -4    1    3    3    0  502 -0.26455308761E+03  0.22332230869E+03  0.95410480474E+03  0.10149772318E+04  0.12699999809E+01 0.  1.
</event>
<event>
 5   0  0.4878235E-03  0.6998881E+03  0.7818609E-02  0.9717424E-01
        2   -1    0    0  501    0  0.00000000000E+00  0.00000000000E+00  0.93298826344E+03  0.93298826344E+03  0.25500000920E-02 0. -1.
       -2   -1    0    0    0  501  0.00000000000E+00  0.00000000000E+00 -0.13125655561E+03  0.13125655564E+03  0.25500000920E-02 0.  1.
    10030    2    1    2    0    0  0.00000000000E+00  0.00000000000E+00  0.80173170783E+03  0.10642448191E+04  0.69988806506E+03 0.  0.
        4    1    3    3  502    0  0.39741385251E+02  0.16564272248E+03 -0.63954109384E+02  0.18195777043E+03  0.12699999809E+01 0.  1.
       -4    1    3    3    0  502 -0.39741385251E+02 -0.16564272248E+03  0.86568581721E+03  0.88228704866E+03  0.12699999809E+01 0. -1.
</event>
<event>
 5   0  0.2913582E-03  0.6993447E+03  0.7818609E-02  0.9718354E-01
       -1   -1    0    0    0  501  0.00000000000E+00  0.00000000000E+00  0.18161585364E+03  0.18161585370E+03  0.50400001928E-02 0.  1.
        1   -1    0    0  501    0  0.00000000000E+00  0.00000000000E+00 -0.67323825991E+03  0.67323825993E+03  0.50400001928E-02 0. -1.
    10030    2    1    2    0    0  0.00000000000E+00  0.00000000000E+00 -0.49162240628E+03  0.85485411364E+03  0.69934466842E+03 0.  0.
        1    1    3    3  502    0  0.13004581839E+02  0.26040908495E+03  0.38999024624E+02  0.26363409230E+03  0.50400001928E-02 0.  1.
       -1    1    3    3    0  502 -0.13004581839E+02 -0.26040908495E+03 -0.53062143090E+03  0.59122002134E+03  0.50400001928E-02 0. -1.
</event>
<event>
 5   0  0.5023894E-03  0.6993947E+03  0.7818609E-02  0.9718268E-01
       -2   -1    0    0    0  501  0.00000000000E+00  0.00000000000E+00  0.14292310555E+03  0.14292310558E+03  0.25500000920E-02 0.  1.
        2   -1    0    0  501    0  0.00000000000E+00  0.00000000000E+00 -0.85562251469E+03  0.85562251470E+03  0.25500000920E-02 0. -1.
    10030    2    1    2    0    0  0.00000000000E+00  0.00000000000E+00 -0.71269940914E+03  0.99854562027E+03  0.69939467254E+03 0.  0.
        2    1    3    3  502    0 -0.12089153801E+03 -0.21455542805E+03 -0.18834446225E+01  0.24627696408E+03  0.25500000920E-02 0.  1.
       -2    1    3    3    0  502  0.12089153801E+03  0.21455542805E+03 -0.71081596452E+03  0.75226865619E+03  0.25500000920E-02 0. -1.
</event>
<event>
 5   0  0.2934483E-03  0.7011674E+03  0.7818609E-02  0.9715238E-01
        1   -1    0    0  501    0  0.00000000000E+00  0.00000000000E+00  0.13506226047E+04  0.13506226047E+04  0.50400001928E-02 0.  1.
       -1   -1    0    0    0  501  0.00000000000E+00  0.00000000000E+00 -0.91001672549E+02  0.91001672688E+02  0.50400001928E-02 0. -1.
    10030    2    1    2    0    0  0.00000000000E+00  0.00000000000E+00  0.12596209322E+04  0.14416242774E+04  0.70116735839E+03 0.  0.
        5    1    3    3  502    0 -0.51893262068E+02  0.17137647051E+03  0.10182858594E+02  0.17941177748E+03  0.46999998093E+01 0. -1.
       -5    1    3    3    0  502  0.51893262068E+02 -0.17137647051E+03  0.12494380736E+04  0.12622124999E+04  0.46999998093E+01 0.  1.
</event>
<event>
 5   0  0.2938783E-03  0.7031894E+03  0.7818609E-02  0.9711793E-01
        1   -1    0    0  501    0  0.00000000000E+00  0.00000000000E+00  0.12161903881E+03  0.12161903891E+03  0.50400001928E-02 0.  1.
       -1   -1    0    0    0  501  0.00000000000E+00  0.00000000000E+00 -0.10164429787E+04  0.10164429787E+04  0.50400001928E-02 0. -1.
    10030    2    1    2    0    0  0.00000000000E+00  0.00000000000E+00 -0.89482393986E+03  0.11380620176E+04  0.70318935754E+03 0.  0.
        4    1    3    3  502    0  0.74455141814E+02 -0.77163502597E+02 -0.98933060117E+03  0.99512533160E+03  0.12699999809E+01 0. -1.
       -4    1    3    3    0  502 -0.74455141814E+02  0.77163502597E+02  0.94506661304E+02  0.14293668601E+03  0.12699999809E+01 0.  1.
</event>
<event>
 5   0  0.2934483E-03  0.6998336E+03  0.7818609E-02  0.9717517E-01
        1   -1    0    0  501    0  0.00000000000E+00  0.00000000000E+00  0.49436984951E+03  0.49436984953E+03  0.50400001928E-02 0.  1.
       -1   -1    0    0    0  501  0.00000000000E+00  0.00000000000E+00 -0.24767239839E+03  0.24767239844E+03  0.50400001928E-02 0. -1.
    10030    2    1    2    0    0  0.00000000000E+00  0.00000000000E+00  0.24669745112E+03  0.74204224797E+03  0.69983359836E+03 0.  0.
        5    1    3    3  502    0 -0.14472096790E+03 -0.15771210240E+03  0.41681288036E+03  0.46858545969E+03  0.46999998093E+01 0.  1.
       -5    1    3    3    0  502  0.14472096790E+03  0.15771210240E+03 -0.17011542925E+03  0.27345678829E+03  0.46999998093E+01 0. -1.
</event>
<event>
 5   0  0.5072407E-03  0.7001494E+03  0.7818609E-02  0.9716977E-01
        2   -1    0    0  501    0  0.00000000000E+00  0.00000000000E+00  0.26283664837E+03  0.26283664838E+03  0.25500000920E-02 0.  1.
       -2   -1    0    0    0  501  0.00000000000E+00  0.00000000000E+00 -0.46626796128E+03  0.46626796128E+03  0.25500000920E-02 0. -1.
    10030    2    1    2    0    0  0.00000000000E+00  0.00000000000E+00 -0.20343131291E+03  0.72910460966E+03  0.70014943602E+03 0.  0.
        1    1    3    3  502    0  0.24868829187E+03 -0.24375540047E+03 -0.13911390483E+03  0.37498698686E+03  0.50400001928E-02 0. -1.
       -1    1    3    3    0  502 -0.24868829187E+03  0.24375540047E+03 -0.64317408080E+02  0.35411762280E+03  0.50400001928E-02 0.  1.
</event>
<event>
 5   0  0.5113683E-03  0.6999421E+03  0.7818609E-02  0.9717331E-01
        2   -1    0    0  501    0  0.00000000000E+00  0.00000000000E+00  0.34127649721E+03  0.34127649722E+03  0.25500000920E-02 0. -1.
       -2   -1    0    0    0  501  0.00000000000E+00  0.00000000000E+00 -0.35888711622E+03  0.35888711622E+03  0.25500000920E-02 0.  1.
    10030    2    1    2    0    0  0.00000000000E+00  0.00000000000E+00 -0.17610619010E+02  0.70016361344E+03  0.69994210595E+03 0.  0.
        3    1    3    3  502    0 -0.33615300905E+03 -0.88457091462E+02 -0.49514935401E+02  0.35110574127E+03  0.10100000352E+00 0. -1.
       -3    1    3    3    0  502  0.33615300905E+03  0.88457091462E+02  0.31904316391E+02  0.34905787217E+03  0.10100000352E+00 0.  1.
</event>
<event>
 5   0  0.5076796E-03  0.6994700E+03  0.7818609E-02  0.9718139E-01
        2   -1    0    0  501    0  0.00000000000E+00  0.00000000000E+00  0.29320206061E+03  0.29320206062E+03  0.25500000920E-02 0. -1.
       -2   -1    0    0    0  501  0.00000000000E+00  0.00000000000E+00 -0.41716816681E+03  0.41716816681E+03  0.25500000920E-02 0.  1.
    10030    2    1    2    0    0  0.00000000000E+00  0.00000000000E+00 -0.12396610620E+03  0.71037022743E+03  0.69946998830E+03 0.  0.
        5    1    3    3  502    0  0.15652816474E+03  0.25042565425E+03  0.12822791816E+03  0.32199155837E+03  0.46999998093E+01 0. -1.
       -5    1    3    3    0  502 -0.15652816474E+03 -0.25042565425E+03 -0.25219402436E+03  0.38837866907E+03  0.46999998093E+01 0.  1.
</event>
<event>
 5   0  0.2934483E-03  0.6890040E+03  0.7818609E-02  0.9736224E-01
        1   -1    0    0  501    0  0.00000000000E+00  0.00000000000E+00  0.33980225720E+03  0.33980225724E+03  0.50400001928E-02 0. -1.
       -1   -1    0    0    0  501  0.00000000000E+00  0.00000000000E+00 -0.34926669969E+03  0.34926669973E+03  0.50400001928E-02 0.  1.
    10030    2    1    2    0    0  0.00000000000E+00  0.00000000000E+00 -0.94644424909E+01  0.68906895696E+03  0.68900395629E+03 0.  0.
        5    1    3    3  502    0 -0.16597309140E+03  0.29825706557E+03  0.41696060794E+02  0.34389678061E+03  0.46999998093E+01 0. -1.
       -5    1    3    3    0  502  0.16597309140E+03 -0.29825706557E+03 -0.51160503285E+02  0.34517217635E+03  0.46999998093E+01 0.  1.
</event>
<event>
 5   0  0.5113683E-03  0.6985297E+03  0.7818609E-02  0.9719750E-01
       -2   -1    0    0    0  501  0.00000000000E+00  0.00000000000E+00  0.12543794723E+03  0.12543794725E+03  0.25500000920E-02 0. -1.
        2   -1    0    0  501    0  0.00000000000E+00  0.00000000000E+00 -0.97248036840E+03  0.97248036840E+03  0.25500000920E-02 0.  1.
    10030    2    1    2    0    0  0.00000000000E+00  0.00000000000E+00 -0.84704242117E+03  0.10979183157E+04  0.69852971632E+03 0.  0.
        3    1    3    3  502    0 -0.18141043860E+03 -0.23275890530E+03 -0.71714726898E+03  0.77549124485E+03  0.10100000352E+00 0.  1.
       -3    1    3    3    0  502  0.18141043860E+03  0.23275890530E+03 -0.12989515219E+03  0.32242707081E+03  0.10100000352E+00 0. -1.
</event>
<event>
 5   0  0.4878235E-03  0.7021392E+03  0.7818609E-02  0.9713581E-01
       -2   -1    0    0    0  501  0.00000000000E+00  0.00000000000E+00  0.89973429682E+02  0.89973429718E+02  0.25500000920E-02 0. -1.
        2   -1    0    0  501    0  0.00000000000E+00  0.00000000000E+00 -0.13698473575E+04  0.13698473575E+04  0.25500000920E-02 0.  1.
    10030    2    1    2    0    0  0.00000000000E+00  0.00000000000E+00 -0.12798739278E+04  0.14598207872E+04  0.70213920250E+03 0.  0.
        4    1    3    3  502    0 -0.94428469692E+02  0.32718827153E+03 -0.46254960994E+03  0.57438894094E+03  0.12699999809E+01 0. -1.
       -4    1    3    3    0  502  0.94428469692E+02 -0.32718827153E+03 -0.81732431786E+03  0.88543184626E+03  0.12699999809E+01 0.  1.
</event>
<event>
 5   0  0.5076796E-03  0.7000522E+03  0.7818609E-02  0.9717143E-01
       -2   -1    0    0    0  501  0.00000000000E+00  0.00000000000E+00  0.30489438359E+03  0.30489438360E+03  0.25500000920E-02 0. -1.
        2   -1    0    0  501    0  0.00000000000E+00  0.00000000000E+00 -0.40183837776E+03  0.40183837777E+03  0.25500000920E-02 0.  1.
    10030    2    1    2    0    0  0.00000000000E+00  0.00000000000E+00 -0.96943994170E+02  0.70673276137E+03  0.70005218233E+03 0.  0.
        5    1    3    3  502    0  0.11491008209E+03 -0.16450298361E+03 -0.33796734006E+03  0.39307705546E+03  0.46999998093E+01 0.  1.
       -5    1    3    3    0  502 -0.11491008209E+03  0.16450298361E+03  0.24102334589E+03  0.31365570591E+03  0.46999998093E+01 0. -1.
</event>
<event>
 5   0  0.2934483E-03  0.6999675E+03  0.7818609E-02  0.9717288E-01
       -1   -1    0    0    0  501  0.00000000000E+00  0.00000000000E+00  0.17279845997E+03  0.17279846004E+03  0.50400001928E-02 0. -1.
        1   -1    0    0  501    0  0.00000000000E+00  0.00000000000E+00 -0.70885260973E+03  0.70885260975E+03  0.50400001928E-02 0.  1.
    10030    2    1    2    0    0  0.00000000000E+00  0.00000000000E+00 -0.53605414976E+03  0.88165106979E+03  0.69996754023E+03 0.  0.
        5    1    3    3  502    0  0.31030731211E+03  0.77969062671E+02 -0.44658606332E+03  0.54939148576E+03  0.46999998093E+01 0. -1.
       -5    1    3    3    0  502 -0.31030731211E+03 -0.77969062671E+02 -0.89468086446E+02  0.33225958402E+03  0.46999998093E+01 0.  1.
</event>
<event>
 5   0  0.5113683E-03  0.7013549E+03  0.7818609E-02  0.9714918E-01
       -2   -1    0    0    0  501  0.00000000000E+00  0.00000000000E+00  0.40631282886E+03  0.40631282887E+03  0.25500000920E-02 0. -1.
        2   -1    0    0  501    0  0.00000000000E+00  0.00000000000E+00 -0.30266012068E+03  0.30266012069E+03  0.25500000920E-02 0.  1.
    10030    2    1    2    0    0  0.00000000000E+00  0.00000000000E+00  0.10365270819E+03  0.70897294956E+03  0.70135494530E+03 0.  0.
        3    1    3    3  502    0 -0.32330051180E+03 -0.10406758569E+02  0.18873436348E+03  0.37450259240E+03  0.10100000352E+00 0.  1.
       -3    1    3    3    0  502  0.32330051180E+03  0.10406758569E+02 -0.85081655295E+02  0.33447035716E+03  0.10100000352E+00 0. -1.
</event>
<event>
 5   0  0.5072407E-03  0.6996437E+03  0.7818609E-02  0.9717842E-01
       -2   -1    0    0    0  501  0.00000000000E+00  0.00000000000E+00  0.92024215645E+03  0.92024215645E+03  0.25500000920E-02 0.  1.
        2   -1    0    0  501    0  0.00000000000E+00  0.00000000000E+00 -0.13298164181E+03  0.13298164183E+03  0.25500000920E-02 0. -1.
    10030    2    1    2    0    0  0.00000000000E+00  0.00000000000E+00  0.78726051464E+03  0.10532237983E+04  0.69964366027E+03 0.  0.
        1    1    3    3  502    0  0.85598787327E+01  0.57115638488E+02 -0.12575538156E+03  0.13838310482E+03  0.50400001928E-02 0. -1.
       -1    1    3    3    0  502 -0.85598787327E+01 -0.57115638488E+02  0.91301589620E+03  0.91484069346E+03  0.50400001928E-02 0.  1.
</event>
<event>
 5   0  0.4878235E-03  0.7000669E+03  0.7818609E-02  0.9717118E-01
        2   -1    0    0  501    0  0.00000000000E+00  0.00000000000E+00  0.49363810002E+03  0.49363810002E+03  0.25500000920E-02 0. -1.
       -2   -1    0    0    0  501  0.00000000000E+00  0.00000000000E+00 -0.24820495840E+03  0.24820495842E+03  0.25500000920E-02 0.  1.
    10030    2    1    2    0    0  0.00000000000E+00  0.00000000000E+00  0.24543314161E+03  0.74184305844E+03  0.70006692277E+03 0.  0.
        4    1    3    3  502    0  0.33136710281E+03 -0.87388703785E+02  0.19825039444E+03  0.39591132109E+03  0.12699999809E+01 0. -1.
       -4    1    3    3    0  502 -0.33136710281E+03  0.87388703785E+02  0.47182747173E+02  0.34593173735E+03  0.12699999809E+01 0.  1.
</event>
<event>
 5   0  0.5072407E-03  0.7037406E+03  0.7818609E-02  0.9710856E-01
        2   -1    0    0  501    0  0.00000000000E+00  0.00000000000E+00  0.14358109429E+04  0.14358109429E+04  0.25500000920E-02 0. -1.
       -2   -1    0    0    0  501  0.00000000000E+00  0.00000000000E+00 -0.86231912405E+02  0.86231912443E+02  0.25500000920E-02 0.  1.
    10030    2    1    2    0    0  0.00000000000E+00  0.00000000000E+00  0.13495790305E+04  0.15220428553E+04  0.70374064395E+03 0.  0.
        1    1    3    3  502    0 -0.13191290218E+03  0.27404229055E+02  0.13778149301E+04  0.13843865021E+04  0.50400001928E-02 0. -1.
       -1    1    3    3    0  502  0.13191290218E+03 -0.27404229055E+02 -0.28235899631E+02  0.13765635323E+03  0.50400001928E-02 0.  1.
</event>
<event>
 5   0  0.5113683E-03  0.6952823E+03  0.7818609E-02  0.9725334E-01
        2   -1    0    0  501    0  0.00000000000E+00  0.00000000000E+00  0.56992967358E+03  0.56992967358E+03  0.25500000920E-02 0. -1.
       -2   -1    0    0    0  501  0.00000000000E+00  0.00000000000E+00 -0.21205137327E+03  0.21205137329E+03  0.25500000920E-02 0.  1.
    10030    2    1    2    0    0  0.00000000000E+00  0.00000000000E+00  0.35787830030E+03  0.78198104687E+03  0.69528230226E+03 0.  0.
        3    1    3    3  502    0 -0.29705591642E+03 -0.10393175659E+03  0.34503783464E+03  0.46700657923E+03  0.10100000352E+00 0. -1.
       -3    1    3    3    0  502  0.29705591642E+03  0.10393175659E+03  0.12840465664E+02  0.31497446764E+03  0.10100000352E+00 0.  1.
</event>
<event>
 5   0  0.5023894E-03  0.7001104E+03  0.7818609E-02  0.9717043E-01
        2   -1    0    0  501    0  0.00000000000E+00  0.00000000000E+00  0.65316488217E+03  0.65316488218E+03  0.25500000920E-02 0.  1.
       -2   -1    0    0    0  501  0.00000000000E+00  0.00000000000E+00 -0.18760751448E+03  0.18760751450E+03  0.25500000920E-02 0. -1.
    10030    2    1    2    0    0  0.00000000000E+00  0.00000000000E+00  0.46555736769E+03  0.84077239668E+03  0.70011039159E+03 0.  0.
        2    1    3    3  502    0  0.34893997356E+03 -0.12267922024E+02  0.26289824558E+03  0.43706417675E+03  0.25500000920E-02 0.  1.
       -2    1    3    3    0  502 -0.34893997356E+03  0.12267922024E+02  0.20265912211E+03  0.40370821993E+03  0.25500000920E-02 0. -1.
</event>
<event>
 5   0  0.5072407E-03  0.6999335E+03  0.7818609E-02  0.9717346E-01
        2   -1    0    0  501    0  0.00000000000E+00  0.00000000000E+00  0.91653395688E+03  0.91653395688E+03  0.25500000920E-02 0. -1.
       -2   -1    0    0    0  501  0.00000000000E+00  0.00000000000E+00 -0.13363031560E+03  0.13363031563E+03  0.25500000920E-02 0.  1.
    10030    2    1    2    0    0  0.00000000000E+00  0.00000000000E+00  0.78290364128E+03  0.10501642725E+04  0.69993348807E+03 0.  0.
        1    1    3    3  502    0  0.18283174949E+03 -0.26447423203E+03  0.59882248537E+03  0.67967818638E+03  0.50400001928E-02 0. -1.
       -1    1    3    3    0  502 -0.18283174949E+03  0.26447423203E+03  0.18408115591E+03  0.37048608613E+03  0.50400001928E-02 0.  1.
</event>
<event>
 5   0  0.5023894E-03  0.6979750E+03  0.7818609E-02  0.9720701E-01
       -2   -1    0    0    0  501  0.00000000000E+00  0.00000000000E+00  0.11255159657E+03  0.11255159660E+03  0.25500000920E-02 0.  1.
        2   -1    0    0  501    0  0.00000000000E+00  0.00000000000E+00 -0.10821018025E+04  0.10821018025E+04  0.25500000920E-02 0. -1.
    10030    2    1    2    0    0  0.00000000000E+00  0.00000000000E+00 -0.96955020589E+03  0.11946533991E+04  0.69797502974E+03 0.  0.
        2    1    3    3  502    0 -0.19308337060E+03  0.28343243728E+03 -0.59539726084E+03  0.68710481932E+03  0.25500000920E-02 0. -1.
       -2    1    3    3    0  502  0.19308337060E+03 -0.28343243728E+03 -0.37415294505E+03  0.50754857974E+03  0.25500000920E-02 0.  1.
</event>
<event>
 5   0  0.2913582E-03  0.6997553E+03  0.7818609E-02  0.9717651E-01
       -1   -1    0    0    0  501  0.00000000000E+00  0.00000000000E+00  0.21752492464E+03  0.21752492470E+03  0.50400001928E-02 0. -1.
        1   -1    0    0  501    0  0.00000000000E+00  0.00000000000E+00 -0.56276026649E+03  0.56276026651E+03  0.50400001928E-02 0.  1.
    10030    2    1    2    0    0  0.00000000000E+00  0.00000000000E+00 -0.34523534185E+03  0.78028519121E+03  0.69975534179E+03 0.  0.
        1    1    3    3  502    0 -0.21622341221E+03  0.15315245402E+03 -0.42739921230E+03  0.50287008746E+03  0.50400001928E-02 0.  1.
       -1    1    3    3    0  502  0.21622341221E+03 -0.15315245402E+03  0.82163870451E+02  0.27741510376E+03  0.50400001928E-02 0. -1.
</event>
<event>
 5   0  0.3013140E-03  0.7011898E+03  0.7818609E-02  0.9715200E-01
       -1   -1    0    0    0  501  0.00000000000E+00  0.00000000000E+00  0.92380134080E+02  0.92380134218E+02  0.50400001928E-02 0.  1.
        1   -1    0    0  501    0  0.00000000000E+00  0.00000000000E+00 -0.13305543489E+04  0.13305543489E+04  0.50400001928E-02 0. -1.
    10030    2    1    2    0    0  0.00000000000E+00  0.00000000000E+00 -0.12381742148E+04  0.14229344831E+04  0.70118981526E+03 0.  0.
        2    1    3    3  502    0  0.34222231612E+03  0.14170470488E+02 -0.77094536335E+03  0.84360753266E+03  0.25500000920E-02 0. -1.
       -2    1    3    3    0  502 -0.34222231612E+03 -0.14170470488E+02 -0.46722885147E+03  0.57932695047E+03  0.25500000920E-02 0.  1.
</event>
<event>
 5   0  0.2938783E-03  0.6989896E+03  0.7818609E-02  0.9718962E-01
       -1   -1    0    0    0  501  0.00000000000E+00  0.00000000000E+00  0.30756259157E+03  0.30756259162E+03  0.50400001928E-02 0. -1.
        1   -1    0    0  501    0  0.00000000000E+00  0.00000000000E+00 -0.39714391107E+03  0.39714391110E+03  0.50400001928E-02 0.  1.
    10030    2    1    2    0    0  0.00000000000E+00  0.00000000000E+00 -0.89581319493E+02  0.70470650271E+03  0.69898958659E+03 0.  0.
        4    1    3    3  502    0  0.16209112472E+03 -0.19921227033E+03  0.19418374272E+03  0.32197515464E+03  0.12699999809E+01 0. -1.
       -4    1    3    3    0  502 -0.16209112472E+03  0.19921227033E+03 -0.28376506222E+03  0.38273134808E+03  0.12699999809E+01 0.  1.
</event>
<event>
 5   0  0.2934483E-03  0.7003681E+03  0.7818609E-02  0.9716603E-01
        1   -1    0    0  501    0  0.00000000000E+00  0.00000000000E+00  0.11031214988E+04  0.11031214988E+04  0.50400001928E-02 0. -1.
       -1   -1    0    0    0  501  0.00000000000E+00  0.00000000000E+00 -0.11116534638E+03  0.11116534650E+03  0.50400001928E-02 0.  1.
    10030    2    1    2    0    0  0.00000000000E+00  0.00000000000E+00  0.99195615240E+03  0.12142868453E+04  0.70036814202E+03 0.  0.
        5    1    3    3  502    0  0.19619442711E+03 -0.12257278170E+03  0.40251947599E+02  0.23485878592E+03  0.46999998093E+01 0.  1.
       -5    1    3    3    0  502 -0.19619442711E+03  0.12257278170E+03  0.95170420480E+03  0.97942805937E+03  0.46999998093E+01 0. -1.
</event>
<event>
 5   0  0.5113683E-03  0.7004041E+03  0.7818609E-02  0.9716541E-01
       -2   -1    0    0    0  501  0.00000000000E+00  0.00000000000E+00  0.57573086731E+02  0.57573086788E+02  0.25500000920E-02 0.  1.
        2   -1    0    0  501    0  0.00000000000E+00  0.00000000000E+00 -0.21301875216E+04  0.21301875216E+04  0.25500000920E-02 0. -1.
    10030    2    1    2    0    0  0.00000000000E+00  0.00000000000E+00 -0.20726144349E+04  0.21877606084E+04  0.70040408622E+03 0.  0.
        3    1    3    3  502    0  0.17628957037E+02  0.13681204970E+03 -0.20417527590E+04  0.20464072557E+04  0.10100000352E+00 0. -1.
       -3    1    3    3    0  502 -0.17628957037E+02 -0.13681204970E+03 -0.30861675820E+02  0.14135335265E+03  0.10100000352E+00 0.  1.
</event>
<event>
 5   0  0.1981750E-03  0.7030332E+03  0.7818609E-02  0.9712059E-01
       -3   -1    0    0    0  501  0.00000000000E+00  0.00000000000E+00  0.41113309429E+03  0.41113310670E+03  0.10100000352E+00 0. -1.
        3   -1    0    0  501    0  0.00000000000E+00  0.00000000000E+00 -0.30054476960E+03  0.30054478657E+03  0.10100000352E+00 0.  1.
    10030    2    1    2    0    0  0.00000000000E+00  0.00000000000E+00  0.11058832469E+03  0.71167789327E+03  0.70303317576E+03 0.  0.
        2    1    3    3  502    0  0.32266926930E+03 -0.61045998969E+02 -0.71634395301E+02  0.33611539378E+03  0.25500000920E-02 0.  1.
       -2    1    3    3    0  502 -0.32266926930E+03  0.61045998969E+02  0.18222271999E+03  0.37556249949E+03  0.25500000920E-02 0. -1.
</event>
<event>
 5   0  0.5113683E-03  0.7006197E+03  0.7818609E-02  0.9716173E-01
        2   -1    0    0  501    0  0.00000000000E+00  0.00000000000E+00  0.23874048638E+03  0.23874048639E+03  0.25500000920E-02 0.  1.
       -2   -1    0    0    0  501  0.00000000000E+00  0.00000000000E+00 -0.51401828553E+03  0.51401828553E+03  0.25500000920E-02 0. -1.
    10030    2    1    2    0    0  0.00000000000E+00  0.00000000000E+00 -0.27527779915E+03  0.75275877193E+03  0.70061965574E+03 0.  0.
        3    1    3    3  502    0 -0.23269696253E+03  0.22551969417E+03  0.53433925016E+01  0.32409191732E+03  0.10100000352E+00 0.  1.
       -3    1    3    3    0  502  0.23269696253E+03 -0.22551969417E+03 -0.28062119165E+03  0.42866685460E+03  0.10100000352E+00 0. -1.
</event>
<event>
 5   0  0.2937617E-03  0.6978188E+03  0.7818609E-02  0.9720970E-01
        1   -1    0    0  501    0  0.00000000000E+00  0.00000000000E+00  0.12189028186E+04  0.12189028186E+04  0.50400001928E-02 0. -1.
       -1   -1    0    0    0  501  0.00000000000E+00  0.00000000000E+00 -0.99874886750E+02  0.99874886877E+02  0.50400001928E-02 0.  1.
    10030    2    1    2    0    0  0.00000000000E+00  0.00000000000E+00  0.11190279318E+04  0.13187777055E+04  0.69781883338E+03 0.  0.
        3    1    3    3  502    0  0.20279563535E+03  0.25089556954E+03  0.81068094963E+03  0.87251261814E+03  0.10100000352E+00 0. -1.
       -3    1    3    3    0  502 -0.20279563535E+03 -0.25089556954E+03  0.30834698220E+03  0.44626508732E+03  0.10100000352E+00 0.  1.
</event>
<event>
 5   0  0.2938783E-03  0.6989889E+03  0.7818609E-02  0.9718963E-01
        1   -1    0    0  501    0  0.00000000000E+00  0.00000000000E+00  0.74478803349E+03  0.74478803350E+03  0.50400001928E-02 0. -1.
       -1   -1    0    0    0  501  0.00000000000E+00  0.00000000000E+00 -0.16400150246E+03  0.16400150254E+03  0.50400001928E-02 0.  1.
    10030    2    1    2    0    0  0.00000000000E+00  0.00000000000E+00  0.58078653102E+03  0.90878953604E+03  0.69898885986E+03 0.  0.
        4    1    3    3  502    0  0.45701514230E+02  0.33965752974E+03  0.37942145016E+03  0.51129063717E+03  0.12699999809E+01 0. -1.
       -4    1    3    3    0  502 -0.45701514230E+02 -0.33965752974E+03  0.20136508087E+03  0.39749889888E+03  0.12699999809E+01 0.  1.
</event>
<event>
 5   0  0.2934483E-03  0.6975762E+03  0.7818609E-02  0.9721386E-01
       -1   -1    0    0    0  501  0.00000000000E+00  0.00000000000E+00  0.23938197193E+03  0.23938197198E+03  0.50400001928E-02 0.  1.
        1   -1    0    0  501    0  0.00000000000E+00  0.00000000000E+00 -0.50819679913E+03  0.50819679915E+03  0.50400001928E-02 0. -1.
    10030    2    1    2    0    0  0.00000000000E+00  0.00000000000E+00 -0.26881482720E+03  0.74757877113E+03  0.69757623793E+03 0.  0.
        5    1    3    3  502    0  0.82263817425E+02  0.33018024568E+03 -0.21633828415E+03  0.40325013761E+03  0.46999998093E+01 0. -1.
       -5    1    3    3    0  502 -0.82263817425E+02 -0.33018024568E+03 -0.52476543051E+02  0.34432863352E+03  0.46999998093E+01 0.  1.
</event>
<event>
 5   0  0.4878235E-03  0.7019553E+03  0.7818609E-02  0.9713894E-01
       -2   -1    0    0    0  501  0.00000000000E+00  0.00000000000E+00  0.20151887263E+03  0.20151887265E+03  0.25500000920E-02 0.  1.
        2   -1    0    0  501    0  0.00000000000E+00  0.00000000000E+00 -0.61128427202E+03  0.61128427203E+03  0.25500000920E-02 0. -1.
    10030    2    1    2    0    0  0.00000000000E+00  0.00000000000E+00 -0.40976539938E+03  0.81280314468E+03  0.70195531871E+03 0.  0.
        4    1    3    3  502    0 -0.58010623158E+02 -0.33130082293E+03 -0.88754729798E+02  0.34785698590E+03  0.12699999809E+01 0.  1.
       -4    1    3    3    0  502  0.58010623158E+02  0.33130082293E+03 -0.32101066959E+03  0.46494615878E+03  0.12699999809E+01 0. -1.
</event>
<event>
 5   0  0.4878235E-03  0.6993161E+03  0.7818609E-02  0.9718403E-01
        2   -1    0    0  501    0  0.00000000000E+00  0.00000000000E+00  0.75813679417E+03  0.75813679417E+03  0.25500000920E-02 0. -1.
       -2   -1    0    0    0  501  0.00000000000E+00  0.00000000000E+00 -0.16126475091E+03  0.16126475093E+03  0.25500000920E-02 0.  1.
    10030    2    1    2    0    0  0.00000000000E+00  0.00000000000E+00  0.59687204326E+03  0.91940154510E+03  0.69931606953E+03 0.  0.
        4    1    3    3  502    0  0.25188016524E+03  0.23489594383E+03  0.37774949928E+03  0.51119078550E+03  0.12699999809E+01 0.  1.
       -4    1    3    3    0  502 -0.25188016524E+03 -0.23489594383E+03  0.21912254398E+03  0.40821075960E+03  0.12699999809E+01 0. -1.
</event>
<event>
 5   0  0.5113683E-03  0.6994250E+03  0.7818609E-02  0.9718216E-01
       -2   -1    0    0    0  501  0.00000000000E+00  0.00000000000E+00  0.96029758808E+02  0.96029758842E+02  0.25500000920E-02 0.  1.
        2   -1    0    0  501    0  0.00000000000E+00  0.00000000000E+00 -0.12735513349E+04  0.12735513349E+04  0.25500000920E-02 0. -1.
    10030    2    1    2    0    0  0.00000000000E+00  0.00000000000E+00 -0.11775215761E+04  0.13695810937E+04  0.69942498537E+03 0.  0.
        3    1    3    3  502    0 -0.34434324912E+03 -0.55780188581E+02 -0.54019564666E+03  0.64303580734E+03  0.10100000352E+00 0. -1.
       -3    1    3    3    0  502  0.34434324912E+03  0.55780188581E+02 -0.63732592940E+03  0.72654528636E+03  0.10100000352E+00 0.  1.
</event>
<event>
 5   0  0.2913582E-03  0.7002787E+03  0.7818609E-02  0.9716756E-01
        1   -1    0    0  501    0  0.00000000000E+00  0.00000000000E+00  0.92238403487E+03  0.92238403489E+03  0.50400001928E-02 0.  1.
       -1   -1    0    0    0  501  0.00000000000E+00  0.00000000000E+00 -0.13291378617E+03  0.13291378626E+03  0.50400001928E-02 0. -1.
    10030    2    1    2    0    0  0.00000000000E+00  0.00000000000E+00  0.78947024871E+03  0.10552978211E+04  0.70027867148E+03 0.  0.
        1    1    3    3  502    0  0.21896321780E+03  0.16601649729E+03  0.67715392721E+02  0.28300484547E+03  0.50400001928E-02 0. -1.
       -1    1    3    3    0  502 -0.21896321780E+03 -0.16601649729E+03  0.72175485599E+03  0.77229297568E+03  0.50400001928E-02 0.  1.
</event>
<event>
 5   0  0.4878235E-03  0.7005183E+03  0.7818609E-02  0.9716346E-01
        2   -1    0    0  501    0  0.00000000000E+00  0.00000000000E+00  0.11485152159E+04  0.11485152159E+04  0.25500000920E-02 0. -1.
       -2   -1    0    0    0  501  0.00000000000E+00  0.00000000000E+00 -0.10681744100E+03  0.10681744103E+03  0.25500000920E-02 0.  1.
    10030    2    1    2    0    0  0.00000000000E+00  0.00000000000E+00  0.10416977749E+04  0.12553326569E+04  0.70051825482E+03 0.  0.
        4    1    3    3  502    0  0.30242991194E+03  0.16180745212E+03  0.39370056004E+03  0.52215634352E+03  0.12699999809E+01 0.  1.
       -4    1    3    3    0  502 -0.30242991194E+03 -0.16180745212E+03  0.64799721486E+03  0.73317631342E+03  0.12699999809E+01 0. -1.
</event>
<event>
 5   0  0.2938783E-03  0.6988626E+03  0.7818609E-02  0.9719179E-01
        1   -1    0    0  501    0  0.00000000000E+00  0.00000000000E+00  0.12889363308E+04  0.12889363308E+04  0.50400001928E-02 0.  1.
       -1   -1    0    0    0  501  0.00000000000E+00  0.00000000000E+00 -0.94730991837E+02  0.94730991971E+02  0.50400001928E-02 0. -1.
    10030    2    1    2    0    0  0.00000000000E+00  0.00000000000E+00  0.11942053390E+04  0.13836673228E+04  0.69886255339E+03 0.  0.
        4    1    3    3  502    0  0.26413577506E+03 -0.19602455063E+03  0.36361664529E+03  0.49031827393E+03  0.12699999809E+01 0.  1.
       -4    1    3    3    0  502 -0.26413577506E+03  0.19602455063E+03  0.83058869370E+03  0.89334904887E+03  0.12699999809E+01 0. -1.
</event>
<event>
 5   0  0.5072407E-03  0.7008169E+03  0.7818609E-02  0.9715836E-01
       -2   -1    0    0    0  501  0.00000000000E+00  0.00000000000E+00  0.99725227757E+02  0.99725227789E+02  0.25500000920E-02 0. -1.
        2   -1    0    0  501    0  0.00000000000E+00  0.00000000000E+00 -0.12312440605E+04  0.12312440605E+04  0.25500000920E-02 0.  1.
    10030    2    1    2    0    0  0.00000000000E+00  0.00000000000E+00 -0.11315188328E+04  0.13309692883E+04  0.70081693582E+03 0.  0.
        1    1    3    3  502    0  0.18388486763E+03 -0.81914776498E+02 -0.11104679569E+04  0.11285666832E+04  0.50400001928E-02 0.  1.
       -1    1    3    3    0  502 -0.18388486763E+03  0.81914776498E+02 -0.21050875872E+02  0.20240260510E+03  0.50400001928E-02 0. -1.
</event>
<event>
 5   0  0.5076796E-03  0.6988486E+03  0.7818609E-02  0.9719203E-01
        2   -1    0    0  501    0  0.00000000000E+00  0.00000000000E+00  0.33118925684E+03  0.33118925685E+03  0.25500000920E-02 0.  1.
       -2   -1    0    0    0  501  0.00000000000E+00  0.00000000000E+00 -0.36866331963E+03  0.36866331964E+03  0.25500000920E-02 0. -1.
    10030    2    1    2    0    0  0.00000000000E+00  0.00000000000E+00 -0.37474062788E+02  0.69985257649E+03  0.69884856975E+03 0.  0.
        5    1    3    3  502    0  0.69661960235E+02 -0.91662369355E+02 -0.34909042171E+03  0.36761527605E+03  0.46999998093E+01 0. -1.
       -5    1    3    3    0  502 -0.69661960235E+02  0.91662369355E+02  0.31161635892E+03  0.33223730044E+03  0.46999998093E+01 0.  1.
</event>
<event>
 5   0  0.2938783E-03  0.6993927E+03  0.7818609E-02  0.9718271E-01
       -1   -1    0    0    0  501  0.00000000000E+00  0.00000000000E+00  0.24908699435E+03  0.24908699440E+03  0.50400001928E-02 0. -1.
        1   -1    0    0  501    0  0.00000000000E+00  0.00000000000E+00 -0.49094313859E+03  0.49094313862E+03  0.50400001928E-02 0.  1.
    10030    2    1    2    0    0  0.00000000000E+00  0.00000000000E+00 -0.24185614425E+03  0.74003013302E+03  0.69939273892E+03 0.  0.
        4    1    3    3  502    0 -0.10376765739E+03  0.73784642898E+02  0.22368586301E+03  0.25738857484E+03  0.12699999809E+01 0. -1.
       -4    1    3    3    0  502  0.10376765739E+03 -0.73784642898E+02 -0.46554200726E+03  0.48264155817E+03  0.12699999809E+01 0.  1.
</event>
<event>
 5   0  0.2913582E-03  0.6999825E+03  0.7818609E-02  0.9717262E-01
       -1   -1    0    0    0  501  0.00000000000E+00  0.00000000000E+00  0.17361919859E+03  0.17361919866E+03  0.50400001928E-02 0. -1.
        1   -1    0    0  501    0  0.00000000000E+00  0.00000000000E+00 -0.70553189823E+03  0.70553189824E+03  0.50400001928E-02 0.  1.
    10030    2    1    2    0    0  0.00000000000E+00  0.00000000000E+00 -0.53191269964E+03  0.87915109690E+03  0.69998252203E+03 0.  0.
        1    1    3    3  502    0 -0.28535016804E+03  0.10412151029E+03 -0.48431989584E+03  0.57169202271E+03  0.50400001928E-02 0.  1.
       -1    1    3    3    0  502  0.28535016804E+03 -0.10412151029E+03 -0.47592803801E+02  0.30745907419E+03  0.50400001928E-02 0. -1.
</event>
<event>
 5   0  0.2938783E-03  0.7002794E+03  0.7818609E-02  0.9716755E-01
        1   -1    0    0  501    0  0.00000000000E+00  0.00000000000E+00  0.18684458358E+03  0.18684458365E+03  0.50400001928E-02 0.  1.
       -1   -1    0    0    0  501  0.00000000000E+00  0.00000000000E+00 -0.65614851216E+03  0.65614851218E+03  0.50400001928E-02 0. -1.
    10030    2    1    2    0    0  0.00000000000E+00  0.00000000000E+00 -0.46930392858E+03  0.84299309583E+03  0.70027936014E+03 0.  0.
        4    1    3    3  502    0  0.10578215002E+03 -0.83765552645E+02  0.15428696610E+03  0.20496978285E+03  0.12699999809E+01 0.  1.
       -4    1    3    3    0  502 -0.10578215002E+03  0.83765552645E+02 -0.62359089468E+03  0.63802331298E+03  0.12699999809E+01 0. -1.
</event>
<event>
 5   0  0.4878235E-03  0.7016889E+03  0.7818609E-02  0.9714348E-01
        2   -1    0    0  501    0  0.00000000000E+00  0.00000000000E+00  0.13908695011E+04  0.13908695011E+04  0.25500000920E-02 0.  1.
       -2   -1    0    0    0  501  0.00000000000E+00  0.00000000000E+00 -0.88499910695E+02  0.88499910731E+02  0.25500000920E-02 0. -1.
    10030    2    1    2    0    0  0.00000000000E+00  0.00000000000E+00  0.13023695904E+04  0.14793694118E+04  0.70168889592E+03 0.  0.
        4    1    3    3  502    0  0.15104198633E+03  0.15062455457E+03  0.63923362495E+02  0.22268643256E+03  0.12699999809E+01 0. -1.
       -4    1    3    3    0  502 -0.15104198633E+03 -0.15062455457E+03  0.12384462279E+04  0.12566829793E+04  0.12699999809E+01 0.  1.
</event>
<event>
 5   0  0.2913582E-03  0.7014183E+03  0.7818609E-02  0.9714810E-01
        1   -1    0    0  501    0  0.00000000000E+00  0.00000000000E+00  0.90651135616E+03  0.90651135617E+03  0.50400001928E-02 0.  1.
       -1   -1    0    0    0  501  0.00000000000E+00  0.00000000000E+00 -0.13568161504E+03  0.13568161513E+03  0.50400001928E-02 0. -1.
    10030    2    1    2    0    0  0.00000000000E+00  0.00000000000E+00  0.77082974112E+03  0.10421929713E+04  0.70141834852E+03 0.  0.
        1    1    3    3  502    0  0.57306754465E+02  0.22247977099E+03  0.77913521923E+03  0.81230105409E+03  0.50400001928E-02 0.  1.
       -1    1    3    3    0  502 -0.57306754465E+02 -0.22247977099E+03 -0.83054781141E+01  0.22989191721E+03  0.50400001928E-02 0. -1.
</event>
<event>
 5   0  0.5072407E-03  0.7004696E+03  0.7818609E-02  0.9716429E-01
        2   -1    0    0  501    0  0.00000000000E+00  0.00000000000E+00  0.78837657074E+03  0.78837657074E+03  0.25500000920E-02 0. -1.
       -2   -1    0    0    0  501  0.00000000000E+00  0.00000000000E+00 -0.15559115257E+03  0.15559115259E+03  0.25500000920E-02 0.  1.
    10030    2    1    2    0    0  0.00000000000E+00  0.00000000000E+00  0.63278541817E+03  0.94396772333E+03  0.70046961194E+03 0.  0.
        1    1    3    3  502    0  0.22222402901E+03  0.26919893579E+03  0.27797171842E+03  0.44622848673E+03  0.50400001928E-02 0. -1.
       -1    1    3    3    0  502 -0.22222402901E+03 -0.26919893579E+03  0.35481369975E+03  0.49773923660E+03  0.50400001928E-02 0.  1.
</event>
<event>
 5   0  0.2934483E-03  0.6988864E+03  0.7818609E-02  0.9719138E-01
       -1   -1    0    0    0  501  0.00000000000E+00  0.00000000000E+00  0.54448815860E+02  0.54448816093E+02  0.50400001928E-02 0.  1.
        1   -1    0    0  501    0  0.00000000000E+00  0.00000000000E+00 -0.22426670191E+04  0.22426670192E+04  0.50400001928E-02 0. -1.
    10030    2    1    2    0    0  0.00000000000E+00  0.00000000000E+00 -0.21882182033E+04  0.22971158352E+04  0.69888643952E+03 0.  0.
        5    1    3    3  502    0  0.14243974802E+03 -0.17837783370E+03 -0.19636010174E+04  0.19768304881E+04  0.46999998093E+01 0. -1.
       -5    1    3    3    0  502 -0.14243974802E+03  0.17837783370E+03 -0.22461718591E+03  0.32028534711E+03  0.46999998093E+01 0.  1.
</event>
<event>
 5   0  0.2934483E-03  0.7001256E+03  0.7818609E-02  0.9717017E-01
        1   -1    0    0  501    0  0.00000000000E+00  0.00000000000E+00  0.98754321358E+03  0.98754321360E+03  0.50400001928E-02 0. -1.
       -1   -1    0    0    0  501  0.00000000000E+00  0.00000000000E+00 -0.12408971812E+03  0.12408971822E+03  0.50400001928E-02 0.  1.
    10030    2    1    2    0    0  0.00000000000E+00  0.00000000000E+00  0.86345349546E+03  0.11116329318E+04  0.70012558608E+03 0.  0.
        5    1    3    3  502    0 -0.54187242145E+02  0.27790593626E+03  0.75848921826E+03  0.80962704428E+03  0.46999998093E+01 0. -1.
       -5    1    3    3    0  502  0.54187242145E+02 -0.27790593626E+03  0.10496427720E+03  0.30200588754E+03  0.46999998093E+01 0.  1.
</event>
<event>
 5   0  0.5113683E-03  0.6993534E+03  0.7818609E-02  0.9718339E-01
       -2   -1    0    0    0  501  0.00000000000E+00  0.00000000000E+00  0.36859185024E+03  0.36859185025E+03  0.25500000920E-02 0. -1.
        2   -1    0    0  501    0  0.00000000000E+00  0.00000000000E+00 -0.33173222569E+03  0.33173222570E+03  0.25500000920E-02 0.  1.
    10030    2    1    2    0    0  0.00000000000E+00  0.00000000000E+00  0.36859624551E+02  0.70032407594E+03  0.69935340095E+03 0.  0.
        3    1    3    3  502    0 -0.10235828427E+02 -0.14330574957E+03 -0.30081115337E+03  0.33335967098E+03  0.10100000352E+00 0.  1.
       -3    1    3    3    0  502  0.10235828427E+02  0.14330574957E+03  0.33767077792E+03  0.36696440496E+03  0.10100000352E+00 0. -1.
</event>
<event>
 5   0  0.2913582E-03  0.6984928E+03  0.7818609E-02  0.9719813E-01
        1   -1    0    0  501    0  0.00000000000E+00  0.00000000000E+00  0.66445639505E+03  0.66445639507E+03  0.50400001928E-02 0.  1.
       -1   -1    0    0    0  501  0.00000000000E+00  0.00000000000E+00 -0.18356818051E+03  0.18356818058E+03  0.50400001928E-02 0. -1.
    10030    2    1    2    0    0  0.00000000000E+00  0.00000000000E+00  0.48088821454E+03  0.84802457564E+03  0.69849281028E+03 0.  0.
        1    1    3    3  502    0  0.36065875333E+02 -0.34386030138E+03  0.30032161975E+03  0.45796695245E+03  0.50400001928E-02 0. -1.
       -1    1    3    3    0  502 -0.36065875333E+02  0.34386030138E+03  0.18056659479E+03  0.39005762319E+03  0.50400001928E-02 0.  1.
</event>
<event>
 5   0  0.2934483E-03  0.6993264E+03  0.7818609E-02  0.9718385E-01
        1   -1    0    0  501    0  0.00000000000E+00  0.00000000000E+00  0.98383819014E+03  0.98383819015E+03  0.50400001928E-02 0.  1.
       -1   -1    0    0    0  501  0.00000000000E+00  0.00000000000E+00 -0.12427283954E+03  0.12427283964E+03  0.50400001928E-02 0. -1.
    10030    2    1    2    0    0  0.00000000000E+00  0.00000000000E+00  0.85956535060E+03  0.11081110298E+04  0.69932643479E+03 0.  0.
        5    1    3    3  502    0 -0.15501258473E+03  0.30326349974E+03  0.30456764114E+03  0.45692580331E+03  0.46999998093E+01 0. -1.
       -5    1    3    3    0  502  0.15501258473E+03 -0.30326349974E+03  0.55499770946E+03  0.65118522649E+03  0.46999998093E+01 0.  1.
</event>
<event>
 5   0  0.1981750E-03  0.6986454E+03  0.7818609E-02  0.9719552E-01
        3   -1    0    0  501    0  0.00000000000E+00  0.00000000000E+00  0.86643899906E+03  0.86643900494E+03  0.10100000352E+00 0. -1.
       -3   -1    0    0    0  501  0.00000000000E+00  0.00000000000E+00 -0.14083658574E+03  0.14083662195E+03  0.10100000352E+00 0.  1.
    10030    2    1    2    0    0  0.00000000000E+00  0.00000000000E+00  0.72560241332E+03  0.10072756269E+04  0.69864535089E+03 0.  0.
        2    1    3    3  502    0  0.11379456278E+03  0.32512223780E+03  0.27907184049E+03  0.44332241562E+03  0.25500000920E-02 0.  1.
       -2    1    3    3    0  502 -0.11379456278E+03 -0.32512223780E+03  0.44653057283E+03  0.56395321128E+03  0.25500000920E-02 0. -1.
</event>
<event>
 5   0  0.5076796E-03  0.7007612E+03  0.7818609E-02  0.9715931E-01
        2   -1    0    0  501    0  0.00000000000E+00  0.00000000000E+00  0.41210442669E+03  0.41210442670E+03  0.25500000920E-02 0. -1.
       -2   -1    0    0    0  501  0.00000000000E+00  0.00000000000E+00 -0.29790161944E+03  0.29790161945E+03  0.25500000920E-02 0.  1.
    10030    2    1    2    0    0  0.00000000000E+00  0.00000000000E+00  0.11420280725E+03  0.71000604614E+03  0.70076123207E+03 0.  0.
        5    1    3    3  502    0 -0.24640095483E+03  0.13027205036E+03  0.27217582862E+03  0.38959723989E+03  0.46999998093E+01 0. -1.
       -5    1    3    3    0  502  0.24640095483E+03 -0.13027205036E+03 -0.15797302137E+03  0.32040880625E+03  0.46999998093E+01 0.  1.
</event>
<event>
 5   0  0.2913582E-03  0.7007201E+03  0.7818609E-02  0.9716002E-01
       -1   -1    0    0    0  501  0.00000000000E+00  0.00000000000E+00  0.11778886492E+03  0.11778886502E+03  0.50400001928E-02 0. -1.
        1   -1    0    0  501    0  0.00000000000E+00  0.00000000000E+00 -0.10421372280E+04  0.10421372280E+04  0.50400001928E-02 0.  1.
    10030    2    1    2    0    0  0.00000000000E+00  0.00000000000E+00 -0.92434836304E+03  0.11599260930E+04  0.70072009030E+03 0.  0.
        1    1    3    3  502    0  0.55740121844E+02  0.33445881333E+03 -0.60820528784E+03  0.69633564549E+03  0.50400001928E-02 0.  1.
       -1    1    3    3    0  502 -0.55740121844E+02 -0.33445881333E+03 -0.31614307519E+03  0.46359044750E+03  0.50400001928E-02 0. -1.
</event>
<event>
 5   0  0.2934483E-03  0.6989482E+03  0.7818609E-02  0.9719033E-01
       -1   -1    0    0    0  501  0.00000000000E+00  0.00000000000E+00  0.23471625050E+03  0.23471625055E+03  0.50400001928E-02 0. -1.
        1   -1    0    0  501    0  0.00000000000E+00  0.00000000000E+00 -0.52033951239E+03  0.52033951242E+03  0.50400001928E-02 0.  1.
    10030    2    1    2    0    0  0.00000000000E+00  0.00000000000E+00 -0.28562326190E+03  0.75505576297E+03  0.69894817938E+03 0.  0.
        5    1    3    3  502    0 -0.21825711618E+03 -0.22531895926E+03  0.23512894484E+02  0.31461047085E+03  0.46999998093E+01 0. -1.
       -5    1    3    3    0  502  0.21825711618E+03  0.22531895926E+03 -0.30913615638E+03  0.44044529211E+03  0.46999998093E+01 0.  1.
</event>
<event>
 5   0  0.2937617E-03  0.6991337E+03  0.7818609E-02  0.9718715E-01
        1   -1    0    0  501    0  0.00000000000E+00  0.00000000000E+00  0.40421980093E+03  0.40421980096E+03  0.50400001928E-02 0.  1.
       -1   -1    0    0    0  501  0.00000000000E+00  0.00000000000E+00 -0.30230331489E+03  0.30230331493E+03  0.50400001928E-02 0. -1.
    10030    2    1    2    0    0  0.00000000000E+00  0.00000000000E+00  0.10191648604E+03  0.70652311590E+03  0.69913370908E+03 0.  0.
        3    1    3    3  502    0 -0.10287736747E+03 -0.12447386741E+02 -0.28642407067E+03  0.30459390775E+03  0.10100000352E+00 0. -1.
       -3    1    3    3    0  502  0.10287736747E+03  0.12447386741E+02  0.38834055672E+03  0.40192920815E+03  0.10100000352E+00 0.  1.
</event>
<event>
 5   0  0.4878235E-03  0.6995834E+03  0.7818609E-02  0.9717945E-01
       -2   -1    0    0    0  501  0.00000000000E+00  0.00000000000E+00  0.23548490270E+03  0.23548490271E+03  0.25500000920E-02 0. -1.
        2   -1    0    0  501    0  0.00000000000E+00  0.00000000000E+00 -0.51958420895E+03  0.51958420896E+03  0.25500000920E-02 0.  1.
    10030    2    1    2    0    0  0.00000000000E+00  0.00000000000E+00 -0.28409930625E+03  0.75506911167E+03  0.69958341003E+03 0.  0.
        4    1    3    3  502    0 -0.58411586694E+01 -0.26870425472E+03 -0.38367233036E+03  0.46844654510E+03  0.12699999809E+01 0.  1.
       -4    1    3    3    0  502  0.58411586694E+01  0.26870425472E+03  0.99573024104E+02  0.28662256657E+03  0.12699999809E+01 0. -1.
</event>
<event>
 5   0  0.3013140E-03  0.7046897E+03  0.7818609E-02  0.9709246E-01
        1   -1    0    0  501    0  0.00000000000E+00  0.00000000000E+00  0.31622075749E+03  0.31622075753E+03  0.50400001928E-02 0.  1.
       -1   -1    0    0    0  501  0.00000000000E+00  0.00000000000E+00 -0.39259562316E+03  0.39259562319E+03  0.50400001928E-02 0. -1.
    10030    2    1    2    0    0  0.00000000000E+00  0.00000000000E+00 -0.76374865674E+02  0.70881638072E+03  0.70468967743E+03 0.  0.
        2    1    3    3  502    0 -0.15156668337E+03  0.31708832646E+03 -0.63422576787E+02  0.35712727358E+03  0.25500000920E-02 0.  1.
       -2    1    3    3    0  502  0.15156668337E+03 -0.31708832646E+03 -0.12952288887E+02  0.35168910714E+03  0.25500000920E-02 0. -1.
</event>
<event>
 5   0  0.2934483E-03  0.7012762E+03  0.7818609E-02  0.9715052E-01
        1   -1    0    0  501    0  0.00000000000E+00  0.00000000000E+00  0.39931255790E+03  0.39931255794E+03  0.50400001928E-02 0. -1.
       -1   -1    0    0    0  501  0.00000000000E+00  0.00000000000E+00 -0.30789686296E+03  0.30789686300E+03  0.50400001928E-02 0.  1.
    10030    2    1    2    0    0  0.00000000000E+00  0.00000000000E+00  0.91415694948E+02  0.70720942093E+03  0.70127621931E+03 0.  0.
        5    1    3    3  502    0 -0.26674760842E+03 -0.16463999415E+03  0.20408554464E+03  0.37407701587E+03  0.46999998093E+01 0. -1.
       -5    1    3    3    0  502  0.26674760842E+03  0.16463999415E+03 -0.11266984969E+03  0.33313240506E+03  0.46999998093E+01 0.  1.
</event>
<event>
 5   0  0.5072407E-03  0.6997253E+03  0.7818609E-02  0.9717702E-01
        2   -1    0    0  501    0  0.00000000000E+00  0.00000000000E+00  0.36306899263E+03  0.36306899264E+03  0.25500000920E-02 0.  1.
       -2   -1    0    0    0  501  0.00000000000E+00  0.00000000000E+00 -0.33713668687E+03  0.33713668688E+03  0.25500000920E-02 0. -1.
    10030    2    1    2    0    0  0.00000000000E+00  0.00000000000E+00  0.25932305761E+02  0.70020567951E+03  0.69972530977E+03 0.  0.
        1    1    3    3  502    0 -0.61525099117E+01 -0.31893826462E+03  0.15674640963E+03  0.35542778025E+03  0.50400001928E-02 0.  1.
       -1    1    3    3    0  502  0.61525099117E+01  0.31893826462E+03 -0.13081410387E+03  0.34477789926E+03  0.50400001928E-02 0. -1.
</event>
<event>
 5   0  0.4878235E-03  0.6985959E+03  0.7818609E-02  0.9719636E-01
        2   -1    0    0  501    0  0.00000000000E+00  0.00000000000E+00  0.13569289635E+04  0.13569289635E+04  0.25500000920E-02 0.  1.
       -2   -1    0    0    0  501  0.00000000000E+00  0.00000000000E+00 -0.89915578647E+02  0.89915578683E+02  0.25500000920E-02 0. -1.
    10030    2    1    2    0    0  0.00000000000E+00  0.00000000000E+00  0.12670133848E+04  0.14468445422E+04  0.69859588594E+03 0.  0.
        4    1    3    3  502    0  0.46196107044E+02 -0.22229050907E+03  0.11832602618E+04  0.12048458867E+04  0.12699999809E+01 0.  1.
       -4    1    3    3    0  502 -0.46196107044E+02  0.22229050907E+03  0.83753123083E+02  0.24199865548E+03  0.12699999809E+01 0. -1.
</event>
<event>
 5   0  0.4878235E-03  0.6989684E+03  0.7818609E-02  0.9718998E-01
       -2   -1    0    0    0  501  0.00000000000E+00  0.00000000000E+00  0.26090185714E+03  0.26090185715E+03  0.25500000920E-02 0.  1.
        2   -1    0    0  501    0  0.00000000000E+00  0.00000000000E+00 -0.46814236800E+03  0.46814236800E+03  0.25500000920E-02 0. -1.
    10030    2    1    2    0    0  0.00000000000E+00  0.00000000000E+00 -0.20724051086E+03  0.72904422515E+03  0.69896842052E+03 0.  0.
        4    1    3    3  502    0 -0.13718365565E+03  0.20113980644E+03 -0.36512949777E+03  0.43885959048E+03  0.12699999809E+01 0. -1.
       -4    1    3    3    0  502  0.13718365565E+03 -0.20113980644E+03  0.15788898691E+03  0.29018463468E+03  0.12699999809E+01 0.  1.
</event>
<event>
 5   0  0.5023894E-03  0.7009474E+03  0.7818609E-02  0.9715613E-01
        2   -1    0    0  501    0  0.00000000000E+00  0.00000000000E+00  0.54723319180E+03  0.54723319180E+03  0.25500000920E-02 0.  1.
       -2   -1    0    0    0  501  0.00000000000E+00  0.00000000000E+00 -0.22445973951E+03  0.22445973952E+03  0.25500000920E-02 0. -1.
    10030    2    1    2    0    0  0.00000000000E+00  0.00000000000E+00  0.32277345229E+03  0.77169293133E+03  0.70094741511E+03 0.  0.
        2    1    3    3  502    0 -0.11330008725E+03 -0.18503109162E+01  0.52650924505E+03  0.53856505508E+03  0.25500000920E-02 0.  1.
       -2    1    3    3    0  502  0.11330008725E+03  0.18503109162E+01 -0.20373579276E+03  0.23312787624E+03  0.25500000920E-02 0. -1.
</event>
<event>
 5   0  0.5113683E-03  0.6960160E+03  0.7818609E-02  0.9724070E-01
        2   -1    0    0  501    0  0.00000000000E+00  0.00000000000E+00  0.72743348587E+03  0.72743348587E+03  0.25500000920E-02 0.  1.
       -2   -1    0    0    0  501  0.00000000000E+00  0.00000000000E+00 -0.16648885728E+03  0.16648885730E+03  0.25500000920E-02 0. -1.
    10030    2    1    2    0    0  0.00000000000E+00  0.00000000000E+00  0.56094462858E+03  0.89392234317E+03  0.69601600505E+03 0.  0.
        3    1    3    3  502    0 -0.40843231442E+02  0.33012688449E+03  0.41181237306E+03  0.52937828650E+03  0.10100000352E+00 0.  1.
       -3    1    3    3    0  502  0.40843231442E+02 -0.33012688449E+03  0.14913225552E+03  0.36454405667E+03  0.10100000352E+00 0. -1.
</event>
<event>
 5   0  0.2937617E-03  0.6999814E+03  0.7818609E-02  0.9717264E-01
        1   -1    0    0  501    0  0.00000000000E+00  0.00000000000E+00  0.12459240553E+04  0.12459240553E+04  0.50400001928E-02 0. -1.
       -1   -1    0    0    0  501  0.00000000000E+00  0.00000000000E+00 -0.98315364359E+02  0.98315364489E+02  0.50400001928E-02 0.  1.
    10030    2    1    2    0    0  0.00000000000E+00  0.00000000000E+00  0.11476086909E+04  0.13442394198E+04  0.69998136418E+03 0.  0.
        3    1    3    3  502    0 -0.30977330660E+03 -0.50299253923E+02  0.87133486058E+03  0.92612848239E+03  0.10100000352E+00 0. -1.
       -3    1    3    3    0  502  0.30977330660E+03  0.50299253923E+02  0.27627383032E+03  0.41811093737E+03  0.10100000352E+00 0.  1.
</event>
<event>
 5   0  0.2938783E-03  0.7003986E+03  0.7818609E-02  0.9716551E-01
       -1   -1    0    0    0  501  0.00000000000E+00  0.00000000000E+00  0.11801281686E+03  0.11801281697E+03  0.50400001928E-02 0.  1.
        1   -1    0    0  501    0  0.00000000000E+00  0.00000000000E+00 -0.10392052061E+04  0.10392052061E+04  0.50400001928E-02 0. -1.
    10030    2    1    2    0    0  0.00000000000E+00  0.00000000000E+00 -0.92119238923E+03  0.11572180231E+04  0.70039855435E+03 0.  0.
        4    1    3    3  502    0  0.10737976620E+03 -0.16268653179E+01 -0.10113233307E+04  0.10170101047E+04  0.12699999809E+01 0. -1.
       -4    1    3    3    0  502 -0.10737976620E+03  0.16268653179E+01  0.90130941453E+02  0.14020791841E+03  0.12699999809E+01 0.  1.
</event>
<event>
 5   0  0.5113683E-03  0.7000082E+03  0.7818609E-02  0.9717218E-01
       -2   -1    0    0    0  501  0.00000000000E+00  0.00000000000E+00  0.10539563242E+03  0.10539563245E+03  0.25500000920E-02 0. -1.
        2   -1    0    0  501    0  0.00000000000E+00  0.00000000000E+00 -0.11623146476E+04  0.11623146476E+04  0.25500000920E-02 0.  1.
    10030    2    1    2    0    0  0.00000000000E+00  0.00000000000E+00 -0.10569190151E+04  0.12677102800E+04  0.70000824960E+03 0.  0.
        3    1    3    3  502    0 -0.24841583384E+03 -0.40673824410E+01 -0.97491953188E+03  0.10060790595E+04  0.10100000352E+00 0.  1.
       -3    1    3    3    0  502  0.24841583384E+03  0.40673824410E+01 -0.81999483259E+02  0.26163122053E+03  0.10100000352E+00 0. -1.
</event>
<event>
 5   0  0.5023894E-03  0.6993020E+03  0.7818609E-02  0.9718427E-01
       -2   -1    0    0    0  501  0.00000000000E+00  0.00000000000E+00  0.18201929252E+03  0.18201929253E+03  0.25500000920E-02 0.  1.
        2   -1    0    0  501    0  0.00000000000E+00  0.00000000000E+00 -0.67166399971E+03  0.67166399971E+03  0.25500000920E-02 0. -1.
    10030    2    1    2    0    0  0.00000000000E+00  0.00000000000E+00 -0.48964470719E+03  0.85368329225E+03  0.69930195494E+03 0.  0.
        2    1    3    3  502    0  0.27192715767E+03 -0.21311284758E+03 -0.31049838467E+03  0.46451126119E+03  0.25500000920E-02 0. -1.
       -2    1    3    3    0  502 -0.27192715767E+03  0.21311284758E+03 -0.17914632252E+03  0.38917203106E+03  0.25500000920E-02 0.  1.
</event>
<event>
 5   0  0.2913582E-03  0.6993354E+03  0.7818609E-02  0.9718369E-01
       -1   -1    0    0    0  501  0.00000000000E+00  0.00000000000E+00  0.10587271227E+03  0.10587271239E+03  0.50400001928E-02 0.  1.
        1   -1    0    0  501    0  0.00000000000E+00  0.00000000000E+00 -0.11548537306E+04  0.11548537306E+04  0.50400001928E-02 0. -1.
    10030    2    1    2    0    0  0.00000000000E+00  0.00000000000E+00 -0.10489810183E+04  0.12607264430E+04  0.69933538970E+03 0.  0.
        1    1    3    3  502    0 -0.10229752445E+03  0.16204693908E+03  0.27744022051E+01  0.19165513640E+03  0.50400001928E-02 0.  1.
       -1    1    3    3    0  502  0.10229752445E+03 -0.16204693908E+03 -0.10517554205E+04  0.10690713066E+04  0.50400001928E-02 0. -1.
</event>
<event>
 5   0  0.5072407E-03  0.7020087E+03  0.7818609E-02  0.9713803E-01
        2   -1    0    0  501    0  0.00000000000E+00  0.00000000000E+00  0.25378077500E+03  0.25378077501E+03  0.25500000920E-02 0. -1.
       -2   -1    0    0    0  501  0.00000000000E+00  0.00000000000E+00 -0.48547439370E+03  0.48547439371E+03  0.25500000920E-02 0.  1.
    10030    2    1    2    0    0  0.00000000000E+00  0.00000000000E+00 -0.23169361870E+03  0.73925516872E+03  0.70200874035E+03 0.  0.
        1    1    3    3  502    0  0.60404293530E+02  0.26088721794E+03 -0.35480779254E+03  0.44452152798E+03  0.50400001928E-02 0.  1.
       -1    1    3    3    0  502 -0.60404293530E+02 -0.26088721794E+03  0.12311417384E+03  0.29473364074E+03  0.50400001928E-02 0. -1.
</event>
<event>
 5   0  0.3013140E-03  0.7024424E+03  0.7818609E-02  0.9713065E-01
        1   -1    0    0  501    0  0.00000000000E+00  0.00000000000E+00  0.54765307228E+03  0.54765307230E+03  0.50400001928E-02 0. -1.
       -1   -1    0    0    0  501  0.00000000000E+00  0.00000000000E+00 -0.22524536308E+03  0.22524536314E+03  0.50400001928E-02 0.  1.
    10030    2    1    2    0    0  0.00000000000E+00  0.00000000000E+00  0.32240770920E+03  0.77289843544E+03  0.70244235391E+03 0.  0.
        2    1    3    3  502    0  0.24632771075E+03  0.24728576143E+03  0.11818324112E+03  0.36850355138E+03  0.25500000920E-02 0.  1.
       -2    1    3    3    0  502 -0.24632771075E+03 -0.24728576143E+03  0.20422446808E+03  0.40439488407E+03  0.25500000920E-02 0. -1.
</event>
<event>
 5   0  0.5076796E-03  0.6999878E+03  0.7818609E-02  0.9717253E-01
       -2   -1    0    0    0  501  0.00000000000E+00  0.00000000000E+00  0.11667172040E+03  0.11667172043E+03  0.25500000920E-02 0.  1.
        2   -1    0    0  501    0  0.00000000000E+00  0.00000000000E+00 -0.10499177833E+04  0.10499177833E+04  0.25500000920E-02 0. -1.
    10030    2    1    2    0    0  0.00000000000E+00  0.00000000000E+00 -0.93324606287E+03  0.11665895037E+04  0.69998775440E+03 0.  0.
        5    1    3    3  502    0 -0.41112270573E+02 -0.72655266660E+02 -0.10330283141E+04  0.10364065777E+04  0.46999998093E+01 0. -1.
       -5    1    3    3    0  502  0.41112270573E+02  0.72655266660E+02  0.99782251233E+02  0.13018292601E+03  0.46999998093E+01 0.  1.
</event>
<event>
 5   0  0.3013140E-03  0.6998026E+03  0.7818609E-02  0.9717570E-01
       -1   -1    0    0    0  501  0.00000000000E+00  0.00000000000E+00  0.16507728231E+03  0.16507728239E+03  0.50400001928E-02 0. -1.
        1   -1    0    0  501    0  0.00000000000E+00  0.00000000000E+00 -0.74165814863E+03  0.74165814864E+03  0.50400001928E-02 0.  1.
    10030    2    1    2    0    0  0.00000000000E+00  0.00000000000E+00 -0.57658086631E+03  0.90673543103E+03  0.69980257680E+03 0.  0.
        2    1    3    3  502    0  0.24308474336E+03  0.16007319222E+03 -0.36652967438E+02  0.29335483523E+03  0.25500000920E-02 0. -1.
       -2    1    3    3    0  502 -0.24308474336E+03 -0.16007319222E+03 -0.53992789888E+03  0.61338059581E+03  0.25500000920E-02 0.  1.
</event>
<event>
 5   0  0.2913582E-03  0.7005327E+03  0.7818609E-02  0.9716322E-01
        1   -1    0    0  501    0  0.00000000000E+00  0.00000000000E+00  0.77560759079E+03  0.77560759081E+03  0.50400001928E-02 0. -1.
       -1   -1    0    0    0  501  0.00000000000E+00  0.00000000000E+00 -0.15818115720E+03  0.15818115728E+03  0.50400001928E-02 0.  1.
    10030    2    1    2    0    0  0.00000000000E+00  0.00000000000E+00  0.61742643359E+03  0.93378874809E+03  0.70053267245E+03 0.  0.
        1    1    3    3  502    0  0.98463894355E+02  0.27240886321E+03  0.46200164393E+02  0.29331925007E+03  0.50400001928E-02 0.  1.
       -1    1    3    3    0  502 -0.98463894355E+02 -0.27240886321E+03  0.57122626920E+03  0.64046949802E+03  0.50400001928E-02 0. -1.
</event>
<event>
 5   0  0.2934483E-03  0.7000711E+03  0.7818609E-02  0.9717111E-01
        1   -1    0    0  501    0  0.00000000000E+00  0.00000000000E+00  0.16210659140E+04  0.16210659140E+04  0.50400001928E-02 0.  1.
       -1   -1    0    0    0  501  0.00000000000E+00  0.00000000000E+00 -0.75582911745E+02  0.75582911913E+02  0.50400001928E-02 0. -1.
    10030    2    1    2    0    0  0.00000000000E+00  0.00000000000E+00  0.15454830023E+04  0.16966488259E+04  0.70007108799E+03 0.  0.
        5    1    3    3  502    0 -0.27839351569E+03 -0.21081148805E+03  0.83000878349E+03  0.90048936903E+03  0.46999998093E+01 0. -1.
       -5    1    3    3    0  502  0.27839351569E+03  0.21081148805E+03  0.71547421876E+03  0.79615945688E+03  0.46999998093E+01 0.  1.
</event>
<event>
 5   0  0.5072407E-03  0.6996934E+03  0.7818609E-02  0.9717757E-01
       -2   -1    0    0    0  501  0.00000000000E+00  0.00000000000E+00  0.15232072100E+03  0.15232072102E+03  0.25500000920E-02 0. -1.
        2   -1    0    0  501    0  0.00000000000E+00  0.00000000000E+00 -0.80351986633E+03  0.80351986633E+03  0.25500000920E-02 0.  1.
    10030    2    1    2    0    0  0.00000000000E+00  0.00000000000E+00 -0.65119914533E+03  0.95584058735E+03  0.69969343398E+03 0.  0.
        1    1    3    3  502    0 -0.13851686582E+03 -0.16160390504E+03  0.53695009249E+02  0.21951286587E+03  0.50400001928E-02 0. -1.
       -1    1    3    3    0  502  0.13851686582E+03  0.16160390504E+03 -0.70489415458E+03  0.73632772148E+03  0.50400001928E-02 0.  1.
</event>
<event>
 5   0  0.2937617E-03  0.6994147E+03  0.7818609E-02  0.9718234E-01
       -1   -1    0    0    0  501  0.00000000000E+00  0.00000000000E+00  0.88878268920E+02  0.88878269063E+02  0.50400001928E-02 0. -1.
        1   -1    0    0  501    0  0.00000000000E+00  0.00000000000E+00 -0.13759857495E+04  0.13759857495E+04  0.50400001928E-02 0.  1.
    10030    2    1    2    0    0  0.00000000000E+00  0.00000000000E+00 -0.12871074806E+04  0.14648640186E+04  0.69941470270E+03 0.  0.
        3    1    3    3  502    0  0.28286466330E+03  0.27178909704E+02 -0.21666245759E+03  0.35734261096E+03  0.10100000352E+00 0. -1.
       -3    1    3    3    0  502 -0.28286466330E+03 -0.27178909704E+02 -0.10704450230E+04  0.11075214076E+04  0.10100000352E+00 0.  1.
</event>
<event>
 5   0  0.5023894E-03  0.6953655E+03  0.7818609E-02  0.9725191E-01
       -2   -1    0    0    0  501  0.00000000000E+00  0.00000000000E+00  0.97455750950E+02  0.97455750984E+02  0.25500000920E-02 0. -1.
        2   -1    0    0  501    0  0.00000000000E+00  0.00000000000E+00 -0.12403915317E+04  0.12403915317E+04  0.25500000920E-02 0.  1.
    10030    2    1    2    0    0  0.00000000000E+00  0.00000000000E+00 -0.11429357807E+04  0.13378472827E+04  0.69536548151E+03 0.  0.
        2    1    3    3  502    0  0.21097441509E+03 -0.16559937005E+03 -0.14580139902E+03  0.30527267016E+03  0.25500000920E-02 0. -1.
       -2    1    3    3    0  502 -0.21097441509E+03  0.16559937005E+03 -0.99713438173E+03  0.10325746125E+04  0.25500000920E-02 0.  1.
</event>
<event>
 5   0  0.2938783E-03  0.6984900E+03  0.7818609E-02  0.9719818E-01
       -1   -1    0    0    0  501  0.00000000000E+00  0.00000000000E+00  0.56393845506E+02  0.56393845731E+02  0.50400001928E-02 0.  1.
        1   -1    0    0  501    0  0.00000000000E+00  0.00000000000E+00 -0.21628614808E+04  0.21628614808E+04  0.50400001928E-02 0. -1.
    10030    2    1    2    0    0  0.00000000000E+00  0.00000000000E+00 -0.21064676353E+04  0.22192553265E+04  0.69849001841E+03 0.  0.
        4    1    3    3  502    0  0.28616818535E+03  0.19967454331E+03 -0.10990904468E+04  0.11531537525E+04  0.12699999809E+01 0. -1.
       -4    1    3    3    0  502 -0.28616818535E+03 -0.19967454331E+03 -0.10073771884E+04  0.10661015741E+04  0.12699999809E+01 0.  1.
</event>
<event>
 5   0  0.2934483E-03  0.6964951E+03  0.7818609E-02  0.9723245E-01
       -1   -1    0    0    0  501  0.00000000000E+00  0.00000000000E+00  0.63239307683E+02  0.63239307884E+02  0.50400001928E-02 0. -1.
        1   -1    0    0  501    0  0.00000000000E+00  0.00000000000E+00 -0.19177369572E+04  0.19177369572E+04  0.50400001928E-02 0.  1.
    10030    2    1    2    0    0  0.00000000000E+00  0.00000000000E+00 -0.18544976495E+04  0.19809762651E+04  0.69649510464E+03 0.  0.
        5    1    3    3  502    0  0.18244715548E+03  0.71455908449E+01 -0.83922289005E+02  0.20100513576E+03  0.46999998093E+01 0. -1.
       -5    1    3    3    0  502 -0.18244715548E+03 -0.71455908449E+01 -0.17705753605E+04  0.17799711293E+04  0.46999998093E+01 0.  1.
</event>
<event>
 5   0  0.5076796E-03  0.6995167E+03  0.7818609E-02  0.9718059E-01
       -2   -1    0    0    0  501  0.00000000000E+00  0.00000000000E+00  0.52479630125E+03  0.52479630125E+03  0.25500000920E-02 0. -1.
        2   -1    0    0  501    0  0.00000000000E+00  0.00000000000E+00 -0.23310166720E+03  0.23310166722E+03  0.25500000920E-02 0.  1.
    10030    2    1    2    0    0  0.00000000000E+00  0.00000000000E+00  0.29169463404E+03  0.75789796847E+03  0.69951666963E+03 0.  0.
        5    1    3    3  502    0  0.11953336041E+03  0.21118959580E+03 -0.12700283181E+03  0.27393626798E+03  0.46999998093E+01 0.  1.
       -5    1    3    3    0  502 -0.11953336041E+03 -0.21118959580E+03  0.41869746586E+03  0.48396170049E+03  0.46999998093E+01 0. -1.
</event>
<event>
 5   0  0.2934483E-03  0.6997944E+03  0.7818609E-02  0.9717584E-01
       -1   -1    0    0    0  501  0.00000000000E+00  0.00000000000E+00  0.10291034363E+03  0.10291034375E+03  0.50400001928E-02 0. -1.
        1   -1    0    0  501    0  0.00000000000E+00  0.00000000000E+00 -0.11896575106E+04  0.11896575106E+04  0.50400001928E-02 0.  1.
    10030    2    1    2    0    0  0.00000000000E+00  0.00000000000E+00 -0.10867471669E+04  0.12925678543E+04  0.69979443638E+03 0.  0.
        5    1    3    3  502    0  0.10562101802E+03  0.30676149573E+03 -0.78524470215E+03  0.84964095179E+03  0.46999998093E+01 0.  1.
       -5    1    3    3    0  502 -0.10562101802E+03 -0.30676149573E+03 -0.30150246478E+03  0.44292690252E+03  0.46999998093E+01 0. -1.
</event>
<event>
 5   0  0.3013140E-03  0.7021773E+03  0.7818609E-02  0.9713516E-01
       -1   -1    0    0    0  501  0.00000000000E+00  0.00000000000E+00  0.20792820606E+03  0.20792820612E+03  0.50400001928E-02 0. -1.
        1   -1    0    0  501    0  0.00000000000E+00  0.00000000000E+00 -0.59281630033E+03  0.59281630035E+03  0.50400001928E-02 0.  1.
    10030    2    1    2    0    0  0.00000000000E+00  0.00000000000E+00 -0.38488809427E+03  0.80074450647E+03  0.70217727074E+03 0.  0.
        2    1    3    3  502    0 -0.21058201119E+03 -0.11223050916E+03 -0.48612683455E+03  0.54153464330E+03  0.25500000920E-02 0.  1.
       -2    1    3    3    0  502  0.21058201119E+03  0.11223050916E+03  0.10123874028E+03  0.25920986317E+03  0.25500000920E-02 0. -1.
</event>
<event>
 5   0  0.5072407E-03  0.6929489E+03  0.7818609E-02  0.9729367E-01
       -2   -1    0    0    0  501  0.00000000000E+00  0.00000000000E+00  0.56074495614E+03  0.56074495615E+03  0.25500000920E-02 0.  1.
        2   -1    0    0  501    0  0.00000000000E+00  0.00000000000E+00 -0.21408044091E+03  0.21408044093E+03  0.25500000920E-02 0. -1.
    10030    2    1    2    0    0  0.00000000000E+00  0.00000000000E+00  0.34666451523E+03  0.77482539707E+03  0.69294885080E+03 0.  0.
        1    1    3    3  502    0  0.64481065950E+02  0.16138935509E+03 -0.16181680813E+03  0.23746370506E+03  0.50400001928E-02 0.  1.
       -1    1    3    3    0  502 -0.64481065950E+02 -0.16138935509E+03  0.50848132337E+03  0.53736169201E+03  0.50400001928E-02 0. -1.
</event>
<event>
 5   0  0.2938783E-03  0.6999833E+03  0.7818609E-02  0.9717261E-01
       -1   -1    0    0    0  501  0.00000000000E+00  0.00000000000E+00  0.95253892053E+02  0.95253892187E+02  0.50400001928E-02 0. -1.
        1   -1    0    0  501    0  0.00000000000E+00  0.00000000000E+00 -0.12859753892E+04  0.12859753892E+04  0.50400001928E-02 0.  1.
    10030    2    1    2    0    0  0.00000000000E+00  0.00000000000E+00 -0.11907214972E+04  0.13812292814E+04  0.69998331696E+03 0.  0.
        4    1    3    3  502    0  0.47716847898E+00  0.24565701156E+03 -0.10345599495E+03  0.26655646833E+03  0.12699999809E+01 0. -1.
       -4    1    3    3    0  502 -0.47716847898E+00 -0.24565701156E+03 -0.10872655022E+04  0.11146728131E+04  0.12699999809E+01 0.  1.
</event>
<event>
 5   0  0.5072407E-03  0.7003183E+03  0.7818609E-02  0.9716688E-01
       -2   -1    0    0    0  501  0.00000000000E+00  0.00000000000E+00  0.10172299570E+03  0.10172299573E+03  0.25500000920E-02 0. -1.
        2   -1    0    0  501    0  0.00000000000E+00  0.00000000000E+00 -0.12053463566E+04  0.12053463566E+04  0.25500000920E-02 0.  1.
    10030    2    1    2    0    0  0.00000000000E+00  0.00000000000E+00 -0.11036233609E+04  0.13070693523E+04  0.70031833409E+03 0.  0.
        1    1    3    3  502    0  0.30371524147E+03 -0.33807217934E+02 -0.87088067475E+03  0.92294042362E+03  0.50400001928E-02 0.  1.
       -1    1    3    3    0  502 -0.30371524147E+03  0.33807217934E+02 -0.23274268615E+03  0.38412892870E+03  0.50400001928E-02 0. -1.
</event>
<event>
 5   0  0.5072407E-03  0.6997184E+03  0.7818609E-02  0.9717714E-01
       -2   -1    0    0    0  501  0.00000000000E+00  0.00000000000E+00  0.54243474167E+03  0.54243474167E+03  0.25500000920E-02 0.  1.
        2   -1    0    0  501    0  0.00000000000E+00  0.00000000000E+00 -0.22565195274E+03  0.22565195275E+03  0.25500000920E-02 0. -1.
    10030    2    1    2    0    0  0.00000000000E+00  0.00000000000E+00  0.31678278893E+03  0.76808669442E+03  0.69971839678E+03 0.  0.
        1    1    3    3  502    0 -0.14210431439E+03  0.12950422802E+03 -0.16246346149E+03  0.25171284748E+03  0.50400001928E-02 0. -1.
       -1    1    3    3    0  502  0.14210431439E+03 -0.12950422802E+03  0.47924625042E+03  0.51637384694E+03  0.50400001928E-02 0.  1.
</event>
<event>
 5   0  0.2938783E-03  0.6988427E+03  0.7818609E-02  0.9719213E-01
        1   -1    0    0  501    0  0.00000000000E+00  0.00000000000E+00  0.62869944418E+03  0.62869944420E+03  0.50400001928E-02 0. -1.
       -1   -1    0    0    0  501  0.00000000000E+00  0.00000000000E+00 -0.19420296345E+03  0.19420296351E+03  0.50400001928E-02 0.  1.
    10030    2    1    2    0    0  0.00000000000E+00  0.00000000000E+00  0.43449648073E+03  0.82290240771E+03  0.69884274401E+03 0.  0.
        4    1    3    3  502    0 -0.42799283901E+02 -0.29855324930E+03  0.94970544651E+01  0.30175756547E+03  0.12699999809E+01 0.  1.
       -4    1    3    3    0  502  0.42799283901E+02  0.29855324930E+03  0.42499942627E+03  0.52114484225E+03  0.12699999809E+01 0. -1.
</event>
<event>
 5   0  0.2937617E-03  0.7005202E+03  0.7818609E-02  0.9716343E-01
       -1   -1    0    0    0  501  0.00000000000E+00  0.00000000000E+00  0.59995824724E+03  0.59995824726E+03  0.50400001928E-02 0. -1.
        1   -1    0    0  501    0  0.00000000000E+00  0.00000000000E+00 -0.20448445974E+03  0.20448445980E+03  0.50400001928E-02 0.  1.
    10030    2    1    2    0    0  0.00000000000E+00  0.00000000000E+00  0.39547378750E+03  0.80444270706E+03  0.70052020123E+03 0.  0.
        3    1    3    3  502    0 -0.17737361541E+03  0.29986550366E+03  0.23916367738E+03  0.42258726260E+03  0.10100000352E+00 0.  1.
       -3    1    3    3    0  502  0.17737361541E+03 -0.29986550366E+03  0.15631011012E+03  0.38185544446E+03  0.10100000352E+00 0. -1.
</event>
<event>
 5   0  0.1981750E-03  0.6997425E+03  0.7818609E-02  0.9717673E-01
       -3   -1    0    0    0  501  0.00000000000E+00  0.00000000000E+00  0.95794401367E+03  0.95794401900E+03  0.10100000352E+00 0.  1.
        3   -1    0    0  501    0  0.00000000000E+00  0.00000000000E+00 -0.12778394725E+03  0.12778398717E+03  0.10100000352E+00 0. -1.
    10030    2    1    2    0    0  0.00000000000E+00  0.00000000000E+00  0.83016006642E+03  0.10857280062E+04  0.69974250085E+03 0.  0.
        1    1    3    3  502    0  0.17578824642E+03  0.20965575254E+03  0.75343383581E+03  0.80157319511E+03  0.50400001928E-02 0.  1.
       -1    1    3    3    0  502 -0.17578824642E+03 -0.20965575254E+03  0.76726230607E+02  0.28415481105E+03  0.50400001928E-02 0. -1.
</event>
<event>
 5   0  0.4878235E-03  0.6973454E+03  0.7818609E-02  0.9721783E-01
       -2   -1    0    0    0  501  0.00000000000E+00  0.00000000000E+00  0.16998934252E+03  0.16998934254E+03  0.25500000920E-02 0.  1.
        2   -1    0    0  501    0  0.00000000000E+00  0.00000000000E+00 -0.71517810448E+03  0.71517810448E+03  0.25500000920E-02 0. -1.
    10030    2    1    2    0    0  0.00000000000E+00  0.00000000000E+00 -0.54518876195E+03  0.88516744702E+03  0.69734541162E+03 0.  0.
        4    1    3    3  502    0 -0.14163468811E+03 -0.23368396201E+03  0.23059831728E+01  0.27326820056E+03  0.12699999809E+01 0.  1.
       -4    1    3    3    0  502  0.14163468811E+03  0.23368396201E+03 -0.54749474513E+03  0.61189924646E+03  0.12699999809E+01 0. -1.
</event>
<event>
 5   0  0.2938783E-03  0.7008752E+03  0.7818609E-02  0.9715737E-01
       -1   -1    0    0    0  501  0.00000000000E+00  0.00000000000E+00  0.60275330387E+03  0.60275330389E+03  0.50400001928E-02 0.  1.
        1   -1    0    0  501    0  0.00000000000E+00  0.00000000000E+00 -0.20374254946E+03  0.20374254952E+03  0.50400001928E-02 0. -1.
    10030    2    1    2    0    0  0.00000000000E+00  0.00000000000E+00  0.39901075441E+03  0.80649585341E+03  0.70087515253E+03 0.  0.
        4    1    3    3  502    0 -0.10304903983E+03  0.23281125459E+03  0.47659366661E+03  0.54033630345E+03  0.12699999809E+01 0.  1.
       -4    1    3    3    0  502  0.10304903983E+03 -0.23281125459E+03 -0.77582912199E+02  0.26615954997E+03  0.12699999809E+01 0. -1.
</event>
<event>
 5   0  0.2913582E-03  0.6993937E+03  0.7818609E-02  0.9718270E-01
       -1   -1    0    0    0  501  0.00000000000E+00  0.00000000000E+00  0.27560535370E+03  0.27560535374E+03  0.50400001928E-02 0.  1.
        1   -1    0    0  501    0  0.00000000000E+00  0.00000000000E+00 -0.44370644974E+03  0.44370644977E+03  0.50400001928E-02 0. -1.
    10030    2    1    2    0    0  0.00000000000E+00  0.00000000000E+00 -0.16810109604E+03  0.71931180352E+03  0.69939366038E+03 0.  0.
        1    1    3    3  502    0 -0.28342298895E+03  0.94653678480E+02 -0.27088296209E+03  0.40331809863E+03  0.50400001928E-02 0. -1.
       -1    1    3    3    0  502  0.28342298895E+03 -0.94653678480E+02  0.10278186604E+03  0.31599370488E+03  0.50400001928E-02 0.  1.
</event>
<event>
 5   0  0.2934483E-03  0.6996036E+03  0.7818609E-02  0.9717910E-01
       -1   -1    0    0    0  501  0.00000000000E+00  0.00000000000E+00  0.21533961699E+03  0.21533961705E+03  0.50400001928E-02 0. -1.
        1   -1    0    0  501    0  0.00000000000E+00  0.00000000000E+00 -0.56822478505E+03  0.56822478507E+03  0.50400001928E-02 0.  1.
    10030    2    1    2    0    0  0.00000000000E+00  0.00000000000E+00 -0.35288516806E+03  0.78356440212E+03  0.69960362381E+03 0.  0.
        5    1    3    3  502    0  0.90139309616E+02  0.31129886524E+02  0.20046273472E+03  0.22203955274E+03  0.46999998093E+01 0. -1.
       -5    1    3    3    0  502 -0.90139309616E+02 -0.31129886524E+02 -0.55334790277E+03  0.56152484938E+03  0.46999998093E+01 0.  1.
</event>
<event>
 5   0  0.4878235E-03  0.6992497E+03  0.7818609E-02  0.9718516E-01
       -2   -1    0    0    0  501  0.00000000000E+00  0.00000000000E+00  0.91107852154E+02  0.91107852190E+02  0.25500000920E-02 0.  1.
        2   -1    0    0  501    0  0.00000000000E+00  0.00000000000E+00 -0.13416794866E+04  0.13416794866E+04  0.25500000920E-02 0. -1.
    10030    2    1    2    0    0  0.00000000000E+00  0.00000000000E+00 -0.12505716344E+04  0.14327873388E+04  0.69924970170E+03 0.  0.
        4    1    3    3  502    0  0.33811992164E+03  0.52869035949E+02 -0.77184137043E+03  0.84431092044E+03  0.12699999809E+01 0. -1.
       -4    1    3    3    0  502 -0.33811992164E+03 -0.52869035949E+02 -0.47873026402E+03  0.58847641836E+03  0.12699999809E+01 0.  1.
</event>
<event>
 5   0  0.5023894E-03  0.6994452E+03  0.7818609E-02  0.9718181E-01
       -2   -1    0    0    0  501  0.00000000000E+00  0.00000000000E+00  0.28984842477E+03  0.28984842478E+03  0.25500000920E-02 0.  1.
        2   -1    0    0  501    0  0.00000000000E+00  0.00000000000E+00 -0.42196500733E+03  0.42196500734E+03  0.25500000920E-02 0. -1.
    10030    2    1    2    0    0  0.00000000000E+00  0.00000000000E+00 -0.13211658257E+03  0.71181343212E+03  0.69944518781E+03 0.  0.
        2    1    3    3  502    0  0.94970062783E+02  0.38605130790E+02 -0.40633017045E+03  0.41906309355E+03  0.25500000920E-02 0. -1.
       -2    1    3    3    0  502 -0.94970062783E+02 -0.38605130790E+02  0.27421358788E+03  0.29275033857E+03  0.25500000920E-02 0.  1.
</event>
<event>
 5   0  0.2934483E-03  0.7055415E+03  0.7818609E-02  0.9707802E-01
       -1   -1    0    0    0  501  0.00000000000E+00  0.00000000000E+00  0.37602454153E+03  0.37602454156E+03  0.50400001928E-02 0.  1.
        1   -1    0    0  501    0  0.00000000000E+00  0.00000000000E+00 -0.33095497742E+03  0.33095497745E+03  0.50400001928E-02 0. -1.
    10030    2    1    2    0    0  0.00000000000E+00  0.00000000000E+00  0.45069564112E+02  0.70697951902E+03  0.70554147624E+03 0.  0.
        5    1    3    3  502    0 -0.39480819970E+02 -0.28347160954E+03 -0.18406551160E+03  0.34031910190E+03  0.46999998093E+01 0. -1.
       -5    1    3    3    0  502  0.39480819970E+02  0.28347160954E+03  0.22913507571E+03  0.36666041712E+03  0.46999998093E+01 0.  1.
</event>
<event>
 5   0  0.2913582E-03  0.7009731E+03  0.7818609E-02  0.9715570E-01
       -1   -1    0    0    0  501  0.00000000000E+00  0.00000000000E+00  0.31182406411E+03  0.31182406415E+03  0.50400001928E-02 0.  1.
        1   -1    0    0  501    0  0.00000000000E+00  0.00000000000E+00 -0.39394266993E+03  0.39394266996E+03  0.50400001928E-02 0. -1.
    10030    2    1    2    0    0  0.00000000000E+00  0.00000000000E+00 -0.82118605824E+02  0.70576673411E+03  0.70097305052E+03 0.  0.
        1    1    3    3  502    0 -0.10478262737E+03  0.31409662505E+03  0.74638306921E+02  0.33942151634E+03  0.50400001928E-02 0.  1.
       -1    1    3    3    0  502  0.10478262737E+03 -0.31409662505E+03 -0.15675691275E+03  0.36634521777E+03  0.50400001928E-02 0. -1.
</event>
<event>
 5   0  0.5113683E-03  0.6982614E+03  0.7818609E-02  0.9720210E-01
       -2   -1    0    0    0  501  0.00000000000E+00  0.00000000000E+00  0.24667107898E+03  0.24667107900E+03  0.25500000920E-02 0. -1.
        2   -1    0    0  501    0  0.00000000000E+00  0.00000000000E+00 -0.49414890422E+03  0.49414890423E+03  0.25500000920E-02 0.  1.
    10030    2    1    2    0    0  0.00000000000E+00  0.00000000000E+00 -0.24747782524E+03  0.74081998322E+03  0.69826139343E+03 0.  0.
        3    1    3    3  502    0 -0.71455061650E+02  0.24906098213E+03 -0.37199887574E+03  0.45334354788E+03  0.10100000352E+00 0.  1.
       -3    1    3    3    0  502  0.71455061650E+02 -0.24906098213E+03  0.12452105050E+03  0.28747643534E+03  0.10100000352E+00 0. -1.
</event>
<event>
 5   0  0.4878235E-03  0.7000834E+03  0.7818609E-02  0.9717090E-01
       -2   -1    0    0    0  501  0.00000000000E+00  0.00000000000E+00  0.55967919683E+02  0.55967919741E+02  0.25500000920E-02 0.  1.
        2   -1    0    0  501    0  0.00000000000E+00  0.00000000000E+00 -0.21892757228E+04  0.21892757228E+04  0.25500000920E-02 0. -1.
    10030    2    1    2    0    0  0.00000000000E+00  0.00000000000E+00 -0.21333078031E+04  0.22452436425E+04  0.70008344612E+03 0.  0.
        4    1    3    3  502    0 -0.32845181558E+03  0.68168438831E+02 -0.74594201869E+03  0.81789891757E+03  0.12699999809E+01 0.  1.
       -4    1    3    3    0  502  0.32845181558E+03 -0.68168438831E+02 -0.13873657844E+04  0.14273447249E+04  0.12699999809E+01 0. -1.
</event>
<event>
 5   0  0.4878235E-03  0.7058523E+03  0.7818609E-02  0.9707276E-01
        2   -1    0    0  501    0  0.00000000000E+00  0.00000000000E+00  0.34297766072E+03  0.34297766073E+03  0.25500000920E-02 0.  1.
       -2   -1    0    0    0  501  0.00000000000E+00  0.00000000000E+00 -0.36316324558E+03  0.36316324559E+03  0.25500000920E-02 0. -1.
    10030    2    1    2    0    0  0.00000000000E+00  0.00000000000E+00 -0.20185584861E+02  0.70614090632E+03  0.70585233707E+03 0.  0.
        4    1    3    3  502    0 -0.23728478920E+02  0.34209561981E+03 -0.93570382366E+02  0.35545672474E+03  0.12699999809E+01 0.  1.
       -4    1    3    3    0  502  0.23728478920E+02 -0.34209561981E+03  0.73384797504E+02  0.35068418158E+03  0.12699999809E+01 0. -1.
</event>
<event>
 5   0  0.2937617E-03  0.7193168E+03  0.7818609E-02  0.9684757E-01
       -1   -1    0    0    0  501  0.00000000000E+00  0.00000000000E+00  0.13669816506E+03  0.13669816515E+03  0.50400001928E-02 0. -1.
        1   -1    0    0  501    0  0.00000000000E+00  0.00000000000E+00 -0.94627572579E+03  0.94627572580E+03  0.50400001928E-02 0.  1.
    10030    2    1    2    0    0  0.00000000000E+00  0.00000000000E+00 -0.80957756073E+03  0.10829738910E+04  0.71931677420E+03 0.  0.
        3    1    3    3  502    0  0.12136829778E+03 -0.17829549078E+03  0.28526183328E+02  0.21756217290E+03  0.10100000352E+00 0. -1.
       -3    1    3    3    0  502 -0.12136829778E+03  0.17829549078E+03 -0.83810374406E+03  0.86541171806E+03  0.10100000352E+00 0.  1.
</event>
<event>
 5   0  0.2937617E-03  0.7001269E+03  0.7818609E-02  0.9717015E-01
        1   -1    0    0  501    0  0.00000000000E+00  0.00000000000E+00  0.12294188231E+04  0.12294188231E+04  0.50400001928E-02 0.  1.
       -1   -1    0    0    0  501  0.00000000000E+00  0.00000000000E+00 -0.99676707801E+02  0.99676707929E+02  0.50400001928E-02 0. -1.
    10030    2    1    2    0    0  0.00000000000E+00  0.00000000000E+00  0.11297421153E+04  0.13290955310E+04  0.70012690531E+03 0.  0.
        3    1    3    3  502    0 -0.26462098315E+03  0.14803463864E+02  0.13072642047E+03  0.29552125892E+03  0.10100000352E+00 0. -1.
       -3    1    3    3    0  502  0.26462098315E+03 -0.14803463864E+02  0.99901569482E+03  0.10335742721E+04  0.10100000352E+00 0.  1.
</event>
<event>
 5   0  0.2913582E-03  0.6993430E+03  0.7818609E-02  0.9718356E-01
        1   -1    0    0  501    0  0.00000000000E+00  0.00000000000E+00  0.24146036055E+03  0.24146036060E+03  0.50400001928E-02 0. -1.
       -1   -1    0    0    0  501  0.00000000000E+00  0.00000000000E+00 -0.50637771110E+03  0.50637771113E+03  0.50400001928E-02 0.  1.
    10030    2    1    2    0    0  0.00000000000E+00  0.00000000000E+00 -0.26491735055E+03  0.74783807173E+03  0.69934296229E+03 0.  0.
        1    1    3    3  502    0 -0.18927241994E+02 -0.34912081502E+03 -0.12694758729E+03  0.37196676453E+03  0.50400001928E-02 0. -1.
       -1    1    3    3    0  502  0.18927241994E+02  0.34912081502E+03 -0.13796976327E+03  0.37587130720E+03  0.50400001928E-02 0.  1.
</event>
<event>
 5   0  0.1981750E-03  0.7001493E+03  0.7818609E-02  0.9716977E-01
       -4   -1    0    0    0  501  0.00000000000E+00  0.00000000000E+00  0.85768468856E+02  0.85777870980E+02  0.12699999809E+01 0.  1.
        4   -1    0    0  501    0  0.00000000000E+00  0.00000000000E+00 -0.14287852409E+04  0.14287858053E+04  0.12699999809E+01 0. -1.
    10030    2    1    2    0    0  0.00000000000E+00  0.00000000000E+00 -0.13430167721E+04  0.15145636763E+04  0.70014932665E+03 0.  0.
        5    1    3    3  502    0  0.15870936501E+03  0.30722102942E+03 -0.78913474050E+03  0.86158525529E+03  0.46999998093E+01 0.  1.
       -5    1    3    3    0  502 -0.15870936501E+03 -0.30722102942E+03 -0.55388203155E+03  0.65297842103E+03  0.46999998093E+01 0. -1.
</event>
<event>
 5   0  0.5113683E-03  0.7091440E+03  0.7818609E-02  0.9701721E-01
       -2   -1    0    0    0  501  0.00000000000E+00  0.00000000000E+00  0.14452806757E+03  0.14452806759E+03  0.25500000920E-02 0. -1.
        2   -1    0    0  501    0  0.00000000000E+00  0.00000000000E+00 -0.86987467859E+03  0.86987467859E+03  0.25500000920E-02 0.  1.
    10030    2    1    2    0    0  0.00000000000E+00  0.00000000000E+00 -0.72534661102E+03  0.10144027462E+04  0.70914400889E+03 0.  0.
        3    1    3    3  502    0 -0.53611076099E+02 -0.18140906026E+03  0.66316876733E+02  0.20045281980E+03  0.10100000352E+00 0. -1.
       -3    1    3    3    0  502  0.53611076099E+02  0.18140906026E+03 -0.79166348775E+03  0.81394992639E+03  0.10100000352E+00 0.  1.
</event>
<event>
 5   0  0.5113683E-03  0.7005183E+03  0.7818609E-02  0.9716346E-01
        2   -1    0    0  501    0  0.00000000000E+00  0.00000000000E+00  0.17018247045E+04  0.17018247045E+04  0.25500000920E-02 0.  1.
       -2   -1    0    0    0  501  0.00000000000E+00  0.00000000000E+00 -0.72088197055E+02  0.72088197100E+02  0.25500000920E-02 0. -1.
    10030    2    1    2    0    0  0.00000000000E+00  0.00000000000E+00  0.16297365074E+04  0.17739129016E+04  0.70051830723E+03 0.  0.
        3    1    3    3  502    0 -0.37204418058E+02  0.18513271919E+03  0.15618848621E+04  0.15732586008E+04  0.10100000352E+00 0.  1.
       -3    1    3    3    0  502  0.37204418058E+02 -0.18513271919E+03  0.67851645345E+02  0.20065430077E+03  0.10100000352E+00 0. -1.
</event>
<event>
 5   0  0.1981750E-03  0.6995974E+03  0.7818609E-02  0.9717921E-01
       -3   -1    0    0    0  501  0.00000000000E+00  0.00000000000E+00  0.31205710776E+03  0.31205712410E+03  0.10100000352E+00 0.  1.
        3   -1    0    0  501    0  0.00000000000E+00  0.00000000000E+00 -0.39210492752E+03  0.39210494053E+03  0.10100000352E+00 0. -1.
    10030    2    1    2    0    0  0.00000000000E+00  0.00000000000E+00 -0.80047819764E+02  0.70416206463E+03  0.69959742696E+03 0.  0.
        3    1    3    3  502    0  0.27082939753E+03  0.29824119908E+02 -0.26082038957E+03  0.37718076105E+03  0.10100000352E+00 0. -1.
       -3    1    3    3    0  502 -0.27082939753E+03 -0.29824119908E+02  0.18077256980E+03  0.32698130358E+03  0.10100000352E+00 0.  1.
</event>
<event>
 5   0  0.2937617E-03  0.6961853E+03  0.7818609E-02  0.9723778E-01
       -1   -1    0    0    0  501  0.00000000000E+00  0.00000000000E+00  0.17017032407E+03  0.17017032415E+03  0.50400001928E-02 0.  1.
        1   -1    0    0  501    0  0.00000000000E+00  0.00000000000E+00 -0.71204252559E+03  0.71204252561E+03  0.50400001928E-02 0. -1.
    10030    2    1    2    0    0  0.00000000000E+00  0.00000000000E+00 -0.54187220152E+03  0.88221284975E+03  0.69618534134E+03 0.  0.
        3    1    3    3  502    0 -0.15576167152E+03  0.20201393266E+03  0.29200514245E+02  0.25675670885E+03  0.10100000352E+00 0.  1.
       -3    1    3    3    0  502  0.15576167152E+03 -0.20201393266E+03 -0.57107271576E+03  0.62545614090E+03  0.10100000352E+00 0. -1.
</event>
<event>
 5   0  0.5023894E-03  0.7001602E+03  0.7818609E-02  0.9716958E-01
        2   -1    0    0  501    0  0.00000000000E+00  0.00000000000E+00  0.25561584600E+03  0.25561584601E+03  0.25500000920E-02 0. -1.
       -2   -1    0    0    0  501  0.00000000000E+00  0.00000000000E+00 -0.47945418677E+03  0.47945418677E+03  0.25500000920E-02 0.  1.
    10030    2    1    2    0    0  0.00000000000E+00  0.00000000000E+00 -0.22383834077E+03  0.73507003278E+03  0.70016023187E+03 0.  0.
        2    1    3    3  502    0 -0.25267204507E+03 -0.13811102147E+03 -0.32093954852E+03  0.43118442739E+03  0.25500000920E-02 0.  1.
       -2    1    3    3    0  502  0.25267204507E+03  0.13811102147E+03  0.97101207751E+02  0.30388560539E+03  0.25500000920E-02 0. -1.
</event>
<event>
 5   0  0.5072407E-03  0.7001372E+03  0.7818609E-02  0.9716998E-01
        2   -1    0    0  501    0  0.00000000000E+00  0.00000000000E+00  0.38809201043E+03  0.38809201044E+03  0.25500000920E-02 0. -1.
       -2   -1    0    0    0  501  0.00000000000E+00  0.00000000000E+00 -0.31577054525E+03  0.31577054526E+03  0.25500000920E-02 0.  1.
    10030    2    1    2    0    0  0.00000000000E+00  0.00000000000E+00  0.72321465181E+02  0.70386255570E+03  0.70013720298E+03 0.  0.
        1    1    3    3  502    0 -0.30886362155E+03  0.14411101942E+03  0.11648142427E+03  0.36018418186E+03  0.50400001928E-02 0. -1.
       -1    1    3    3    0  502  0.30886362155E+03 -0.14411101942E+03 -0.44159959093E+02  0.34367837384E+03  0.50400001928E-02 0.  1.
</event>
<event>
 5   0  0.4878235E-03  0.7007408E+03  0.7818609E-02  0.9715966E-01
        2   -1    0    0  501    0  0.00000000000E+00  0.00000000000E+00  0.53649458664E+03  0.53649458665E+03  0.25500000920E-02 0. -1.
       -2   -1    0    0    0  501  0.00000000000E+00  0.00000000000E+00 -0.22881762545E+03  0.22881762546E+03  0.25500000920E-02 0.  1.
    10030    2    1    2    0    0  0.00000000000E+00  0.00000000000E+00  0.30767696119E+03  0.76531221211E+03  0.70074080055E+03 0.  0.
        4    1    3    3  502    0  0.28798708010E+03  0.80167412793E+02  0.35341905568E+03  0.46289309154E+03  0.12699999809E+01 0. -1.
       -4    1    3    3    0  502 -0.28798708010E+03 -0.80167412793E+02 -0.45742094487E+02  0.30241912057E+03  0.12699999809E+01 0.  1.
</event>
<event>
 5   0  0.1981750E-03  0.6996365E+03  0.7818609E-02  0.9717854E-01
        3   -1    0    0  501    0  0.00000000000E+00  0.00000000000E+00  0.46190899935E+03  0.46190901039E+03  0.10100000352E+00 0.  1.
       -3   -1    0    0    0  501  0.00000000000E+00  0.00000000000E+00 -0.26492833072E+03  0.26492834997E+03  0.10100000352E+00 0. -1.
    10030    2    1    2    0    0  0.00000000000E+00  0.00000000000E+00  0.19698066863E+03  0.72683736036E+03  0.69963645174E+03 0.  0.
        3    1    3    3  502    0  0.20842020871E+03  0.90480271532E+02 -0.17783403688E+03  0.28853183153E+03  0.10100000352E+00 0. -1.
       -3    1    3    3    0  502 -0.20842020871E+03 -0.90480271532E+02  0.37481470551E+03  0.43830552883E+03  0.10100000352E+00 0.  1.
</event>
<event>
 5   0  0.2934483E-03  0.6993364E+03  0.7818609E-02  0.9718368E-01
        1   -1    0    0  501    0  0.00000000000E+00  0.00000000000E+00  0.11035105935E+04  0.11035105935E+04  0.50400001928E-02 0.  1.
       -1   -1    0    0    0  501  0.00000000000E+00  0.00000000000E+00 -0.11079898745E+03  0.11079898756E+03  0.50400001928E-02 0. -1.
    10030    2    1    2    0    0  0.00000000000E+00  0.00000000000E+00  0.99271160603E+03  0.12143095810E+04  0.69933641824E+03 0.  0.
        5    1    3    3  502    0  0.10212429651E+03 -0.27633438150E+03  0.16940204454E+03  0.33986645175E+03  0.46999998093E+01 0. -1.
       -5    1    3    3    0  502 -0.10212429651E+03  0.27633438150E+03  0.82330956149E+03  0.87444312930E+03  0.46999998093E+01 0.  1.
</event>
<event>
 5   0  0.5072407E-03  0.6999941E+03  0.7818609E-02  0.9717242E-01
       -2   -1    0    0    0  501  0.00000000000E+00  0.00000000000E+00  0.86417778269E+03  0.86417778269E+03  0.25500000920E-02 0. -1.
        2   -1    0    0  501    0  0.00000000000E+00  0.00000000000E+00 -0.14175084761E+03  0.14175084763E+03  0.25500000920E-02 0.  1.
    10030    2    1    2    0    0  0.00000000000E+00  0.00000000000E+00  0.72242693508E+03  0.10059286303E+04  0.69999409481E+03 0.  0.
        1    1    3    3  502    0  0.15058593150E+03 -0.11044312128E+03 -0.64173955734E+02  0.19746418011E+03  0.50400001928E-02 0.  1.
       -1    1    3    3    0  502 -0.15058593150E+03  0.11044312128E+03  0.78660089081E+03  0.80846445021E+03  0.50400001928E-02 0. -1.
</event>
<event>
 5   0  0.5113683E-03  0.6998314E+03  0.7818609E-02  0.9717521E-01
       -2   -1    0    0    0  501  0.00000000000E+00  0.00000000000E+00  0.93867953172E+02  0.93867953207E+02  0.25500000920E-02 0.  1.
        2   -1    0    0  501    0  0.00000000000E+00  0.00000000000E+00 -0.13043960951E+04  0.13043960951E+04  0.25500000920E-02 0. -1.
    10030    2    1    2    0    0  0.00000000000E+00  0.00000000000E+00 -0.12105281419E+04  0.13982640483E+04  0.69983138425E+03 0.  0.
        3    1    3    3  502    0 -0.24501823177E+02 -0.12866773001E+03  0.43041208184E+02  0.13787051856E+03  0.10100000352E+00 0.  1.
       -3    1    3    3    0  502  0.24501823177E+02  0.12866773001E+03 -0.12535693501E+04  0.12603935297E+04  0.10100000352E+00 0. -1.
</event>
<event>
 5   0  0.2938783E-03  0.6997935E+03  0.7818609E-02  0.9717585E-01
        1   -1    0    0  501    0  0.00000000000E+00  0.00000000000E+00  0.73628413032E+03  0.73628413034E+03  0.50400001928E-02 0. -1.
       -1   -1    0    0    0  501  0.00000000000E+00  0.00000000000E+00 -0.16627783672E+03  0.16627783680E+03  0.50400001928E-02 0.  1.
    10030    2    1    2    0    0  0.00000000000E+00  0.00000000000E+00  0.57000629360E+03  0.90256196714E+03  0.69979349081E+03 0.  0.
        4    1    3    3  502    0  0.28431646025E+03  0.91653753826E+02  0.51997175078E+03  0.59967365681E+03  0.12699999809E+01 0.  1.
       -4    1    3    3    0  502 -0.28431646025E+03 -0.91653753826E+02  0.50034542817E+02  0.30288831033E+03  0.12699999809E+01 0. -1.
</event>
<event>
 5   0  0.5076796E-03  0.6882929E+03  0.7818609E-02  0.9737465E-01
        2   -1    0    0  501    0  0.00000000000E+00  0.00000000000E+00  0.78652703868E+03  0.78652703869E+03  0.25500000920E-02 0.  1.
       -2   -1    0    0    0  501  0.00000000000E+00  0.00000000000E+00 -0.15058197267E+03  0.15058197269E+03  0.25500000920E-02 0. -1.
    10030    2    1    2    0    0  0.00000000000E+00  0.00000000000E+00  0.63594506602E+03  0.93710901138E+03  0.68829294070E+03 0.  0.
        5    1    3    3  502    0  0.27829470556E+03  0.46530059133E+02  0.49782736251E+02  0.28655435850E+03  0.46999998093E+01 0. -1.
       -5    1    3    3    0  502 -0.27829470556E+03 -0.46530059133E+02  0.58616232977E+03  0.65055465288E+03  0.46999998093E+01 0.  1.
</event>
<event>
 5   0  0.5023894E-03  0.7088288E+03  0.7818609E-02  0.9702252E-01
       -2   -1    0    0    0  501  0.00000000000E+00  0.00000000000E+00  0.52552054165E+02  0.52552054226E+02  0.25500000920E-02 0.  1.
        2   -1    0    0  501    0  0.00000000000E+00  0.00000000000E+00 -0.23901934187E+04  0.23901934187E+04  0.25500000920E-02 0. -1.
    10030    2    1    2    0    0  0.00000000000E+00  0.00000000000E+00 -0.23376413646E+04  0.24427454730E+04  0.70882882019E+03 0.  0.
        2    1    3    3  502    0  0.20369716902E+02  0.26263820387E+03 -0.19859036072E+04  0.20032990013E+04  0.25500000920E-02 0. -1.
       -2    1    3    3    0  502 -0.20369716902E+02 -0.26263820387E+03 -0.35173775740E+03  0.43944647170E+03  0.25500000920E-02 0.  1.
</event>
<event>
 5   0  0.5023894E-03  0.7005571E+03  0.7818609E-02  0.9716280E-01
        2   -1    0    0  501    0  0.00000000000E+00  0.00000000000E+00  0.46596219389E+03  0.46596219390E+03  0.25500000920E-02 0.  1.
       -2   -1    0    0    0  501  0.00000000000E+00  0.00000000000E+00 -0.26331550800E+03  0.26331550801E+03  0.25500000920E-02 0. -1.
    10030    2    1    2    0    0  0.00000000000E+00  0.00000000000E+00  0.20264668590E+03  0.72927770191E+03  0.70055712629E+03 0.  0.
        2    1    3    3  502    0  0.29477098363E+02  0.23447955179E+03 -0.16782115596E+03  0.28985082358E+03  0.25500000920E-02 0. -1.
       -2    1    3    3    0  502 -0.29477098363E+02 -0.23447955179E+03  0.37046784186E+03  0.43942687833E+03  0.25500000920E-02 0.  1.
</event>
<event>
 5   0  0.2937617E-03  0.6990457E+03  0.7818609E-02  0.9718866E-01
        1   -1    0    0  501    0  0.00000000000E+00  0.00000000000E+00  0.46103536814E+03  0.46103536817E+03  0.50400001928E-02 0. -1.
       -1   -1    0    0    0  501  0.00000000000E+00  0.00000000000E+00 -0.26498232677E+03  0.26498232681E+03  0.50400001928E-02 0.  1.
    10030    2    1    2    0    0  0.00000000000E+00  0.00000000000E+00  0.19605304138E+03  0.72601769498E+03  0.69904570551E+03 0.  0.
        3    1    3    3  502    0  0.22868053581E+03  0.16084685375E+03 -0.11982799841E+03  0.30417964630E+03  0.10100000352E+00 0.  1.
       -3    1    3    3    0  502 -0.22868053581E+03 -0.16084685375E+03  0.31588103978E+03  0.42183804868E+03  0.10100000352E+00 0. -1.
</event>
<event>
 5   0  0.3013140E-03  0.7003437E+03  0.7818609E-02  0.9716645E-01
       -1   -1    0    0    0  501  0.00000000000E+00  0.00000000000E+00  0.71143108344E+02  0.71143108522E+02  0.50400001928E-02 0.  1.
        1   -1    0    0  501    0  0.00000000000E+00  0.00000000000E+00 -0.17235728930E+04  0.17235728930E+04  0.50400001928E-02 0. -1.
    10030    2    1    2    0    0  0.00000000000E+00  0.00000000000E+00 -0.16524297846E+04  0.17947160015E+04  0.70034372484E+03 0.  0.
        2    1    3    3  502    0 -0.21900098608E+03  0.22072765908E+03 -0.41349592711E+03  0.51735965549E+03  0.25500000920E-02 0.  1.
       -2    1    3    3    0  502  0.21900098608E+03 -0.22072765908E+03 -0.12389338575E+04  0.12773563460E+04  0.25500000920E-02 0. -1.
</event>
<event>
 5   0  0.5072407E-03  0.7031441E+03  0.7818609E-02  0.9711870E-01
       -2   -1    0    0    0  501  0.00000000000E+00  0.00000000000E+00  0.20415973474E+03  0.20415973475E+03  0.25500000920E-02 0. -1.
        2   -1    0    0  501    0  0.00000000000E+00  0.00000000000E+00 -0.60542261129E+03  0.60542261130E+03  0.25500000920E-02 0.  1.
    10030    2    1    2    0    0  0.00000000000E+00  0.00000000000E+00 -0.40126287656E+03  0.80958234605E+03  0.70314413809E+03 0.  0.
        1    1    3    3  502    0  0.24407499323E+03 -0.10463582056E+02 -0.49172853526E+03  0.54907107125E+03  0.50400001928E-02 0.  1.
       -1    1    3    3    0  502 -0.24407499323E+03  0.10463582056E+02  0.90465658700E+02  0.26051127480E+03  0.50400001928E-02 0. -1.
</event>
<event>
 5   0  0.1981750E-03  0.7057378E+03  0.7818609E-02  0.9707470E-01
       -4   -1    0    0    0  501  0.00000000000E+00  0.00000000000E+00  0.23211042938E+03  0.23211390378E+03  0.12699999809E+01 0. -1.
        4   -1    0    0  501    0  0.00000000000E+00  0.00000000000E+00 -0.53644535242E+03  0.53644685574E+03  0.12699999809E+01 0.  1.
    10030    2    1    2    0    0  0.00000000000E+00  0.00000000000E+00 -0.30433492304E+03  0.76856075952E+03  0.70573783779E+03 0.  0.
        3    1    3    3  502    0  0.28837368879E+03  0.19111457885E+03 -0.76464718227E+02  0.35430358447E+03  0.10100000352E+00 0.  1.
       -3    1    3    3    0  502 -0.28837368879E+03 -0.19111457885E+03 -0.22787020482E+03  0.41425717505E+03  0.10100000352E+00 0. -1.
</event>
<event>
 5   0  0.2934483E-03  0.7026394E+03  0.7818609E-02  0.9712729E-01
        1   -1    0    0  501    0  0.00000000000E+00  0.00000000000E+00  0.45791166651E+03  0.45791166654E+03  0.50400001928E-02 0. -1.
       -1   -1    0    0    0  501  0.00000000000E+00  0.00000000000E+00 -0.26954001938E+03  0.26954001942E+03  0.50400001928E-02 0.  1.
    10030    2    1    2    0    0  0.00000000000E+00  0.00000000000E+00  0.18837164713E+03  0.72745168596E+03  0.70263936551E+03 0.  0.
        5    1    3    3  502    0  0.89976435046E+02  0.60659229266E+02  0.44009214520E+03  0.45329734968E+03  0.46999998093E+01 0. -1.
       -5    1    3    3    0  502 -0.89976435046E+02 -0.60659229266E+02 -0.25172049807E+03  0.27415433629E+03  0.46999998093E+01 0.  1.
</event>
<event>
 5   0  0.5076796E-03  0.7000756E+03  0.7818609E-02  0.9717103E-01
       -2   -1    0    0    0  501  0.00000000000E+00  0.00000000000E+00  0.18395228976E+03  0.18395228978E+03  0.25500000920E-02 0. -1.
        2   -1    0    0  501    0  0.00000000000E+00  0.00000000000E+00 -0.66607748230E+03  0.66607748230E+03  0.25500000920E-02 0.  1.
    10030    2    1    2    0    0  0.00000000000E+00  0.00000000000E+00 -0.48212519254E+03  0.85002977208E+03  0.70007564745E+03 0.  0.
        5    1    3    3  502    0 -0.16312888694E+02  0.32921659117E+03 -0.38398093054E+03  0.50607619906E+03  0.46999998093E+01 0.  1.
       -5    1    3    3    0  502  0.16312888694E+02 -0.32921659117E+03 -0.98144262002E+02  0.34395357303E+03  0.46999998093E+01 0. -1.
</event>
<event>
 5   0  0.1981750E-03  0.7006645E+03  0.7818609E-02  0.9716097E-01
       -4   -1    0    0    0  501  0.00000000000E+00  0.00000000000E+00  0.62073622385E+03  0.62073752304E+03  0.12699999809E+01 0. -1.
        4   -1    0    0  501    0  0.00000000000E+00  0.00000000000E+00 -0.19771760086E+03  0.19772167961E+03  0.12699999809E+01 0.  1.
    10030    2    1    2    0    0  0.00000000000E+00  0.00000000000E+00  0.42301862300E+03  0.81845920265E+03  0.70066447819E+03 0.  0.
        5    1    3    3  502    0 -0.32905119205E+03  0.88714147884E+02  0.30616080637E+03  0.45814999332E+03  0.46999998093E+01 0. -1.
       -5    1    3    3    0  502  0.32905119205E+03 -0.88714147884E+02  0.11685781663E+03  0.36030920933E+03  0.46999998093E+01 0.  1.
</event>
<event>
 5   0  0.2937617E-03  0.7000647E+03  0.7818609E-02  0.9717122E-01
        1   -1    0    0  501    0  0.00000000000E+00  0.00000000000E+00  0.30159699733E+03  0.30159699737E+03  0.50400001928E-02 0. -1.
       -1   -1    0    0    0  501  0.00000000000E+00  0.00000000000E+00 -0.40624624939E+03  0.40624624942E+03  0.50400001928E-02 0.  1.
    10030    2    1    2    0    0  0.00000000000E+00  0.00000000000E+00 -0.10464925206E+03  0.70784324679E+03  0.70006470849E+03 0.  0.
        3    1    3    3  502    0  0.85229246808E+02 -0.33415664523E+03 -0.11297402702E+03  0.36288817705E+03  0.10100000352E+00 0.  1.
       -3    1    3    3    0  502 -0.85229246808E+02  0.33415664523E+03  0.83247749584E+01  0.34495506974E+03  0.10100000352E+00 0. -1.
</event>
<event>
 5   0  0.2937617E-03  0.7010633E+03  0.7818609E-02  0.9715416E-01
       -1   -1    0    0    0  501  0.00000000000E+00  0.00000000000E+00  0.11409547847E+03  0.11409547858E+03  0.50400001928E-02 0.  1.
        1   -1    0    0  501    0  0.00000000000E+00  0.00000000000E+00 -0.10769263056E+04  0.10769263056E+04  0.50400001928E-02 0. -1.
    10030    2    1    2    0    0  0.00000000000E+00  0.00000000000E+00 -0.96283082714E+03  0.11910217842E+04  0.70106325590E+03 0.  0.
        3    1    3    3  502    0  0.10893372424E+02  0.22378040838E+03 -0.93940777258E+03  0.96575530551E+03  0.10100000352E+00 0. -1.
       -3    1    3    3    0  502 -0.10893372424E+02 -0.22378040838E+03 -0.23423054558E+02  0.22526647870E+03  0.10100000352E+00 0.  1.
</event>
<event>
 5   0  0.5023894E-03  0.6994908E+03  0.7818609E-02  0.9718103E-01
       -2   -1    0    0    0  501  0.00000000000E+00  0.00000000000E+00  0.10050200682E+03  0.10050200686E+03  0.25500000920E-02 0.  1.
        2   -1    0    0  501    0  0.00000000000E+00  0.00000000000E+00 -0.12171083843E+04  0.12171083843E+04  0.25500000920E-02 0. -1.
    10030    2    1    2    0    0  0.00000000000E+00  0.00000000000E+00 -0.11166063775E+04  0.13176103912E+04  0.69949077240E+03 0.  0.
        2    1    3    3  502    0 -0.22675143827E+03 -0.21251212953E+03 -0.86053825428E+03  0.91493371729E+03  0.25500000920E-02 0. -1.
       -2    1    3    3    0  502  0.22675143827E+03  0.21251212953E+03 -0.25606812320E+03  0.40267667387E+03  0.25500000920E-02 0.  1.
</event>
<event>
 5   0  0.5072407E-03  0.6992817E+03  0.7818609E-02  0.9718461E-01
       -2   -1    0    0    0  501  0.00000000000E+00  0.00000000000E+00  0.46500991514E+03  0.46500991515E+03  0.25500000920E-02 0.  1.
        2   -1    0    0  501    0  0.00000000000E+00  0.00000000000E+00 -0.26289489729E+03  0.26289489731E+03  0.25500000920E-02 0. -1.
    10030    2    1    2    0    0  0.00000000000E+00  0.00000000000E+00  0.20211501784E+03  0.72790481245E+03  0.69928172831E+03 0.  0.
        1    1    3    3  502    0 -0.30481599353E+03 -0.64105589549E+02  0.26638695025E+03  0.40985890720E+03  0.50400001928E-02 0. -1.
       -1    1    3    3    0  502  0.30481599353E+03  0.64105589549E+02 -0.64271932403E+02  0.31804590525E+03  0.50400001928E-02 0.  1.
</event>
<event>
 5   0  0.2913582E-03  0.6979251E+03  0.7818609E-02  0.9720787E-01
       -1   -1    0    0    0  501  0.00000000000E+00  0.00000000000E+00  0.85972066218E+02  0.85972066366E+02  0.50400001928E-02 0. -1.
        1   -1    0    0  501    0  0.00000000000E+00  0.00000000000E+00 -0.14164468540E+04  0.14164468540E+04  0.50400001928E-02 0.  1.
    10030    2    1    2    0    0  0.00000000000E+00  0.00000000000E+00 -0.13304747877E+04  0.15024189203E+04  0.69792510441E+03 0.  0.
        1    1    3    3  502    0  0.30224371271E+03  0.13964377117E+03 -0.89022444671E+03  0.95044789981E+03  0.50400001928E-02 0.  1.
       -1    1    3    3    0  502 -0.30224371271E+03 -0.13964377117E+03 -0.44025034103E+03  0.55197102053E+03  0.50400001928E-02 0. -1.
</event>
<event>
 5   0  0.5072407E-03  0.7006450E+03  0.7818609E-02  0.9716130E-01
       -2   -1    0    0    0  501  0.00000000000E+00  0.00000000000E+00  0.63201148196E+02  0.63201148247E+02  0.25500000920E-02 0.  1.
        2   -1    0    0  501    0  0.00000000000E+00  0.00000000000E+00 -0.19418295231E+04  0.19418295231E+04  0.25500000920E-02 0. -1.
    10030    2    1    2    0    0  0.00000000000E+00  0.00000000000E+00 -0.18786283749E+04  0.20050306713E+04  0.70064500430E+03 0.  0.
        1    1    3    3  502    0  0.36529418182E+02  0.34582949983E+03 -0.81812516418E+03  0.88896638049E+03  0.50400001928E-02 0.  1.
       -1    1    3    3    0  502 -0.36529418182E+02 -0.34582949983E+03 -0.10605032107E+04  0.11160642908E+04  0.50400001928E-02 0. -1.
</event>
<event>
 5   0  0.5072407E-03  0.6997516E+03  0.7818609E-02  0.9717657E-01
        2   -1    0    0  501    0  0.00000000000E+00  0.00000000000E+00  0.90915007866E+03  0.90915007866E+03  0.25500000920E-02 0.  1.
       -2   -1    0    0    0  501  0.00000000000E+00  0.00000000000E+00 -0.13464562148E+03  0.13464562151E+03  0.25500000920E-02 0. -1.
    10030    2    1    2    0    0  0.00000000000E+00  0.00000000000E+00  0.77450445718E+03  0.10437957002E+04  0.69975160557E+03 0.  0.
        1    1    3    3  502    0  0.78080537047E+02  0.27903643607E+03  0.94736655207E+02  0.30484903934E+03  0.50400001928E-02 0. -1.
       -1    1    3    3    0  502 -0.78080537047E+02 -0.27903643607E+03  0.67976780197E+03  0.73894666082E+03  0.50400001928E-02 0.  1.
</event>
<event>
 5   0  0.5076796E-03  0.6977778E+03  0.7818609E-02  0.9721040E-01
        2   -1    0    0  501    0  0.00000000000E+00  0.00000000000E+00  0.47236097780E+03  0.47236097780E+03  0.25500000920E-02 0.  1.
       -2   -1    0    0    0  501  0.00000000000E+00  0.00000000000E+00 -0.25769164045E+03  0.25769164046E+03  0.25500000920E-02 0. -1.
    10030    2    1    2    0    0  0.00000000000E+00  0.00000000000E+00  0.21466933734E+03  0.73005261827E+03  0.69777783072E+03 0.  0.
        5    1    3    3  502    0 -0.18583254855E+03 -0.26752809220E+03 -0.23327164524E+02  0.32660566869E+03  0.46999998093E+01 0. -1.
       -5    1    3    3    0  502  0.18583254855E+03  0.26752809220E+03  0.23799650187E+03  0.40344694957E+03  0.46999998093E+01 0.  1.
</event>
<event>
 5   0  0.5113683E-03  0.6993864E+03  0.7818609E-02  0.9718282E-01
       -2   -1    0    0    0  501  0.00000000000E+00  0.00000000000E+00  0.14778554125E+04  0.14778554125E+04  0.25500000920E-02 0. -1.
        2   -1    0    0  501    0  0.00000000000E+00  0.00000000000E+00 -0.82745136156E+02  0.82745136195E+02  0.25500000920E-02 0.  1.
    10030    2    1    2    0    0  0.00000000000E+00  0.00000000000E+00  0.13951102763E+04  0.15606005487E+04  0.69938643783E+03 0.  0.
        3    1    3    3  502    0  0.27686378086E+03 -0.79519337770E+02  0.11399576231E+04  0.11757892120E+04  0.10100000352E+00 0. -1.
       -3    1    3    3    0  502 -0.27686378086E+03  0.79519337770E+02  0.25515265320E+03  0.38481133672E+03  0.10100000352E+00 0.  1.
</event>
<event>
 5   0  0.2938783E-03  0.6997777E+03  0.7818609E-02  0.9717612E-01
       -1   -1    0    0    0  501  0.00000000000E+00  0.00000000000E+00  0.12378768189E+03  0.12378768199E+03  0.50400001928E-02 0. -1.
        1   -1    0    0  501    0  0.00000000000E+00  0.00000000000E+00 -0.98896935271E+03  0.98896935272E+03  0.50400001928E-02 0.  1.
    10030    2    1    2    0    0  0.00000000000E+00  0.00000000000E+00 -0.86518167082E+03  0.11127570347E+04  0.69977774669E+03 0.  0.
        4    1    3    3  502    0 -0.32158343436E+02  0.34690316907E+03 -0.38119544414E+03  0.51641799668E+03  0.12699999809E+01 0.  1.
       -4    1    3    3    0  502  0.32158343436E+02 -0.34690316907E+03 -0.48398622668E+03  0.59633903802E+03  0.12699999809E+01 0. -1.
</event>
<event>
 5   0  0.2913582E-03  0.7000531E+03  0.7818609E-02  0.9717141E-01
        1   -1    0    0  501    0  0.00000000000E+00  0.00000000000E+00  0.18147990358E+03  0.18147990365E+03  0.50400001928E-02 0.  1.
       -1   -1    0    0    0  501  0.00000000000E+00  0.00000000000E+00 -0.67510835486E+03  0.67510835488E+03  0.50400001928E-02 0. -1.
    10030    2    1    2    0    0  0.00000000000E+00  0.00000000000E+00 -0.49362845129E+03  0.85658825853E+03  0.70005313850E+03 0.  0.
        1    1    3    3  502    0 -0.15885931539E+03  0.69776543876E+02  0.12515665190E+03  0.21393745746E+03  0.50400001928E-02 0.  1.
       -1    1    3    3    0  502  0.15885931539E+03 -0.69776543876E+02 -0.61878510319E+03  0.64265080107E+03  0.50400001928E-02 0. -1.
</event>
<event>
 5   0  0.2913582E-03  0.6996808E+03  0.7818609E-02  0.9717778E-01
        1   -1    0    0  501    0  0.00000000000E+00  0.00000000000E+00  0.15892804461E+03  0.15892804469E+03  0.50400001928E-02 0.  1.
       -1   -1    0    0    0  501  0.00000000000E+00  0.00000000000E+00 -0.77008625565E+03  0.77008625567E+03  0.50400001928E-02 0. -1.
    10030    2    1    2    0    0  0.00000000000E+00  0.00000000000E+00 -0.61115821104E+03  0.92901430036E+03  0.69968079246E+03 0.  0.
        1    1    3    3  502    0  0.12161494095E+03 -0.32084566973E+03 -0.39618086583E+03  0.52411011832E+03  0.50400001928E-02 0. -1.
       -1    1    3    3    0  502 -0.12161494095E+03  0.32084566973E+03 -0.21497734521E+03  0.40490418203E+03  0.50400001928E-02 0.  1.
</event>
<event>
 5   0  0.5076796E-03  0.7025279E+03  0.7818609E-02  0.9712919E-01
        2   -1    0    0  501    0  0.00000000000E+00  0.00000000000E+00  0.23876189731E+03  0.23876189733E+03  0.25500000920E-02 0.  1.
       -2   -1    0    0    0  501  0.00000000000E+00  0.00000000000E+00 -0.51677583282E+03  0.51677583283E+03  0.25500000920E-02 0. -1.
    10030    2    1    2    0    0  0.00000000000E+00  0.00000000000E+00 -0.27801393551E+03  0.75553773015E+03  0.70252794489E+03 0.  0.
        5    1    3    3  502    0  0.22248139864E+02 -0.31991552979E+03  0.15062580801E+02  0.32107615494E+03  0.46999998093E+01 0.  1.
       -5    1    3    3    0  502 -0.22248139864E+02  0.31991552979E+03 -0.29307651631E+03  0.43446157522E+03  0.46999998093E+01 0. -1.
</event>
<event>
 5   0  0.5072407E-03  0.6994362E+03  0.7818609E-02  0.9718197E-01
        2   -1    0    0  501    0  0.00000000000E+00  0.00000000000E+00  0.14014607758E+04  0.14014607758E+04  0.25500000920E-02 0. -1.
       -2   -1    0    0    0  501  0.00000000000E+00  0.00000000000E+00 -0.87268046733E+02  0.87268046770E+02  0.25500000920E-02 0.  1.
    10030    2    1    2    0    0  0.00000000000E+00  0.00000000000E+00  0.13141927291E+04  0.14887288226E+04  0.69943618583E+03 0.  0.
        1    1    3    3  502    0  0.60001478864E+02 -0.33401396609E+03  0.83691412035E+03  0.90310063220E+03  0.50400001928E-02 0. -1.
       -1    1    3    3    0  502 -0.60001478864E+02  0.33401396609E+03  0.47727860876E+03  0.58562819042E+03  0.50400001928E-02 0.  1.
</event>
<event>
 5   0  0.2937617E-03  0.6986468E+03  0.7818609E-02  0.9719549E-01
       -1   -1    0    0    0  501  0.00000000000E+00  0.00000000000E+00  0.33685438931E+03  0.33685438935E+03  0.50400001928E-02 0. -1.
        1   -1    0    0  501    0  0.00000000000E+00  0.00000000000E+00 -0.36225400991E+03  0.36225400994E+03  0.50400001928E-02 0.  1.
    10030    2    1    2    0    0  0.00000000000E+00  0.00000000000E+00 -0.25399620599E+02  0.69910839929E+03  0.69864684443E+03 0.  0.
        3    1    3    3  502    0 -0.10565916283E+03 -0.19884496552E+03  0.25454152993E+03  0.33984493473E+03  0.10100000352E+00 0. -1.
       -3    1    3    3    0  502  0.10565916283E+03  0.19884496552E+03 -0.27994115053E+03  0.35926346455E+03  0.10100000352E+00 0.  1.
</event>
<event>
 5   0  0.2937617E-03  0.7026823E+03  0.7818609E-02  0.9712656E-01
       -1   -1    0    0    0  501  0.00000000000E+00  0.00000000000E+00  0.84346516483E+02  0.84346516633E+02  0.50400001928E-02 0.  1.
        1   -1    0    0  501    0  0.00000000000E+00  0.00000000000E+00 -0.14634937956E+04  0.14634937957E+04  0.50400001928E-02 0. -1.
    10030    2    1    2    0    0  0.00000000000E+00  0.00000000000E+00 -0.13791472792E+04  0.15478403123E+04  0.70268229999E+03 0.  0.
        3    1    3    3  502    0  0.38229370513E+02  0.26125740552E+03 -0.12001374205E+04  0.12288395969E+04  0.10100000352E+00 0. -1.
       -3    1    3    3    0  502 -0.38229370513E+02 -0.26125740552E+03 -0.17900985871E+03  0.31900071540E+03  0.10100000352E+00 0.  1.
</event>
<event>
 5   0  0.5072407E-03  0.6978130E+03  0.7818609E-02  0.9720980E-01
       -2   -1    0    0    0  501  0.00000000000E+00  0.00000000000E+00  0.97792507639E+02  0.97792507672E+02  0.25500000920E-02 0.  1.
        2   -1    0    0  501    0  0.00000000000E+00  0.00000000000E+00 -0.12448370272E+04  0.12448370272E+04  0.25500000920E-02 0. -1.
    10030    2    1    2    0    0  0.00000000000E+00  0.00000000000E+00 -0.11470445195E+04  0.13426295348E+04  0.69781296782E+03 0.  0.
        1    1    3    3  502    0 -0.30854212755E+03 -0.16216848330E+03 -0.60325950460E+03  0.69672009542E+03  0.50400001928E-02 0. -1.
       -1    1    3    3    0  502  0.30854212755E+03  0.16216848330E+03 -0.54378501494E+03  0.64590943943E+03  0.50400001928E-02 0.  1.
</event>
<event>
 5   0  0.2913582E-03  0.6995807E+03  0.7818609E-02  0.9717950E-01
        1   -1    0    0  501    0  0.00000000000E+00  0.00000000000E+00  0.33559008007E+03  0.33559008011E+03  0.50400001928E-02 0. -1.
       -1   -1    0    0    0  501  0.00000000000E+00  0.00000000000E+00 -0.36459150485E+03  0.36459150488E+03  0.50400001928E-02 0.  1.
    10030    2    1    2    0    0  0.00000000000E+00  0.00000000000E+00 -0.29001424775E+02  0.70018158499E+03  0.69958070966E+03 0.  0.
        1    1    3    3  502    0 -0.13761044964E+03 -0.31945197286E+03 -0.51506697232E+02  0.35162357529E+03  0.50400001928E-02 0.  1.
       -1    1    3    3    0  502  0.13761044964E+03  0.31945197286E+03  0.22505272458E+02  0.34855800970E+03  0.50400001928E-02 0. -1.
</event>
<event>
 5   0  0.3013140E-03  0.7008018E+03  0.7818609E-02  0.9715862E-01
        1   -1    0    0  501    0  0.00000000000E+00  0.00000000000E+00  0.52038560866E+03  0.52038560869E+03  0.50400001928E-02 0.  1.
       -1   -1    0    0    0  501  0.00000000000E+00  0.00000000000E+00 -0.23594195486E+03  0.23594195491E+03  0.50400001928E-02 0. -1.
    10030    2    1    2    0    0  0.00000000000E+00  0.00000000000E+00  0.28444365381E+03  0.75632756360E+03  0.70080182025E+03 0.  0.
        2    1    3    3  502    0 -0.13398497745E+03 -0.89948394940E+02  0.47789258217E+03  0.50440460747E+03  0.25500000920E-02 0.  1.
       -2    1    3    3    0  502  0.13398497745E+03  0.89948394940E+02 -0.19344892836E+03  0.25192295613E+03  0.25500000920E-02 0. -1.
</event>
<event>
 5   0  0.2938783E-03  0.6994738E+03  0.7818609E-02  0.9718132E-01
       -1   -1    0    0    0  501  0.00000000000E+00  0.00000000000E+00  0.88911844313E+02  0.88911844456E+02  0.50400001928E-02 0.  1.
        1   -1    0    0  501    0  0.00000000000E+00  0.00000000000E+00 -0.13756986535E+04  0.13756986535E+04  0.50400001928E-02 0. -1.
    10030    2    1    2    0    0  0.00000000000E+00  0.00000000000E+00 -0.12867868092E+04  0.14646104979E+04  0.69947381541E+03 0.  0.
        4    1    3    3  502    0  0.13016745080E+03 -0.67896153829E+02  0.21262042476E+02  0.14834803774E+03  0.12699999809E+01 0.  1.
       -4    1    3    3    0  502 -0.13016745080E+03  0.67896153829E+02 -0.13080488516E+04  0.13162624602E+04  0.12699999809E+01 0. -1.
</event>
<event>
 5   0  0.3013140E-03  0.6988575E+03  0.7818609E-02  0.9719188E-01
       -1   -1    0    0    0  501  0.00000000000E+00  0.00000000000E+00  0.16006798813E+03  0.16006798821E+03  0.50400001928E-02 0.  1.
        1   -1    0    0  501    0  0.00000000000E+00  0.00000000000E+00 -0.76280373732E+03  0.76280373734E+03  0.50400001928E-02 0. -1.
    10030    2    1    2    0    0  0.00000000000E+00  0.00000000000E+00 -0.60273574919E+03  0.92287172555E+03  0.69885752373E+03 0.  0.
        2    1    3    3  502    0  0.25785560170E+03 -0.15001186026E+03 -0.54164651633E+03  0.61836398521E+03  0.25500000920E-02 0. -1.
       -2    1    3    3    0  502 -0.25785560170E+03  0.15001186026E+03 -0.61089232857E+02  0.30450774034E+03  0.25500000920E-02 0.  1.
</event>
<event>
 5   0  0.2913582E-03  0.7000236E+03  0.7818609E-02  0.9717192E-01
        1   -1    0    0  501    0  0.00000000000E+00  0.00000000000E+00  0.15410915670E+04  0.15410915671E+04  0.50400001928E-02 0. -1.
       -1   -1    0    0    0  501  0.00000000000E+00  0.00000000000E+00 -0.79494467405E+02  0.79494467564E+02  0.50400001928E-02 0.  1.
    10030    2    1    2    0    0  0.00000000000E+00  0.00000000000E+00  0.14615970996E+04  0.16205860346E+04  0.70002358098E+03 0.  0.
        1    1    3    3  502    0 -0.28608751937E+02 -0.18491831328E+03  0.46018553715E+02  0.19269392981E+03  0.50400001928E-02 0.  1.
       -1    1    3    3    0  502  0.28608751937E+02  0.18491831328E+03  0.14155785459E+04  0.14278921048E+04  0.50400001928E-02 0. -1.
</event>
<event>
 5   0  0.2937617E-03  0.7002915E+03  0.7818609E-02  0.9716734E-01
       -1   -1    0    0    0  501  0.00000000000E+00  0.00000000000E+00  0.17488426679E+03  0.17488426686E+03  0.50400001928E-02 0.  1.
        1   -1    0    0  501    0  0.00000000000E+00  0.00000000000E+00 -0.70104678729E+03  0.70104678731E+03  0.50400001928E-02 0. -1.
    10030    2    1    2    0    0  0.00000000000E+00  0.00000000000E+00 -0.52616252050E+03  0.87593105416E+03  0.70029152049E+03 0.  0.
        3    1    3    3  502    0  0.32854466221E+03  0.58104376069E+02 -0.13021064750E+03  0.35815155522E+03  0.10100000352E+00 0.  1.
       -3    1    3    3    0  502 -0.32854466221E+03 -0.58104376069E+02 -0.39595187300E+03  0.51777949894E+03  0.10100000352E+00 0. -1.
</event>
<event>
 5   0  0.2938783E-03  0.7012356E+03  0.7818609E-02  0.9715121E-01
       -1   -1    0    0    0  501  0.00000000000E+00  0.00000000000E+00  0.24442733485E+03  0.24442733490E+03  0.50400001928E-02 0.  1.
        1   -1    0    0  501    0  0.00000000000E+00  0.00000000000E+00 -0.50294227295E+03  0.50294227297E+03  0.50400001928E-02 0. -1.
    10030    2    1    2    0    0  0.00000000000E+00  0.00000000000E+00 -0.25851493809E+03  0.74736960788E+03  0.70123559348E+03 0.  0.
        4    1    3    3  502    0  0.45846137983E+02 -0.34679150919E+03 -0.15459116194E+03  0.38244772121E+03  0.12699999809E+01 0.  1.
       -4    1    3    3    0  502 -0.45846137983E+02  0.34679150919E+03 -0.10392377616E+03  0.36492188666E+03  0.12699999809E+01 0. -1.
</event>
<event>
 5   0  0.5076796E-03  0.6994973E+03  0.7818609E-02  0.9718092E-01
       -2   -1    0    0    0  501  0.00000000000E+00  0.00000000000E+00  0.11740762877E+03  0.11740762880E+03  0.25500000920E-02 0.  1.
        2   -1    0    0  501    0  0.00000000000E+00  0.00000000000E+00 -0.10418754572E+04  0.10418754572E+04  0.25500000920E-02 0. -1.
    10030    2    1    2    0    0  0.00000000000E+00  0.00000000000E+00 -0.92446782841E+03  0.11592830860E+04  0.69949732499E+03 0.  0.
        5    1    3    3  502    0 -0.18456100422E+03  0.37433678432E+02 -0.95061442939E+03  0.96909954489E+03  0.46999998093E+01 0. -1.
       -5    1    3    3    0  502  0.18456100422E+03 -0.37433678432E+02  0.26146600977E+02  0.19018354108E+03  0.46999998093E+01 0.  1.
</event>
<event>
 5   0  0.3013140E-03  0.7017815E+03  0.7818609E-02  0.9714190E-01
       -1   -1    0    0    0  501  0.00000000000E+00  0.00000000000E+00  0.62618890396E+03  0.62618890398E+03  0.50400001928E-02 0. -1.
        1   -1    0    0  501    0  0.00000000000E+00  0.00000000000E+00 -0.19662487975E+03  0.19662487981E+03  0.50400001928E-02 0.  1.
    10030    2    1    2    0    0  0.00000000000E+00  0.00000000000E+00  0.42956402421E+03  0.82281378379E+03  0.70178149868E+03 0.  0.
        2    1    3    3  502    0  0.75854420447E+02 -0.64753416948E+02  0.60922072984E+03  0.61733037815E+03  0.25500000920E-02 0. -1.
       -2    1    3    3    0  502 -0.75854420447E+02  0.64753416948E+02 -0.17965670563E+03  0.20548340564E+03  0.25500000920E-02 0.  1.
</event>
<event>
 5   0  0.2937617E-03  0.6932121E+03  0.7818609E-02  0.9728911E-01
        1   -1    0    0  501    0  0.00000000000E+00  0.00000000000E+00  0.35902869949E+03  0.35902869953E+03  0.50400001928E-02 0. -1.
       -1   -1    0    0    0  501  0.00000000000E+00  0.00000000000E+00 -0.33461321389E+03  0.33461321393E+03  0.50400001928E-02 0.  1.
    10030    2    1    2    0    0  0.00000000000E+00  0.00000000000E+00  0.24415485600E+02  0.69364191346E+03  0.69321208023E+03 0.  0.
        3    1    3    3  502    0  0.32083104790E+03  0.11071676577E+03 -0.58156364436E+02  0.34434421215E+03  0.10100000352E+00 0.  1.
       -3    1    3    3    0  502 -0.32083104790E+03 -0.11071676577E+03  0.82571850036E+02  0.34929770131E+03  0.10100000352E+00 0. -1.
</event>
<event>
 5   0  0.1981750E-03  0.6996737E+03  0.7818609E-02  0.9717790E-01
       -4   -1    0    0    0  501  0.00000000000E+00  0.00000000000E+00  0.27465043027E+03  0.27465336654E+03  0.12699999809E+01 0.  1.
        4   -1    0    0  501    0  0.00000000000E+00  0.00000000000E+00 -0.44559955031E+03  0.44560136012E+03  0.12699999809E+01 0. -1.
    10030    2    1    2    0    0  0.00000000000E+00  0.00000000000E+00 -0.17094912004E+03  0.72025472666E+03  0.69967368796E+03 0.  0.
        5    1    3    3  502    0 -0.73642927015E+02 -0.17671472262E+03 -0.38685307256E+03  0.43165815599E+03  0.46999998093E+01 0. -1.
       -5    1    3    3    0  502  0.73642927015E+02  0.17671472262E+03  0.21590395252E+03  0.28859657066E+03  0.46999998093E+01 0.  1.
</event>
<event>
 5   0  0.5072407E-03  0.6889397E+03  0.7818609E-02  0.9736336E-01
        2   -1    0    0  501    0  0.00000000000E+00  0.00000000000E+00  0.53936291352E+03  0.53936291352E+03  0.25500000920E-02 0.  1.
       -2   -1    0    0    0  501  0.00000000000E+00  0.00000000000E+00 -0.21999930193E+03  0.21999930195E+03  0.25500000920E-02 0. -1.
    10030    2    1    2    0    0  0.00000000000E+00  0.00000000000E+00  0.31936361159E+03  0.75936221547E+03  0.68893966200E+03 0.  0.
        1    1    3    3  502    0 -0.30601480839E+03 -0.82289383152E+02  0.30855422494E+03  0.44229211533E+03  0.50400001928E-02 0.  1.
       -1    1    3    3    0  502  0.30601480839E+03  0.82289383152E+02  0.10809386652E+02  0.31707010014E+03  0.50400001928E-02 0. -1.
</event>
<event>
 5   0  0.1981750E-03  0.7008395E+03  0.7818609E-02  0.9715798E-01
       -3   -1    0    0    0  501  0.00000000000E+00  0.00000000000E+00  0.24170232997E+04  0.24170233018E+04  0.10100000352E+00 0. -1.
        3   -1    0    0  501    0  0.00000000000E+00  0.00000000000E+00 -0.50803766989E+02  0.50803867385E+02  0.10100000352E+00 0.  1.
    10030    2    1    2    0    0  0.00000000000E+00  0.00000000000E+00  0.23662195327E+04  0.24678271692E+04  0.70083953943E+03 0.  0.
        1    1    3    3  502    0  0.10214063557E+03  0.28928868490E+03  0.58685006660E+03  0.66220363435E+03  0.50400001928E-02 0.  1.
       -1    1    3    3    0  502 -0.10214063557E+03 -0.28928868490E+03  0.17793694661E+04  0.18056235348E+04  0.50400001928E-02 0. -1.
</event>
<event>
 5   0  0.2913582E-03  0.6983847E+03  0.7818609E-02  0.9719999E-01
        1   -1    0    0  501    0  0.00000000000E+00  0.00000000000E+00  0.41216816679E+03  0.41216816682E+03  0.50400001928E-02 0. -1.
       -1   -1    0    0    0  501  0.00000000000E+00  0.00000000000E+00 -0.29583866403E+03  0.29583866407E+03  0.50400001928E-02 0.  1.
    10030    2    1    2    0    0  0.00000000000E+00  0.00000000000E+00  0.11632950277E+03  0.70800683090E+03  0.69838465002E+03 0.  0.
        1    1    3    3  502    0  0.60750076557E+02 -0.83941732334E+02 -0.27989402441E+03  0.29845845800E+03  0.50400001928E-02 0.  1.
       -1    1    3    3    0  502 -0.60750076557E+02  0.83941732334E+02  0.39622352717E+03  0.40954837289E+03  0.50400001928E-02 0. -1.
</event>
<event>
 5   0  0.5023894E-03  0.7004591E+03  0.7818609E-02  0.9716447E-01
        2   -1    0    0  501    0  0.00000000000E+00  0.00000000000E+00  0.10241605859E+04  0.10241605859E+04  0.25500000920E-02 0. -1.
       -2   -1    0    0    0  501  0.00000000000E+00  0.00000000000E+00 -0.11976710821E+03  0.11976710824E+03  0.25500000920E-02 0.  1.
    10030    2    1    2    0    0  0.00000000000E+00  0.00000000000E+00  0.90439347766E+03  0.11439276941E+04  0.70045914009E+03 0.  0.
        2    1    3    3  502    0  0.25023247856E+03 -0.44479305310E+02  0.84572588994E+03  0.88308945348E+03  0.25500000920E-02 0. -1.
       -2    1    3    3    0  502 -0.25023247856E+03  0.44479305310E+02  0.58667587724E+02  0.26083824064E+03  0.25500000920E-02 0.  1.
</event>
<event>
 5   0  0.2934483E-03  0.6990277E+03  0.7818609E-02  0.9718896E-01
        1   -1    0    0  501    0  0.00000000000E+00  0.00000000000E+00  0.78410416936E+03  0.78410416938E+03  0.50400001928E-02 0. -1.
       -1   -1    0    0    0  501  0.00000000000E+00  0.00000000000E+00 -0.15579552559E+03  0.15579552567E+03  0.50400001928E-02 0.  1.
    10030    2    1    2    0    0  0.00000000000E+00  0.00000000000E+00  0.62830864377E+03  0.93989969505E+03  0.69902767106E+03 0.  0.
        5    1    3    3  502    0 -0.81631303811E+02 -0.45467434198E+02 -0.13864610809E+03  0.16725965031E+03  0.46999998093E+01 0.  1.
       -5    1    3    3    0  502  0.81631303811E+02  0.45467434198E+02  0.76695475186E+03  0.77264004474E+03  0.46999998093E+01 0. -1.
</event>
<event>
 5   0  0.2938783E-03  0.7005059E+03  0.7818609E-02  0.9716367E-01
       -1   -1    0    0    0  501  0.00000000000E+00  0.00000000000E+00  0.20637873850E+03  0.20637873856E+03  0.50400001928E-02 0.  1.
        1   -1    0    0  501    0  0.00000000000E+00  0.00000000000E+00 -0.59442721573E+03  0.59442721575E+03  0.50400001928E-02 0. -1.
    10030    2    1    2    0    0  0.00000000000E+00  0.00000000000E+00 -0.38804847723E+03  0.80080595432E+03  0.70050592844E+03 0.  0.
        4    1    3    3  502    0 -0.20429094328E+03 -0.95583558019E+02  0.11230705869E+03  0.25196327987E+03  0.12699999809E+01 0.  1.
       -4    1    3    3    0  502  0.20429094328E+03  0.95583558019E+02 -0.50035553592E+03  0.54884267445E+03  0.12699999809E+01 0. -1.
</event>
<event>
 5   0  0.2937617E-03  0.6959053E+03  0.7818609E-02  0.9724260E-01
       -1   -1    0    0    0  501  0.00000000000E+00  0.00000000000E+00  0.96178428640E+02  0.96178428772E+02  0.50400001928E-02 0.  1.
        1   -1    0    0  501    0  0.00000000000E+00  0.00000000000E+00 -0.12588169409E+04  0.12588169409E+04  0.50400001928E-02 0. -1.
    10030    2    1    2    0    0  0.00000000000E+00  0.00000000000E+00 -0.11626385123E+04  0.13549953697E+04  0.69590526774E+03 0.  0.
        3    1    3    3  502    0  0.30887814272E+03 -0.15587419526E+03 -0.65335011026E+03  0.73930294777E+03  0.10100000352E+00 0. -1.
       -3    1    3    3    0  502 -0.30887814272E+03  0.15587419526E+03 -0.50928840202E+03  0.61569242193E+03  0.10100000352E+00 0.  1.
</event>
<event>
 5   0  0.1981750E-03  0.7026894E+03  0.7818609E-02  0.9712644E-01
       -3   -1    0    0    0  501  0.00000000000E+00  0.00000000000E+00  0.95994637041E+02  0.95994690175E+02  0.10100000352E+00 0.  1.
        3   -1    0    0  501    0  0.00000000000E+00  0.00000000000E+00 -0.12859371267E+04  0.12859371307E+04  0.10100000352E+00 0. -1.
    10030    2    1    2    0    0  0.00000000000E+00  0.00000000000E+00 -0.11899424897E+04  0.13819318209E+04  0.70268942554E+03 0.  0.
        2    1    3    3  502    0  0.22118562859E+03 -0.12656914754E+03 -0.11930519436E+03  0.28138329874E+03  0.25500000920E-02 0.  1.
       -2    1    3    3    0  502 -0.22118562859E+03  0.12656914754E+03 -0.10706372953E+04  0.11005485221E+04  0.25500000920E-02 0. -1.
</event>
<event>
 5   0  0.5113683E-03  0.6997893E+03  0.7818609E-02  0.9717593E-01
        2   -1    0    0  501    0  0.00000000000E+00  0.00000000000E+00  0.16535933965E+04  0.16535933965E+04  0.25500000920E-02 0. -1.
       -2   -1    0    0    0  501  0.00000000000E+00  0.00000000000E+00 -0.74036498124E+02  0.74036498168E+02  0.25500000920E-02 0.  1.
    10030    2    1    2    0    0  0.00000000000E+00  0.00000000000E+00  0.15795568984E+04  0.17276298947E+04  0.69978929525E+03 0.  0.
        3    1    3    3  502    0 -0.54262105244E+02 -0.23244687922E+03  0.14213743815E+04  0.14412775827E+04  0.10100000352E+00 0. -1.
       -3    1    3    3    0  502  0.54262105244E+02  0.23244687922E+03  0.15818251681E+03  0.28635231193E+03  0.10100000352E+00 0.  1.
</event>
<event>
 5   0  0.4878235E-03  0.7000845E+03  0.7818609E-02  0.9717088E-01
        2   -1    0    0  501    0  0.00000000000E+00  0.00000000000E+00  0.46535883470E+03  0.46535883471E+03  0.25500000920E-02 0. -1.
       -2   -1    0    0    0  501  0.00000000000E+00  0.00000000000E+00 -0.26330125073E+03  0.26330125074E+03  0.25500000920E-02 0.  1.
    10030    2    1    2    0    0  0.00000000000E+00  0.00000000000E+00  0.20205758397E+03  0.72866008545E+03  0.70008446125E+03 0.  0.
        4    1    3    3  502    0 -0.14420233763E+03 -0.51625646524E+02 -0.22656991546E+03  0.27348685718E+03  0.12699999809E+01 0.  1.
       -4    1    3    3    0  502  0.14420233763E+03  0.51625646524E+02  0.42862749944E+03  0.45517322827E+03  0.12699999809E+01 0. -1.
</event>
<event>
 5   0  0.2938783E-03  0.7002355E+03  0.7818609E-02  0.9716830E-01
        1   -1    0    0  501    0  0.00000000000E+00  0.00000000000E+00  0.97843456032E+03  0.97843456034E+03  0.50400001928E-02 0.  1.
       -1   -1    0    0    0  501  0.00000000000E+00  0.00000000000E+00 -0.12528424469E+03  0.12528424480E+03  0.50400001928E-02 0. -1.
    10030    2    1    2    0    0  0.00000000000E+00  0.00000000000E+00  0.85315031563E+03  0.11037188051E+04  0.70023548878E+03 0.  0.
        4    1    3    3  502    0 -0.17106852701E+02 -0.15707814471E+03 -0.65885782350E+02  0.17119794733E+03  0.12699999809E+01 0. -1.
       -4    1    3    3    0  502  0.17106852701E+02  0.15707814471E+03  0.91903609798E+03  0.93252085781E+03  0.12699999809E+01 0.  1.
</event>
<event>
 5   0  0.2934483E-03  0.7001358E+03  0.7818609E-02  0.9717000E-01
       -1   -1    0    0    0  501  0.00000000000E+00  0.00000000000E+00  0.28470194069E+03  0.28470194074E+03  0.50400001928E-02 0. -1.
        1   -1    0    0  501    0  0.00000000000E+00  0.00000000000E+00 -0.43044152995E+03  0.43044152998E+03  0.50400001928E-02 0.  1.
    10030    2    1    2    0    0  0.00000000000E+00  0.00000000000E+00 -0.14573958926E+03  0.71514347072E+03  0.70013581242E+03 0.  0.
        5    1    3    3  502    0  0.36189047952E+02 -0.28149369684E+03  0.13640508618E+03  0.31492346068E+03  0.46999998093E+01 0.  1.
       -5    1    3    3    0  502 -0.36189047952E+02  0.28149369684E+03 -0.28214467544E+03  0.40022001003E+03  0.46999998093E+01 0. -1.
</event>
<event>
 5   0  0.5113683E-03  0.6960040E+03  0.7818609E-02  0.9724090E-01
        2   -1    0    0  501    0  0.00000000000E+00  0.00000000000E+00  0.10928220272E+04  0.10928220272E+04  0.25500000920E-02 0.  1.
       -2   -1    0    0    0  501  0.00000000000E+00  0.00000000000E+00 -0.11081895824E+03  0.11081895827E+03  0.25500000920E-02 0. -1.
    10030    2    1    2    0    0  0.00000000000E+00  0.00000000000E+00  0.98200306891E+03  0.12036409854E+04  0.69600401899E+03 0.  0.
        3    1    3    3  502    0  0.82568703372E+02  0.34100201357E+02  0.10726551958E+04  0.10763687072E+04  0.10100000352E+00 0.  1.
       -3    1    3    3    0  502 -0.82568703372E+02 -0.34100201357E+02 -0.90652126869E+02  0.12727227827E+03  0.10100000352E+00 0. -1.
</event>
<event>
 5   0  0.2938783E-03  0.7006250E+03  0.7818609E-02  0.9716164E-01
        1   -1    0    0  501    0  0.00000000000E+00  0.00000000000E+00  0.48077478551E+03  0.48077478554E+03  0.50400001928E-02 0. -1.
       -1   -1    0    0    0  501  0.00000000000E+00  0.00000000000E+00 -0.25525228321E+03  0.25525228326E+03  0.50400001928E-02 0.  1.
    10030    2    1    2    0    0  0.00000000000E+00  0.00000000000E+00  0.22552250230E+03  0.73602706879E+03  0.70062504019E+03 0.  0.
        4    1    3    3  502    0  0.17656524069E+03 -0.22175676167E+03 -0.10346895727E+03  0.30175947970E+03  0.12699999809E+01 0.  1.
       -4    1    3    3    0  502 -0.17656524069E+03  0.22175676167E+03  0.32899145957E+03  0.43426758910E+03  0.12699999809E+01 0. -1.
</event>
<event>
 5   0  0.5113683E-03  0.7010080E+03  0.7818609E-02  0.9715510E-01
        2   -1    0    0  501    0  0.00000000000E+00  0.00000000000E+00  0.60626081824E+03  0.60626081825E+03  0.25500000920E-02 0. -1.
       -2   -1    0    0    0  501  0.00000000000E+00  0.00000000000E+00 -0.20264060142E+03  0.20264060143E+03  0.25500000920E-02 0.  1.
    10030    2    1    2    0    0  0.00000000000E+00  0.00000000000E+00  0.40362021683E+03  0.80890141968E+03  0.70100800804E+03 0.  0.
        3    1    3    3  502    0  0.23608356691E+03  0.17386323337E+03  0.42343680488E+03  0.51503651561E+03  0.10100000352E+00 0. -1.
       -3    1    3    3    0  502 -0.23608356691E+03 -0.17386323337E+03 -0.19816588057E+02  0.29386490407E+03  0.10100000352E+00 0.  1.
</event>
<event>
 5   0  0.2934483E-03  0.6975982E+03  0.7818609E-02  0.9721348E-01
        1   -1    0    0  501    0  0.00000000000E+00  0.00000000000E+00  0.11224890729E+03  0.11224890740E+03  0.50400001928E-02 0.  1.
       -1   -1    0    0    0  501  0.00000000000E+00  0.00000000000E+00 -0.10838484945E+04  0.10838484945E+04  0.50400001928E-02 0. -1.
    10030    2    1    2    0    0  0.00000000000E+00  0.00000000000E+00 -0.97159958724E+03  0.11960974019E+04  0.69759819166E+03 0.  0.
        5    1    3    3  502    0  0.91478701170E+02  0.31016766489E+03 -0.26180806323E+03  0.41609840793E+03  0.46999998093E+01 0.  1.
       -5    1    3    3    0  502 -0.91478701170E+02 -0.31016766489E+03 -0.70979152401E+03  0.77999899401E+03  0.46999998093E+01 0. -1.
</event>
<event>
 5   0  0.3013140E-03  0.6997287E+03  0.7818609E-02  0.9717696E-01
       -1   -1    0    0    0  501  0.00000000000E+00  0.00000000000E+00  0.15609830086E+03  0.15609830094E+03  0.50400001928E-02 0.  1.
        1   -1    0    0  501    0  0.00000000000E+00  0.00000000000E+00 -0.78415377902E+03  0.78415377904E+03  0.50400001928E-02 0. -1.
    10030    2    1    2    0    0  0.00000000000E+00  0.00000000000E+00 -0.62805547816E+03  0.94025207998E+03  0.69972872618E+03 0.  0.
        2    1    3    3  502    0 -0.88117423895E+02  0.33146836072E+03 -0.40682467440E+03  0.53211114465E+03  0.25500000920E-02 0. -1.
       -2    1    3    3    0  502  0.88117423895E+02 -0.33146836072E+03 -0.22123080376E+03  0.40814093533E+03  0.25500000920E-02 0.  1.
</event>
<event>
 5   0  0.5076796E-03  0.7005849E+03  0.7818609E-02  0.9716232E-01
        2   -1    0    0  501    0  0.00000000000E+00  0.00000000000E+00  0.11865535213E+04  0.11865535213E+04  0.25500000920E-02 0.  1.
       -2   -1    0    0    0  501  0.00000000000E+00  0.00000000000E+00 -0.10341279576E+03  0.10341279579E+03  0.25500000920E-02 0. -1.
    10030    2    1    2    0    0  0.00000000000E+00  0.00000000000E+00  0.10831407255E+04  0.12899663171E+04  0.70058494696E+03 0.  0.
        5    1    3    3  502    0  0.19015815191E+03 -0.15727007858E+03  0.99926117171E+03  0.10292905225E+04  0.46999998093E+01 0.  1.
       -5    1    3    3    0  502 -0.19015815191E+03  0.15727007858E+03  0.83879553836E+02  0.26067579463E+03  0.46999998093E+01 0. -1.
</event>
<event>
 5   0  0.2913582E-03  0.7001616E+03  0.7818609E-02  0.9716956E-01
       -1   -1    0    0    0  501  0.00000000000E+00  0.00000000000E+00  0.34986357330E+03  0.34986357334E+03  0.50400001928E-02 0.  1.
        1   -1    0    0  501    0  0.00000000000E+00  0.00000000000E+00 -0.35029815277E+03  0.35029815280E+03  0.50400001928E-02 0. -1.
    10030    2    1    2    0    0  0.00000000000E+00  0.00000000000E+00 -0.43457946839E+00  0.70016172614E+03  0.70016159127E+03 0.  0.
        1    1    3    3  502    0  0.28083427380E+03 -0.16374401834E+03  0.12969259082E+03  0.35000023003E+03  0.50400001928E-02 0. -1.
       -1    1    3    3    0  502 -0.28083427380E+03  0.16374401834E+03 -0.13012717029E+03  0.35016149611E+03  0.50400001928E-02 0.  1.
</event>
<event>
 5   0  0.2913582E-03  0.6994661E+03  0.7818609E-02  0.9718146E-01
       -1   -1    0    0    0  501  0.00000000000E+00  0.00000000000E+00  0.54411574174E+03  0.54411574176E+03  0.50400001928E-02 0. -1.
        1   -1    0    0  501    0  0.00000000000E+00  0.00000000000E+00 -0.22479259407E+03  0.22479259413E+03  0.50400001928E-02 0.  1.
    10030    2    1    2    0    0  0.00000000000E+00  0.00000000000E+00  0.31932314767E+03  0.76890833589E+03  0.69946605091E+03 0.  0.
        1    1    3    3  502    0  0.31863855672E+03  0.76461766289E+02  0.29400883749E+03  0.44024780304E+03  0.50400001928E-02 0. -1.
       -1    1    3    3    0  502 -0.31863855672E+03 -0.76461766289E+02  0.25314310177E+02  0.32866053286E+03  0.50400001928E-02 0.  1.
</event>
<event>
 5   0  0.5113683E-03  0.7058456E+03  0.7818609E-02  0.9707287E-01
        2   -1    0    0  501    0  0.00000000000E+00  0.00000000000E+00  0.95384092276E+02  0.95384092310E+02  0.25500000920E-02 0. -1.
       -2   -1    0    0    0  501  0.00000000000E+00  0.00000000000E+00 -0.13058205039E+04  0.13058205039E+04  0.25500000920E-02 0.  1.
    10030    2    1    2    0    0  0.00000000000E+00  0.00000000000E+00 -0.12104364116E+04  0.14012045962E+04  0.70584560199E+03 0.  0.
        3    1    3    3  502    0  0.15998175520E+03  0.27362566639E+03 -0.29710936198E+03  0.43444119335E+03  0.10100000352E+00 0. -1.
       -3    1    3    3    0  502 -0.15998175520E+03 -0.27362566639E+03 -0.91332704962E+03  0.96676340284E+03  0.10100000352E+00 0.  1.
</event>
<event>
 5   0  0.2938783E-03  0.6998208E+03  0.7818609E-02  0.9717539E-01
       -1   -1    0    0    0  501  0.00000000000E+00  0.00000000000E+00  0.23471274579E+03  0.23471274585E+03  0.50400001928E-02 0. -1.
        1   -1    0    0  501    0  0.00000000000E+00  0.00000000000E+00 -0.52164734429E+03  0.52164734431E+03  0.50400001928E-02 0.  1.
    10030    2    1    2    0    0  0.00000000000E+00  0.00000000000E+00 -0.28693459849E+03  0.75636009015E+03  0.69982077860E+03 0.  0.
        4    1    3    3  502    0 -0.22352211824E+03  0.12061692137E+03  0.11665352717E+03  0.27949997740E+03  0.12699999809E+01 0. -1.
       -4    1    3    3    0  502  0.22352211824E+03 -0.12061692137E+03 -0.40358812566E+03  0.47686011276E+03  0.12699999809E+01 0.  1.
</event>
<event>
 5   0  0.2913582E-03  0.6999503E+03  0.7818609E-02  0.9717317E-01
        1   -1    0    0  501    0  0.00000000000E+00  0.00000000000E+00  0.48060054947E+03  0.48060054949E+03  0.50400001928E-02 0.  1.
       -1   -1    0    0    0  501  0.00000000000E+00  0.00000000000E+00 -0.25485322668E+03  0.25485322673E+03  0.50400001928E-02 0. -1.
    10030    2    1    2    0    0  0.00000000000E+00  0.00000000000E+00  0.22574732279E+03  0.73545377622E+03  0.69995028625E+03 0.  0.
        1    1    3    3  502    0  0.23351977561E+03  0.21797311697E+03 -0.37342361845E+02  0.32161812345E+03  0.50400001928E-02 0.  1.
       -1    1    3    3    0  502 -0.23351977561E+03 -0.21797311697E+03  0.26308968463E+03  0.41383565277E+03  0.50400001928E-02 0. -1.
</event>
<event>
 5   0  0.5076796E-03  0.7031010E+03  0.7818609E-02  0.9711944E-01
        2   -1    0    0  501    0  0.00000000000E+00  0.00000000000E+00  0.19288445927E+04  0.19288445927E+04  0.25500000920E-02 0. -1.
       -2   -1    0    0    0  501  0.00000000000E+00  0.00000000000E+00 -0.64073457570E+02  0.64073457620E+02  0.25500000920E-02 0.  1.
    10030    2    1    2    0    0  0.00000000000E+00  0.00000000000E+00  0.18647711352E+04  0.19929180503E+04  0.70310096636E+03 0.  0.
        5    1    3    3  502    0 -0.62508577511E+02 -0.32683558846E+03  0.61124097911E+03  0.69596440188E+03  0.46999998093E+01 0.  1.
       -5    1    3    3    0  502  0.62508577511E+02  0.32683558846E+03  0.12535301560E+04  0.12969536485E+04  0.46999998093E+01 0. -1.
</event>
<event>
 5   0  0.2934483E-03  0.6999950E+03  0.7818609E-02  0.9717241E-01
        1   -1    0    0  501    0  0.00000000000E+00  0.00000000000E+00  0.50893431996E+03  0.50893431999E+03  0.50400001928E-02 0.  1.
       -1   -1    0    0    0  501  0.00000000000E+00  0.00000000000E+00 -0.24069560435E+03  0.24069560441E+03  0.50400001928E-02 0. -1.
    10030    2    1    2    0    0  0.00000000000E+00  0.00000000000E+00  0.26823871561E+03  0.74962992439E+03  0.69999501069E+03 0.  0.
        5    1    3    3  502    0 -0.27286987276E+03  0.17520201852E+03 -0.68278951400E+01  0.32438006243E+03  0.46999998093E+01 0. -1.
       -5    1    3    3    0  502  0.27286987276E+03 -0.17520201852E+03  0.27506661075E+03  0.42524986196E+03  0.46999998093E+01 0.  1.
</event>
<event>
 5   0  0.5113683E-03  0.7017555E+03  0.7818609E-02  0.9714235E-01
        2   -1    0    0  501    0  0.00000000000E+00  0.00000000000E+00  0.10749376130E+04  0.10749376130E+04  0.25500000920E-02 0.  1.
       -2   -1    0    0    0  501  0.00000000000E+00  0.00000000000E+00 -0.11453242097E+03  0.11453242100E+03  0.25500000920E-02 0. -1.
    10030    2    1    2    0    0  0.00000000000E+00  0.00000000000E+00  0.96040519199E+03  0.11894700340E+04  0.70175553357E+03 0.  0.
        3    1    3    3  502    0 -0.34025567654E+02 -0.19921333958E+03 -0.59721271249E+01  0.20218647438E+03  0.10100000352E+00 0. -1.
       -3    1    3    3    0  502  0.34025567654E+02  0.19921333958E+03  0.96637731911E+03  0.98728355958E+03  0.10100000352E+00 0.  1.
</event>
<event>
 5   0  0.3013140E-03  0.6996721E+03  0.7818609E-02  0.9717793E-01
        1   -1    0    0  501    0  0.00000000000E+00  0.00000000000E+00  0.55645049403E+03  0.55645049406E+03  0.50400001928E-02 0. -1.
       -1   -1    0    0    0  501  0.00000000000E+00  0.00000000000E+00 -0.21993916011E+03  0.21993916016E+03  0.50400001928E-02 0.  1.
    10030    2    1    2    0    0  0.00000000000E+00  0.00000000000E+00  0.33651133393E+03  0.77638965422E+03  0.69967207842E+03 0.  0.
        2    1    3    3  502    0 -0.22429992139E+03 -0.11998956453E+03  0.43474981241E+03  0.50370164753E+03  0.25500000920E-02 0.  1.
       -2    1    3    3    0  502  0.22429992139E+03  0.11998956453E+03 -0.98238478479E+02  0.27268800669E+03  0.25500000920E-02 0. -1.
</event>
<event>
 5   0  0.2938783E-03  0.7002969E+03  0.7818609E-02  0.9716725E-01
       -1   -1    0    0    0  501  0.00000000000E+00  0.00000000000E+00  0.28750225740E+03  0.28750225744E+03  0.50400001928E-02 0.  1.
        1   -1    0    0  501    0  0.00000000000E+00  0.00000000000E+00 -0.42644511427E+03  0.42644511430E+03  0.50400001928E-02 0. -1.
    10030    2    1    2    0    0  0.00000000000E+00  0.00000000000E+00 -0.13894285687E+03  0.71394737174E+03  0.70029688857E+03 0.  0.
        4    1    3    3  502    0  0.69640859516E+02  0.32711011576E+03 -0.17518174674E+03  0.37754620173E+03  0.12699999809E+01 0. -1.
       -4    1    3    3    0  502 -0.69640859516E+02 -0.32711011576E+03  0.36238889874E+02  0.33640117001E+03  0.12699999809E+01 0.  1.
</event>
<event>
 5   0  0.2913582E-03  0.7017908E+03  0.7818609E-02  0.9714175E-01
        1   -1    0    0  501    0  0.00000000000E+00  0.00000000000E+00  0.97826792139E+03  0.97826792140E+03  0.50400001928E-02 0. -1.
       -1   -1    0    0    0  501  0.00000000000E+00  0.00000000000E+00 -0.12586284041E+03  0.12586284052E+03  0.50400001928E-02 0.  1.
    10030    2    1    2    0    0  0.00000000000E+00  0.00000000000E+00  0.85240508098E+03  0.11041307619E+04  0.70179079314E+03 0.  0.
        1    1    3    3  502    0  0.24909764889E+03 -0.20824317822E+03  0.63559231261E+03  0.71371734449E+03  0.50400001928E-02 0. -1.
       -1    1    3    3    0  502 -0.24909764889E+03  0.20824317822E+03  0.21681276837E+03  0.39041341743E+03  0.50400001928E-02 0.  1.
</event>
<event>
 5   0  0.2938783E-03  0.6976086E+03  0.7818609E-02  0.9721331E-01
        1   -1    0    0  501    0  0.00000000000E+00  0.00000000000E+00  0.74060704942E+03  0.74060704944E+03  0.50400001928E-02 0. -1.
       -1   -1    0    0    0  501  0.00000000000E+00  0.00000000000E+00 -0.16427664374E+03  0.16427664381E+03  0.50400001928E-02 0.  1.
    10030    2    1    2    0    0  0.00000000000E+00  0.00000000000E+00  0.57633040569E+03  0.90488369326E+03  0.69760860215E+03 0.  0.
        4    1    3    3  502    0  0.13285748659E+03  0.14506507548E+03  0.66179011485E+03  0.69040767441E+03  0.12699999809E+01 0. -1.
       -4    1    3    3    0  502 -0.13285748659E+03 -0.14506507548E+03 -0.85459709167E+02  0.21447601884E+03  0.12699999809E+01 0.  1.
</event>
<event>
 5   0  0.5023894E-03  0.6991985E+03  0.7818609E-02  0.9718604E-01
       -2   -1    0    0    0  501  0.00000000000E+00  0.00000000000E+00  0.63015982738E+02  0.63015982790E+02  0.25500000920E-02 0. -1.
        2   -1    0    0  501    0  0.00000000000E+00  0.00000000000E+00 -0.19395021984E+04  0.19395021984E+04  0.25500000920E-02 0.  1.
    10030    2    1    2    0    0  0.00000000000E+00  0.00000000000E+00 -0.18764862156E+04  0.20025181812E+04  0.69919850431E+03 0.  0.
        2    1    3    3  502    0  0.23958862122E+03  0.24488440527E+03 -0.11376693304E+04  0.11881340769E+04  0.25500000920E-02 0. -1.
       -2    1    3    3    0  502 -0.23958862122E+03 -0.24488440527E+03 -0.73881688529E+03  0.81438410431E+03  0.25500000920E-02 0.  1.
</event>
<event>
 5   0  0.5072407E-03  0.6995297E+03  0.7818609E-02  0.9718037E-01
       -2   -1    0    0    0  501  0.00000000000E+00  0.00000000000E+00  0.92606886200E+02  0.92606886235E+02  0.25500000920E-02 0. -1.
        2   -1    0    0  501    0  0.00000000000E+00  0.00000000000E+00 -0.13210187736E+04  0.13210187736E+04  0.25500000920E-02 0.  1.
    10030    2    1    2    0    0  0.00000000000E+00  0.00000000000E+00 -0.12284118874E+04  0.14136256598E+04  0.69952965701E+03 0.  0.
        1    1    3    3  502    0 -0.25765273158E+03 -0.16179126142E+03 -0.96290241922E+03  0.10098229604E+04  0.50400001928E-02 0.  1.
       -1    1    3    3    0  502  0.25765273158E+03  0.16179126142E+03 -0.26550946817E+03  0.40380269944E+03  0.50400001928E-02 0. -1.
</event>
<event>
 5   0  0.5113683E-03  0.7059161E+03  0.7818609E-02  0.9707168E-01
        2   -1    0    0  501    0  0.00000000000E+00  0.00000000000E+00  0.27312828476E+03  0.27312828478E+03  0.25500000920E-02 0.  1.
       -2   -1    0    0    0  501  0.00000000000E+00  0.00000000000E+00 -0.45612042137E+03  0.45612042137E+03  0.25500000920E-02 0. -1.
    10030    2    1    2    0    0  0.00000000000E+00  0.00000000000E+00 -0.18299213660E+03  0.72924870615E+03  0.70591610930E+03 0.  0.
        3    1    3    3  502    0  0.46414774338E+02  0.24198003386E+03  0.16958383711E+03  0.29911094275E+03  0.10100000352E+00 0.  1.
       -3    1    3    3    0  502 -0.46414774338E+02 -0.24198003386E+03 -0.35257597371E+03  0.43013776340E+03  0.10100000352E+00 0. -1.
</event>
<event>
 5   0  0.5072407E-03  0.6977525E+03  0.7818609E-02  0.9721083E-01
        2   -1    0    0  501    0  0.00000000000E+00  0.00000000000E+00  0.15090765586E+04  0.15090765586E+04  0.25500000920E-02 0.  1.
       -2   -1    0    0    0  501  0.00000000000E+00  0.00000000000E+00 -0.80655040868E+02  0.80655040908E+02  0.25500000920E-02 0. -1.
    10030    2    1    2    0    0  0.00000000000E+00  0.00000000000E+00  0.14284215178E+04  0.15897315995E+04  0.69775248202E+03 0.  0.
        1    1    3    3  502    0 -0.69807048701E+02 -0.20427583182E+03  0.13386352776E+04  0.13559299561E+04  0.50400001928E-02 0.  1.
       -1    1    3    3    0  502  0.69807048701E+02  0.20427583182E+03  0.89786240196E+02  0.23380164343E+03  0.50400001928E-02 0. -1.
</event>
<event>
 5   0  0.4878235E-03  0.7012727E+03  0.7818609E-02  0.9715058E-01
        2   -1    0    0  501    0  0.00000000000E+00  0.00000000000E+00  0.40583571275E+03  0.40583571275E+03  0.25500000920E-02 0. -1.
       -2   -1    0    0    0  501  0.00000000000E+00  0.00000000000E+00 -0.30294487439E+03  0.30294487440E+03  0.25500000920E-02 0.  1.
    10030    2    1    2    0    0  0.00000000000E+00  0.00000000000E+00  0.10289083836E+03  0.70878058715E+03  0.70127269739E+03 0.  0.
        4    1    3    3  502    0  0.32641736644E+03 -0.81890946042E+02 -0.48045297236E+02  0.33994762485E+03  0.12699999809E+01 0.  1.
       -4    1    3    3    0  502 -0.32641736644E+03  0.81890946042E+02  0.15093613559E+03  0.36883296230E+03  0.12699999809E+01 0. -1.
</event>
<event>
 5   0  0.2937617E-03  0.6991562E+03  0.7818609E-02  0.9718676E-01
       -1   -1    0    0    0  501  0.00000000000E+00  0.00000000000E+00  0.95397516369E+02  0.95397516502E+02  0.50400001928E-02 0. -1.
        1   -1    0    0  501    0  0.00000000000E+00  0.00000000000E+00 -0.12810067536E+04  0.12810067536E+04  0.50400001928E-02 0.  1.
    10030    2    1    2    0    0  0.00000000000E+00  0.00000000000E+00 -0.11856092372E+04  0.13764042701E+04  0.69915624245E+03 0.  0.
        3    1    3    3  502    0  0.24615536770E+02  0.32413836651E+03 -0.33967040218E+03  0.47015699252E+03  0.10100000352E+00 0. -1.
       -3    1    3    3    0  502 -0.24615536770E+02 -0.32413836651E+03 -0.84593883502E+03  0.90624727756E+03  0.10100000352E+00 0.  1.
</event>
<event>
 5   0  0.2913582E-03  0.6998566E+03  0.7818609E-02  0.9717477E-01
       -1   -1    0    0    0  501  0.00000000000E+00  0.00000000000E+00  0.75347717329E+03  0.75347717331E+03  0.50400001928E-02 0.  1.
        1   -1    0    0  501    0  0.00000000000E+00  0.00000000000E+00 -0.16251296102E+03  0.16251296110E+03  0.50400001928E-02 0. -1.
    10030    2    1    2    0    0  0.00000000000E+00  0.00000000000E+00  0.59096421227E+03  0.91599013441E+03  0.69985657541E+03 0.  0.
        1    1    3    3  502    0 -0.50555503939E+02 -0.75684888981E+02 -0.14674937613E+03  0.17268306466E+03  0.50400001928E-02 0. -1.
       -1    1    3    3    0  502  0.50555503939E+02  0.75684888981E+02  0.73771358840E+03  0.74330706975E+03  0.50400001928E-02 0.  1.
</event>
<event>
 5   0  0.2934483E-03  0.6995212E+03  0.7818609E-02  0.9718051E-01
        1   -1    0    0  501    0  0.00000000000E+00  0.00000000000E+00  0.14897574467E+04  0.14897574467E+04  0.50400001928E-02 0.  1.
       -1   -1    0    0    0  501  0.00000000000E+00  0.00000000000E+00 -0.82115698132E+02  0.82115698286E+02  0.50400001928E-02 0. -1.
    10030    2    1    2    0    0  0.00000000000E+00  0.00000000000E+00  0.14076417485E+04  0.15718731450E+04  0.69952118741E+03 0.  0.
        5    1    3    3  502    0 -0.34145923568E+03  0.74000693781E+02  0.66901879975E+03  0.75477066498E+03  0.46999998093E+01 0.  1.
       -5    1    3    3    0  502  0.34145923568E+03 -0.74000693781E+02  0.73862294879E+03  0.81710247998E+03  0.46999998093E+01 0. -1.
</event>
<event>
 5   0  0.2913582E-03  0.6981182E+03  0.7818609E-02  0.9720456E-01
       -1   -1    0    0    0  501  0.00000000000E+00  0.00000000000E+00  0.33471934379E+03  0.33471934383E+03  0.50400001928E-02 0.  1.
        1   -1    0    0  501    0  0.00000000000E+00  0.00000000000E+00 -0.36401317690E+03  0.36401317693E+03  0.50400001928E-02 0. -1.
    10030    2    1    2    0    0  0.00000000000E+00  0.00000000000E+00 -0.29293833103E+02  0.69873252076E+03  0.69811818979E+03 0.  0.
        1    1    3    3  502    0 -0.22181203672E+03 -0.26874198738E+03  0.58507605894E+01  0.34850691075E+03  0.50400001928E-02 0.  1.
       -1    1    3    3    0  502  0.22181203672E+03  0.26874198738E+03 -0.35144593693E+02  0.35022561001E+03  0.50400001928E-02 0. -1.
</event>
<event>
 5   0  0.2938783E-03  0.7006610E+03  0.7818609E-02  0.9716102E-01
       -1   -1    0    0    0  501  0.00000000000E+00  0.00000000000E+00  0.16012282630E+03  0.16012282638E+03  0.50400001928E-02 0.  1.
        1   -1    0    0  501    0  0.00000000000E+00  0.00000000000E+00 -0.76648324103E+03  0.76648324104E+03  0.50400001928E-02 0. -1.
    10030    2    1    2    0    0  0.00000000000E+00  0.00000000000E+00 -0.60636041473E+03  0.92660606743E+03  0.70066101051E+03 0.  0.
        4    1    3    3  502    0 -0.12427917620E+03  0.11985489326E+02  0.12969708264E+03  0.18003308511E+03  0.12699999809E+01 0.  1.
       -4    1    3    3    0  502  0.12427917620E+03 -0.11985489326E+02 -0.73605749736E+03  0.74657298231E+03  0.12699999809E+01 0. -1.
</event>
<event>
 5   0  0.2937617E-03  0.7014228E+03  0.7818609E-02  0.9714802E-01
        1   -1    0    0  501    0  0.00000000000E+00  0.00000000000E+00  0.63136304152E+03  0.63136304154E+03  0.50400001928E-02 0.  1.
       -1   -1    0    0    0  501  0.00000000000E+00  0.00000000000E+00 -0.19481417972E+03  0.19481417978E+03  0.50400001928E-02 0. -1.
    10030    2    1    2    0    0  0.00000000000E+00  0.00000000000E+00  0.43654886180E+03  0.82617722132E+03  0.70142276288E+03 0.  0.
        3    1    3    3  502    0  0.21685607874E+03 -0.13904137182E+03 -0.62044666827E+02  0.26496907904E+03  0.10100000352E+00 0. -1.
       -3    1    3    3    0  502 -0.21685607874E+03  0.13904137182E+03  0.49859352863E+03  0.56120814227E+03  0.10100000352E+00 0.  1.
</event>
<event>
 5   0  0.4878235E-03  0.7004908E+03  0.7818609E-02  0.9716393E-01
       -2   -1    0    0    0  501  0.00000000000E+00  0.00000000000E+00  0.29440128107E+03  0.29440128108E+03  0.25500000920E-02 0.  1.
        2   -1    0    0  501    0  0.00000000000E+00  0.00000000000E+00 -0.41668246686E+03  0.41668246687E+03  0.25500000920E-02 0. -1.
    10030    2    1    2    0    0  0.00000000000E+00  0.00000000000E+00 -0.12228118579E+03  0.71108374794E+03  0.70049083377E+03 0.  0.
        4    1    3    3  502    0  0.12722609914E+03 -0.61124725159E+02  0.26424924427E+03  0.29958636205E+03  0.12699999809E+01 0.  1.
       -4    1    3    3    0  502 -0.12722609914E+03  0.61124725159E+02 -0.38653043006E+03  0.41149738589E+03  0.12699999809E+01 0. -1.
</event>
<event>
 5   0  0.3013140E-03  0.6985960E+03  0.7818609E-02  0.9719636E-01
       -1   -1    0    0    0  501  0.00000000000E+00  0.00000000000E+00  0.13426541761E+04  0.13426541761E+04  0.50400001928E-02 0. -1.
        1   -1    0    0  501    0  0.00000000000E+00  0.00000000000E+00 -0.90871582383E+02  0.90871582523E+02  0.50400001928E-02 0.  1.
    10030    2    1    2    0    0  0.00000000000E+00  0.00000000000E+00  0.12517825937E+04  0.14335257586E+04  0.69859604832E+03 0.  0.
        2    1    3    3  502    0  0.99552058108E+02 -0.19873560567E+03  0.72979785255E+02  0.23394978585E+03  0.25500000920E-02 0.  1.
       -2    1    3    3    0  502 -0.99552058108E+02  0.19873560567E+03  0.11788028085E+04  0.11995759728E+04  0.25500000920E-02 0. -1.
</event>
<event>
 5   0  0.2937617E-03  0.7140096E+03  0.7818609E-02  0.9693569E-01
        1   -1    0    0  501    0  0.00000000000E+00  0.00000000000E+00  0.25381781809E+03  0.25381781814E+03  0.50400001928E-02 0.  1.
       -1   -1    0    0    0  501  0.00000000000E+00  0.00000000000E+00 -0.50214131434E+03  0.50214131436E+03  0.50400001928E-02 0. -1.
    10030    2    1    2    0    0  0.00000000000E+00  0.00000000000E+00 -0.24832349624E+03  0.75595913251E+03  0.71400955962E+03 0.  0.
        3    1    3    3  502    0  0.29640505212E+03 -0.18648683944E+03 -0.50663404967E+02  0.35383624321E+03  0.10100000352E+00 0.  1.
       -3    1    3    3    0  502 -0.29640505212E+03  0.18648683944E+03 -0.19766009127E+03  0.40212288929E+03  0.10100000352E+00 0. -1.
</event>
<event>
 5   0  0.5076796E-03  0.6999670E+03  0.7818609E-02  0.9717289E-01
        2   -1    0    0  501    0  0.00000000000E+00  0.00000000000E+00  0.26911356670E+03  0.26911356672E+03  0.25500000920E-02 0.  1.
       -2   -1    0    0    0  501  0.00000000000E+00  0.00000000000E+00 -0.45515525510E+03  0.45515525511E+03  0.25500000920E-02 0. -1.
    10030    2    1    2    0    0  0.00000000000E+00  0.00000000000E+00 -0.18604168840E+03  0.72426882182E+03  0.69996701097E+03 0.  0.
        5    1    3    3  502    0  0.11372885838E+03 -0.72664350786E+02 -0.42711157129E+03  0.44795172221E+03  0.46999998093E+01 0. -1.
       -5    1    3    3    0  502 -0.11372885838E+03  0.72664350786E+02  0.24106988289E+03  0.27631709961E+03  0.46999998093E+01 0.  1.
</event>
<event>
 5   0  0.3013140E-03  0.7084380E+03  0.7818609E-02  0.9702910E-01
       -1   -1    0    0    0  501  0.00000000000E+00  0.00000000000E+00  0.36935520677E+03  0.36935520680E+03  0.50400001928E-02 0. -1.
        1   -1    0    0  501    0  0.00000000000E+00  0.00000000000E+00 -0.33970311553E+03  0.33970311556E+03  0.50400001928E-02 0.  1.
    10030    2    1    2    0    0  0.00000000000E+00  0.00000000000E+00  0.29652091244E+02  0.70905832237E+03  0.70843804105E+03 0.  0.
        2    1    3    3  502    0  0.33538756880E+03 -0.11378607204E+03  0.21078354310E+02  0.35479062632E+03  0.25500000920E-02 0. -1.
       -2    1    3    3    0  502 -0.33538756880E+03  0.11378607204E+03  0.85737369343E+01  0.35426769605E+03  0.25500000920E-02 0.  1.
</event>
<event>
 5   0  0.2937617E-03  0.7013381E+03  0.7818609E-02  0.9714947E-01
       -1   -1    0    0    0  501  0.00000000000E+00  0.00000000000E+00  0.27101638217E+03  0.27101638222E+03  0.50400001928E-02 0.  1.
        1   -1    0    0  501    0  0.00000000000E+00  0.00000000000E+00 -0.45373191027E+03  0.45373191029E+03  0.50400001928E-02 0. -1.
    10030    2    1    2    0    0  0.00000000000E+00  0.00000000000E+00 -0.18271552810E+03  0.72474829251E+03  0.70133809485E+03 0.  0.
        3    1    3    3  502    0 -0.91490059282E+02  0.29672207148E+03  0.77036628358E+02  0.31992041348E+03  0.10100000352E+00 0.  1.
       -3    1    3    3    0  502  0.91490059282E+02 -0.29672207148E+03 -0.25975215646E+03  0.40482787903E+03  0.10100000352E+00 0. -1.
</event>
<event>
 5   0  0.2934483E-03  0.6992614E+03  0.7818609E-02  0.9718496E-01
       -1   -1    0    0    0  501  0.00000000000E+00  0.00000000000E+00  0.31071511719E+03  0.31071511723E+03  0.50400001928E-02 0.  1.
        1   -1    0    0  501    0  0.00000000000E+00  0.00000000000E+00 -0.39342025484E+03  0.39342025487E+03  0.50400001928E-02 0. -1.
    10030    2    1    2    0    0  0.00000000000E+00  0.00000000000E+00 -0.82705137649E+02  0.70413537210E+03  0.69926138350E+03 0.  0.
        5    1    3    3  502    0  0.24820894412E+03  0.24489548494E+03 -0.66788327580E+02  0.35505527624E+03  0.46999998093E+01 0. -1.
       -5    1    3    3    0  502 -0.24820894412E+03 -0.24489548494E+03 -0.15916810069E+02  0.34908009586E+03  0.46999998093E+01 0.  1.
</event>
<event>
 5   0  0.5023894E-03  0.6999865E+03  0.7818609E-02  0.9717255E-01
        2   -1    0    0  501    0  0.00000000000E+00  0.00000000000E+00  0.15577359775E+04  0.15577359775E+04  0.25500000920E-02 0.  1.
       -2   -1    0    0    0  501  0.00000000000E+00  0.00000000000E+00 -0.78636737394E+02  0.78636737435E+02  0.25500000920E-02 0. -1.
    10030    2    1    2    0    0  0.00000000000E+00  0.00000000000E+00  0.14790992402E+04  0.16363727150E+04  0.69998649996E+03 0.  0.
        2    1    3    3  502    0  0.10495279168E+03  0.79573254825E+02 -0.18493061448E+02  0.13299994245E+03  0.25500000920E-02 0. -1.
       -2    1    3    3    0  502 -0.10495279168E+03 -0.79573254825E+02  0.14975923016E+04  0.15033727725E+04  0.25500000920E-02 0.  1.
</event>
<event>
 5   0  0.5023894E-03  0.7015885E+03  0.7818609E-02  0.9714520E-01
       -2   -1    0    0    0  501  0.00000000000E+00  0.00000000000E+00  0.62583858012E+03  0.62583858013E+03  0.25500000920E-02 0. -1.
        2   -1    0    0  501    0  0.00000000000E+00  0.00000000000E+00 -0.19662674506E+03  0.19662674507E+03  0.25500000920E-02 0.  1.
    10030    2    1    2    0    0  0.00000000000E+00  0.00000000000E+00  0.42921183507E+03  0.82246532520E+03  0.70158849178E+03 0.  0.
        2    1    3    3  502    0 -0.20677596123E+03 -0.87590357263E+02 -0.10132191147E+03  0.24636253485E+03  0.25500000920E-02 0.  1.
       -2    1    3    3    0  502  0.20677596123E+03  0.87590357263E+02  0.53053374654E+03  0.57610279035E+03  0.25500000920E-02 0. -1.
</event>
<event>
 5   0  0.5076796E-03  0.7007053E+03  0.7818609E-02  0.9716027E-01
       -2   -1    0    0    0  501  0.00000000000E+00  0.00000000000E+00  0.16097101071E+03  0.16097101073E+03  0.25500000920E-02 0.  1.
        2   -1    0    0  501    0  0.00000000000E+00  0.00000000000E+00 -0.76254084389E+03  0.76254084390E+03  0.25500000920E-02 0. -1.
    10030    2    1    2    0    0  0.00000000000E+00  0.00000000000E+00 -0.60156983319E+03  0.92351185462E+03  0.70070527430E+03 0.  0.
        5    1    3    3  502    0 -0.31413275952E+03 -0.37250837701E+02 -0.49917345555E+03  0.59098497802E+03  0.46999998093E+01 0. -1.
       -5    1    3    3    0  502  0.31413275952E+03  0.37250837701E+02 -0.10239637763E+03  0.33252687661E+03  0.46999998093E+01 0.  1.
</event>
<event>
 5   0  0.4878235E-03  0.6994899E+03  0.7818609E-02  0.9718105E-01
       -2   -1    0    0    0  501  0.00000000000E+00  0.00000000000E+00  0.33954335603E+03  0.33954335604E+03  0.25500000920E-02 0.  1.
        2   -1    0    0  501    0  0.00000000000E+00  0.00000000000E+00 -0.36025299980E+03  0.36025299980E+03  0.25500000920E-02 0. -1.
    10030    2    1    2    0    0  0.00000000000E+00  0.00000000000E+00 -0.20709643770E+02  0.69979635584E+03  0.69948985003E+03 0.  0.
        4    1    3    3  502    0 -0.17313522645E+03 -0.54807670301E+01  0.29361059257E+03  0.34090268173E+03  0.12699999809E+01 0.  1.
       -4    1    3    3    0  502  0.17313522645E+03  0.54807670301E+01 -0.31432023633E+03  0.35889367411E+03  0.12699999809E+01 0. -1.
</event>
<event>
 5   0  0.2913582E-03  0.6985950E+03  0.7818609E-02  0.9719638E-01
        1   -1    0    0  501    0  0.00000000000E+00  0.00000000000E+00  0.25150676154E+03  0.25150676159E+03  0.50400001928E-02 0. -1.
       -1   -1    0    0    0  501  0.00000000000E+00  0.00000000000E+00 -0.48511121301E+03  0.48511121303E+03  0.50400001928E-02 0.  1.
    10030    2    1    2    0    0  0.00000000000E+00  0.00000000000E+00 -0.23360445146E+03  0.73661797462E+03  0.69859501916E+03 0.  0.
        1    1    3    3  502    0  0.21996809704E+03  0.27066555790E+03 -0.96714277805E+02  0.36193847476E+03  0.50400001928E-02 0.  1.
       -1    1    3    3    0  502 -0.21996809704E+03 -0.27066555790E+03 -0.13689017366E+03  0.37467949987E+03  0.50400001928E-02 0. -1.
</event>
<event>
 5   0  0.4878235E-03  0.7013753E+03  0.7818609E-02  0.9714883E-01
        2   -1    0    0  501    0  0.00000000000E+00  0.00000000000E+00  0.10960506574E+03  0.10960506577E+03  0.25500000920E-02 0.  1.
       -2   -1    0    0    0  501  0.00000000000E+00  0.00000000000E+00 -0.11220449933E+04  0.11220449933E+04  0.25500000920E-02 0. -1.
    10030    2    1    2    0    0  0.00000000000E+00  0.00000000000E+00 -0.10124399275E+04  0.12316500591E+04  0.70137526411E+03 0.  0.
        4    1    3    3  502    0 -0.47518145264E+02  0.27416023707E+03 -0.13140140758E+03  0.30771700072E+03  0.12699999809E+01 0.  1.
       -4    1    3    3    0  502  0.47518145264E+02 -0.27416023707E+03 -0.88103851997E+03  0.92393305834E+03  0.12699999809E+01 0. -1.
</event>
<event>
 5   0  0.2938783E-03  0.6981715E+03  0.7818609E-02  0.9720364E-01
       -1   -1    0    0    0  501  0.00000000000E+00  0.00000000000E+00  0.48769778240E+03  0.48769778243E+03  0.50400001928E-02 0. -1.
        1   -1    0    0  501    0  0.00000000000E+00  0.00000000000E+00 -0.24986959024E+03  0.24986959029E+03  0.50400001928E-02 0.  1.
    10030    2    1    2    0    0  0.00000000000E+00  0.00000000000E+00  0.23782819216E+03  0.73756737271E+03  0.69817145480E+03 0.  0.
        4    1    3    3  502    0  0.32197868494E+03  0.12378744157E+03  0.17546629667E+03  0.38701891222E+03  0.12699999809E+01 0. -1.
       -4    1    3    3    0  502 -0.32197868494E+03 -0.12378744157E+03  0.62361895498E+02  0.35054846050E+03  0.12699999809E+01 0.  1.
</event>
<event>
 5   0  0.5072407E-03  0.7001804E+03  0.7818609E-02  0.9716924E-01
        2   -1    0    0  501    0  0.00000000000E+00  0.00000000000E+00  0.14598402903E+04  0.14598402903E+04  0.25500000920E-02 0. -1.
       -2   -1    0    0    0  501  0.00000000000E+00  0.00000000000E+00 -0.83956541161E+02  0.83956541200E+02  0.25500000920E-02 0.  1.
    10030    2    1    2    0    0  0.00000000000E+00  0.00000000000E+00  0.13758837491E+04  0.15437968315E+04  0.70018038091E+03 0.  0.
        1    1    3    3  502    0  0.47127747959E+02  0.34657170142E+03  0.65449103729E+03  0.74208590256E+03  0.50400001928E-02 0.  1.
       -1    1    3    3    0  502 -0.47127747959E+02 -0.34657170142E+03  0.72139271184E+03  0.80171092894E+03  0.50400001928E-02 0. -1.
</event>
<event>
 5   0  0.2937617E-03  0.7004085E+03  0.7818609E-02  0.9716534E-01
        1   -1    0    0  501    0  0.00000000000E+00  0.00000000000E+00  0.19914579549E+03  0.19914579556E+03  0.50400001928E-02 0.  1.
       -1   -1    0    0    0  501  0.00000000000E+00  0.00000000000E+00 -0.61584542655E+03  0.61584542657E+03  0.50400001928E-02 0. -1.
    10030    2    1    2    0    0  0.00000000000E+00  0.00000000000E+00 -0.41669963105E+03  0.81499122212E+03  0.70040853051E+03 0.  0.
        3    1    3    3  502    0  0.25133955824E+03 -0.14422876136E+03 -0.43716551976E+03  0.52448756993E+03  0.10100000352E+00 0. -1.
       -3    1    3    3    0  502 -0.25133955824E+03  0.14422876136E+03  0.20465888705E+02  0.29050365220E+03  0.10100000352E+00 0.  1.
</event>
<event>
 5   0  0.5113683E-03  0.7010373E+03  0.7818609E-02  0.9715460E-01
       -2   -1    0    0    0  501  0.00000000000E+00  0.00000000000E+00  0.28840429831E+03  0.28840429833E+03  0.25500000920E-02 0. -1.
        2   -1    0    0  501    0  0.00000000000E+00  0.00000000000E+00 -0.42601070527E+03  0.42601070528E+03  0.25500000920E-02 0.  1.
    10030    2    1    2    0    0  0.00000000000E+00  0.00000000000E+00 -0.13760640696E+03  0.71441500360E+03  0.70103728441E+03 0.  0.
        3    1    3    3  502    0  0.14316438502E+03  0.32077054635E+02  0.25560835652E+03  0.29472125932E+03  0.10100000352E+00 0. -1.
       -3    1    3    3    0  502 -0.14316438502E+03 -0.32077054635E+02 -0.39321476348E+03  0.41969374428E+03  0.10100000352E+00 0.  1.
</event>
<event>
 5   0  0.2934483E-03  0.7004648E+03  0.7818609E-02  0.9716438E-01
       -1   -1    0    0    0  501  0.00000000000E+00  0.00000000000E+00  0.16841817358E+03  0.16841817365E+03  0.50400001928E-02 0. -1.
        1   -1    0    0  501    0  0.00000000000E+00  0.00000000000E+00 -0.72832242681E+03  0.72832242683E+03  0.50400001928E-02 0.  1.
    10030    2    1    2    0    0  0.00000000000E+00  0.00000000000E+00 -0.55990425324E+03  0.89674060048E+03  0.70046479694E+03 0.  0.
        5    1    3    3  502    0  0.28032351624E+03  0.18332836130E+03 -0.41082220129E+03  0.53008257176E+03  0.46999998093E+01 0.  1.
       -5    1    3    3    0  502 -0.28032351624E+03 -0.18332836130E+03 -0.14908205195E+03  0.36665802872E+03  0.46999998093E+01 0. -1.
</event>
<event>
 5   0  0.5072407E-03  0.7002568E+03  0.7818609E-02  0.9716793E-01
        2   -1    0    0  501    0  0.00000000000E+00  0.00000000000E+00  0.13326861181E+04  0.13326861181E+04  0.25500000920E-02 0. -1.
       -2   -1    0    0    0  501  0.00000000000E+00  0.00000000000E+00 -0.91987086623E+02  0.91987086658E+02  0.25500000920E-02 0.  1.
    10030    2    1    2    0    0  0.00000000000E+00  0.00000000000E+00  0.12406990315E+04  0.14246732048E+04  0.70025684835E+03 0.  0.
        1    1    3    3  502    0  0.30269873758E+02 -0.13140833895E+01 -0.89314973791E+02  0.94314138077E+02  0.50400001928E-02 0.  1.
       -1    1    3    3    0  502 -0.30269873758E+02  0.13140833895E+01  0.13300140053E+04  0.13303590667E+04  0.50400001928E-02 0. -1.
</event>
<event>
 5   0  0.5113683E-03  0.6993242E+03  0.7818609E-02  0.9718389E-01
       -2   -1    0    0    0  501  0.00000000000E+00  0.00000000000E+00  0.12329590623E+03  0.12329590626E+03  0.25500000920E-02 0.  1.
        2   -1    0    0  501    0  0.00000000000E+00  0.00000000000E+00 -0.99162729303E+03  0.99162729303E+03  0.25500000920E-02 0. -1.
    10030    2    1    2    0    0  0.00000000000E+00  0.00000000000E+00 -0.86833138679E+03  0.11149231993E+04  0.69932420452E+03 0.  0.
        3    1    3    3  502    0 -0.61920771366E+02 -0.36548894262E+02  0.11138224578E+03  0.13257457703E+03  0.10100000352E+00 0.  1.
       -3    1    3    3    0  502  0.61920771366E+02  0.36548894262E+02 -0.97971363258E+03  0.98234862226E+03  0.10100000352E+00 0. -1.
</event>
<event>
 5   0  0.2934483E-03  0.7040564E+03  0.7818609E-02  0.9710320E-01
       -1   -1    0    0    0  501  0.00000000000E+00  0.00000000000E+00  0.13220571310E+03  0.13220571319E+03  0.50400001928E-02 0. -1.
        1   -1    0    0  501    0  0.00000000000E+00  0.00000000000E+00 -0.93735617977E+03  0.93735617978E+03  0.50400001928E-02 0.  1.
    10030    2    1    2    0    0  0.00000000000E+00  0.00000000000E+00 -0.80515046667E+03  0.10695618930E+04  0.70405636771E+03 0.  0.
        5    1    3    3  502    0  0.21844271688E+03 -0.20169963602E+03 -0.11633966013E+03  0.31930701566E+03  0.46999998093E+01 0. -1.
       -5    1    3    3    0  502 -0.21844271688E+03  0.20169963602E+03 -0.68881080654E+03  0.75025487732E+03  0.46999998093E+01 0.  1.
</event>
<event>
 5   0  0.2938783E-03  0.7028229E+03  0.7818609E-02  0.9712417E-01
        1   -1    0    0  501    0  0.00000000000E+00  0.00000000000E+00  0.10871090267E+04  0.10871090267E+04  0.50400001928E-02 0. -1.
       -1   -1    0    0    0  501  0.00000000000E+00  0.00000000000E+00 -0.11359488262E+03  0.11359488273E+03  0.50400001928E-02 0.  1.
    10030    2    1    2    0    0  0.00000000000E+00  0.00000000000E+00  0.97351414410E+03  0.12007039095E+04  0.70282294316E+03 0.  0.
        4    1    3    3  502    0 -0.37975580511E+00 -0.26724108848E+03  0.96917675561E+02  0.28427555703E+03  0.12699999809E+01 0.  1.
       -4    1    3    3    0  502  0.37975580511E+00  0.26724108848E+03  0.87659646854E+03  0.91642835243E+03  0.12699999809E+01 0. -1.
</event>
<event>
 5   0  0.3013140E-03  0.7029607E+03  0.7818609E-02  0.9712182E-01
        1   -1    0    0  501    0  0.00000000000E+00  0.00000000000E+00  0.12870409763E+04  0.12870409763E+04  0.50400001928E-02 0.  1.
       -1   -1    0    0    0  501  0.00000000000E+00  0.00000000000E+00 -0.95986416101E+02  0.95986416233E+02  0.50400001928E-02 0. -1.
    10030    2    1    2    0    0  0.00000000000E+00  0.00000000000E+00  0.11910545602E+04  0.13830273925E+04  0.70296074082E+03 0.  0.
        2    1    3    3  502    0 -0.17986283499E+03  0.30151276785E+03  0.62832279394E+03  0.71975698814E+03  0.25500000920E-02 0. -1.
       -2    1    3    3    0  502  0.17986283499E+03 -0.30151276785E+03  0.56273176622E+03  0.66327040436E+03  0.25500000920E-02 0.  1.
</event>
<event>
 5   0  0.4878235E-03  0.6999581E+03  0.7818609E-02  0.9717304E-01
       -2   -1    0    0    0  501  0.00000000000E+00  0.00000000000E+00  0.46463383330E+03  0.46463383330E+03  0.25500000920E-02 0.  1.
        2   -1    0    0  501    0  0.00000000000E+00  0.00000000000E+00 -0.26361689156E+03  0.26361689157E+03  0.25500000920E-02 0. -1.
    10030    2    1    2    0    0  0.00000000000E+00  0.00000000000E+00  0.20101694174E+03  0.72825072487E+03  0.69995807547E+03 0.  0.
        4    1    3    3  502    0 -0.26494997325E+03  0.15831875470E+03  0.27216334075E+03  0.41150675980E+03  0.12699999809E+01 0.  1.
       -4    1    3    3    0  502  0.26494997325E+03 -0.15831875470E+03 -0.71146399014E+02  0.31674396507E+03  0.12699999809E+01 0. -1.
</event>
<event>
 5   0  0.5072407E-03  0.6991263E+03  0.7818609E-02  0.9718728E-01
       -2   -1    0    0    0  501  0.00000000000E+00  0.00000000000E+00  0.77436148576E+02  0.77436148618E+02  0.25500000920E-02 0.  1.
        2   -1    0    0  501    0  0.00000000000E+00  0.00000000000E+00 -0.15780018577E+04  0.15780018577E+04  0.25500000920E-02 0. -1.
    10030    2    1    2    0    0  0.00000000000E+00  0.00000000000E+00 -0.15005657091E+04  0.16554380063E+04  0.69912627283E+03 0.  0.
        1    1    3    3  502    0  0.92653493353E+02  0.24823652198E+03 -0.21038662129E+03  0.33833204270E+03  0.50400001928E-02 0.  1.
       -1    1    3    3    0  502 -0.92653493353E+02 -0.24823652198E+03 -0.12901790878E+04  0.13171059636E+04  0.50400001928E-02 0. -1.
</event>
<event>
 5   0  0.2913582E-03  0.7000802E+03  0.7818609E-02  0.9717095E-01
        1   -1    0    0  501    0  0.00000000000E+00  0.00000000000E+00  0.89029897042E+03  0.89029897043E+03  0.50400001928E-02 0. -1.
       -1   -1    0    0    0  501  0.00000000000E+00  0.00000000000E+00 -0.13762574081E+03  0.13762574091E+03  0.50400001928E-02 0.  1.
    10030    2    1    2    0    0  0.00000000000E+00  0.00000000000E+00  0.75267322961E+03  0.10279247113E+04  0.70008015371E+03 0.  0.
        1    1    3    3  502    0 -0.87597483464E+02 -0.21975207020E+03 -0.24830157858E+01  0.23658076181E+03  0.50400001928E-02 0.  1.
       -1    1    3    3    0  502  0.87597483464E+02  0.21975207020E+03  0.75515624539E+03  0.79134394952E+03  0.50400001928E-02 0. -1.
</event>
<event>
 5   0  0.5076796E-03  0.7013167E+03  0.7818609E-02  0.9714983E-01
        2   -1    0    0  501    0  0.00000000000E+00  0.00000000000E+00  0.34775225018E+03  0.34775225019E+03  0.25500000920E-02 0.  1.
       -2   -1    0    0    0  501  0.00000000000E+00  0.00000000000E+00 -0.35358873062E+03  0.35358873063E+03  0.25500000920E-02 0. -1.
    10030    2    1    2    0    0  0.00000000000E+00  0.00000000000E+00 -0.58364804486E+01  0.70134098082E+03  0.70131669513E+03 0.  0.
        5    1    3    3  502    0 -0.19706663226E+03 -0.26943817545E+03 -0.11019263483E+03  0.35156321581E+03  0.46999998093E+01 0.  1.
       -5    1    3    3    0  502  0.19706663226E+03  0.26943817545E+03  0.10435615438E+03  0.34977776501E+03  0.46999998093E+01 0. -1.
</event>
<event>
 5   0  0.2938783E-03  0.6996290E+03  0.7818609E-02  0.9717867E-01
       -1   -1    0    0    0  501  0.00000000000E+00  0.00000000000E+00  0.12323744226E+03  0.12323744236E+03  0.50400001928E-02 0. -1.
        1   -1    0    0  501    0  0.00000000000E+00  0.00000000000E+00 -0.99296270088E+03  0.99296270089E+03  0.50400001928E-02 0.  1.
    10030    2    1    2    0    0  0.00000000000E+00  0.00000000000E+00 -0.86972525862E+03  0.11162001433E+04  0.69962899762E+03 0.  0.
        4    1    3    3  502    0  0.75537031993E+01  0.33879501188E+03 -0.57330083509E+03  0.66596890237E+03  0.12699999809E+01 0. -1.
       -4    1    3    3    0  502 -0.75537031993E+01 -0.33879501188E+03 -0.29642442353E+03  0.45023124089E+03  0.12699999809E+01 0.  1.
</event>
<event>
 5   0  0.2937617E-03  0.6998692E+03  0.7818609E-02  0.9717456E-01
       -1   -1    0    0    0  501  0.00000000000E+00  0.00000000000E+00  0.71337953095E+02  0.71337953273E+02  0.50400001928E-02 0. -1.
        1   -1    0    0  501    0  0.00000000000E+00  0.00000000000E+00 -0.17165368503E+04  0.17165368503E+04  0.50400001928E-02 0.  1.
    10030    2    1    2    0    0  0.00000000000E+00  0.00000000000E+00 -0.16451988972E+04  0.17878748036E+04  0.69986920343E+03 0.  0.
        3    1    3    3  502    0  0.34657412942E+03  0.44225318833E+02 -0.77249381665E+03  0.84783029727E+03  0.10100000352E+00 0.  1.
       -3    1    3    3    0  502 -0.34657412942E+03 -0.44225318833E+02 -0.87270508054E+03  0.94004450629E+03  0.10100000352E+00 0. -1.
</event>
<event>
 5   0  0.1981750E-03  0.6988623E+03  0.7818609E-02  0.9719180E-01
        3   -1    0    0  501    0  0.00000000000E+00  0.00000000000E+00  0.10580411945E+04  0.10580411993E+04  0.10100000352E+00 0. -1.
       -3   -1    0    0    0  501  0.00000000000E+00  0.00000000000E+00 -0.11540393369E+03  0.11540397789E+03  0.10100000352E+00 0.  1.
    10030    2    1    2    0    0  0.00000000000E+00  0.00000000000E+00  0.94263726078E+03  0.11734451772E+04  0.69886234584E+03 0.  0.
        2    1    3    3  502    0 -0.41110629372E+01 -0.52497952822E+02  0.10513407327E+04  0.10526586684E+04  0.25500000920E-02 0. -1.
       -2    1    3    3    0  502  0.41110629372E+01  0.52497952822E+02 -0.10870347193E+03  0.12078650879E+03  0.25500000920E-02 0.  1.
</event>
<event>
 5   0  0.3013140E-03  0.6983437E+03  0.7818609E-02  0.9720069E-01
       -1   -1    0    0    0  501  0.00000000000E+00  0.00000000000E+00  0.92155152547E+02  0.92155152685E+02  0.50400001928E-02 0.  1.
        1   -1    0    0  501    0  0.00000000000E+00  0.00000000000E+00 -0.13229969735E+04  0.13229969735E+04  0.50400001928E-02 0. -1.
    10030    2    1    2    0    0  0.00000000000E+00  0.00000000000E+00 -0.12308418209E+04  0.14151521262E+04  0.69834372057E+03 0.  0.
        2    1    3    3  502    0  0.19732189823E+03  0.20451828690E+03 -0.20431144565E+03  0.35000975419E+03  0.25500000920E-02 0.  1.
       -2    1    3    3    0  502 -0.19732189823E+03 -0.20451828690E+03 -0.10265303753E+04  0.10651423720E+04  0.25500000920E-02 0. -1.
</event>
<event>
 5   0  0.1981750E-03  0.6994255E+03  0.7818609E-02  0.9718215E-01
       -3   -1    0    0    0  501  0.00000000000E+00  0.00000000000E+00  0.39337882434E+03  0.39337883731E+03  0.10100000352E+00 0.  1.
        3   -1    0    0  501    0  0.00000000000E+00  0.00000000000E+00 -0.31089372460E+03  0.31089374100E+03  0.10100000352E+00 0. -1.
    10030    2    1    2    0    0  0.00000000000E+00  0.00000000000E+00  0.82485099742E+02  0.70427257831E+03  0.69942553062E+03 0.  0.
        4    1    3    3  502    0 -0.26840970376E+03  0.17300627902E+02 -0.18381098742E+03  0.32577779666E+03  0.12699999809E+01 0. -1.
       -4    1    3    3    0  502  0.26840970376E+03 -0.17300627902E+02  0.26629608716E+03  0.37849478165E+03  0.12699999809E+01 0.  1.
</event>
<event>
 5   0  0.4878235E-03  0.6995932E+03  0.7818609E-02  0.9717928E-01
        2   -1    0    0  501    0  0.00000000000E+00  0.00000000000E+00  0.10827856137E+03  0.10827856140E+03  0.25500000920E-02 0. -1.
       -2   -1    0    0    0  501  0.00000000000E+00  0.00000000000E+00 -0.11300265785E+04  0.11300265785E+04  0.25500000920E-02 0.  1.
    10030    2    1    2    0    0  0.00000000000E+00  0.00000000000E+00 -0.10217480171E+04  0.12383051399E+04  0.69959317392E+03 0.  0.
        4    1    3    3  502    0 -0.31565765728E+03  0.10123902468E+03 -0.31323981190E+03  0.45608101186E+03  0.12699999809E+01 0. -1.
       -4    1    3    3    0  502  0.31565765728E+03 -0.10123902468E+03 -0.70850820519E+03  0.78222412801E+03  0.12699999809E+01 0.  1.
</event>
<event>
 5   0  0.2913582E-03  0.6995215E+03  0.7818609E-02  0.9718051E-01
       -1   -1    0    0    0  501  0.00000000000E+00  0.00000000000E+00  0.17910147209E+03  0.17910147216E+03  0.50400001928E-02 0. -1.
        1   -1    0    0  501    0  0.00000000000E+00  0.00000000000E+00 -0.68303497052E+03  0.68303497053E+03  0.50400001928E-02 0.  1.
    10030    2    1    2    0    0  0.00000000000E+00  0.00000000000E+00 -0.50393349843E+03  0.86213644269E+03  0.69952146142E+03 0.  0.
        1    1    3    3  502    0  0.80564057450E+02  0.12468991495E+03  0.13834655921E+03  0.20292341589E+03  0.50400001928E-02 0. -1.
       -1    1    3    3    0  502 -0.80564057450E+02 -0.12468991495E+03 -0.64228005764E+03  0.65921302681E+03  0.50400001928E-02 0.  1.
</event>
<event>
 5   0  0.2937617E-03  0.6994015E+03  0.7818609E-02  0.9718256E-01
       -1   -1    0    0    0  501  0.00000000000E+00  0.00000000000E+00  0.36259784698E+03  0.36259784701E+03  0.50400001928E-02 0.  1.
        1   -1    0    0  501    0  0.00000000000E+00  0.00000000000E+00 -0.33726234774E+03  0.33726234778E+03  0.50400001928E-02 0. -1.
    10030    2    1    2    0    0  0.00000000000E+00  0.00000000000E+00  0.25335499232E+02  0.69986019479E+03  0.69940146178E+03 0.  0.
        3    1    3    3  502    0 -0.34378589415E+03 -0.27702943509E+01  0.76695461454E+02  0.35224795181E+03  0.10100000352E+00 0. -1.
       -3    1    3    3    0  502  0.34378589415E+03  0.27702943509E+01 -0.51359962222E+02  0.34761224298E+03  0.10100000352E+00 0.  1.
</event>
<event>
 5   0  0.5023894E-03  0.7012828E+03  0.7818609E-02  0.9715041E-01
        2   -1    0    0  501    0  0.00000000000E+00  0.00000000000E+00  0.17179527568E+03  0.17179527570E+03  0.25500000920E-02 0. -1.
       -2   -1    0    0    0  501  0.00000000000E+00  0.00000000000E+00 -0.71567392167E+03  0.71567392167E+03  0.25500000920E-02 0.  1.
    10030    2    1    2    0    0  0.00000000000E+00  0.00000000000E+00 -0.54387864599E+03  0.88746919737E+03  0.70128282079E+03 0.  0.
        2    1    3    3  502    0 -0.10941320575E+03 -0.14503786596E+03 -0.65146552154E+03  0.67632429937E+03  0.25500000920E-02 0.  1.
       -2    1    3    3    0  502  0.10941320575E+03  0.14503786596E+03  0.10758687555E+03  0.21114489801E+03  0.25500000920E-02 0. -1.
</event>
<event>
 5   0  0.4878235E-03  0.7004704E+03  0.7818609E-02  0.9716428E-01
       -2   -1    0    0    0  501  0.00000000000E+00  0.00000000000E+00  0.10422385026E+03  0.10422385029E+03  0.25500000920E-02 0.  1.
        2   -1    0    0  501    0  0.00000000000E+00  0.00000000000E+00 -0.11769349688E+04  0.11769349688E+04  0.25500000920E-02 0. -1.
    10030    2    1    2    0    0  0.00000000000E+00  0.00000000000E+00 -0.10727111185E+04  0.12811588191E+04  0.70047039614E+03 0.  0.
        4    1    3    3  502    0  0.25524526805E+03 -0.10895291007E+03 -0.92710328443E+03  0.96775151582E+03  0.12699999809E+01 0. -1.
       -4    1    3    3    0  502 -0.25524526805E+03  0.10895291007E+03 -0.14560783407E+03  0.31340730323E+03  0.12699999809E+01 0.  1.
</event>
<event>
 5   0  0.2934483E-03  0.6997195E+03  0.7818609E-02  0.9717712E-01
        1   -1    0    0  501    0  0.00000000000E+00  0.00000000000E+00  0.16959979108E+04  0.16959979108E+04  0.50400001928E-02 0. -1.
       -1   -1    0    0    0  501  0.00000000000E+00  0.00000000000E+00 -0.72170997728E+02  0.72170997904E+02  0.50400001928E-02 0.  1.
    10030    2    1    2    0    0  0.00000000000E+00  0.00000000000E+00  0.16238269130E+04  0.17681689087E+04  0.69971954818E+03 0.  0.
        5    1    3    3  502    0 -0.22632323962E+03  0.25790615520E+03  0.98408099661E+03  0.10421973381E+04  0.46999998093E+01 0. -1.
       -5    1    3    3    0  502  0.22632323962E+03 -0.25790615520E+03  0.63974591643E+03  0.72597157057E+03  0.46999998093E+01 0.  1.
</event>
<event>
 5   0  0.4878235E-03  0.6998615E+03  0.7818609E-02  0.9717469E-01
        2   -1    0    0  501    0  0.00000000000E+00  0.00000000000E+00  0.42314746590E+03  0.42314746591E+03  0.25500000920E-02 0.  1.
       -2   -1    0    0    0  501  0.00000000000E+00  0.00000000000E+00 -0.28938267403E+03  0.28938267404E+03  0.25500000920E-02 0. -1.
    10030    2    1    2    0    0  0.00000000000E+00  0.00000000000E+00  0.13376479187E+03  0.71253013995E+03  0.69986154402E+03 0.  0.
        4    1    3    3  502    0  0.10749613066E+03 -0.32352241425E+03 -0.13462279606E+02  0.34118179391E+03  0.12699999809E+01 0.  1.
       -4    1    3    3    0  502 -0.10749613066E+03  0.32352241425E+03  0.14722707148E+03  0.37134834603E+03  0.12699999809E+01 0. -1.
</event>
<event>
 5   0  0.3013140E-03  0.7004479E+03  0.7818609E-02  0.9716466E-01
       -1   -1    0    0    0  501  0.00000000000E+00  0.00000000000E+00  0.30514197868E+03  0.30514197873E+03  0.50400001928E-02 0.  1.
        1   -1    0    0  501    0  0.00000000000E+00  0.00000000000E+00 -0.40196641182E+03  0.40196641185E+03  0.50400001928E-02 0. -1.
    10030    2    1    2    0    0  0.00000000000E+00  0.00000000000E+00 -0.96824433138E+02  0.70710839058E+03  0.70044793181E+03 0.  0.
        2    1    3    3  502    0  0.26163701911E+03 -0.13357243438E+03  0.14408738811E+03  0.32719520231E+03  0.25500000920E-02 0.  1.
       -2    1    3    3    0  502 -0.26163701911E+03  0.13357243438E+03 -0.24091182125E+03  0.37991318827E+03  0.25500000920E-02 0. -1.
</event>
<event>
 5   0  0.5076796E-03  0.6976567E+03  0.7818609E-02  0.9721248E-01
       -2   -1    0    0    0  501  0.00000000000E+00  0.00000000000E+00  0.75119399939E+02  0.75119399983E+02  0.25500000920E-02 0.  1.
        2   -1    0    0  501    0  0.00000000000E+00  0.00000000000E+00 -0.16198373731E+04  0.16198373731E+04  0.25500000920E-02 0. -1.
    10030    2    1    2    0    0  0.00000000000E+00  0.00000000000E+00 -0.15447179731E+04  0.16949567731E+04  0.69765668205E+03 0.  0.
        5    1    3    3  502    0  0.64754633773E+02 -0.21767630558E+03 -0.14155251136E+04  0.14336350909E+04  0.46999998093E+01 0. -1.
       -5    1    3    3    0  502 -0.64754633773E+02  0.21767630558E+03 -0.12919285950E+03  0.26132168213E+03  0.46999998093E+01 0.  1.
</event>
<event>
 5   0  0.3013140E-03  0.6994669E+03  0.7818609E-02  0.9718144E-01
       -1   -1    0    0    0  501  0.00000000000E+00  0.00000000000E+00  0.41615842469E+02  0.41615842774E+02  0.50400001928E-02 0.  1.
        1   -1    0    0  501    0  0.00000000000E+00  0.00000000000E+00 -0.29391088440E+04  0.29391088440E+04  0.50400001928E-02 0. -1.
    10030    2    1    2    0    0  0.00000000000E+00  0.00000000000E+00 -0.28974930015E+04  0.29807246868E+04  0.69946691447E+03 0.  0.
        2    1    3    3  502    0 -0.19717810949E+03 -0.25365635607E+03 -0.85991804997E+03  0.91797592915E+03  0.25500000920E-02 0.  1.
       -2    1    3    3    0  502  0.19717810949E+03  0.25365635607E+03 -0.20375749515E+04  0.20627487576E+04  0.25500000920E-02 0. -1.
</event>
<event>
 5   0  0.5113683E-03  0.6988310E+03  0.7818609E-02  0.9719233E-01
        2   -1    0    0  501    0  0.00000000000E+00  0.00000000000E+00  0.78415817019E+03  0.78415817019E+03  0.25500000920E-02 0.  1.
       -2   -1    0    0    0  501  0.00000000000E+00  0.00000000000E+00 -0.15569713190E+03  0.15569713192E+03  0.25500000920E-02 0. -1.
    10030    2    1    2    0    0  0.00000000000E+00  0.00000000000E+00  0.62846103829E+03  0.93985530212E+03  0.69883096116E+03 0.  0.
        3    1    3    3  502    0  0.15114256815E+03 -0.31185882674E+03  0.37424311181E+03  0.51005678180E+03  0.10100000352E+00 0. -1.
       -3    1    3    3    0  502 -0.15114256815E+03  0.31185882674E+03  0.25421792647E+03  0.42979852031E+03  0.10100000352E+00 0.  1.
</event>
<event>
 5   0  0.1981750E-03  0.6922839E+03  0.7818609E-02  0.9730520E-01
        4   -1    0    0  501    0  0.00000000000E+00  0.00000000000E+00  0.19149235299E+03  0.19149656434E+03  0.12699999809E+01 0. -1.
       -4   -1    0    0    0  501  0.00000000000E+00  0.00000000000E+00 -0.62567510703E+03  0.62567639595E+03  0.12699999809E+01 0.  1.
    10030    2    1    2    0    0  0.00000000000E+00  0.00000000000E+00 -0.43418275403E+03  0.81717296030E+03  0.69228388912E+03 0.  0.
        4    1    3    3  502    0  0.21712214397E+02 -0.31337935246E+03 -0.38869510500E+03  0.49976348041E+03  0.12699999809E+01 0.  1.
       -4    1    3    3    0  502 -0.21712214397E+02  0.31337935246E+03 -0.45487649035E+02  0.31740947988E+03  0.12699999809E+01 0. -1.
</event>
<event>
 5   0  0.5023894E-03  0.7002845E+03  0.7818609E-02  0.9716746E-01
        2   -1    0    0  501    0  0.00000000000E+00  0.00000000000E+00  0.90070396046E+03  0.90070396046E+03  0.25500000920E-02 0.  1.
       -2   -1    0    0    0  501  0.00000000000E+00  0.00000000000E+00 -0.13611532463E+03  0.13611532465E+03  0.25500000920E-02 0. -1.
    10030    2    1    2    0    0  0.00000000000E+00  0.00000000000E+00  0.76458863583E+03  0.10368192851E+04  0.70028454784E+03 0.  0.
        2    1    3    3  502    0  0.15732925783E+03  0.20947319138E+03  0.38342917425E+02  0.26476724231E+03  0.25500000920E-02 0. -1.
       -2    1    3    3    0  502 -0.15732925783E+03 -0.20947319138E+03  0.72624571841E+03  0.77205204280E+03  0.25500000920E-02 0.  1.
</event>
<event>
 5   0  0.2934483E-03  0.7002214E+03  0.7818609E-02  0.9716854E-01
       -1   -1    0    0    0  501  0.00000000000E+00  0.00000000000E+00  0.26980080012E+03  0.26980080016E+03  0.50400001928E-02 0.  1.
        1   -1    0    0  501    0  0.00000000000E+00  0.00000000000E+00 -0.45432599105E+03  0.45432599108E+03  0.50400001928E-02 0. -1.
    10030    2    1    2    0    0  0.00000000000E+00  0.00000000000E+00 -0.18452519094E+03  0.72412679124E+03  0.70022143905E+03 0.  0.
        5    1    3    3  502    0  0.13795093205E+03 -0.19414945432E+03  0.17307225242E+03  0.29444959641E+03  0.46999998093E+01 0.  1.
       -5    1    3    3    0  502 -0.13795093205E+03  0.19414945432E+03 -0.35759744336E+03  0.42967719483E+03  0.46999998093E+01 0. -1.
</event>
<event>
 5   0  0.4878235E-03  0.7017131E+03  0.7818609E-02  0.9714307E-01
        2   -1    0    0  501    0  0.00000000000E+00  0.00000000000E+00  0.19959957432E+04  0.19959957432E+04  0.25500000920E-02 0.  1.
       -2   -1    0    0    0  501  0.00000000000E+00  0.00000000000E+00 -0.61673644905E+02  0.61673644958E+02  0.25500000920E-02 0. -1.
    10030    2    1    2    0    0  0.00000000000E+00  0.00000000000E+00  0.19343220983E+04  0.20576693882E+04  0.70171314012E+03 0.  0.
        4    1    3    3  502    0 -0.38852471991E+02  0.17342150717E+03  0.18542357601E+04  0.18627335828E+04  0.12699999809E+01 0.  1.
       -4    1    3    3    0  502  0.38852471991E+02 -0.17342150717E+03  0.80086338199E+02  0.19493580532E+03  0.12699999809E+01 0. -1.
</event>
<event>
 5   0  0.5076796E-03  0.7010513E+03  0.7818609E-02  0.9715436E-01
       -2   -1    0    0    0  501  0.00000000000E+00  0.00000000000E+00  0.21396256302E+03  0.21396256304E+03  0.25500000920E-02 0.  1.
        2   -1    0    0  501    0  0.00000000000E+00  0.00000000000E+00 -0.57425113426E+03  0.57425113427E+03  0.25500000920E-02 0. -1.
    10030    2    1    2    0    0  0.00000000000E+00  0.00000000000E+00 -0.36028857124E+03  0.78821369730E+03  0.70105133767E+03 0.  0.
        5    1    3    3  502    0 -0.25386196183E+03 -0.11434630264E+03  0.59222525034E+02  0.28469346684E+03  0.46999998093E+01 0.  1.
       -5    1    3    3    0  502  0.25386196183E+03  0.11434630264E+03 -0.41951109627E+03  0.50352023046E+03  0.46999998093E+01 0. -1.
</event>
<event>
 5   0  0.2938783E-03  0.7007591E+03  0.7818609E-02  0.9715935E-01
       -1   -1    0    0    0  501  0.00000000000E+00  0.00000000000E+00  0.26169686107E+03  0.26169686112E+03  0.50400001928E-02 0. -1.
        1   -1    0    0  501    0  0.00000000000E+00  0.00000000000E+00 -0.46911463462E+03  0.46911463464E+03  0.50400001928E-02 0.  1.
    10030    2    1    2    0    0  0.00000000000E+00  0.00000000000E+00 -0.20741777354E+03  0.73081149576E+03  0.70075909524E+03 0.  0.
        4    1    3    3  502    0  0.34423822412E+03 -0.21474431045E+02 -0.16802295422E+03  0.38365926573E+03  0.12699999809E+01 0. -1.
       -4    1    3    3    0  502 -0.34423822412E+03  0.21474431045E+02 -0.39394819321E+02  0.34715223004E+03  0.12699999809E+01 0.  1.
</event>
<event>
 5   0  0.1981750E-03  0.7036390E+03  0.7818609E-02  0.9711029E-01
        4   -1    0    0  501    0  0.00000000000E+00  0.00000000000E+00  0.23422274573E+03  0.23422618879E+03  0.12699999809E+01 0.  1.
       -4   -1    0    0    0  501  0.00000000000E+00  0.00000000000E+00 -0.52845022206E+03  0.52845174813E+03  0.12699999809E+01 0. -1.
    10030    2    1    2    0    0  0.00000000000E+00  0.00000000000E+00 -0.29422747633E+03  0.76267793692E+03  0.70363898957E+03 0.  0.
        1    1    3    3  502    0 -0.10256988717E+03 -0.30391653752E+03 -0.30377877300E+03  0.44177753053E+03  0.50400001928E-02 0. -1.
       -1    1    3    3    0  502  0.10256988717E+03  0.30391653752E+03  0.95512966647E+01  0.32090040639E+03  0.50400001928E-02 0.  1.
</event>
<event>
 5   0  0.5076796E-03  0.6988098E+03  0.7818609E-02  0.9719270E-01
       -2   -1    0    0    0  501  0.00000000000E+00  0.00000000000E+00  0.24195179915E+03  0.24195179916E+03  0.25500000920E-02 0. -1.
        2   -1    0    0  501    0  0.00000000000E+00  0.00000000000E+00 -0.50457888522E+03  0.50457888522E+03  0.25500000920E-02 0.  1.
    10030    2    1    2    0    0  0.00000000000E+00  0.00000000000E+00 -0.26262708607E+03  0.74653068438E+03  0.69880975694E+03 0.  0.
        5    1    3    3  502    0  0.19763037980E+02  0.19994230922E+02  0.24070773223E+03  0.24238945789E+03  0.46999998093E+01 0. -1.
       -5    1    3    3    0  502 -0.19763037980E+02 -0.19994230922E+02 -0.50333481830E+03  0.50414122650E+03  0.46999998093E+01 0.  1.
</event>
<event>
 5   0  0.2937617E-03  0.6967841E+03  0.7818609E-02  0.9722748E-01
       -1   -1    0    0    0  501  0.00000000000E+00  0.00000000000E+00  0.16082873869E+03  0.16082873877E+03  0.50400001928E-02 0. -1.
        1   -1    0    0  501    0  0.00000000000E+00  0.00000000000E+00 -0.75469739277E+03  0.75469739279E+03  0.50400001928E-02 0.  1.
    10030    2    1    2    0    0  0.00000000000E+00  0.00000000000E+00 -0.59386865408E+03  0.91552613156E+03  0.69678412674E+03 0.  0.
        3    1    3    3  502    0  0.68252807579E+02 -0.19448349987E+03 -0.66599394408E+03  0.69715867721E+03  0.10100000352E+00 0.  1.
       -3    1    3    3    0  502 -0.68252807579E+02  0.19448349987E+03  0.72125289997E+02  0.21836745435E+03  0.10100000352E+00 0. -1.
</event>
<event>
 5   0  0.5072407E-03  0.6994851E+03  0.7818609E-02  0.9718113E-01
        2   -1    0    0  501    0  0.00000000000E+00  0.00000000000E+00  0.91732486599E+03  0.91732486599E+03  0.25500000920E-02 0. -1.
       -2   -1    0    0    0  501  0.00000000000E+00  0.00000000000E+00 -0.13334411096E+03  0.13334411098E+03  0.25500000920E-02 0.  1.
    10030    2    1    2    0    0  0.00000000000E+00  0.00000000000E+00  0.78398075503E+03  0.10506689770E+04  0.69948514989E+03 0.  0.
        1    1    3    3  502    0 -0.29861147800E+03  0.14082692597E+03  0.21864172839E+03  0.39598641807E+03  0.50400001928E-02 0.  1.
       -1    1    3    3    0  502  0.29861147800E+03 -0.14082692597E+03  0.56533902664E+03  0.65468255891E+03  0.50400001928E-02 0. -1.
</event>
<event>
 5   0  0.2913582E-03  0.6943907E+03  0.7818609E-02  0.9726873E-01
       -1   -1    0    0    0  501  0.00000000000E+00  0.00000000000E+00  0.10424822294E+03  0.10424822306E+03  0.50400001928E-02 0. -1.
        1   -1    0    0  501    0  0.00000000000E+00  0.00000000000E+00 -0.11563228248E+04  0.11563228248E+04  0.50400001928E-02 0.  1.
    10030    2    1    2    0    0  0.00000000000E+00  0.00000000000E+00 -0.10520746018E+04  0.12605710478E+04  0.69439066730E+03 0.  0.
        1    1    3    3  502    0  0.17427294004E+03 -0.16893109539E+03 -0.97672952692E+03  0.10064339727E+04  0.50400001928E-02 0.  1.
       -1    1    3    3    0  502 -0.17427294004E+03  0.16893109539E+03 -0.75345074895E+02  0.25413707513E+03  0.50400001928E-02 0. -1.
</event>
<event>
 5   0  0.5072407E-03  0.7051362E+03  0.7818609E-02  0.9708489E-01
        2   -1    0    0  501    0  0.00000000000E+00  0.00000000000E+00  0.71363356621E+03  0.71363356622E+03  0.25500000920E-02 0. -1.
       -2   -1    0    0    0  501  0.00000000000E+00  0.00000000000E+00 -0.17418500957E+03  0.17418500959E+03  0.25500000920E-02 0.  1.
    10030    2    1    2    0    0  0.00000000000E+00  0.00000000000E+00  0.53944855664E+03  0.88781857580E+03  0.70513621257E+03 0.  0.
        1    1    3    3  502    0 -0.99520232609E+01 -0.16224161724E+03  0.66364115538E+03  0.68325761487E+03  0.50400001928E-02 0. -1.
       -1    1    3    3    0  502  0.99520232609E+01  0.16224161724E+03 -0.12419259873E+03  0.20456096094E+03  0.50400001928E-02 0.  1.
</event>
<event>
 5   0  0.5072407E-03  0.6999132E+03  0.7818609E-02  0.9717381E-01
        2   -1    0    0  501    0  0.00000000000E+00  0.00000000000E+00  0.14692427619E+04  0.14692427619E+04  0.25500000920E-02 0.  1.
       -2   -1    0    0    0  501  0.00000000000E+00  0.00000000000E+00 -0.83355595057E+02  0.83355595096E+02  0.25500000920E-02 0. -1.
    10030    2    1    2    0    0  0.00000000000E+00  0.00000000000E+00  0.13858871668E+04  0.15525983570E+04  0.69991315099E+03 0.  0.
        1    1    3    3  502    0 -0.21383553226E+03  0.19213745565E+03  0.11356386492E+04  0.11714595931E+04  0.50400001928E-02 0.  1.
       -1    1    3    3    0  502  0.21383553226E+03 -0.19213745565E+03  0.25024851763E+03  0.38113876387E+03  0.50400001928E-02 0. -1.
</event>
<event>
 5   0  0.5076796E-03  0.7004539E+03  0.7818609E-02  0.9716456E-01
        2   -1    0    0  501    0  0.00000000000E+00  0.00000000000E+00  0.19793805153E+03  0.19793805155E+03  0.25500000920E-02 0.  1.
       -2   -1    0    0    0  501  0.00000000000E+00  0.00000000000E+00 -0.61968335284E+03  0.61968335284E+03  0.25500000920E-02 0. -1.
    10030    2    1    2    0    0  0.00000000000E+00  0.00000000000E+00 -0.42174530130E+03  0.81762140439E+03  0.70045389695E+03 0.  0.
        5    1    3    3  502    0  0.33846413692E+03 -0.85012663359E+02 -0.17680704193E+03  0.39123898705E+03  0.46999998093E+01 0.  1.
       -5    1    3    3    0  502 -0.33846413692E+03  0.85012663359E+02 -0.24493825937E+03  0.42638241734E+03  0.46999998093E+01 0. -1.
</event>
<event>
 5   0  0.5113683E-03  0.7045063E+03  0.7818609E-02  0.9709557E-01
       -2   -1    0    0    0  501  0.00000000000E+00  0.00000000000E+00  0.79141851793E+02  0.79141851834E+02  0.25500000920E-02 0.  1.
        2   -1    0    0  501    0  0.00000000000E+00  0.00000000000E+00 -0.15678463821E+04  0.15678463821E+04  0.25500000920E-02 0. -1.
    10030    2    1    2    0    0  0.00000000000E+00  0.00000000000E+00 -0.14887045303E+04  0.16469882339E+04  0.70450625559E+03 0.  0.
        3    1    3    3  502    0  0.11328460385E+03 -0.25458994462E+03 -0.12481058471E+04  0.12788344917E+04  0.10100000352E+00 0. -1.
       -3    1    3    3    0  502 -0.11328460385E+03  0.25458994462E+03 -0.24059868324E+03  0.36815374227E+03  0.10100000352E+00 0.  1.
</event>
<event>
 5   0  0.3013140E-03  0.7008693E+03  0.7818609E-02  0.9715747E-01
        1   -1    0    0  501    0  0.00000000000E+00  0.00000000000E+00  0.49395936737E+03  0.49395936740E+03  0.50400001928E-02 0. -1.
       -1   -1    0    0    0  501  0.00000000000E+00  0.00000000000E+00 -0.24861241215E+03  0.24861241220E+03  0.50400001928E-02 0.  1.
    10030    2    1    2    0    0  0.00000000000E+00  0.00000000000E+00  0.24534695523E+03  0.74257177960E+03  0.70086925986E+03 0.  0.
        2    1    3    3  502    0 -0.16444416016E+03 -0.10807053281E+03  0.42989831485E+03  0.47279348874E+03  0.25500000920E-02 0. -1.
       -2    1    3    3    0  502  0.16444416016E+03  0.10807053281E+03 -0.18455135963E+03  0.26977829086E+03  0.25500000920E-02 0.  1.
</event>
<event>
 5   0  0.2937617E-03  0.7075652E+03  0.7818609E-02  0.9704382E-01
        1   -1    0    0  501    0  0.00000000000E+00  0.00000000000E+00  0.59618553597E+03  0.59618553599E+03  0.50400001928E-02 0.  1.
       -1   -1    0    0    0  501  0.00000000000E+00  0.00000000000E+00 -0.20993819277E+03  0.20993819283E+03  0.50400001928E-02 0. -1.
    10030    2    1    2    0    0  0.00000000000E+00  0.00000000000E+00  0.38624734320E+03  0.80612372882E+03  0.70756516027E+03 0.  0.
        3    1    3    3  502    0 -0.22301202551E+03  0.13377923506E+03 -0.80142381771E+02  0.27212875410E+03  0.10100000352E+00 0. -1.
       -3    1    3    3    0  502  0.22301202551E+03 -0.13377923506E+03  0.46638972498E+03  0.53399497471E+03  0.10100000352E+00 0.  1.
</event>
<event>
 5   0  0.2934483E-03  0.7007551E+03  0.7818609E-02  0.9715942E-01
       -1   -1    0    0    0  501  0.00000000000E+00  0.00000000000E+00  0.21332690004E+03  0.21332690010E+03  0.50400001928E-02 0. -1.
        1   -1    0    0  501    0  0.00000000000E+00  0.00000000000E+00 -0.57547553766E+03  0.57547553768E+03  0.50400001928E-02 0.  1.
    10030    2    1    2    0    0  0.00000000000E+00  0.00000000000E+00 -0.36214863762E+03  0.78880243778E+03  0.70075505715E+03 0.  0.
        5    1    3    3  502    0 -0.53187638243E+02 -0.15175748582E+03 -0.53144352907E+03  0.55525991567E+03  0.46999998093E+01 0.  1.
       -5    1    3    3    0  502  0.53187638243E+02  0.15175748582E+03  0.16929489145E+03  0.23354252211E+03  0.46999998093E+01 0. -1.
</event>
<event>
 5   0  0.1981750E-03  0.7007999E+03  0.7818609E-02  0.9715865E-01
       -3   -1    0    0    0  501  0.00000000000E+00  0.00000000000E+00  0.91329544590E+03  0.91329545149E+03  0.10100000352E+00 0. -1.
        3   -1    0    0  501    0  0.00000000000E+00  0.00000000000E+00 -0.13443633459E+03  0.13443637253E+03  0.10100000352E+00 0.  1.
    10030    2    1    2    0    0  0.00000000000E+00  0.00000000000E+00  0.77885911131E+03  0.10477318240E+04  0.70079987143E+03 0.  0.
        1    1    3    3  502    0  0.23690474263E+03  0.42206485750E+02  0.77022730565E+03  0.80694197246E+03  0.50400001928E-02 0. -1.
       -1    1    3    3    0  502 -0.23690474263E+03 -0.42206485750E+02  0.86318056544E+01  0.24078985156E+03  0.50400001928E-02 0.  1.
</event>
<event>
 5   0  0.3013140E-03  0.7006014E+03  0.7818609E-02  0.9716204E-01
        1   -1    0    0  501    0  0.00000000000E+00  0.00000000000E+00  0.15292666525E+04  0.15292666525E+04  0.50400001928E-02 0. -1.
       -1   -1    0    0    0  501  0.00000000000E+00  0.00000000000E+00 -0.80241451405E+02  0.80241451564E+02  0.50400001928E-02 0.  1.
    10030    2    1    2    0    0  0.00000000000E+00  0.00000000000E+00  0.14490252011E+04  0.16095081041E+04  0.70060138715E+03 0.  0.
        2    1    3    3  502    0  0.31752944402E+03  0.14555140786E+03  0.66371308348E+03  0.75001681137E+03  0.25500000920E-02 0. -1.
       -2    1    3    3    0  502 -0.31752944402E+03 -0.14555140786E+03  0.78531211766E+03  0.85949129274E+03  0.25500000920E-02 0.  1.
</event>
<event>
 5   0  0.2913582E-03  0.7002592E+03  0.7818609E-02  0.9716789E-01
       -1   -1    0    0    0  501  0.00000000000E+00  0.00000000000E+00  0.10425601306E+03  0.10425601318E+03  0.50400001928E-02 0. -1.
        1   -1    0    0  501    0  0.00000000000E+00  0.00000000000E+00 -0.11758623999E+04  0.11758623999E+04  0.50400001928E-02 0.  1.
    10030    2    1    2    0    0  0.00000000000E+00  0.00000000000E+00 -0.10716063868E+04  0.12801184131E+04  0.70025916860E+03 0.  0.
        1    1    3    3  502    0 -0.24111582181E+02  0.46431323971E+02 -0.11686763599E+04  0.11698468577E+04  0.50400001928E-02 0.  1.
       -1    1    3    3    0  502  0.24111582181E+02 -0.46431323971E+02  0.97069973045E+02  0.11027155541E+03  0.50400001928E-02 0. -1.
</event>
<event>
 5   0  0.5072407E-03  0.6994707E+03  0.7818609E-02  0.9718138E-01
        2   -1    0    0  501    0  0.00000000000E+00  0.00000000000E+00  0.39452185608E+03  0.39452185608E+03  0.25500000920E-02 0. -1.
       -2   -1    0    0    0  501  0.00000000000E+00  0.00000000000E+00 -0.31003306526E+03  0.31003306527E+03  0.25500000920E-02 0.  1.
    10030    2    1    2    0    0  0.00000000000E+00  0.00000000000E+00  0.84488790817E+02  0.70455492135E+03  0.69947071520E+03 0.  0.
        1    1    3    3  502    0  0.19525604323E+03 -0.27380296830E+03  0.13897277896E+03  0.36387693137E+03  0.50400001928E-02 0. -1.
       -1    1    3    3    0  502 -0.19525604323E+03  0.27380296830E+03 -0.54483988143E+02  0.34067798998E+03  0.50400001928E-02 0.  1.
</event>
<event>
 5   0  0.2937617E-03  0.7005649E+03  0.7818609E-02  0.9716267E-01
       -1   -1    0    0    0  501  0.00000000000E+00  0.00000000000E+00  0.23844579914E+03  0.23844579920E+03  0.50400001928E-02 0. -1.
        1   -1    0    0  501    0  0.00000000000E+00  0.00000000000E+00 -0.51457309549E+03  0.51457309552E+03  0.50400001928E-02 0.  1.
    10030    2    1    2    0    0  0.00000000000E+00  0.00000000000E+00 -0.27612729635E+03  0.75301889471E+03  0.70056489493E+03 0.  0.
        3    1    3    3  502    0 -0.15877263127E+03  0.23964717472E+03 -0.35319493527E+03  0.45539673834E+03  0.10100000352E+00 0.  1.
       -3    1    3    3    0  502  0.15877263127E+03 -0.23964717472E+03  0.77067638918E+02  0.29762215637E+03  0.10100000352E+00 0. -1.
</event>
<event>
 5   0  0.5023894E-03  0.7011709E+03  0.7818609E-02  0.9715232E-01
        2   -1    0    0  501    0  0.00000000000E+00  0.00000000000E+00  0.10440667456E+04  0.10440667456E+04  0.25500000920E-02 0. -1.
       -2   -1    0    0    0  501  0.00000000000E+00  0.00000000000E+00 -0.11772251931E+03  0.11772251934E+03  0.25500000920E-02 0.  1.
    10030    2    1    2    0    0  0.00000000000E+00  0.00000000000E+00  0.92634422628E+03  0.11617892649E+04  0.70117092820E+03 0.  0.
        2    1    3    3  502    0  0.23017325962E+03  0.57961921387E+02  0.89068136881E+03  0.92176603026E+03  0.25500000920E-02 0. -1.
       -2    1    3    3    0  502 -0.23017325962E+03 -0.57961921387E+02  0.35662857467E+02  0.24002323468E+03  0.25500000920E-02 0.  1.
</event>
<event>
 5   0  0.2934483E-03  0.7016801E+03  0.7818609E-02  0.9714363E-01
       -1   -1    0    0    0  501  0.00000000000E+00  0.00000000000E+00  0.12237043499E+03  0.12237043510E+03  0.50400001928E-02 0.  1.
        1   -1    0    0  501    0  0.00000000000E+00  0.00000000000E+00 -0.10058699714E+04  0.10058699714E+04  0.50400001928E-02 0. -1.
    10030    2    1    2    0    0  0.00000000000E+00  0.00000000000E+00 -0.88349953643E+03  0.11282404065E+04  0.70168011520E+03 0.  0.
        5    1    3    3  502    0 -0.10319973351E+03 -0.29553195812E+03 -0.69637600494E+03  0.76351224845E+03  0.46999998093E+01 0. -1.
       -5    1    3    3    0  502  0.10319973351E+03  0.29553195812E+03 -0.18712353149E+03  0.36472815809E+03  0.46999998093E+01 0.  1.
</event>
<event>
 5   0  0.4878235E-03  0.7013312E+03  0.7818609E-02  0.9714958E-01
       -2   -1    0    0    0  501  0.00000000000E+00  0.00000000000E+00  0.40928503682E+03  0.40928503683E+03  0.25500000920E-02 0.  1.
        2   -1    0    0  501    0  0.00000000000E+00  0.00000000000E+00 -0.30044186172E+03  0.30044186173E+03  0.25500000920E-02 0. -1.
    10030    2    1    2    0    0  0.00000000000E+00  0.00000000000E+00  0.10884317511E+03  0.70972689856E+03  0.70133118693E+03 0.  0.
        4    1    3    3  502    0 -0.13362837938E+02 -0.24767175338E+03  0.30526977847E+03  0.39333333625E+03  0.12699999809E+01 0.  1.
       -4    1    3    3    0  502  0.13362837938E+02  0.24767175338E+03 -0.19642660337E+03  0.31639356231E+03  0.12699999809E+01 0. -1.
</event>
<event>
 5   0  0.5072407E-03  0.6997289E+03  0.7818609E-02  0.9717696E-01
        2   -1    0    0  501    0  0.00000000000E+00  0.00000000000E+00  0.62586776443E+03  0.62586776443E+03  0.25500000920E-02 0. -1.
       -2   -1    0    0    0  501  0.00000000000E+00  0.00000000000E+00 -0.19557664917E+03  0.19557664919E+03  0.25500000920E-02 0.  1.
    10030    2    1    2    0    0  0.00000000000E+00  0.00000000000E+00  0.43029111525E+03  0.82144441362E+03  0.69972886235E+03 0.  0.
        1    1    3    3  502    0  0.94413858609E+02  0.23444668617E+02 -0.17938000770E+03  0.20406081538E+03  0.50400001928E-02 0.  1.
       -1    1    3    3    0  502 -0.94413858609E+02 -0.23444668617E+02  0.60967112296E+03  0.61738359824E+03  0.50400001928E-02 0. -1.
</event>
<event>
 5   0  0.5072407E-03  0.7022612E+03  0.7818609E-02  0.9713373E-01
        2   -1    0    0  501    0  0.00000000000E+00  0.00000000000E+00  0.83167742255E+03  0.83167742255E+03  0.25500000920E-02 0. -1.
       -2   -1    0    0    0  501  0.00000000000E+00  0.00000000000E+00 -0.14824581044E+03  0.14824581046E+03  0.25500000920E-02 0.  1.
    10030    2    1    2    0    0  0.00000000000E+00  0.00000000000E+00  0.68343161211E+03  0.97992323302E+03  0.70226118658E+03 0.  0.
        1    1    3    3  502    0  0.19670774542E+03 -0.28874508491E+03  0.39055485156E+03  0.52402361900E+03  0.50400001928E-02 0. -1.
       -1    1    3    3    0  502 -0.19670774542E+03  0.28874508491E+03  0.29287676055E+03  0.45589961402E+03  0.50400001928E-02 0.  1.
</event>
<event>
 5   0  0.2938783E-03  0.6999388E+03  0.7818609E-02  0.9717337E-01
        1   -1    0    0  501    0  0.00000000000E+00  0.00000000000E+00  0.54572923101E+03  0.54572923104E+03  0.50400001928E-02 0.  1.
       -1   -1    0    0    0  501  0.00000000000E+00  0.00000000000E+00 -0.22443103963E+03  0.22443103968E+03  0.50400001928E-02 0. -1.
    10030    2    1    2    0    0  0.00000000000E+00  0.00000000000E+00  0.32129819139E+03  0.77016027072E+03  0.69993879362E+03 0.  0.
        4    1    3    3  502    0 -0.15010853260E+03 -0.27179773324E+03  0.33831119162E+03  0.45919783822E+03  0.12699999809E+01 0.  1.
       -4    1    3    3    0  502  0.15010853260E+03  0.27179773324E+03 -0.17013000231E+02  0.31096243250E+03  0.12699999809E+01 0. -1.
</event>
<event>
 5   0  0.4878235E-03  0.7002399E+03  0.7818609E-02  0.9716822E-01
       -2   -1    0    0    0  501  0.00000000000E+00  0.00000000000E+00  0.18915624601E+03  0.18915624603E+03  0.25500000920E-02 0.  1.
        2   -1    0    0  501    0  0.00000000000E+00  0.00000000000E+00 -0.64805675850E+03  0.64805675850E+03  0.25500000920E-02 0. -1.
    10030    2    1    2    0    0  0.00000000000E+00  0.00000000000E+00 -0.45890051248E+03  0.83721300453E+03  0.70023991218E+03 0.  0.
        4    1    3    3  502    0  0.25584519578E+03  0.10888400242E+02 -0.51491559640E+03  0.57507826057E+03  0.12699999809E+01 0. -1.
       -4    1    3    3    0  502 -0.25584519578E+03 -0.10888400242E+02  0.56015083918E+02  0.26213474396E+03  0.12699999809E+01 0.  1.
</event>
<event>
 5   0  0.4878235E-03  0.7032512E+03  0.7818609E-02  0.9711688E-01
       -2   -1    0    0    0  501  0.00000000000E+00  0.00000000000E+00  0.59990922035E+02  0.59990922089E+02  0.25500000920E-02 0. -1.
        2   -1    0    0  501    0  0.00000000000E+00  0.00000000000E+00 -0.20609876488E+04  0.20609876488E+04  0.25500000920E-02 0.  1.
    10030    2    1    2    0    0  0.00000000000E+00  0.00000000000E+00 -0.20009967267E+04  0.21209785709E+04  0.70325116256E+03 0.  0.
        4    1    3    3  502    0 -0.26509017353E+03 -0.43646597102E+02 -0.16846705276E+04  0.17059584476E+04  0.12699999809E+01 0.  1.
       -4    1    3    3    0  502  0.26509017353E+03  0.43646597102E+02 -0.31632619917E+03  0.41502012328E+03  0.12699999809E+01 0. -1.
</event>
<event>
 5   0  0.1981750E-03  0.6997069E+03  0.7818609E-02  0.9717733E-01
       -4   -1    0    0    0  501  0.00000000000E+00  0.00000000000E+00  0.24176430545E+03  0.24176764111E+03  0.12699999809E+01 0.  1.
        4   -1    0    0  501    0  0.00000000000E+00  0.00000000000E+00 -0.50626005321E+03  0.50626164617E+03  0.12699999809E+01 0. -1.
    10030    2    1    2    0    0  0.00000000000E+00  0.00000000000E+00 -0.26449574776E+03  0.74802928728E+03  0.69970694869E+03 0.  0.
        3    1    3    3  502    0 -0.20779121606E+03 -0.15870017956E+03 -0.38075452177E+03  0.46188413321E+03  0.10100000352E+00 0. -1.
       -3    1    3    3    0  502  0.20779121606E+03  0.15870017956E+03  0.11625877401E+03  0.28614515407E+03  0.10100000352E+00 0.  1.
</event>
<event>
 5   0  0.5072407E-03  0.6997587E+03  0.7818609E-02  0.9717645E-01
        2   -1    0    0  501    0  0.00000000000E+00  0.00000000000E+00  0.15419247731E+04  0.15419247731E+04  0.25500000920E-02 0. -1.
       -2   -1    0    0    0  501  0.00000000000E+00  0.00000000000E+00 -0.79391389897E+02  0.79391389938E+02  0.25500000920E-02 0.  1.
    10030    2    1    2    0    0  0.00000000000E+00  0.00000000000E+00  0.14625333832E+04  0.16213161631E+04  0.69975867523E+03 0.  0.
        1    1    3    3  502    0 -0.10265107142E+03  0.30007129485E+03  0.38889231532E+03  0.50181396692E+03  0.50400001928E-02 0.  1.
       -1    1    3    3    0  502  0.10265107142E+03 -0.30007129485E+03  0.10736410679E+04  0.11195021961E+04  0.50400001928E-02 0. -1.
</event>
<event>
 5   0  0.2937617E-03  0.7001412E+03  0.7818609E-02  0.9716991E-01
       -1   -1    0    0    0  501  0.00000000000E+00  0.00000000000E+00  0.25767363469E+03  0.25767363474E+03  0.50400001928E-02 0. -1.
        1   -1    0    0  501    0  0.00000000000E+00  0.00000000000E+00 -0.47559936078E+03  0.47559936081E+03  0.50400001928E-02 0.  1.
    10030    2    1    2    0    0  0.00000000000E+00  0.00000000000E+00 -0.21792572609E+03  0.73327299555E+03  0.70014117427E+03 0.  0.
        3    1    3    3  502    0 -0.32969421138E+02 -0.33639112357E+03 -0.20439814670E+03  0.39499947256E+03  0.10100000352E+00 0.  1.
       -3    1    3    3    0  502  0.32969421138E+02  0.33639112357E+03 -0.13527579388E+02  0.33827352299E+03  0.10100000352E+00 0. -1.
</event>
<event>
 5   0  0.2934483E-03  0.6998022E+03  0.7818609E-02  0.9717570E-01
       -1   -1    0    0    0  501  0.00000000000E+00  0.00000000000E+00  0.16757151415E+03  0.16757151423E+03  0.50400001928E-02 0. -1.
        1   -1    0    0  501    0  0.00000000000E+00  0.00000000000E+00 -0.73061814922E+03  0.73061814923E+03  0.50400001928E-02 0.  1.
    10030    2    1    2    0    0  0.00000000000E+00  0.00000000000E+00 -0.56304663506E+03  0.89818966346E+03  0.69980222798E+03 0.  0.
        5    1    3    3  502    0  0.10201967440E+03 -0.25694547034E+03 -0.55674069366E+03  0.62161988278E+03  0.46999998093E+01 0.  1.
       -5    1    3    3    0  502 -0.10201967440E+03  0.25694547034E+03 -0.63059414052E+01  0.27656978068E+03  0.46999998093E+01 0. -1.
</event>
<event>
 5   0  0.2937617E-03  0.7023469E+03  0.7818609E-02  0.9713227E-01
        1   -1    0    0  501    0  0.00000000000E+00  0.00000000000E+00  0.10179662746E+04  0.10179662746E+04  0.50400001928E-02 0.  1.
       -1   -1    0    0    0  501  0.00000000000E+00  0.00000000000E+00 -0.12114623369E+03  0.12114623379E+03  0.50400001928E-02 0. -1.
    10030    2    1    2    0    0  0.00000000000E+00  0.00000000000E+00  0.89682004093E+03  0.11391125084E+04  0.70234686661E+03 0.  0.
        3    1    3    3  502    0  0.63802261875E+02  0.34453377656E+03  0.48639487877E+03  0.59946162522E+03  0.10100000352E+00 0.  1.
       -3    1    3    3    0  502 -0.63802261875E+02 -0.34453377656E+03  0.41042516217E+03  0.53965088321E+03  0.10100000352E+00 0. -1.
</event>
<event>
 5   0  0.3013140E-03  0.6980206E+03  0.7818609E-02  0.9720623E-01
        1   -1    0    0  501    0  0.00000000000E+00  0.00000000000E+00  0.28350098475E+03  0.28350098480E+03  0.50400001928E-02 0.  1.
       -1   -1    0    0    0  501  0.00000000000E+00  0.00000000000E+00 -0.42965697692E+03  0.42965697695E+03  0.50400001928E-02 0. -1.
    10030    2    1    2    0    0  0.00000000000E+00  0.00000000000E+00 -0.14615599217E+03  0.71315796175E+03  0.69802056156E+03 0.  0.
        2    1    3    3  502    0  0.27278759262E+03  0.78111196973E+02 -0.28069344267E+03  0.39912809792E+03  0.25500000920E-02 0. -1.
       -2    1    3    3    0  502 -0.27278759262E+03 -0.78111196973E+02  0.13453745051E+03  0.31402986383E+03  0.25500000920E-02 0.  1.
</event>
<event>
 5   0  0.5113683E-03  0.6976547E+03  0.7818609E-02  0.9721251E-01
        2   -1    0    0  501    0  0.00000000000E+00  0.00000000000E+00  0.16301894962E+03  0.16301894964E+03  0.25500000920E-02 0. -1.
       -2   -1    0    0    0  501  0.00000000000E+00  0.00000000000E+00 -0.74641954394E+03  0.74641954395E+03  0.25500000920E-02 0.  1.
    10030    2    1    2    0    0  0.00000000000E+00  0.00000000000E+00 -0.58340059432E+03  0.90943849359E+03  0.69765472847E+03 0.  0.
        3    1    3    3  502    0  0.59864458125E+02 -0.56222563721E+02 -0.73363736789E+03  0.73821983703E+03  0.10100000352E+00 0.  1.
       -3    1    3    3    0  502 -0.59864458125E+02  0.56222563721E+02  0.15023677357E+03  0.17121865655E+03  0.10100000352E+00 0. -1.
</event>
<event>
 5   0  0.5076796E-03  0.6994332E+03  0.7818609E-02  0.9718202E-01
       -2   -1    0    0    0  501  0.00000000000E+00  0.00000000000E+00  0.19478787196E+03  0.19478787197E+03  0.25500000920E-02 0.  1.
        2   -1    0    0  501    0  0.00000000000E+00  0.00000000000E+00 -0.62787127474E+03  0.62787127474E+03  0.25500000920E-02 0. -1.
    10030    2    1    2    0    0  0.00000000000E+00  0.00000000000E+00 -0.43308340278E+03  0.82265914672E+03  0.69943322620E+03 0.  0.
        5    1    3    3  502    0 -0.41832076894E+02 -0.34335061979E+03 -0.27697546503E+03  0.44314452382E+03  0.46999998093E+01 0.  1.
       -5    1    3    3    0  502  0.41832076894E+02  0.34335061979E+03 -0.15610793775E+03  0.37951462290E+03  0.46999998093E+01 0. -1.
</event>
<event>
 5   0  0.5023894E-03  0.6973293E+03  0.7818609E-02  0.9721810E-01
       -2   -1    0    0    0  501  0.00000000000E+00  0.00000000000E+00  0.13161043431E+03  0.13161043433E+03  0.25500000920E-02 0. -1.
        2   -1    0    0  501    0  0.00000000000E+00  0.00000000000E+00 -0.92368839873E+03  0.92368839873E+03  0.25500000920E-02 0.  1.
    10030    2    1    2    0    0  0.00000000000E+00  0.00000000000E+00 -0.79207796442E+03  0.10552988331E+04  0.69732928043E+03 0.  0.
        2    1    3    3  502    0 -0.33794778482E+03  0.54575540386E+02 -0.29588539623E+03  0.45247691939E+03  0.25500000920E-02 0. -1.
       -2    1    3    3    0  502  0.33794778482E+03 -0.54575540386E+02 -0.49619256819E+03  0.60282191367E+03  0.25500000920E-02 0.  1.
</event>
<event>
 5   0  0.3013140E-03  0.6999969E+03  0.7818609E-02  0.9717237E-01
        1   -1    0    0  501    0  0.00000000000E+00  0.00000000000E+00  0.40616505417E+03  0.40616505420E+03  0.50400001928E-02 0.  1.
       -1   -1    0    0    0  501  0.00000000000E+00  0.00000000000E+00 -0.30159885656E+03  0.30159885660E+03  0.50400001928E-02 0. -1.
    10030    2    1    2    0    0  0.00000000000E+00  0.00000000000E+00  0.10456619761E+03  0.70776391079E+03  0.69999690267E+03 0.  0.
        2    1    3    3  502    0 -0.18729898850E+03 -0.11920345491E+03 -0.22128986282E+03  0.31346383866E+03  0.25500000920E-02 0. -1.
       -2    1    3    3    0  502  0.18729898850E+03  0.11920345491E+03  0.32585606043E+03  0.39430007213E+03  0.25500000920E-02 0.  1.
</event>
<event>
 5   0  0.5072407E-03  0.6987091E+03  0.7818609E-02  0.9719442E-01
        2   -1    0    0  501    0  0.00000000000E+00  0.00000000000E+00  0.42250106040E+03  0.42250106040E+03  0.25500000920E-02 0. -1.
       -2   -1    0    0    0  501  0.00000000000E+00  0.00000000000E+00 -0.28887167907E+03  0.28887167908E+03  0.25500000920E-02 0.  1.
    10030    2    1    2    0    0  0.00000000000E+00  0.00000000000E+00  0.13362938132E+03  0.71137273949E+03  0.69870906888E+03 0.  0.
        1    1    3    3  502    0  0.29268150569E+03  0.87209490158E+02 -0.10590863832E+03  0.32324077504E+03  0.50400001928E-02 0.  1.
       -1    1    3    3    0  502 -0.29268150569E+03 -0.87209490158E+02  0.23953801965E+03  0.38813196445E+03  0.50400001928E-02 0. -1.
</event>
<event>
 5   0  0.2934483E-03  0.7043427E+03  0.7818609E-02  0.9709834E-01
       -1   -1    0    0    0  501  0.00000000000E+00  0.00000000000E+00  0.58999353744E+03  0.58999353746E+03  0.50400001928E-02 0. -1.
        1   -1    0    0  501    0  0.00000000000E+00  0.00000000000E+00 -0.21021360126E+03  0.21021360132E+03  0.50400001928E-02 0.  1.
    10030    2    1    2    0    0  0.00000000000E+00  0.00000000000E+00  0.37977993618E+03  0.80020713879E+03  0.70434271845E+03 0.  0.
        5    1    3    3  502    0  0.24063633268E+03 -0.28521250309E+02  0.48017145699E+03  0.53787175464E+03  0.46999998093E+01 0. -1.
       -5    1    3    3    0  502 -0.24063633268E+03  0.28521250309E+02 -0.10039152081E+03  0.26233538415E+03  0.46999998093E+01 0.  1.
</event>
<event>
 5   0  0.1981750E-03  0.6985913E+03  0.7818609E-02  0.9719644E-01
       -4   -1    0    0    0  501  0.00000000000E+00  0.00000000000E+00  0.25242607237E+03  0.25242926715E+03  0.12699999809E+01 0. -1.
        4   -1    0    0  501    0  0.00000000000E+00  0.00000000000E+00 -0.48333229713E+03  0.48333396565E+03  0.12699999809E+01 0.  1.
    10030    2    1    2    0    0  0.00000000000E+00  0.00000000000E+00 -0.23090622476E+03  0.73576323280E+03  0.69859133269E+03 0.  0.
        1    1    3    3  502    0 -0.51251968133E+02 -0.16043264195E+01 -0.47934909763E+03  0.48208390922E+03  0.50400001928E-02 0.  1.
       -1    1    3    3    0  502  0.51251968133E+02  0.16043264195E+01  0.24844287288E+03  0.25367932358E+03  0.50400001928E-02 0. -1.
</event>
<event>
 5   0  0.2913582E-03  0.7009193E+03  0.7818609E-02  0.9715661E-01
       -1   -1    0    0    0  501  0.00000000000E+00  0.00000000000E+00  0.65514778962E+03  0.65514778964E+03  0.50400001928E-02 0.  1.
        1   -1    0    0  501    0  0.00000000000E+00  0.00000000000E+00 -0.18747215862E+03  0.18747215869E+03  0.50400001928E-02 0. -1.
    10030    2    1    2    0    0  0.00000000000E+00  0.00000000000E+00  0.46767563100E+03  0.84261994832E+03  0.70091931168E+03 0.  0.
        1    1    3    3  502    0  0.89287650938E+01 -0.25428522224E+03  0.52356001584E+03  0.58211320832E+03  0.50400001928E-02 0.  1.
       -1    1    3    3    0  502 -0.89287650938E+01  0.25428522224E+03 -0.55884384835E+02  0.26050674000E+03  0.50400001928E-02 0. -1.
</event>
<event>
 5   0  0.1981750E-03  0.7018873E+03  0.7818609E-02  0.9714010E-01
        3   -1    0    0  501    0  0.00000000000E+00  0.00000000000E+00  0.23341535396E+03  0.23341537581E+03  0.10100000352E+00 0. -1.
       -3   -1    0    0    0  501  0.00000000000E+00  0.00000000000E+00 -0.52764918157E+03  0.52764919123E+03  0.10100000352E+00 0.  1.
    10030    2    1    2    0    0  0.00000000000E+00  0.00000000000E+00 -0.29423382761E+03  0.76106456705E+03  0.70188726296E+03 0.  0.
        3    1    3    3  502    0  0.98818125688E+01 -0.26937819255E+03 -0.39078363799E+03  0.47473584525E+03  0.10100000352E+00 0.  1.
       -3    1    3    3    0  502 -0.98818125688E+01  0.26937819255E+03  0.96549810388E+02  0.28632872180E+03  0.10100000352E+00 0. -1.
</event>
<event>
 5   0  0.2937617E-03  0.7013947E+03  0.7818609E-02  0.9714850E-01
       -1   -1    0    0    0  501  0.00000000000E+00  0.00000000000E+00  0.98554371048E+02  0.98554371177E+02  0.50400001928E-02 0.  1.
        1   -1    0    0  501    0  0.00000000000E+00  0.00000000000E+00 -0.12479265804E+04  0.12479265804E+04  0.50400001928E-02 0. -1.
    10030    2    1    2    0    0  0.00000000000E+00  0.00000000000E+00 -0.11493722094E+04  0.13464809516E+04  0.70139466591E+03 0.  0.
        3    1    3    3  502    0 -0.19633285199E+03  0.28183980834E+03 -0.43882824178E+03  0.55727058268E+03  0.10100000352E+00 0. -1.
       -3    1    3    3    0  502  0.19633285199E+03 -0.28183980834E+03 -0.71054396759E+03  0.78921036892E+03  0.10100000352E+00 0.  1.
</event>
<event>
 5   0  0.3013140E-03  0.6988740E+03  0.7818609E-02  0.9719160E-01
        1   -1    0    0  501    0  0.00000000000E+00  0.00000000000E+00  0.28771740829E+03  0.28771740833E+03  0.50400001928E-02 0.  1.
       -1   -1    0    0    0  501  0.00000000000E+00  0.00000000000E+00 -0.42439629959E+03  0.42439629962E+03  0.50400001928E-02 0. -1.
    10030    2    1    2    0    0  0.00000000000E+00  0.00000000000E+00 -0.13667889131E+03  0.71211370796E+03  0.69887396126E+03 0.  0.
        2    1    3    3  502    0 -0.24132476398E+03 -0.23617903477E+03 -0.15997662973E+03  0.37364515285E+03  0.25500000920E-02 0. -1.
       -2    1    3    3    0  502  0.24132476398E+03  0.23617903477E+03  0.23297738428E+02  0.33846855511E+03  0.25500000920E-02 0.  1.
</event>
<event>
 5   0  0.2937617E-03  0.6925368E+03  0.7818609E-02  0.9730081E-01
        1   -1    0    0  501    0  0.00000000000E+00  0.00000000000E+00  0.11678954067E+03  0.11678954078E+03  0.50400001928E-02 0. -1.
       -1   -1    0    0    0  501  0.00000000000E+00  0.00000000000E+00 -0.10266486204E+04  0.10266486204E+04  0.50400001928E-02 0.  1.
    10030    2    1    2    0    0  0.00000000000E+00  0.00000000000E+00 -0.90985907976E+03  0.11434381612E+04  0.69253684632E+03 0.  0.
        3    1    3    3  502    0  0.56875438702E+02 -0.16585950431E+03 -0.94793193675E+03  0.96401201113E+03  0.10100000352E+00 0.  1.
       -3    1    3    3    0  502 -0.56875438702E+02  0.16585950431E+03  0.38072856985E+02  0.17942615009E+03  0.10100000352E+00 0. -1.
</event>
<event>
 5   0  0.2938783E-03  0.6999749E+03  0.7818609E-02  0.9717275E-01
       -1   -1    0    0    0  501  0.00000000000E+00  0.00000000000E+00  0.12899694389E+03  0.12899694399E+03  0.50400001928E-02 0. -1.
        1   -1    0    0  501    0  0.00000000000E+00  0.00000000000E+00 -0.94956679177E+03  0.94956679178E+03  0.50400001928E-02 0.  1.
    10030    2    1    2    0    0  0.00000000000E+00  0.00000000000E+00 -0.82056984788E+03  0.10785637358E+04  0.69997489732E+03 0.  0.
        4    1    3    3  502    0  0.15113466039E+03  0.15320967117E+00 -0.89668922556E+03  0.90933761012E+03  0.12699999809E+01 0.  1.
       -4    1    3    3    0  502 -0.15113466039E+03 -0.15320967117E+00  0.76119377681E+02  0.16922612565E+03  0.12699999809E+01 0. -1.
</event>
<event>
 5   0  0.3013140E-03  0.6999563E+03  0.7818609E-02  0.9717307E-01
        1   -1    0    0  501    0  0.00000000000E+00  0.00000000000E+00  0.12135874214E+04  0.12135874215E+04  0.50400001928E-02 0. -1.
       -1   -1    0    0    0  501  0.00000000000E+00  0.00000000000E+00 -0.10092778576E+03  0.10092778589E+03  0.50400001928E-02 0.  1.
    10030    2    1    2    0    0  0.00000000000E+00  0.00000000000E+00  0.11126596357E+04  0.13145152073E+04  0.69995625967E+03 0.  0.
        2    1    3    3  502    0  0.87564917899E+02 -0.24210253999E+03  0.11110829687E+03  0.28040383085E+03  0.25500000920E-02 0.  1.
       -2    1    3    3    0  502 -0.87564917899E+02  0.24210253999E+03  0.10015513388E+04  0.10341113765E+04  0.25500000920E-02 0. -1.
</event>
<event>
 5   0  0.5023894E-03  0.7015951E+03  0.7818609E-02  0.9714508E-01
        2   -1    0    0  501    0  0.00000000000E+00  0.00000000000E+00  0.31711765752E+03  0.31711765753E+03  0.25500000920E-02 0. -1.
       -2   -1    0    0    0  501  0.00000000000E+00  0.00000000000E+00 -0.38805450748E+03  0.38805450749E+03  0.25500000920E-02 0.  1.
    10030    2    1    2    0    0  0.00000000000E+00  0.00000000000E+00 -0.70936849964E+02  0.70517216501E+03  0.70159514367E+03 0.  0.
        2    1    3    3  502    0 -0.34231028432E+03  0.31852021776E+01  0.41554254991E+02  0.34483797990E+03  0.25500000920E-02 0.  1.
       -2    1    3    3    0  502  0.34231028432E+03 -0.31852021776E+01 -0.11249110496E+03  0.36033418512E+03  0.25500000920E-02 0. -1.
</event>
<event>
 5   0  0.3013140E-03  0.7000140E+03  0.7818609E-02  0.9717208E-01
        1   -1    0    0  501    0  0.00000000000E+00  0.00000000000E+00  0.80706139833E+03  0.80706139834E+03  0.50400001928E-02 0.  1.
       -1   -1    0    0    0  501  0.00000000000E+00  0.00000000000E+00 -0.15179131720E+03  0.15179131728E+03  0.50400001928E-02 0. -1.
    10030    2    1    2    0    0  0.00000000000E+00  0.00000000000E+00  0.65527008113E+03  0.95885271563E+03  0.70001403632E+03 0.  0.
        2    1    3    3  502    0  0.26066840813E+03 -0.15462836462E+03  0.56742935047E+03  0.64329932218E+03  0.25500000920E-02 0. -1.
       -2    1    3    3    0  502 -0.26066840813E+03  0.15462836462E+03  0.87840730659E+02  0.31555339344E+03  0.25500000920E-02 0.  1.
</event>
<event>
 5   0  0.2934483E-03  0.6994318E+03  0.7818609E-02  0.9718204E-01
        1   -1    0    0  501    0  0.00000000000E+00  0.00000000000E+00  0.84943206258E+03  0.84943206259E+03  0.50400001928E-02 0.  1.
       -1   -1    0    0    0  501  0.00000000000E+00  0.00000000000E+00 -0.14397998958E+03  0.14397998967E+03  0.50400001928E-02 0. -1.
    10030    2    1    2    0    0  0.00000000000E+00  0.00000000000E+00  0.70545207300E+03  0.99341205226E+03  0.69943182532E+03 0.  0.
        5    1    3    3  502    0  0.92799439052E+02  0.26356386522E+03  0.65133473428E+03  0.70875713260E+03  0.46999998093E+01 0.  1.
       -5    1    3    3    0  502 -0.92799439052E+02 -0.26356386522E+03  0.54117338721E+02  0.28465491966E+03  0.46999998093E+01 0. -1.
</event>
<event>
 5   0  0.2934483E-03  0.7003748E+03  0.7818609E-02  0.9716591E-01
       -1   -1    0    0    0  501  0.00000000000E+00  0.00000000000E+00  0.86266769118E+02  0.86266769265E+02  0.50400001928E-02 0.  1.
        1   -1    0    0  501    0  0.00000000000E+00  0.00000000000E+00 -0.14215349306E+04  0.14215349306E+04  0.50400001928E-02 0. -1.
    10030    2    1    2    0    0  0.00000000000E+00  0.00000000000E+00 -0.13352681615E+04  0.15078016999E+04  0.70037483041E+03 0.  0.
        5    1    3    3  502    0 -0.93228604169E+02 -0.12442587387E+03  0.78111799573E+01  0.15574490442E+03  0.46999998093E+01 0.  1.
       -5    1    3    3    0  502  0.93228604169E+02  0.12442587387E+03 -0.13430793414E+04  0.13520567954E+04  0.46999998093E+01 0. -1.
</event>
<event>
 5   0  0.5113683E-03  0.6998057E+03  0.7818609E-02  0.9717564E-01
       -2   -1    0    0    0  501  0.00000000000E+00  0.00000000000E+00  0.12140053357E+03  0.12140053360E+03  0.25500000920E-02 0. -1.
        2   -1    0    0  501    0  0.00000000000E+00  0.00000000000E+00 -0.10084964849E+04  0.10084964849E+04  0.25500000920E-02 0.  1.
    10030    2    1    2    0    0  0.00000000000E+00  0.00000000000E+00 -0.88709595132E+03  0.11298970185E+04  0.69980571987E+03 0.  0.
        3    1    3    3  502    0 -0.77609368328E+02 -0.30604305179E+03 -0.20003726416E+03  0.37376527508E+03  0.10100000352E+00 0. -1.
       -3    1    3    3    0  502  0.77609368328E+02  0.30604305179E+03 -0.68705868716E+03  0.75613174342E+03  0.10100000352E+00 0.  1.
</event>
<event>
 5   0  0.5113683E-03  0.6991944E+03  0.7818609E-02  0.9718611E-01
       -2   -1    0    0    0  501  0.00000000000E+00  0.00000000000E+00  0.13256810116E+03  0.13256810118E+03  0.25500000920E-02 0.  1.
        2   -1    0    0  501    0  0.00000000000E+00  0.00000000000E+00 -0.92192779696E+03  0.92192779696E+03  0.25500000920E-02 0. -1.
    10030    2    1    2    0    0  0.00000000000E+00  0.00000000000E+00 -0.78935969580E+03  0.10544958981E+04  0.69919444351E+03 0.  0.
        3    1    3    3  502    0 -0.12301150860E+03 -0.25803793145E+03 -0.91158347387E+02  0.30004209674E+03  0.10100000352E+00 0.  1.
       -3    1    3    3    0  502  0.12301150860E+03  0.25803793145E+03 -0.69820134842E+03  0.75445380140E+03  0.10100000352E+00 0. -1.
</event>
<event>
 5   0  0.4878235E-03  0.7004801E+03  0.7818609E-02  0.9716412E-01
       -2   -1    0    0    0  501  0.00000000000E+00  0.00000000000E+00  0.72588958856E+03  0.72588958856E+03  0.25500000920E-02 0.  1.
        2   -1    0    0  501    0  0.00000000000E+00  0.00000000000E+00 -0.16898999969E+03  0.16898999971E+03  0.25500000920E-02 0. -1.
    10030    2    1    2    0    0  0.00000000000E+00  0.00000000000E+00  0.55689958887E+03  0.89487958827E+03  0.70048006782E+03 0.  0.
        4    1    3    3  502    0 -0.11819917334E+03  0.10804628484E+03 -0.11947650484E+03  0.19980313399E+03  0.12699999809E+01 0. -1.
       -4    1    3    3    0  502  0.11819917334E+03 -0.10804628484E+03  0.67637609371E+03  0.69507645428E+03  0.12699999809E+01 0.  1.
</event>
<event>
 5   0  0.5113683E-03  0.7018517E+03  0.7818609E-02  0.9714071E-01
        2   -1    0    0  501    0  0.00000000000E+00  0.00000000000E+00  0.24581511020E+04  0.24581511020E+04  0.25500000920E-02 0. -1.
       -2   -1    0    0    0  501  0.00000000000E+00  0.00000000000E+00 -0.50098204745E+02  0.50098204810E+02  0.25500000920E-02 0.  1.
    10030    2    1    2    0    0  0.00000000000E+00  0.00000000000E+00  0.24080528973E+04  0.25082493068E+04  0.70185171450E+03 0.  0.
        3    1    3    3  502    0  0.65127914795E+02 -0.85497708218E+02  0.10169039518E+02  0.10795796850E+03  0.10100000352E+00 0.  1.
       -3    1    3    3    0  502 -0.65127914795E+02  0.85497708218E+02  0.23978838578E+04  0.24002913383E+04  0.10100000352E+00 0. -1.
</event>
<event>
 5   0  0.5072407E-03  0.6984326E+03  0.7818609E-02  0.9719916E-01
       -2   -1    0    0    0  501  0.00000000000E+00  0.00000000000E+00  0.73280569706E+02  0.73280569750E+02  0.25500000920E-02 0. -1.
        2   -1    0    0  501    0  0.00000000000E+00  0.00000000000E+00 -0.16641796311E+04  0.16641796311E+04  0.25500000920E-02 0.  1.
    10030    2    1    2    0    0  0.00000000000E+00  0.00000000000E+00 -0.15908990614E+04  0.17374602008E+04  0.69843262094E+03 0.  0.
        1    1    3    3  502    0  0.18577992157E+03  0.28212138056E+03 -0.57510751908E+03  0.66697474551E+03  0.50400001928E-02 0.  1.
       -1    1    3    3    0  502 -0.18577992157E+03 -0.28212138056E+03 -0.10157915423E+04  0.10704854553E+04  0.50400001928E-02 0. -1.
</event>
<event>
 5   0  0.5076796E-03  0.6998543E+03  0.7818609E-02  0.9717481E-01
        2   -1    0    0  501    0  0.00000000000E+00  0.00000000000E+00  0.67770242707E+03  0.67770242707E+03  0.25500000920E-02 0.  1.
       -2   -1    0    0    0  501  0.00000000000E+00  0.00000000000E+00 -0.18068256260E+03  0.18068256262E+03  0.25500000920E-02 0. -1.
    10030    2    1    2    0    0  0.00000000000E+00  0.00000000000E+00  0.49701986447E+03  0.85838498969E+03  0.69985430259E+03 0.  0.
        5    1    3    3  502    0  0.24149877749E+03  0.14695096984E+03  0.50139516755E+03  0.57561745205E+03  0.46999998093E+01 0.  1.
       -5    1    3    3    0  502 -0.24149877749E+03 -0.14695096984E+03 -0.43753030838E+01  0.28276753764E+03  0.46999998093E+01 0. -1.
</event>
<event>
 5   0  0.5076796E-03  0.6989491E+03  0.7818609E-02  0.9719031E-01
        2   -1    0    0  501    0  0.00000000000E+00  0.00000000000E+00  0.21156062638E+04  0.21156062638E+04  0.25500000920E-02 0.  1.
       -2   -1    0    0    0  501  0.00000000000E+00  0.00000000000E+00 -0.57729293649E+02  0.57729293705E+02  0.25500000920E-02 0. -1.
    10030    2    1    2    0    0  0.00000000000E+00  0.00000000000E+00  0.20578769701E+04  0.21733355575E+04  0.69894908344E+03 0.  0.
        5    1    3    3  502    0 -0.12757799509E+03 -0.31156588635E+03  0.73789620977E+03  0.81108714252E+03  0.46999998093E+01 0. -1.
       -5    1    3    3    0  502  0.12757799509E+03  0.31156588635E+03  0.13199807603E+04  0.13622484150E+04  0.46999998093E+01 0.  1.
</event>
<event>
 5   0  0.2937617E-03  0.7002700E+03  0.7818609E-02  0.9716771E-01
        1   -1    0    0  501    0  0.00000000000E+00  0.00000000000E+00  0.47791312881E+03  0.47791312884E+03  0.50400001928E-02 0. -1.
       -1   -1    0    0    0  501  0.00000000000E+00  0.00000000000E+00 -0.25652052333E+03  0.25652052338E+03  0.50400001928E-02 0.  1.
    10030    2    1    2    0    0  0.00000000000E+00  0.00000000000E+00  0.22139260548E+03  0.73443365222E+03  0.70027002203E+03 0.  0.
        3    1    3    3  502    0 -0.11795702035E+03 -0.17728749491E+02 -0.23455414719E+03  0.26314221512E+03  0.10100000352E+00 0.  1.
       -3    1    3    3    0  502  0.11795702035E+03  0.17728749491E+02  0.45594675267E+03  0.47129143710E+03  0.10100000352E+00 0. -1.
</event>
<event>
 5   0  0.1981750E-03  0.6945519E+03  0.7818609E-02  0.9726595E-01
       -3   -1    0    0    0  501  0.00000000000E+00  0.00000000000E+00  0.46823254679E+03  0.46823255768E+03  0.10100000352E+00 0.  1.
        3   -1    0    0  501    0  0.00000000000E+00  0.00000000000E+00 -0.25756552620E+03  0.25756554601E+03  0.10100000352E+00 0. -1.
    10030    2    1    2    0    0  0.00000000000E+00  0.00000000000E+00  0.21066702058E+03  0.72579810369E+03  0.69455186542E+03 0.  0.
        1    1    3    3  502    0 -0.15645920730E+03 -0.27525858611E+03 -0.43751474458E+02  0.31962628853E+03  0.50400001928E-02 0. -1.
       -1    1    3    3    0  502  0.15645920730E+03  0.27525858611E+03  0.25441849504E+03  0.40617181515E+03  0.50400001928E-02 0.  1.
</event>
<event>
 5   0  0.2913582E-03  0.7003793E+03  0.7818609E-02  0.9716584E-01
        1   -1    0    0  501    0  0.00000000000E+00  0.00000000000E+00  0.86570427252E+03  0.86570427254E+03  0.50400001928E-02 0. -1.
       -1   -1    0    0    0  501  0.00000000000E+00  0.00000000000E+00 -0.14165668063E+03  0.14165668072E+03  0.50400001928E-02 0.  1.
    10030    2    1    2    0    0  0.00000000000E+00  0.00000000000E+00  0.72404759189E+03  0.10073609533E+04  0.70037930782E+03 0.  0.
        1    1    3    3  502    0  0.15148883142E+03  0.23225905318E+02 -0.90859274997E+02  0.17816766430E+03  0.50400001928E-02 0.  1.
       -1    1    3    3    0  502 -0.15148883142E+03 -0.23225905318E+02  0.81490686689E+03  0.82919328896E+03  0.50400001928E-02 0. -1.
</event>
<event>
 5   0  0.2937617E-03  0.7010777E+03  0.7818609E-02  0.9715391E-01
       -1   -1    0    0    0  501  0.00000000000E+00  0.00000000000E+00  0.49534730360E+03  0.49534730363E+03  0.50400001928E-02 0. -1.
        1   -1    0    0  501    0  0.00000000000E+00  0.00000000000E+00 -0.24806329226E+03  0.24806329231E+03  0.50400001928E-02 0.  1.
    10030    2    1    2    0    0  0.00000000000E+00  0.00000000000E+00  0.24728401134E+03  0.74341059594E+03  0.70107769319E+03 0.  0.
        3    1    3    3  502    0  0.11875054089E+03  0.58759067863E+02 -0.22048957187E+03  0.25723526299E+03  0.10100000352E+00 0.  1.
       -3    1    3    3    0  502 -0.11875054089E+03 -0.58759067863E+02  0.46777358321E+03  0.48617533295E+03  0.10100000352E+00 0. -1.
</event>
<event>
 5   0  0.2938783E-03  0.7008428E+03  0.7818609E-02  0.9715792E-01
        1   -1    0    0  501    0  0.00000000000E+00  0.00000000000E+00  0.72691375258E+03  0.72691375259E+03  0.50400001928E-02 0.  1.
       -1   -1    0    0    0  501  0.00000000000E+00  0.00000000000E+00 -0.16892670553E+03  0.16892670560E+03  0.50400001928E-02 0. -1.
    10030    2    1    2    0    0  0.00000000000E+00  0.00000000000E+00  0.55798704705E+03  0.89584045820E+03  0.70084276544E+03 0.  0.
        4    1    3    3  502    0  0.13535628577E+03  0.24145720569E+03  0.55365197077E+03  0.61899517277E+03  0.12699999809E+01 0.  1.
       -4    1    3    3    0  502 -0.13535628577E+03 -0.24145720569E+03  0.43350762796E+01  0.27684528543E+03  0.12699999809E+01 0. -1.
</event>
<event>
 5   0  0.2938783E-03  0.7118184E+03  0.7818609E-02  0.9697232E-01
        1   -1    0    0  501    0  0.00000000000E+00  0.00000000000E+00  0.19937469390E+03  0.19937469397E+03  0.50400001928E-02 0.  1.
       -1   -1    0    0    0  501  0.00000000000E+00  0.00000000000E+00 -0.63534329762E+03  0.63534329764E+03  0.50400001928E-02 0. -1.
    10030    2    1    2    0    0  0.00000000000E+00  0.00000000000E+00 -0.43596860372E+03  0.83471799161E+03  0.71181844742E+03 0.  0.
        4    1    3    3  502    0 -0.22191046485E+03  0.22999817038E+03 -0.40163263665E+03  0.51327750828E+03  0.12699999809E+01 0. -1.
       -4    1    3    3    0  502  0.22191046485E+03 -0.22999817038E+03 -0.34335967072E+02  0.32144048333E+03  0.12699999809E+01 0.  1.
</event>
<event>
 5   0  0.4878235E-03  0.7006038E+03  0.7818609E-02  0.9716200E-01
       -2   -1    0    0    0  501  0.00000000000E+00  0.00000000000E+00  0.48653838546E+03  0.48653838547E+03  0.25500000920E-02 0.  1.
        2   -1    0    0  501    0  0.00000000000E+00  0.00000000000E+00 -0.25221321587E+03  0.25221321588E+03  0.25500000920E-02 0. -1.
    10030    2    1    2    0    0  0.00000000000E+00  0.00000000000E+00  0.23432516959E+03  0.73875160135E+03  0.70060377061E+03 0.  0.
        4    1    3    3  502    0  0.25967074363E+03  0.23390100236E+03  0.91960923707E+02  0.36138206706E+03  0.12699999809E+01 0.  1.
       -4    1    3    3    0  502 -0.25967074363E+03 -0.23390100236E+03  0.14236424588E+03  0.37736953429E+03  0.12699999809E+01 0. -1.
</event>
<event>
 5   0  0.5076796E-03  0.7059510E+03  0.7818609E-02  0.9707109E-01
        2   -1    0    0  501    0  0.00000000000E+00  0.00000000000E+00  0.14588402394E+04  0.14588402394E+04  0.25500000920E-02 0.  1.
       -2   -1    0    0    0  501  0.00000000000E+00  0.00000000000E+00 -0.85404635935E+02  0.85404635973E+02  0.25500000920E-02 0. -1.
    10030    2    1    2    0    0  0.00000000000E+00  0.00000000000E+00  0.13734356035E+04  0.15442448754E+04  0.70595104523E+03 0.  0.
        5    1    3    3  502    0  0.27988065972E+03  0.21085213685E+03  0.59448492503E+03  0.69009146016E+03  0.46999998093E+01 0. -1.
       -5    1    3    3    0  502 -0.27988065972E+03 -0.21085213685E+03  0.77895067845E+03  0.85415341523E+03  0.46999998093E+01 0.  1.
</event>
<event>
 5   0  0.2938783E-03  0.7001310E+03  0.7818609E-02  0.9717008E-01
       -1   -1    0    0    0  501  0.00000000000E+00  0.00000000000E+00  0.66403165762E+02  0.66403165953E+02  0.50400001928E-02 0. -1.
        1   -1    0    0  501    0  0.00000000000E+00  0.00000000000E+00 -0.18454818974E+04  0.18454818974E+04  0.50400001928E-02 0.  1.
    10030    2    1    2    0    0  0.00000000000E+00  0.00000000000E+00 -0.17790787316E+04  0.19118850633E+04  0.70013096069E+03 0.  0.
        4    1    3    3  502    0 -0.16339462113E+03  0.26845067442E+03 -0.13106483010E+04  0.13477997435E+04  0.12699999809E+01 0.  1.
       -4    1    3    3    0  502  0.16339462113E+03 -0.26845067442E+03 -0.46843043061E+03  0.56408531982E+03  0.12699999809E+01 0. -1.
</event>
<event>
 5   0  0.5113683E-03  0.6999190E+03  0.7818609E-02  0.9717371E-01
        2   -1    0    0  501    0  0.00000000000E+00  0.00000000000E+00  0.94866221427E+03  0.94866221427E+03  0.25500000920E-02 0.  1.
       -2   -1    0    0    0  501  0.00000000000E+00  0.00000000000E+00 -0.12909934195E+03  0.12909934198E+03  0.25500000920E-02 0. -1.
    10030    2    1    2    0    0  0.00000000000E+00  0.00000000000E+00  0.81956287232E+03  0.10777615562E+04  0.69991904563E+03 0.  0.
        3    1    3    3  502    0 -0.28647644982E+03  0.58787741193E+02  0.11380039422E+03  0.31380773532E+03  0.10100000352E+00 0.  1.
       -3    1    3    3    0  502  0.28647644982E+03 -0.58787741193E+02  0.70576247810E+03  0.76395382093E+03  0.10100000352E+00 0. -1.
</event>
<event>
 5   0  0.5072407E-03  0.6994380E+03  0.7818609E-02  0.9718194E-01
       -2   -1    0    0    0  501  0.00000000000E+00  0.00000000000E+00  0.63032918580E+02  0.63032918632E+02  0.25500000920E-02 0. -1.
        2   -1    0    0  501    0  0.00000000000E+00  0.00000000000E+00 -0.19403094494E+04  0.19403094494E+04  0.25500000920E-02 0.  1.
    10030    2    1    2    0    0  0.00000000000E+00  0.00000000000E+00 -0.18772765308E+04  0.20033423681E+04  0.69943796751E+03 0.  0.
        1    1    3    3  502    0 -0.81333402598E+02  0.18442437773E+03 -0.12007373677E+03  0.23461708328E+03  0.50400001928E-02 0. -1.
       -1    1    3    3    0  502  0.81333402598E+02 -0.18442437773E+03 -0.17572027941E+04  0.17687252848E+04  0.50400001928E-02 0.  1.
</event>
<event>
 5   0  0.1981750E-03  0.6995551E+03  0.7818609E-02  0.9717993E-01
       -3   -1    0    0    0  501  0.00000000000E+00  0.00000000000E+00  0.16548955656E+03  0.16548958738E+03  0.10100000352E+00 0. -1.
        3   -1    0    0  501    0  0.00000000000E+00  0.00000000000E+00 -0.73928721429E+03  0.73928722119E+03  0.10100000352E+00 0.  1.
    10030    2    1    2    0    0  0.00000000000E+00  0.00000000000E+00 -0.57379765773E+03  0.90477680857E+03  0.69955508812E+03 0.  0.
        5    1    3    3  502    0  0.20608248607E+02  0.76283123007E+02  0.15375271379E+03  0.17293294007E+03  0.46999998093E+01 0. -1.
       -5    1    3    3    0  502 -0.20608248607E+02 -0.76283123007E+02 -0.72755037152E+03  0.73184386850E+03  0.46999998093E+01 0.  1.
</event>
<event>
 5   0  0.5023894E-03  0.6963696E+03  0.7818609E-02  0.9723461E-01
       -2   -1    0    0    0  501  0.00000000000E+00  0.00000000000E+00  0.10625806780E+03  0.10625806783E+03  0.25500000920E-02 0.  1.
        2   -1    0    0  501    0  0.00000000000E+00  0.00000000000E+00 -0.11409265533E+04  0.11409265533E+04  0.25500000920E-02 0. -1.
    10030    2    1    2    0    0  0.00000000000E+00  0.00000000000E+00 -0.10346684855E+04  0.12471846211E+04  0.69636958885E+03 0.  0.
        2    1    3    3  502    0 -0.40633764538E+02 -0.23886438600E+03 -0.96517026897E+03  0.99511855868E+03  0.25500000920E-02 0. -1.
       -2    1    3    3    0  502  0.40633764538E+02  0.23886438600E+03 -0.69498216499E+02  0.25206606242E+03  0.25500000920E-02 0.  1.
</event>
<event>
 5   0  0.1981750E-03  0.7007537E+03  0.7818609E-02  0.9715944E-01
       -4   -1    0    0    0  501  0.00000000000E+00  0.00000000000E+00  0.47447996165E+03  0.47448166130E+03  0.12699999809E+01 0.  1.
        4   -1    0    0  501    0  0.00000000000E+00  0.00000000000E+00 -0.25872990394E+03  0.25873302088E+03  0.12699999809E+01 0. -1.
    10030    2    1    2    0    0  0.00000000000E+00  0.00000000000E+00  0.21575005771E+03  0.73321468218E+03  0.70075365341E+03 0.  0.
        3    1    3    3  502    0  0.20178817513E+03  0.27432303195E+03  0.19410827914E+03  0.39198166757E+03  0.10100000352E+00 0.  1.
       -3    1    3    3    0  502 -0.20178817513E+03 -0.27432303195E+03  0.21641778569E+02  0.34123301461E+03  0.10100000352E+00 0. -1.
</event>
<event>
 5   0  0.2938783E-03  0.6990329E+03  0.7818609E-02  0.9718887E-01
        1   -1    0    0  501    0  0.00000000000E+00  0.00000000000E+00  0.67184232707E+03  0.67184232709E+03  0.50400001928E-02 0.  1.
       -1   -1    0    0    0  501  0.00000000000E+00  0.00000000000E+00 -0.18183098620E+03  0.18183098627E+03  0.50400001928E-02 0. -1.
    10030    2    1    2    0    0  0.00000000000E+00  0.00000000000E+00  0.49001134088E+03  0.85367331336E+03  0.69903291178E+03 0.  0.
        4    1    3    3  502    0  0.43111929354E+02  0.28847492991E+03  0.48017772161E+03  0.56182620166E+03  0.12699999809E+01 0.  1.
       -4    1    3    3    0  502 -0.43111929354E+02 -0.28847492991E+03  0.98336192697E+01  0.29184711170E+03  0.12699999809E+01 0. -1.
</event>
<event>
 5   0  0.5076796E-03  0.6973960E+03  0.7818609E-02  0.9721696E-01
       -2   -1    0    0    0  501  0.00000000000E+00  0.00000000000E+00  0.19958488731E+03  0.19958488733E+03  0.25500000920E-02 0.  1.
        2   -1    0    0  501    0  0.00000000000E+00  0.00000000000E+00 -0.60921595895E+03  0.60921595895E+03  0.25500000920E-02 0. -1.
    10030    2    1    2    0    0  0.00000000000E+00  0.00000000000E+00 -0.40963107163E+03  0.80880084628E+03  0.69739600952E+03 0.  0.
        5    1    3    3  502    0 -0.10405924198E+02  0.11610209101E+03 -0.58591142359E+03  0.59741297700E+03  0.46999998093E+01 0. -1.
       -5    1    3    3    0  502  0.10405924198E+02 -0.11610209101E+03  0.17628035196E+03  0.21138786928E+03  0.46999998093E+01 0.  1.
</event>
<event>
 5   0  0.1981750E-03  0.7000597E+03  0.7818609E-02  0.9717130E-01
       -4   -1    0    0    0  501  0.00000000000E+00  0.00000000000E+00  0.45397791642E+03  0.45397969283E+03  0.12699999809E+01 0. -1.
        4   -1    0    0  501    0  0.00000000000E+00  0.00000000000E+00 -0.26987910642E+03  0.26988209459E+03  0.12699999809E+01 0.  1.
    10030    2    1    2    0    0  0.00000000000E+00  0.00000000000E+00  0.18409881000E+03  0.72386178742E+03  0.70005965135E+03 0.  0.
        4    1    3    3  502    0  0.17992308775E+03 -0.13497464387E+03  0.36936353117E+03  0.43245982826E+03  0.12699999809E+01 0. -1.
       -4    1    3    3    0  502 -0.17992308775E+03  0.13497464387E+03 -0.18526472117E+03  0.29140195916E+03  0.12699999809E+01 0.  1.
</event>
<event>
 5   0  0.2934483E-03  0.7025580E+03  0.7818609E-02  0.9712868E-01
       -1   -1    0    0    0  501  0.00000000000E+00  0.00000000000E+00  0.57836258607E+02  0.57836258826E+02  0.50400001928E-02 0. -1.
        1   -1    0    0  501    0  0.00000000000E+00  0.00000000000E+00 -0.21335568543E+04  0.21335568543E+04  0.50400001928E-02 0.  1.
    10030    2    1    2    0    0  0.00000000000E+00  0.00000000000E+00 -0.20757205957E+04  0.21913931132E+04  0.70255802957E+03 0.  0.
        5    1    3    3  502    0 -0.16421636237E+03  0.17227575217E+03 -0.18436006220E+04  0.18589059395E+04  0.46999998093E+01 0.  1.
       -5    1    3    3    0  502  0.16421636237E+03 -0.17227575217E+03 -0.23211997372E+03  0.33248717367E+03  0.46999998093E+01 0. -1.
</event>
<event>
 5   0  0.2938783E-03  0.7008812E+03  0.7818609E-02  0.9715726E-01
        1   -1    0    0  501    0  0.00000000000E+00  0.00000000000E+00  0.41003590389E+03  0.41003590392E+03  0.50400001928E-02 0. -1.
       -1   -1    0    0    0  501  0.00000000000E+00  0.00000000000E+00 -0.29950700504E+03  0.29950700508E+03  0.50400001928E-02 0.  1.
    10030    2    1    2    0    0  0.00000000000E+00  0.00000000000E+00  0.11052889885E+03  0.70954290900E+03  0.70088123262E+03 0.  0.
        4    1    3    3  502    0  0.71875973926E+02 -0.37710756181E+02 -0.28985731184E+03  0.30101018403E+03  0.12699999809E+01 0.  1.
       -4    1    3    3    0  502 -0.71875973926E+02  0.37710756181E+02  0.40038621070E+03  0.40853272498E+03  0.12699999809E+01 0. -1.
</event>
<event>
 5   0  0.2937617E-03  0.7009164E+03  0.7818609E-02  0.9715666E-01
        1   -1    0    0  501    0  0.00000000000E+00  0.00000000000E+00  0.44989569244E+03  0.44989569246E+03  0.50400001928E-02 0.  1.
       -1   -1    0    0    0  501  0.00000000000E+00  0.00000000000E+00 -0.27299871245E+03  0.27299871250E+03  0.50400001928E-02 0. -1.
    10030    2    1    2    0    0  0.00000000000E+00  0.00000000000E+00  0.17689697998E+03  0.72289440496E+03  0.70091638531E+03 0.  0.
        3    1    3    3  502    0  0.98821917709E+02 -0.31729131291E+03 -0.26312234493E+02  0.33336450404E+03  0.10100000352E+00 0. -1.
       -3    1    3    3    0  502 -0.98821917709E+02  0.31729131291E+03  0.20320921448E+03  0.38952990093E+03  0.10100000352E+00 0.  1.
</event>
<event>
 5   0  0.1981750E-03  0.7001229E+03  0.7818609E-02  0.9717022E-01
        3   -1    0    0  501    0  0.00000000000E+00  0.00000000000E+00  0.13506549357E+04  0.13506549395E+04  0.10100000352E+00 0. -1.
       -3   -1    0    0    0  501  0.00000000000E+00  0.00000000000E+00 -0.90728563995E+02  0.90728620212E+02  0.10100000352E+00 0.  1.
    10030    2    1    2    0    0  0.00000000000E+00  0.00000000000E+00  0.12599263717E+04  0.14413835597E+04  0.70012292066E+03 0.  0.
        3    1    3    3  502    0 -0.55508954187E+00  0.30611898570E+03  0.97955138878E+03  0.10262699815E+04  0.10100000352E+00 0. -1.
       -3    1    3    3    0  502  0.55508954187E+00 -0.30611898570E+03  0.28037498297E+03  0.41511357820E+03  0.10100000352E+00 0.  1.
</event>
<event>
 5   0  0.1981750E-03  0.6995402E+03  0.7818609E-02  0.9718019E-01
       -3   -1    0    0    0  501  0.00000000000E+00  0.00000000000E+00  0.52003273841E+03  0.52003274822E+03  0.10100000352E+00 0.  1.
        3   -1    0    0  501    0  0.00000000000E+00  0.00000000000E+00 -0.23525271338E+03  0.23525273506E+03  0.10100000352E+00 0. -1.
    10030    2    1    2    0    0  0.00000000000E+00  0.00000000000E+00  0.28478002503E+03  0.75528548328E+03  0.69954020513E+03 0.  0.
        4    1    3    3  502    0 -0.18217791630E+03 -0.16640492539E+03  0.41005285816E+03  0.47856488773E+03  0.12699999809E+01 0.  1.
       -4    1    3    3    0  502  0.18217791630E+03  0.16640492539E+03 -0.12527283313E+03  0.27672059555E+03  0.12699999809E+01 0. -1.
</event>
<event>
 5   0  0.2934483E-03  0.6986872E+03  0.7818609E-02  0.9719480E-01
       -1   -1    0    0    0  501  0.00000000000E+00  0.00000000000E+00  0.53855860084E+03  0.53855860086E+03  0.50400001928E-02 0.  1.
        1   -1    0    0  501    0  0.00000000000E+00  0.00000000000E+00 -0.22660662750E+03  0.22660662755E+03  0.50400001928E-02 0. -1.
    10030    2    1    2    0    0  0.00000000000E+00  0.00000000000E+00  0.31195197334E+03  0.76516522841E+03  0.69868719260E+03 0.  0.
        5    1    3    3  502    0  0.25670002343E+03 -0.23028600540E+03  0.21687553814E+03  0.40741089253E+03  0.46999998093E+01 0. -1.
       -5    1    3    3    0  502 -0.25670002343E+03  0.23028600540E+03  0.95076435205E+02  0.35775433588E+03  0.46999998093E+01 0.  1.
</event>
<event>
 5   0  0.2938783E-03  0.6963572E+03  0.7818609E-02  0.9723482E-01
       -1   -1    0    0    0  501  0.00000000000E+00  0.00000000000E+00  0.91993371222E+02  0.91993371360E+02  0.50400001928E-02 0. -1.
        1   -1    0    0  501    0  0.00000000000E+00  0.00000000000E+00 -0.13177943615E+04  0.13177943615E+04  0.50400001928E-02 0.  1.
    10030    2    1    2    0    0  0.00000000000E+00  0.00000000000E+00 -0.12258009903E+04  0.14097877329E+04  0.69635722441E+03 0.  0.
        4    1    3    3  502    0 -0.29411925571E+03 -0.17429130765E+03 -0.47947974261E+03  0.58888541583E+03  0.12699999809E+01 0. -1.
       -4    1    3    3    0  502  0.29411925571E+03  0.17429130765E+03 -0.74632124767E+03  0.82090231704E+03  0.12699999809E+01 0.  1.
</event>
<event>
 5   0  0.2934483E-03  0.7008620E+03  0.7818609E-02  0.9715759E-01
       -1   -1    0    0    0  501  0.00000000000E+00  0.00000000000E+00  0.56841688325E+02  0.56841688548E+02  0.50400001928E-02 0.  1.
        1   -1    0    0  501    0  0.00000000000E+00  0.00000000000E+00 -0.21604192633E+04  0.21604192633E+04  0.50400001928E-02 0. -1.
    10030    2    1    2    0    0  0.00000000000E+00  0.00000000000E+00 -0.21035775749E+04  0.22172609518E+04  0.70086197976E+03 0.  0.
        5    1    3    3  502    0  0.18887113291E+03 -0.15804980742E+03 -0.26324267836E+03  0.36051469343E+03  0.46999998093E+01 0.  1.
       -5    1    3    3    0  502 -0.18887113291E+03  0.15804980742E+03 -0.18403348966E+04  0.18567462584E+04  0.46999998093E+01 0. -1.
</event>
<event>
 5   0  0.5072407E-03  0.7001185E+03  0.7818609E-02  0.9717030E-01
        2   -1    0    0  501    0  0.00000000000E+00  0.00000000000E+00  0.47035770191E+03  0.47035770191E+03  0.25500000920E-02 0.  1.
       -2   -1    0    0    0  501  0.00000000000E+00  0.00000000000E+00 -0.26052826316E+03  0.26052826317E+03  0.25500000920E-02 0. -1.
    10030    2    1    2    0    0  0.00000000000E+00  0.00000000000E+00  0.20982943875E+03  0.73088596508E+03  0.70011849039E+03 0.  0.
        1    1    3    3  502    0  0.19102190430E+03 -0.28825499377E+03  0.16172271086E+03  0.38175194117E+03  0.50400001928E-02 0. -1.
       -1    1    3    3    0  502 -0.19102190430E+03  0.28825499377E+03  0.48106727888E+02  0.34913402391E+03  0.50400001928E-02 0.  1.
</event>
<event>
 5   0  0.2913582E-03  0.6993449E+03  0.7818609E-02  0.9718353E-01
       -1   -1    0    0    0  501  0.00000000000E+00  0.00000000000E+00  0.11501692372E+03  0.11501692383E+03  0.50400001928E-02 0. -1.
        1   -1    0    0  501    0  0.00000000000E+00  0.00000000000E+00 -0.10630680839E+04  0.10630680839E+04  0.50400001928E-02 0.  1.
    10030    2    1    2    0    0  0.00000000000E+00  0.00000000000E+00 -0.94805116017E+03  0.11780850077E+04  0.69934489569E+03 0.  0.
        1    1    3    3  502    0  0.32741212129E+03 -0.11786075577E+03 -0.53191562510E+03  0.63562889107E+03  0.50400001928E-02 0.  1.
       -1    1    3    3    0  502 -0.32741212129E+03  0.11786075577E+03 -0.41613553507E+03  0.54245611665E+03  0.50400001928E-02 0. -1.
</event>
<event>
 5   0  0.4878235E-03  0.6995944E+03  0.7818609E-02  0.9717926E-01
       -2   -1    0    0    0  501  0.00000000000E+00  0.00000000000E+00  0.13532360256E+03  0.13532360259E+03  0.25500000920E-02 0. -1.
        2   -1    0    0  501    0  0.00000000000E+00  0.00000000000E+00 -0.90418884422E+03  0.90418884422E+03  0.25500000920E-02 0.  1.
    10030    2    1    2    0    0  0.00000000000E+00  0.00000000000E+00 -0.76886524166E+03  0.10395124468E+04  0.69959443054E+03 0.  0.
        4    1    3    3  502    0 -0.94310152087E+01 -0.20891134351E+03  0.32206237772E+02  0.21159335563E+03  0.12699999809E+01 0. -1.
       -4    1    3    3    0  502  0.94310152087E+01  0.20891134351E+03 -0.80107147943E+03  0.82791909118E+03  0.12699999809E+01 0.  1.
</event>
<event>
 5   0  0.5076796E-03  0.6995626E+03  0.7818609E-02  0.9717980E-01
        2   -1    0    0  501    0  0.00000000000E+00  0.00000000000E+00  0.12081685686E+03  0.12081685689E+03  0.25500000920E-02 0. -1.
       -2   -1    0    0    0  501  0.00000000000E+00  0.00000000000E+00 -0.10126646587E+04  0.10126646587E+04  0.25500000920E-02 0.  1.
    10030    2    1    2    0    0  0.00000000000E+00  0.00000000000E+00 -0.89184780184E+03  0.11334815156E+04  0.69956260944E+03 0.  0.
        5    1    3    3  502    0  0.86171601805E+02 -0.18375726456E+03 -0.90743859573E+03  0.92987051370E+03  0.46999998093E+01 0.  1.
       -5    1    3    3    0  502 -0.86171601805E+02  0.18375726456E+03  0.15590793894E+02  0.20361100188E+03  0.46999998093E+01 0. -1.
</event>
<event>
 5   0  0.1981750E-03  0.6999696E+03  0.7818609E-02  0.9717284E-01
       -4   -1    0    0    0  501  0.00000000000E+00  0.00000000000E+00  0.10448336269E+03  0.10449108086E+03  0.12699999809E+01 0.  1.
        4   -1    0    0  501    0  0.00000000000E+00  0.00000000000E+00 -0.11722821109E+04  0.11722827989E+04  0.12699999809E+01 0. -1.
    10030    2    1    2    0    0  0.00000000000E+00  0.00000000000E+00 -0.10677987483E+04  0.12767738797E+04  0.69996955163E+03 0.  0.
        5    1    3    3  502    0 -0.22423895845E+03 -0.29957430960E+02 -0.10209107223E+04  0.10456870235E+04  0.46999998093E+01 0. -1.
       -5    1    3    3    0  502  0.22423895845E+03  0.29957430960E+02 -0.46888025943E+02  0.23108685625E+03  0.46999998093E+01 0.  1.
</event>
<event>
 5   0  0.2913582E-03  0.7004646E+03  0.7818609E-02  0.9716438E-01
        1   -1    0    0  501    0  0.00000000000E+00  0.00000000000E+00  0.33774443990E+03  0.33774443993E+03  0.50400001928E-02 0.  1.
       -1   -1    0    0    0  501  0.00000000000E+00  0.00000000000E+00 -0.36318191992E+03  0.36318191996E+03  0.50400001928E-02 0. -1.
    10030    2    1    2    0    0  0.00000000000E+00  0.00000000000E+00 -0.25437480028E+02  0.70092635989E+03  0.70046462909E+03 0.  0.
        1    1    3    3  502    0  0.24441158322E+03 -0.20418327212E+03 -0.15853659834E+03  0.35575508944E+03  0.50400001928E-02 0. -1.
       -1    1    3    3    0  502 -0.24441158322E+03  0.20418327212E+03  0.13309911831E+03  0.34517127045E+03  0.50400001928E-02 0.  1.
</event>
<event>
 5   0  0.5023894E-03  0.7066782E+03  0.7818609E-02  0.9705879E-01
       -2   -1    0    0    0  501  0.00000000000E+00  0.00000000000E+00  0.35823026073E+03  0.35823026074E+03  0.25500000920E-02 0.  1.
        2   -1    0    0  501    0  0.00000000000E+00  0.00000000000E+00 -0.34851476265E+03  0.34851476266E+03  0.25500000920E-02 0. -1.
    10030    2    1    2    0    0  0.00000000000E+00  0.00000000000E+00  0.97154980788E+01  0.70674502339E+03  0.70667824163E+03 0.  0.
        2    1    3    3  502    0  0.14489759832E+03  0.25739877554E+03 -0.18906542460E+03  0.35070668434E+03  0.25500000920E-02 0. -1.
       -2    1    3    3    0  502 -0.14489759832E+03 -0.25739877554E+03  0.19878092268E+03  0.35603833906E+03  0.25500000920E-02 0.  1.
</event>
<event>
 5   0  0.2937617E-03  0.7001111E+03  0.7818609E-02  0.9717042E-01
       -1   -1    0    0    0  501  0.00000000000E+00  0.00000000000E+00  0.59025941643E+03  0.59025941646E+03  0.50400001928E-02 0.  1.
        1   -1    0    0  501    0  0.00000000000E+00  0.00000000000E+00 -0.20760174565E+03  0.20760174571E+03  0.50400001928E-02 0. -1.
    10030    2    1    2    0    0  0.00000000000E+00  0.00000000000E+00  0.38265767078E+03  0.79786116217E+03  0.70011109196E+03 0.  0.
        3    1    3    3  502    0  0.33313053816E+03 -0.10565225971E+03  0.21413605125E+03  0.40986902064E+03  0.10100000352E+00 0. -1.
       -3    1    3    3    0  502 -0.33313053816E+03  0.10565225971E+03  0.16852161953E+03  0.38799214153E+03  0.10100000352E+00 0.  1.
</event>
<event>
 5   0  0.2937617E-03  0.7001994E+03  0.7818609E-02  0.9716891E-01
       -1   -1    0    0    0  501  0.00000000000E+00  0.00000000000E+00  0.38894342532E+03  0.38894342536E+03  0.50400001928E-02 0.  1.
        1   -1    0    0  501    0  0.00000000000E+00  0.00000000000E+00 -0.31513530751E+03  0.31513530755E+03  0.50400001928E-02 0. -1.
    10030    2    1    2    0    0  0.00000000000E+00  0.00000000000E+00  0.73808117817E+02  0.70407873290E+03  0.70019941722E+03 0.  0.
        3    1    3    3  502    0  0.44443089009E+02 -0.27485439352E+03 -0.17652094021E+03  0.32966616194E+03  0.10100000352E+00 0. -1.
       -3    1    3    3    0  502 -0.44443089009E+02  0.27485439352E+03  0.25032905803E+03  0.37441257096E+03  0.10100000352E+00 0.  1.
</event>
<event>
 5   0  0.5023894E-03  0.6980712E+03  0.7818609E-02  0.9720536E-01
        2   -1    0    0  501    0  0.00000000000E+00  0.00000000000E+00  0.52370567775E+03  0.52370567775E+03  0.25500000920E-02 0.  1.
       -2   -1    0    0    0  501  0.00000000000E+00  0.00000000000E+00 -0.23262273447E+03  0.23262273449E+03  0.25500000920E-02 0. -1.
    10030    2    1    2    0    0  0.00000000000E+00  0.00000000000E+00  0.29108294327E+03  0.75632841224E+03  0.69807119071E+03 0.  0.
        2    1    3    3  502    0  0.21332391868E+02 -0.28763128442E+03 -0.67431137902E+02  0.29619889447E+03  0.25500000920E-02 0. -1.
       -2    1    3    3    0  502 -0.21332391868E+02  0.28763128442E+03  0.35851408118E+03  0.46012951777E+03  0.25500000920E-02 0.  1.
</event>
<event>
 5   0  0.2937617E-03  0.6995939E+03  0.7818609E-02  0.9717927E-01
        1   -1    0    0  501    0  0.00000000000E+00  0.00000000000E+00  0.25505254043E+03  0.25505254048E+03  0.50400001928E-02 0. -1.
       -1   -1    0    0    0  501  0.00000000000E+00  0.00000000000E+00 -0.47973606781E+03  0.47973606784E+03  0.50400001928E-02 0.  1.
    10030    2    1    2    0    0  0.00000000000E+00  0.00000000000E+00 -0.22468352738E+03  0.73478860832E+03  0.69959389036E+03 0.  0.
        3    1    3    3  502    0  0.19573897718E+03  0.88914496394E+02 -0.40215496176E+03  0.45601333130E+03  0.10100000352E+00 0.  1.
       -3    1    3    3    0  502 -0.19573897718E+03 -0.88914496394E+02  0.17747143437E+03  0.27877527702E+03  0.10100000352E+00 0. -1.
</event>
<event>
 5   0  0.5113683E-03  0.7006226E+03  0.7818609E-02  0.9716168E-01
        2   -1    0    0  501    0  0.00000000000E+00  0.00000000000E+00  0.46784022768E+03  0.46784022769E+03  0.25500000920E-02 0.  1.
       -2   -1    0    0    0  501  0.00000000000E+00  0.00000000000E+00 -0.26230750896E+03  0.26230750897E+03  0.25500000920E-02 0. -1.
    10030    2    1    2    0    0  0.00000000000E+00  0.00000000000E+00  0.20553271872E+03  0.73014773666E+03  0.70062259375E+03 0.  0.
        3    1    3    3  502    0  0.22319926074E+00 -0.33395198713E+03 -0.74940364286E+01  0.33403615120E+03  0.10100000352E+00 0. -1.
       -3    1    3    3    0  502 -0.22319926074E+00  0.33395198713E+03  0.21302675515E+03  0.39611158546E+03  0.10100000352E+00 0.  1.
</event>
<event>
 5   0  0.5113683E-03  0.6977600E+03  0.7818609E-02  0.9721071E-01
        2   -1    0    0  501    0  0.00000000000E+00  0.00000000000E+00  0.56465743832E+03  0.56465743833E+03  0.25500000920E-02 0. -1.
       -2   -1    0    0    0  501  0.00000000000E+00  0.00000000000E+00 -0.21555945612E+03  0.21555945613E+03  0.25500000920E-02 0.  1.
    10030    2    1    2    0    0  0.00000000000E+00  0.00000000000E+00  0.34909798220E+03  0.78021689446E+03  0.69775998827E+03 0.  0.
        3    1    3    3  502    0 -0.81595983130E+02 -0.30806119836E+03  0.15793387815E+02  0.31907530098E+03  0.10100000352E+00 0.  1.
       -3    1    3    3    0  502  0.81595983130E+02  0.30806119836E+03  0.33330459439E+03  0.46114159348E+03  0.10100000352E+00 0. -1.
</event>
<event>
 5   0  0.5023894E-03  0.7002827E+03  0.7818609E-02  0.9716749E-01
       -2   -1    0    0    0  501  0.00000000000E+00  0.00000000000E+00  0.34347245183E+03  0.34347245184E+03  0.25500000920E-02 0.  1.
        2   -1    0    0  501    0  0.00000000000E+00  0.00000000000E+00 -0.35693977857E+03  0.35693977858E+03  0.25500000920E-02 0. -1.
    10030    2    1    2    0    0  0.00000000000E+00  0.00000000000E+00 -0.13467326740E+02  0.70041223041E+03  0.70028274549E+03 0.  0.
        2    1    3    3  502    0 -0.63121887296E+02  0.11276535261E+03 -0.33221446037E+03  0.35646436721E+03  0.25500000920E-02 0. -1.
       -2    1    3    3    0  502  0.63121887296E+02 -0.11276535261E+03  0.31874713363E+03  0.34394786321E+03  0.25500000920E-02 0.  1.
</event>
<event>
 5   0  0.2938783E-03  0.6999275E+03  0.7818609E-02  0.9717356E-01
       -1   -1    0    0    0  501  0.00000000000E+00  0.00000000000E+00  0.90153084716E+02  0.90153084857E+02  0.50400001928E-02 0. -1.
        1   -1    0    0  501    0  0.00000000000E+00  0.00000000000E+00 -0.13585184190E+04  0.13585184190E+04  0.50400001928E-02 0.  1.
    10030    2    1    2    0    0  0.00000000000E+00  0.00000000000E+00 -0.12683653343E+04  0.14486715038E+04  0.69992749974E+03 0.  0.
        4    1    3    3  502    0  0.25644203747E+03 -0.16695966746E+02 -0.11258581793E+04  0.11548157978E+04  0.12699999809E+01 0.  1.
       -4    1    3    3    0  502 -0.25644203747E+03  0.16695966746E+02 -0.14250715492E+03  0.29385570607E+03  0.12699999809E+01 0. -1.
</event>
<event>
 5   0  0.5072407E-03  0.6991825E+03  0.7818609E-02  0.9718631E-01
        2   -1    0    0  501    0  0.00000000000E+00  0.00000000000E+00  0.37183829198E+03  0.37183829199E+03  0.25500000920E-02 0. -1.
       -2   -1    0    0    0  501  0.00000000000E+00  0.00000000000E+00 -0.32867529210E+03  0.32867529211E+03  0.25500000920E-02 0.  1.
    10030    2    1    2    0    0  0.00000000000E+00  0.00000000000E+00  0.43162999874E+02  0.70051358410E+03  0.69918254909E+03 0.  0.
        1    1    3    3  502    0 -0.48217256623E+02 -0.26448144111E+03  0.24547665515E+03  0.36405236543E+03  0.50400001928E-02 0. -1.
       -1    1    3    3    0  502  0.48217256623E+02  0.26448144111E+03 -0.20231365528E+03  0.33646121866E+03  0.50400001928E-02 0.  1.
</event>
<event>
 5   0  0.5023894E-03  0.7146033E+03  0.7818609E-02  0.9692579E-01
        2   -1    0    0  501    0  0.00000000000E+00  0.00000000000E+00  0.44930851744E+03  0.44930851744E+03  0.25500000920E-02 0.  1.
       -2   -1    0    0    0  501  0.00000000000E+00  0.00000000000E+00 -0.28413543147E+03  0.28413543148E+03  0.25500000920E-02 0. -1.
    10030    2    1    2    0    0  0.00000000000E+00  0.00000000000E+00  0.16517308597E+03  0.73344394892E+03  0.71460330106E+03 0.  0.
        2    1    3    3  502    0 -0.10509395225E+03  0.27641714700E+03 -0.12323305372E+03  0.32037097792E+03  0.25500000920E-02 0. -1.
       -2    1    3    3    0  502  0.10509395225E+03 -0.27641714700E+03  0.28840613969E+03  0.41307297100E+03  0.25500000920E-02 0.  1.
</event>
<event>
 5   0  0.5072407E-03  0.7029495E+03  0.7818609E-02  0.9712201E-01
        2   -1    0    0  501    0  0.00000000000E+00  0.00000000000E+00  0.18008998249E+04  0.18008998249E+04  0.25500000920E-02 0. -1.
       -2   -1    0    0    0  501  0.00000000000E+00  0.00000000000E+00 -0.68595989581E+02  0.68595989629E+02  0.25500000920E-02 0.  1.
    10030    2    1    2    0    0  0.00000000000E+00  0.00000000000E+00  0.17323038353E+04  0.18694958145E+04  0.70294951646E+03 0.  0.
        1    1    3    3  502    0 -0.47234814348E+02  0.27158333296E+03  0.14460568004E+04  0.14720967715E+04  0.50400001928E-02 0.  1.
       -1    1    3    3    0  502  0.47234814348E+02 -0.27158333296E+03  0.28624703487E+03  0.39739904306E+03  0.50400001928E-02 0. -1.
</event>
<event>
 5   0  0.5113683E-03  0.7000437E+03  0.7818609E-02  0.9717157E-01
       -2   -1    0    0    0  501  0.00000000000E+00  0.00000000000E+00  0.10477565743E+03  0.10477565746E+03  0.25500000920E-02 0.  1.
        2   -1    0    0  501    0  0.00000000000E+00  0.00000000000E+00 -0.11693106861E+04  0.11693106861E+04  0.25500000920E-02 0. -1.
    10030    2    1    2    0    0  0.00000000000E+00  0.00000000000E+00 -0.10645350287E+04  0.12740863435E+04  0.70004370119E+03 0.  0.
        3    1    3    3  502    0  0.93994587424E+02 -0.56460558228E+02  0.72711242725E+02  0.13156637914E+03  0.10100000352E+00 0.  1.
       -3    1    3    3    0  502 -0.93994587424E+02  0.56460558228E+02 -0.11372462714E+04  0.11425199644E+04  0.10100000352E+00 0. -1.
</event>
<event>
 5   0  0.1981750E-03  0.6988709E+03  0.7818609E-02  0.9719165E-01
        4   -1    0    0  501    0  0.00000000000E+00  0.00000000000E+00  0.20264959314E+03  0.20265357263E+03  0.12699999809E+01 0. -1.
       -4   -1    0    0    0  501  0.00000000000E+00  0.00000000000E+00 -0.60253256394E+03  0.60253390237E+03  0.12699999809E+01 0.  1.
    10030    2    1    2    0    0  0.00000000000E+00  0.00000000000E+00 -0.39988297079E+03  0.80518747500E+03  0.69887086044E+03 0.  0.
        5    1    3    3  502    0 -0.15506011371E+03  0.11577353658E+03 -0.53512089602E+03  0.56905501842E+03  0.46999998093E+01 0.  1.
       -5    1    3    3    0  502  0.15506011371E+03 -0.11577353658E+03  0.13523792522E+03  0.23613245659E+03  0.46999998093E+01 0. -1.
</event>
<event>
 5   0  0.5072407E-03  0.7003891E+03  0.7818609E-02  0.9716567E-01
        2   -1    0    0  501    0  0.00000000000E+00  0.00000000000E+00  0.26753664339E+03  0.26753664340E+03  0.25500000920E-02 0.  1.
       -2   -1    0    0    0  501  0.00000000000E+00  0.00000000000E+00 -0.45839036467E+03  0.45839036467E+03  0.25500000920E-02 0. -1.
    10030    2    1    2    0    0  0.00000000000E+00  0.00000000000E+00 -0.19085372128E+03  0.72592700807E+03  0.70038909052E+03 0.  0.
        1    1    3    3  502    0  0.26664807056E+03  0.21357607715E+02 -0.32967397992E+03  0.42454949535E+03  0.50400001928E-02 0. -1.
       -1    1    3    3    0  502 -0.26664807056E+03 -0.21357607715E+02  0.13882025864E+03  0.30137751272E+03  0.50400001928E-02 0.  1.
</event>
<event>
 5   0  0.4878235E-03  0.7000658E+03  0.7818609E-02  0.9717120E-01
        2   -1    0    0  501    0  0.00000000000E+00  0.00000000000E+00  0.18580139697E+04  0.18580139697E+04  0.25500000920E-02 0. -1.
       -2   -1    0    0    0  501  0.00000000000E+00  0.00000000000E+00 -0.65942999620E+02  0.65942999669E+02  0.25500000920E-02 0.  1.
    10030    2    1    2    0    0  0.00000000000E+00  0.00000000000E+00  0.17920709701E+04  0.19239569694E+04  0.70006575276E+03 0.  0.
        4    1    3    3  502    0 -0.28953834005E+03 -0.16881428790E+03  0.11734685781E+04  0.12203937196E+04  0.12699999809E+01 0.  1.
       -4    1    3    3    0  502  0.28953834005E+03  0.16881428790E+03  0.61860239197E+03  0.70356324975E+03  0.12699999809E+01 0. -1.
</event>
<event>
 5   0  0.2913582E-03  0.7003286E+03  0.7818609E-02  0.9716670E-01
        1   -1    0    0  501    0  0.00000000000E+00  0.00000000000E+00  0.71143143509E+03  0.71143143510E+03  0.50400001928E-02 0. -1.
       -1   -1    0    0    0  501  0.00000000000E+00  0.00000000000E+00 -0.17234975997E+03  0.17234976005E+03  0.50400001928E-02 0.  1.
    10030    2    1    2    0    0  0.00000000000E+00  0.00000000000E+00  0.53908167511E+03  0.88378119515E+03  0.70032860034E+03 0.  0.
        1    1    3    3  502    0 -0.31088055424E+03  0.16097479028E+03  0.26014501440E+03  0.43615940968E+03  0.50400001928E-02 0.  1.
       -1    1    3    3    0  502  0.31088055424E+03 -0.16097479028E+03  0.27893666071E+03  0.44762178547E+03  0.50400001928E-02 0. -1.
</event>
<event>
 5   0  0.3013140E-03  0.7028502E+03  0.7818609E-02  0.9712370E-01
       -1   -1    0    0    0  501  0.00000000000E+00  0.00000000000E+00  0.97730719896E+02  0.97730720026E+02  0.50400001928E-02 0.  1.
        1   -1    0    0  501    0  0.00000000000E+00  0.00000000000E+00 -0.12636723337E+04  0.12636723337E+04  0.50400001928E-02 0. -1.
    10030    2    1    2    0    0  0.00000000000E+00  0.00000000000E+00 -0.11659416138E+04  0.13614030537E+04  0.70285021726E+03 0.  0.
        2    1    3    3  502    0  0.25245519815E+03 -0.91701626862E+02 -0.14401289743E+03  0.30476635325E+03  0.25500000920E-02 0.  1.
       -2    1    3    3    0  502 -0.25245519815E+03  0.91701626862E+02 -0.10219287163E+04  0.10566367004E+04  0.25500000920E-02 0. -1.
</event>
<event>
 5   0  0.2934483E-03  0.6927673E+03  0.7818609E-02  0.9729682E-01
       -1   -1    0    0    0  501  0.00000000000E+00  0.00000000000E+00  0.52925248472E+03  0.52925248475E+03  0.50400001928E-02 0. -1.
        1   -1    0    0  501    0  0.00000000000E+00  0.00000000000E+00 -0.22670015037E+03  0.22670015042E+03  0.50400001928E-02 0.  1.
    10030    2    1    2    0    0  0.00000000000E+00  0.00000000000E+00  0.30255233436E+03  0.75595263517E+03  0.69276725644E+03 0.  0.
        5    1    3    3  502    0  0.23044142742E+03 -0.24240746267E+03  0.24945388572E+03  0.41726964966E+03  0.46999998093E+01 0. -1.
       -5    1    3    3    0  502 -0.23044142742E+03  0.24240746267E+03  0.53098448634E+02  0.33868298551E+03  0.46999998093E+01 0.  1.
</event>
<event>
 5   0  0.2934483E-03  0.6999974E+03  0.7818609E-02  0.9717237E-01
        1   -1    0    0  501    0  0.00000000000E+00  0.00000000000E+00  0.68079343796E+03  0.68079343798E+03  0.50400001928E-02 0.  1.
       -1   -1    0    0    0  501  0.00000000000E+00  0.00000000000E+00 -0.17993575090E+03  0.17993575097E+03  0.50400001928E-02 0. -1.
    10030    2    1    2    0    0  0.00000000000E+00  0.00000000000E+00  0.50085768705E+03  0.86072918895E+03  0.69999736716E+03 0.  0.
        5    1    3    3  502    0  0.20907988154E+03 -0.82032233408E+02 -0.79588521987E+02  0.23832773027E+03  0.46999998093E+01 0. -1.
       -5    1    3    3    0  502 -0.20907988154E+03  0.82032233408E+02  0.58044620904E+03  0.62240145868E+03  0.46999998093E+01 0.  1.
</event>
<event>
 5   0  0.2913582E-03  0.6999524E+03  0.7818609E-02  0.9717314E-01
       -1   -1    0    0    0  501  0.00000000000E+00  0.00000000000E+00  0.14814954700E+03  0.14814954709E+03  0.50400001928E-02 0. -1.
        1   -1    0    0  501    0  0.00000000000E+00  0.00000000000E+00 -0.82675480004E+03  0.82675480006E+03  0.50400001928E-02 0.  1.
    10030    2    1    2    0    0  0.00000000000E+00  0.00000000000E+00 -0.67860525303E+03  0.97490434715E+03  0.69995242455E+03 0.  0.
        1    1    3    3  502    0  0.28466420287E+03  0.16824557043E+03 -0.17962580654E+03  0.37630534246E+03  0.50400001928E-02 0. -1.
       -1    1    3    3    0  502 -0.28466420287E+03 -0.16824557043E+03 -0.49897944650E+03  0.59859900469E+03  0.50400001928E-02 0.  1.
</event>
<event>
 5   0  0.4878235E-03  0.6990146E+03  0.7818609E-02  0.9718919E-01
        2   -1    0    0  501    0  0.00000000000E+00  0.00000000000E+00  0.13204654602E+03  0.13204654604E+03  0.25500000920E-02 0.  1.
       -2   -1    0    0    0  501  0.00000000000E+00  0.00000000000E+00 -0.92509321771E+03  0.92509321772E+03  0.25500000920E-02 0. -1.
    10030    2    1    2    0    0  0.00000000000E+00  0.00000000000E+00 -0.79304667170E+03  0.10571397638E+04  0.69901463263E+03 0.  0.
        4    1    3    3  502    0 -0.28579184674E+03 -0.16922293605E+03 -0.23196163407E+03  0.40511874102E+03  0.12699999809E+01 0.  1.
       -4    1    3    3    0  502  0.28579184674E+03  0.16922293605E+03 -0.56108503763E+03  0.65202102274E+03  0.12699999809E+01 0. -1.
</event>
<event>
 5   0  0.2913582E-03  0.7001297E+03  0.7818609E-02  0.9717010E-01
       -1   -1    0    0    0  501  0.00000000000E+00  0.00000000000E+00  0.27682820599E+03  0.27682820603E+03  0.50400001928E-02 0. -1.
        1   -1    0    0  501    0  0.00000000000E+00  0.00000000000E+00 -0.44267677018E+03  0.44267677021E+03  0.50400001928E-02 0.  1.
    10030    2    1    2    0    0  0.00000000000E+00  0.00000000000E+00 -0.16584856419E+03  0.71950497624E+03  0.70012974839E+03 0.  0.
        1    1    3    3  502    0  0.29147379245E+03 -0.14610828374E+03  0.48041899388E+02  0.32956429780E+03  0.50400001928E-02 0. -1.
       -1    1    3    3    0  502 -0.29147379245E+03  0.14610828374E+03 -0.21389046358E+03  0.38994067844E+03  0.50400001928E-02 0.  1.
</event>
<event>
 5   0  0.5076796E-03  0.7004192E+03  0.7818609E-02  0.9716516E-01
        2   -1    0    0  501    0  0.00000000000E+00  0.00000000000E+00  0.77307890053E+03  0.77307890053E+03  0.25500000920E-02 0. -1.
       -2   -1    0    0    0  501  0.00000000000E+00  0.00000000000E+00 -0.15864715031E+03  0.15864715033E+03  0.25500000920E-02 0.  1.
    10030    2    1    2    0    0  0.00000000000E+00  0.00000000000E+00  0.61443175021E+03  0.93172605086E+03  0.70041920176E+03 0.  0.
        5    1    3    3  502    0  0.62433840517E+02 -0.24161852038E+02  0.76444511856E+03  0.76738530663E+03  0.46999998093E+01 0. -1.
       -5    1    3    3    0  502 -0.62433840517E+02  0.24161852038E+02 -0.15001336835E+03  0.16434074424E+03  0.46999998093E+01 0.  1.
</event>
<event>
 5   0  0.5076796E-03  0.6995886E+03  0.7818609E-02  0.9717936E-01
        2   -1    0    0  501    0  0.00000000000E+00  0.00000000000E+00  0.44738778695E+03  0.44738778695E+03  0.25500000920E-02 0.  1.
       -2   -1    0    0    0  501  0.00000000000E+00  0.00000000000E+00 -0.27348992305E+03  0.27348992306E+03  0.25500000920E-02 0. -1.
    10030    2    1    2    0    0  0.00000000000E+00  0.00000000000E+00  0.17389786390E+03  0.72087771002E+03  0.69958859748E+03 0.  0.
        5    1    3    3  502    0 -0.64591312603E+02 -0.34055883081E+03  0.38819904347E+02  0.34882865403E+03  0.46999998093E+01 0. -1.
       -5    1    3    3    0  502  0.64591312603E+02  0.34055883081E+03  0.13507795955E+03  0.37204905598E+03  0.46999998093E+01 0.  1.
</event>
<event>
 5   0  0.5076796E-03  0.7000370E+03  0.7818609E-02  0.9717169E-01
        2   -1    0    0  501    0  0.00000000000E+00  0.00000000000E+00  0.32874383934E+03  0.32874383935E+03  0.25500000920E-02 0. -1.
       -2   -1    0    0    0  501  0.00000000000E+00  0.00000000000E+00 -0.37266995305E+03  0.37266995306E+03  0.25500000920E-02 0.  1.
    10030    2    1    2    0    0  0.00000000000E+00  0.00000000000E+00 -0.43926113715E+02  0.70141379241E+03  0.70003700239E+03 0.  0.
        5    1    3    3  502    0 -0.11689402879E+03 -0.23769373538E+03 -0.25116683110E+03  0.36506080706E+03  0.46999998093E+01 0.  1.
       -5    1    3    3    0  502  0.11689402879E+03  0.23769373538E+03  0.20724071739E+03  0.33635298535E+03  0.46999998093E+01 0. -1.
</event>
<event>
 5   0  0.5023894E-03  0.6998404E+03  0.7818609E-02  0.9717505E-01
       -2   -1    0    0    0  501  0.00000000000E+00  0.00000000000E+00  0.99327839479E+03  0.99327839479E+03  0.25500000920E-02 0. -1.
        2   -1    0    0  501    0  0.00000000000E+00  0.00000000000E+00 -0.12327274660E+03  0.12327274663E+03  0.25500000920E-02 0.  1.
    10030    2    1    2    0    0  0.00000000000E+00  0.00000000000E+00  0.87000564818E+03  0.11165511414E+04  0.69984042719E+03 0.  0.
        2    1    3    3  502    0 -0.27985421666E+02 -0.29649522934E+03  0.14189564143E+03  0.32988934192E+03  0.25500000920E-02 0.  1.
       -2    1    3    3    0  502  0.27985421666E+02  0.29649522934E+03  0.72811000676E+03  0.78666179950E+03  0.25500000920E-02 0. -1.
</event>
<event>
 5   0  0.2938783E-03  0.6938757E+03  0.7818609E-02  0.9727763E-01
       -1   -1    0    0    0  501  0.00000000000E+00  0.00000000000E+00  0.10425629483E+03  0.10425629495E+03  0.50400001928E-02 0.  1.
        1   -1    0    0  501    0  0.00000000000E+00  0.00000000000E+00 -0.11545190300E+04  0.11545190301E+04  0.50400001928E-02 0. -1.
    10030    2    1    2    0    0  0.00000000000E+00  0.00000000000E+00 -0.10502627352E+04  0.12587753250E+04  0.69387571355E+03 0.  0.
        4    1    3    3  502    0 -0.19394187267E+03 -0.11818412316E+03 -0.10009134932E+04  0.10263578181E+04  0.12699999809E+01 0. -1.
       -4    1    3    3    0  502  0.19394187267E+03  0.11818412316E+03 -0.49349242019E+02  0.23241750694E+03  0.12699999809E+01 0.  1.
</event>
<event>
 5   0  0.5072407E-03  0.6993220E+03  0.7818609E-02  0.9718392E-01
       -2   -1    0    0    0  501  0.00000000000E+00  0.00000000000E+00  0.76560453712E+02  0.76560453755E+02  0.25500000920E-02 0. -1.
        2   -1    0    0  501    0  0.00000000000E+00  0.00000000000E+00 -0.15969448734E+04  0.15969448734E+04  0.25500000920E-02 0.  1.
    10030    2    1    2    0    0  0.00000000000E+00  0.00000000000E+00 -0.15203844197E+04  0.16735053271E+04  0.69932202624E+03 0.  0.
        1    1    3    3  502    0  0.12493685735E+03  0.15974786031E+03 -0.78557114295E+02  0.21748521198E+03  0.50400001928E-02 0. -1.
       -1    1    3    3    0  502 -0.12493685735E+03 -0.15974786031E+03 -0.14418273054E+04  0.14560201152E+04  0.50400001928E-02 0.  1.
</event>
<event>
 5   0  0.5076796E-03  0.7034961E+03  0.7818609E-02  0.9711272E-01
        2   -1    0    0  501    0  0.00000000000E+00  0.00000000000E+00  0.60213092125E+03  0.60213092125E+03  0.25500000920E-02 0. -1.
       -2   -1    0    0    0  501  0.00000000000E+00  0.00000000000E+00 -0.20548139391E+03  0.20548139393E+03  0.25500000920E-02 0.  1.
    10030    2    1    2    0    0  0.00000000000E+00  0.00000000000E+00  0.39664952734E+03  0.80761231518E+03  0.70349612942E+03 0.  0.
        5    1    3    3  502    0  0.96157449372E+02 -0.11680130983E+03  0.56283148621E+03  0.58282945440E+03  0.46999998093E+01 0. -1.
       -5    1    3    3    0  502 -0.96157449372E+02  0.11680130983E+03 -0.16618195888E+03  0.22478286078E+03  0.46999998093E+01 0.  1.
</event>
<event>
 5   0  0.4878235E-03  0.7002220E+03  0.7818609E-02  0.9716853E-01
       -2   -1    0    0    0  501  0.00000000000E+00  0.00000000000E+00  0.18667133872E+03  0.18667133874E+03  0.25500000920E-02 0.  1.
        2   -1    0    0  501    0  0.00000000000E+00  0.00000000000E+00 -0.65664985791E+03  0.65664985792E+03  0.25500000920E-02 0. -1.
    10030    2    1    2    0    0  0.00000000000E+00  0.00000000000E+00 -0.46997851919E+03  0.84332119666E+03  0.70022198782E+03 0.  0.
        4    1    3    3  502    0 -0.16632509545E+03 -0.29861336006E+03 -0.32625197063E+03  0.47252083279E+03  0.12699999809E+01 0.  1.
       -4    1    3    3    0  502  0.16632509545E+03  0.29861336006E+03 -0.14372654856E+03  0.37080036387E+03  0.12699999809E+01 0. -1.
</event>
<event>
 5   0  0.5113683E-03  0.7034731E+03  0.7818609E-02  0.9711311E-01
        2   -1    0    0  501    0  0.00000000000E+00  0.00000000000E+00  0.36074250923E+03  0.36074250924E+03  0.25500000920E-02 0.  1.
       -2   -1    0    0    0  501  0.00000000000E+00  0.00000000000E+00 -0.34295541919E+03  0.34295541920E+03  0.25500000920E-02 0. -1.
    10030    2    1    2    0    0  0.00000000000E+00  0.00000000000E+00  0.17787090037E+02  0.70369792845E+03  0.70347309396E+03 0.  0.
        3    1    3    3  502    0 -0.10595046667E+02 -0.33654435088E+03  0.11063265441E+03  0.35442058285E+03  0.10100000352E+00 0.  1.
       -3    1    3    3    0  502  0.10595046667E+02  0.33654435088E+03 -0.92845564368E+02  0.34927734560E+03  0.10100000352E+00 0. -1.
</event>
<event>
 5   0  0.5076796E-03  0.7011403E+03  0.7818609E-02  0.9715284E-01
        2   -1    0    0  501    0  0.00000000000E+00  0.00000000000E+00  0.96541134854E+03  0.96541134854E+03  0.25500000920E-02 0. -1.
       -2   -1    0    0    0  501  0.00000000000E+00  0.00000000000E+00 -0.12730265502E+03  0.12730265505E+03  0.25500000920E-02 0.  1.
    10030    2    1    2    0    0  0.00000000000E+00  0.00000000000E+00  0.83810869352E+03  0.10927140036E+04  0.70114029373E+03 0.  0.
        5    1    3    3  502    0  0.22114352195E+02 -0.15544647830E+03 -0.69386422359E+02  0.17172424929E+03  0.46999998093E+01 0.  1.
       -5    1    3    3    0  502 -0.22114352195E+02  0.15544647830E+03  0.90749511588E+03  0.92098975430E+03  0.46999998093E+01 0. -1.
</event>
<event>
 5   0  0.2938783E-03  0.7018412E+03  0.7818609E-02  0.9714089E-01
        1   -1    0    0  501    0  0.00000000000E+00  0.00000000000E+00  0.81646631849E+03  0.81646631850E+03  0.50400001928E-02 0. -1.
       -1   -1    0    0    0  501  0.00000000000E+00  0.00000000000E+00 -0.15082714437E+03  0.15082714445E+03  0.50400001928E-02 0.  1.
    10030    2    1    2    0    0  0.00000000000E+00  0.00000000000E+00  0.66563917412E+03  0.96729346296E+03  0.70184124512E+03 0.  0.
        4    1    3    3  502    0 -0.77382387033E+02 -0.67965663017E+02  0.79516408339E+03  0.80180726960E+03  0.12699999809E+01 0. -1.
       -4    1    3    3    0  502  0.77382387033E+02  0.67965663017E+02 -0.12952490926E+03  0.16548619336E+03  0.12699999809E+01 0.  1.
</event>
<event>
 5   0  0.2937617E-03  0.7003323E+03  0.7818609E-02  0.9716664E-01
       -1   -1    0    0    0  501  0.00000000000E+00  0.00000000000E+00  0.40669045011E+03  0.40669045014E+03  0.50400001928E-02 0.  1.
        1   -1    0    0  501    0  0.00000000000E+00  0.00000000000E+00 -0.30149796796E+03  0.30149796801E+03  0.50400001928E-02 0. -1.
    10030    2    1    2    0    0  0.00000000000E+00  0.00000000000E+00  0.10519248215E+03  0.70818841815E+03  0.70033233347E+03 0.  0.
        3    1    3    3  502    0  0.19907420210E+03  0.38496254877E+02  0.34128751910E+03  0.39697566736E+03  0.10100000352E+00 0.  1.
       -3    1    3    3    0  502 -0.19907420210E+03 -0.38496254877E+02 -0.23609503695E+03  0.31121275079E+03  0.10100000352E+00 0. -1.
</event>
<event>
 5   0  0.2934483E-03  0.6995622E+03  0.7818609E-02  0.9717981E-01
       -1   -1    0    0    0  501  0.00000000000E+00  0.00000000000E+00  0.86334784956E+02  0.86334785103E+02  0.50400001928E-02 0. -1.
        1   -1    0    0  501    0  0.00000000000E+00  0.00000000000E+00 -0.14171207273E+04  0.14171207273E+04  0.50400001928E-02 0.  1.
    10030    2    1    2    0    0  0.00000000000E+00  0.00000000000E+00 -0.13307859423E+04  0.15034555124E+04  0.69956218698E+03 0.  0.
        5    1    3    3  502    0 -0.26480100211E+03  0.17506778260E+03 -0.98093165889E+03  0.10310273074E+04  0.46999998093E+01 0.  1.
       -5    1    3    3    0  502  0.26480100211E+03 -0.17506778260E+03 -0.34985428343E+03  0.47242820498E+03  0.46999998093E+01 0. -1.
</event>
<event>
 5   0  0.5072407E-03  0.6994770E+03  0.7818609E-02  0.9718127E-01
       -2   -1    0    0    0  501  0.00000000000E+00  0.00000000000E+00  0.90719523666E+02  0.90719523702E+02  0.25500000920E-02 0. -1.
        2   -1    0    0  501    0  0.00000000000E+00  0.00000000000E+00 -0.13482985419E+04  0.13482985419E+04  0.25500000920E-02 0.  1.
    10030    2    1    2    0    0  0.00000000000E+00  0.00000000000E+00 -0.12575790183E+04  0.14390180656E+04  0.69947695176E+03 0.  0.
        1    1    3    3  502    0 -0.33610614352E+03 -0.74825013334E+02 -0.50279275028E+03  0.60939861510E+03  0.50400001928E-02 0. -1.
       -1    1    3    3    0  502  0.33610614352E+03  0.74825013334E+02 -0.75478626799E+03  0.82961945053E+03  0.50400001928E-02 0.  1.
</event>
<event>
 5   0  0.5076796E-03  0.7008633E+03  0.7818609E-02  0.9715757E-01
        2   -1    0    0  501    0  0.00000000000E+00  0.00000000000E+00  0.24223224931E+03  0.24223224933E+03  0.25500000920E-02 0.  1.
       -2   -1    0    0    0  501  0.00000000000E+00  0.00000000000E+00 -0.50696116546E+03  0.50696116547E+03  0.25500000920E-02 0. -1.
    10030    2    1    2    0    0  0.00000000000E+00  0.00000000000E+00 -0.26472891615E+03  0.74919341480E+03  0.70086330602E+03 0.  0.
        5    1    3    3  502    0 -0.16221214095E+03 -0.14427283041E+03  0.16165305778E+03  0.27070505971E+03  0.46999998093E+01 0.  1.
       -5    1    3    3    0  502  0.16221214095E+03  0.14427283041E+03 -0.42638197393E+03  0.47848835509E+03  0.46999998093E+01 0. -1.
</event>
<event>
 5   0  0.2934483E-03  0.6993304E+03  0.7818609E-02  0.9718378E-01
        1   -1    0    0  501    0  0.00000000000E+00  0.00000000000E+00  0.49111367347E+03  0.49111367349E+03  0.50400001928E-02 0. -1.
       -1   -1    0    0    0  501  0.00000000000E+00  0.00000000000E+00 -0.24895613444E+03  0.24895613449E+03  0.50400001928E-02 0.  1.
    10030    2    1    2    0    0  0.00000000000E+00  0.00000000000E+00  0.24215753903E+03  0.74006980799E+03  0.69933042762E+03 0.  0.
        5    1    3    3  502    0  0.19532243922E+03  0.11933775792E+03  0.40076916868E+03  0.46155213388E+03  0.46999998093E+01 0. -1.
       -5    1    3    3    0  502 -0.19532243922E+03 -0.11933775792E+03 -0.15861162965E+03  0.27851767411E+03  0.46999998093E+01 0.  1.
</event>
<event>
 5   0  0.2913582E-03  0.7003577E+03  0.7818609E-02  0.9716621E-01
        1   -1    0    0  501    0  0.00000000000E+00  0.00000000000E+00  0.15407593353E+04  0.15407593353E+04  0.50400001928E-02 0. -1.
       -1   -1    0    0    0  501  0.00000000000E+00  0.00000000000E+00 -0.79587518950E+02  0.79587519110E+02  0.50400001928E-02 0.  1.
    10030    2    1    2    0    0  0.00000000000E+00  0.00000000000E+00  0.14611718163E+04  0.16203468544E+04  0.70035765985E+03 0.  0.
        1    1    3    3  502    0 -0.88867438506E+02 -0.37984960653E+02  0.15092930997E+04  0.15123841905E+04  0.50400001928E-02 0. -1.
       -1    1    3    3    0  502  0.88867438506E+02  0.37984960653E+02 -0.48121283350E+02  0.10796266391E+03  0.50400001928E-02 0.  1.
</event>
<event>
 5   0  0.4878235E-03  0.7004487E+03  0.7818609E-02  0.9716465E-01
       -2   -1    0    0    0  501  0.00000000000E+00  0.00000000000E+00  0.18778710115E+03  0.18778710116E+03  0.25500000920E-02 0. -1.
        2   -1    0    0  501    0  0.00000000000E+00  0.00000000000E+00 -0.65317094425E+03  0.65317094426E+03  0.25500000920E-02 0.  1.
    10030    2    1    2    0    0  0.00000000000E+00  0.00000000000E+00 -0.46538384311E+03  0.84095804542E+03  0.70044865103E+03 0.  0.
        4    1    3    3  502    0 -0.21462138946E+03  0.23680259061E+03 -0.60718269125E+02  0.32530928182E+03  0.12699999809E+01 0. -1.
       -4    1    3    3    0  502  0.21462138946E+03 -0.23680259061E+03 -0.40466557398E+03  0.51564876360E+03  0.12699999809E+01 0.  1.
</event>
<event>
 5   0  0.2938783E-03  0.6989188E+03  0.7818609E-02  0.9719083E-01
        1   -1    0    0  501    0  0.00000000000E+00  0.00000000000E+00  0.18002663099E+03  0.18002663106E+03  0.50400001928E-02 0.  1.
       -1   -1    0    0    0  501  0.00000000000E+00  0.00000000000E+00 -0.67835444910E+03  0.67835444912E+03  0.50400001928E-02 0. -1.
    10030    2    1    2    0    0  0.00000000000E+00  0.00000000000E+00 -0.49832781812E+03  0.85838108018E+03  0.69891878248E+03 0.  0.
        4    1    3    3  502    0 -0.29885742333E+03 -0.14553295223E+03 -0.11674700356E+03  0.35231672598E+03  0.12699999809E+01 0.  1.
       -4    1    3    3    0  502  0.29885742333E+03  0.14553295223E+03 -0.38158081455E+03  0.50606435421E+03  0.12699999809E+01 0. -1.
</event>
<event>
 5   0  0.4878235E-03  0.6996322E+03  0.7818609E-02  0.9717861E-01
        2   -1    0    0  501    0  0.00000000000E+00  0.00000000000E+00  0.59248696529E+03  0.59248696530E+03  0.25500000920E-02 0. -1.
       -2   -1    0    0    0  501  0.00000000000E+00  0.00000000000E+00 -0.20653837013E+03  0.20653837014E+03  0.25500000920E-02 0.  1.
    10030    2    1    2    0    0  0.00000000000E+00  0.00000000000E+00  0.38594859516E+03  0.79902533544E+03  0.69963216662E+03 0.  0.
        4    1    3    3  502    0 -0.51929475286E+02 -0.20973652652E+03  0.50716379782E+03  0.55127380827E+03  0.12699999809E+01 0. -1.
       -4    1    3    3    0  502  0.51929475286E+02  0.20973652652E+03 -0.12121520266E+03  0.24775152717E+03  0.12699999809E+01 0.  1.
</event>
<event>
 5   0  0.5072407E-03  0.7006225E+03  0.7818609E-02  0.9716168E-01
        2   -1    0    0  501    0  0.00000000000E+00  0.00000000000E+00  0.19754110548E+03  0.19754110550E+03  0.25500000920E-02 0. -1.
       -2   -1    0    0    0  501  0.00000000000E+00  0.00000000000E+00 -0.62122744594E+03  0.62122744595E+03  0.25500000920E-02 0.  1.
    10030    2    1    2    0    0  0.00000000000E+00  0.00000000000E+00 -0.42368634046E+03  0.81876855144E+03  0.70062245592E+03 0.  0.
        1    1    3    3  502    0 -0.81557747894E+02  0.23686045805E+03 -0.49801064715E+03  0.55746672325E+03  0.50400001928E-02 0.  1.
       -1    1    3    3    0  502  0.81557747894E+02 -0.23686045805E+03  0.74324306686E+02  0.26130182820E+03  0.50400001928E-02 0. -1.
</event>
<event>
 5   0  0.1981750E-03  0.6980698E+03  0.7818609E-02  0.9720539E-01
        4   -1    0    0  501    0  0.00000000000E+00  0.00000000000E+00  0.15657077079E+03  0.15657592141E+03  0.12699999809E+01 0. -1.
       -4   -1    0    0    0  501  0.00000000000E+00  0.00000000000E+00 -0.77806641133E+03  0.77806744781E+03  0.12699999809E+01 0.  1.
    10030    2    1    2    0    0  0.00000000000E+00  0.00000000000E+00 -0.62149564054E+03  0.93464336923E+03  0.69806976473E+03 0.  0.
        4    1    3    3  502    0 -0.15207709967E+03  0.81461169424E+01  0.10973811113E+03  0.18771752555E+03  0.12699999809E+01 0. -1.
       -4    1    3    3    0  502  0.15207709967E+03 -0.81461169424E+01 -0.73123375167E+03  0.74692584367E+03  0.12699999809E+01 0.  1.
</event>
<event>
 5   0  0.2913582E-03  0.7000228E+03  0.7818609E-02  0.9717193E-01
        1   -1    0    0  501    0  0.00000000000E+00  0.00000000000E+00  0.27711982855E+03  0.27711982860E+03  0.50400001928E-02 0. -1.
       -1   -1    0    0    0  501  0.00000000000E+00  0.00000000000E+00 -0.44207582549E+03  0.44207582552E+03  0.50400001928E-02 0.  1.
    10030    2    1    2    0    0  0.00000000000E+00  0.00000000000E+00 -0.16495599694E+03  0.71919565412E+03  0.70002279104E+03 0.  0.
        1    1    3    3  502    0  0.11969461695E+01  0.25136087430E+03 -0.33271470858E+03  0.41699256485E+03  0.50400001928E-02 0.  1.
       -1    1    3    3    0  502 -0.11969461695E+01 -0.25136087430E+03  0.16775871164E+03  0.30220308927E+03  0.50400001928E-02 0. -1.
</event>
<event>
 5   0  0.2934483E-03  0.7027165E+03  0.7818609E-02  0.9712598E-01
       -1   -1    0    0    0  501  0.00000000000E+00  0.00000000000E+00  0.69995246548E+03  0.69995246550E+03  0.50400001928E-02 0. -1.
        1   -1    0    0  501    0  0.00000000000E+00  0.00000000000E+00 -0.17637284860E+03  0.17637284867E+03  0.50400001928E-02 0.  1.
    10030    2    1    2    0    0  0.00000000000E+00  0.00000000000E+00  0.52357961688E+03  0.87632531417E+03  0.70271647272E+03 0.  0.
        5    1    3    3  502    0  0.24943725830E+02  0.46960042237E+02 -0.17128650583E+03  0.17941179477E+03  0.46999998093E+01 0.  1.
       -5    1    3    3    0  502 -0.24943725830E+02 -0.46960042237E+02  0.69486612271E+03  0.69691351940E+03  0.46999998093E+01 0. -1.
</event>
<event>
 5   0  0.4878235E-03  0.7001022E+03  0.7818609E-02  0.9717057E-01
        2   -1    0    0  501    0  0.00000000000E+00  0.00000000000E+00  0.11077092246E+04  0.11077092246E+04  0.25500000920E-02 0. -1.
       -2   -1    0    0    0  501  0.00000000000E+00  0.00000000000E+00 -0.11062088466E+03  0.11062088469E+03  0.25500000920E-02 0.  1.
    10030    2    1    2    0    0  0.00000000000E+00  0.00000000000E+00  0.99708833991E+03  0.12183301093E+04  0.70010220506E+03 0.  0.
        4    1    3    3  502    0 -0.29422530331E+03 -0.18402108488E+03  0.41876183627E+03  0.54387073575E+03  0.12699999809E+01 0.  1.
       -4    1    3    3    0  502  0.29422530331E+03  0.18402108488E+03  0.57832650364E+03  0.67445937350E+03  0.12699999809E+01 0. -1.
</event>
<event>
 5   0  0.1981750E-03  0.6997686E+03  0.7818609E-02  0.9717628E-01
        3   -1    0    0  501    0  0.00000000000E+00  0.00000000000E+00  0.76554100025E+03  0.76554100691E+03  0.10100000352E+00 0.  1.
       -3   -1    0    0    0  501  0.00000000000E+00  0.00000000000E+00 -0.15991177873E+03  0.15991181062E+03  0.10100000352E+00 0. -1.
    10030    2    1    2    0    0  0.00000000000E+00  0.00000000000E+00  0.60562922152E+03  0.92545281753E+03  0.69976865000E+03 0.  0.
        3    1    3    3  502    0  0.11836100300E+03 -0.13156683405E+03 -0.96356114378E+02  0.20150352313E+03  0.10100000352E+00 0. -1.
       -3    1    3    3    0  502 -0.11836100300E+03  0.13156683405E+03  0.70198533590E+03  0.72394929441E+03  0.10100000352E+00 0.  1.
</event>
<event>
 5   0  0.2938783E-03  0.6997670E+03  0.7818609E-02  0.9717631E-01
        1   -1    0    0  501    0  0.00000000000E+00  0.00000000000E+00  0.22668811335E+03  0.22668811340E+03  0.50400001928E-02 0. -1.
       -1   -1    0    0    0  501  0.00000000000E+00  0.00000000000E+00 -0.54003029787E+03  0.54003029789E+03  0.50400001928E-02 0.  1.
    10030    2    1    2    0    0  0.00000000000E+00  0.00000000000E+00 -0.31334218452E+03  0.76671841129E+03  0.69976695951E+03 0.  0.
        4    1    3    3  502    0 -0.12606736389E+03  0.18553913213E+03 -0.45087425767E+03  0.50359404178E+03  0.12699999809E+01 0.  1.
       -4    1    3    3    0  502  0.12606736389E+03 -0.18553913213E+03  0.13753207315E+03  0.26312436952E+03  0.12699999809E+01 0. -1.
</event>
<event>
 5   0  0.4878235E-03  0.7000880E+03  0.7818609E-02  0.9717082E-01
        2   -1    0    0  501    0  0.00000000000E+00  0.00000000000E+00  0.11735190436E+03  0.11735190439E+03  0.25500000920E-02 0. -1.
       -2   -1    0    0    0  501  0.00000000000E+00  0.00000000000E+00 -0.10441312738E+04  0.10441312738E+04  0.25500000920E-02 0.  1.
    10030    2    1    2    0    0  0.00000000000E+00  0.00000000000E+00 -0.92677936949E+03  0.11614831782E+04  0.70008797563E+03 0.  0.
        4    1    3    3  502    0 -0.22879154518E+03 -0.25580046917E+03 -0.57772877614E+03  0.67197589455E+03  0.12699999809E+01 0.  1.
       -4    1    3    3    0  502  0.22879154518E+03  0.25580046917E+03 -0.34905059335E+03  0.48950728369E+03  0.12699999809E+01 0. -1.
</event>
<event>
 5   0  0.1981750E-03  0.7097187E+03  0.7818609E-02  0.9700755E-01
        4   -1    0    0  501    0  0.00000000000E+00  0.00000000000E+00  0.79181942250E+03  0.79182044098E+03  0.12699999809E+01 0. -1.
       -4   -1    0    0    0  501  0.00000000000E+00  0.00000000000E+00 -0.15902901720E+03  0.15903408820E+03  0.12699999809E+01 0.  1.
    10030    2    1    2    0    0  0.00000000000E+00  0.00000000000E+00  0.63279040530E+03  0.95085452918E+03  0.70971870387E+03 0.  0.
        5    1    3    3  502    0  0.62642128130E+02  0.32665492526E+03  0.15080796107E+03  0.36522952719E+03  0.46999998093E+01 0.  1.
       -5    1    3    3    0  502 -0.62642128130E+02 -0.32665492526E+03  0.48198244423E+03  0.58562500199E+03  0.46999998093E+01 0. -1.
</event>
<event>
 5   0  0.5072407E-03  0.6988757E+03  0.7818609E-02  0.9719157E-01
       -2   -1    0    0    0  501  0.00000000000E+00  0.00000000000E+00  0.12157040567E+03  0.12157040570E+03  0.25500000920E-02 0.  1.
        2   -1    0    0  501    0  0.00000000000E+00  0.00000000000E+00 -0.10044123638E+04  0.10044123638E+04  0.25500000920E-02 0. -1.
    10030    2    1    2    0    0  0.00000000000E+00  0.00000000000E+00 -0.88284195816E+03  0.11259827695E+04  0.69887572156E+03 0.  0.
        1    1    3    3  502    0  0.32414008419E+02  0.16547319459E+03  0.51688231346E+02  0.17636246583E+03  0.50400001928E-02 0.  1.
       -1    1    3    3    0  502 -0.32414008419E+02 -0.16547319459E+03 -0.93453018950E+03  0.94962030369E+03  0.50400001928E-02 0. -1.
</event>
<event>
 5   0  0.2913582E-03  0.7024793E+03  0.7818609E-02  0.9713002E-01
       -1   -1    0    0    0  501  0.00000000000E+00  0.00000000000E+00  0.13033545106E+03  0.13033545116E+03  0.50400001928E-02 0.  1.
        1   -1    0    0  501    0  0.00000000000E+00  0.00000000000E+00 -0.94655206575E+03  0.94655206577E+03  0.50400001928E-02 0. -1.
    10030    2    1    2    0    0  0.00000000000E+00  0.00000000000E+00 -0.81621661469E+03  0.10768875169E+04  0.70247929649E+03 0.  0.
        1    1    3    3  502    0 -0.14281102984E+03 -0.24052498436E+03 -0.73374335311E+03  0.78525573325E+03  0.50400001928E-02 0. -1.
       -1    1    3    3    0  502  0.14281102984E+03  0.24052498436E+03 -0.82473261582E+02  0.29163178367E+03  0.50400001928E-02 0.  1.
</event>
<event>
 5   0  0.2913582E-03  0.7014588E+03  0.7818609E-02  0.9714741E-01
       -1   -1    0    0    0  501  0.00000000000E+00  0.00000000000E+00  0.64074728080E+03  0.64074728082E+03  0.50400001928E-02 0.  1.
        1   -1    0    0  501    0  0.00000000000E+00  0.00000000000E+00 -0.19198070348E+03  0.19198070355E+03  0.50400001928E-02 0. -1.
    10030    2    1    2    0    0  0.00000000000E+00  0.00000000000E+00  0.44876657732E+03  0.83272798437E+03  0.70145880494E+03 0.  0.
        1    1    3    3  502    0  0.33618916605E+03 -0.98767178021E+02  0.20626230963E+03  0.40659839058E+03  0.50400001928E-02 0.  1.
       -1    1    3    3    0  502 -0.33618916605E+03  0.98767178021E+02  0.24250426769E+03  0.42612959379E+03  0.50400001928E-02 0. -1.
</event>
<event>
 5   0  0.2937617E-03  0.6994641E+03  0.7818609E-02  0.9718149E-01
        1   -1    0    0  501    0  0.00000000000E+00  0.00000000000E+00  0.19534473866E+03  0.19534473873E+03  0.50400001928E-02 0. -1.
       -1   -1    0    0    0  501  0.00000000000E+00  0.00000000000E+00 -0.62613676372E+03  0.62613676374E+03  0.50400001928E-02 0.  1.
    10030    2    1    2    0    0  0.00000000000E+00  0.00000000000E+00 -0.43079202506E+03  0.82148150247E+03  0.69946414494E+03 0.  0.
        3    1    3    3  502    0  0.20305527367E+03 -0.22954155008E+03 -0.17503950446E+02  0.30696443745E+03  0.10100000352E+00 0. -1.
       -3    1    3    3    0  502 -0.20305527367E+03  0.22954155008E+03 -0.41328807461E+03  0.51451706502E+03  0.10100000352E+00 0.  1.
</event>
<event>
 5   0  0.5113683E-03  0.6983803E+03  0.7818609E-02  0.9720006E-01
        2   -1    0    0  501    0  0.00000000000E+00  0.00000000000E+00  0.77957879618E+03  0.77957879618E+03  0.25500000920E-02 0. -1.
       -2   -1    0    0    0  501  0.00000000000E+00  0.00000000000E+00 -0.15640981431E+03  0.15640981433E+03  0.25500000920E-02 0.  1.
    10030    2    1    2    0    0  0.00000000000E+00  0.00000000000E+00  0.62316898187E+03  0.93598861052E+03  0.69838033982E+03 0.  0.
        3    1    3    3  502    0 -0.18796015839E+03 -0.23340806517E+03  0.55180105808E+03  0.62792735561E+03  0.10100000352E+00 0. -1.
       -3    1    3    3    0  502  0.18796015839E+03  0.23340806517E+03  0.71367923789E+02  0.30806125490E+03  0.10100000352E+00 0.  1.
</event>
<event>
 5   0  0.5023894E-03  0.7000364E+03  0.7818609E-02  0.9717170E-01
        2   -1    0    0  501    0  0.00000000000E+00  0.00000000000E+00  0.92964789955E+03  0.92964789955E+03  0.25500000920E-02 0. -1.
       -2   -1    0    0    0  501  0.00000000000E+00  0.00000000000E+00 -0.13178402497E+03  0.13178402499E+03  0.25500000920E-02 0.  1.
    10030    2    1    2    0    0  0.00000000000E+00  0.00000000000E+00  0.79786387458E+03  0.10614319245E+04  0.70003640483E+03 0.  0.
        2    1    3    3  502    0  0.13536187781E+01 -0.69424489600E+02 -0.12123581320E+03  0.13971297166E+03  0.25500000920E-02 0.  1.
       -2    1    3    3    0  502 -0.13536187781E+01  0.69424489600E+02  0.91909968778E+03  0.92171895289E+03  0.25500000920E-02 0. -1.
</event>
<event>
 5   0  0.3013140E-03  0.7003024E+03  0.7818609E-02  0.9716715E-01
        1   -1    0    0  501    0  0.00000000000E+00  0.00000000000E+00  0.11347764654E+04  0.11347764654E+04  0.50400001928E-02 0.  1.
       -1   -1    0    0    0  501  0.00000000000E+00  0.00000000000E+00 -0.10804407856E+03  0.10804407867E+03  0.50400001928E-02 0. -1.
    10030    2    1    2    0    0  0.00000000000E+00  0.00000000000E+00  0.10267323868E+04  0.12428205441E+04  0.70030244224E+03 0.  0.
        2    1    3    3  502    0  0.10631639639E+03 -0.31389047480E+03  0.31277528343E+03  0.45569593398E+03  0.25500000920E-02 0. -1.
       -2    1    3    3    0  502 -0.10631639639E+03  0.31389047480E+03  0.71395710342E+03  0.78712461011E+03  0.25500000920E-02 0.  1.
</event>
<event>
 5   0  0.5072407E-03  0.7000056E+03  0.7818609E-02  0.9717223E-01
        2   -1    0    0  501    0  0.00000000000E+00  0.00000000000E+00  0.13466820706E+04  0.13466820706E+04  0.25500000920E-02 0.  1.
       -2   -1    0    0    0  501  0.00000000000E+00  0.00000000000E+00 -0.90965765977E+02  0.90965766013E+02  0.25500000920E-02 0. -1.
    10030    2    1    2    0    0  0.00000000000E+00  0.00000000000E+00  0.12557163046E+04  0.14376478366E+04  0.70000561743E+03 0.  0.
        1    1    3    3  502    0  0.21227304762E+03 -0.24238508395E+03  0.90864329106E+03  0.96407624495E+03  0.50400001928E-02 0. -1.
       -1    1    3    3    0  502 -0.21227304762E+03  0.24238508395E+03  0.34707301358E+03  0.47357159168E+03  0.50400001928E-02 0.  1.
</event>
<event>
 5   0  0.5076796E-03  0.7004194E+03  0.7818609E-02  0.9716515E-01
       -2   -1    0    0    0  501  0.00000000000E+00  0.00000000000E+00  0.11188240044E+03  0.11188240047E+03  0.25500000920E-02 0. -1.
        2   -1    0    0  501    0  0.00000000000E+00  0.00000000000E+00 -0.10962120936E+04  0.10962120936E+04  0.25500000920E-02 0.  1.
    10030    2    1    2    0    0  0.00000000000E+00  0.00000000000E+00 -0.98432969314E+03  0.12080944941E+04  0.70041941847E+03 0.  0.
        5    1    3    3  502    0  0.14519659245E+03  0.26630219389E+03 -0.79401176216E+03  0.84998569246E+03  0.46999998093E+01 0.  1.
       -5    1    3    3    0  502 -0.14519659245E+03 -0.26630219389E+03 -0.19031793097E+03  0.35810880159E+03  0.46999998093E+01 0. -1.
</event>
<event>
 5   0  0.2938783E-03  0.6998477E+03  0.7818609E-02  0.9717493E-01
       -1   -1    0    0    0  501  0.00000000000E+00  0.00000000000E+00  0.85675238502E+02  0.85675238650E+02  0.50400001928E-02 0. -1.
        1   -1    0    0  501    0  0.00000000000E+00  0.00000000000E+00 -0.14291959754E+04  0.14291959754E+04  0.50400001928E-02 0.  1.
    10030    2    1    2    0    0  0.00000000000E+00  0.00000000000E+00 -0.13435207369E+04  0.15148712140E+04  0.69984771536E+03 0.  0.
        4    1    3    3  502    0 -0.67276323881E+02  0.33889660811E+03 -0.55186417371E+03  0.65110113951E+03  0.12699999809E+01 0.  1.
       -4    1    3    3    0  502  0.67276323881E+02 -0.33889660811E+03 -0.79165656316E+03  0.86377007452E+03  0.12699999809E+01 0. -1.
</event>
<event>
 5   0  0.5072407E-03  0.6998308E+03  0.7818609E-02  0.9717522E-01
        2   -1    0    0  501    0  0.00000000000E+00  0.00000000000E+00  0.17074518911E+03  0.17074518913E+03  0.25500000920E-02 0.  1.
       -2   -1    0    0    0  501  0.00000000000E+00  0.00000000000E+00 -0.71709654297E+03  0.71709654298E+03  0.25500000920E-02 0. -1.
    10030    2    1    2    0    0  0.00000000000E+00  0.00000000000E+00 -0.54635135387E+03  0.88784173211E+03  0.69983079341E+03 0.  0.
        1    1    3    3  502    0  0.10338872088E+03  0.42993477243E+02 -0.69375460891E+03  0.70273261209E+03  0.50400001928E-02 0. -1.
       -1    1    3    3    0  502 -0.10338872088E+03 -0.42993477243E+02  0.14740325504E+03  0.18510912001E+03  0.50400001928E-02 0.  1.
</event>
<event>
 5   0  0.2913582E-03  0.6988067E+03  0.7818609E-02  0.9719275E-01
       -1   -1    0    0    0  501  0.00000000000E+00  0.00000000000E+00  0.23353852321E+03  0.23353852326E+03  0.50400001928E-02 0.  1.
        1   -1    0    0  501    0  0.00000000000E+00  0.00000000000E+00 -0.52275184489E+03  0.52275184492E+03  0.50400001928E-02 0. -1.
    10030    2    1    2    0    0  0.00000000000E+00  0.00000000000E+00 -0.28921332169E+03  0.75629036818E+03  0.69880667968E+03 0.  0.
        1    1    3    3  502    0  0.22993763134E+03  0.10148894249E+03 -0.40728913502E+03  0.47859770088E+03  0.50400001928E-02 0. -1.
       -1    1    3    3    0  502 -0.22993763134E+03 -0.10148894249E+03  0.11807581333E+03  0.27769266730E+03  0.50400001928E-02 0.  1.
</event>
<event>
 5   0  0.5072407E-03  0.6993917E+03  0.7818609E-02  0.9718273E-01
       -2   -1    0    0    0  501  0.00000000000E+00  0.00000000000E+00  0.21122883961E+03  0.21122883963E+03  0.25500000920E-02 0. -1.
        2   -1    0    0  501    0  0.00000000000E+00  0.00000000000E+00 -0.57893220809E+03  0.57893220809E+03  0.25500000920E-02 0.  1.
    10030    2    1    2    0    0  0.00000000000E+00  0.00000000000E+00 -0.36770336848E+03  0.79016104772E+03  0.69939167435E+03 0.  0.
        1    1    3    3  502    0 -0.19656317459E+03 -0.49500892962E+02  0.13808652747E+03  0.24526579277E+03  0.50400001928E-02 0. -1.
       -1    1    3    3    0  502  0.19656317459E+03  0.49500892962E+02 -0.50578989594E+03  0.54489525495E+03  0.50400001928E-02 0.  1.
</event>
<event>
 5   0  0.2938783E-03  0.6998765E+03  0.7818609E-02  0.9717443E-01
       -1   -1    0    0    0  501  0.00000000000E+00  0.00000000000E+00  0.10031132408E+03  0.10031132421E+03  0.50400001928E-02 0.  1.
        1   -1    0    0  501    0  0.00000000000E+00  0.00000000000E+00 -0.12207672649E+04  0.12207672649E+04  0.50400001928E-02 0. -1.
    10030    2    1    2    0    0  0.00000000000E+00  0.00000000000E+00 -0.11204559408E+04  0.13210785891E+04  0.69987650575E+03 0.  0.
        4    1    3    3  502    0 -0.22087288888E+03 -0.22456784211E+03 -0.27247372313E+03  0.41648420312E+03  0.12699999809E+01 0.  1.
       -4    1    3    3    0  502  0.22087288888E+03  0.22456784211E+03 -0.84798221767E+03  0.90459438597E+03  0.12699999809E+01 0. -1.
</event>
<event>
 5   0  0.5023894E-03  0.7030849E+03  0.7818609E-02  0.9711971E-01
        2   -1    0    0  501    0  0.00000000000E+00  0.00000000000E+00  0.41227565315E+03  0.41227565316E+03  0.25500000920E-02 0. -1.
       -2   -1    0    0    0  501  0.00000000000E+00  0.00000000000E+00 -0.29975599789E+03  0.29975599790E+03  0.25500000920E-02 0.  1.
    10030    2    1    2    0    0  0.00000000000E+00  0.00000000000E+00  0.11251965527E+03  0.71203165106E+03  0.70308491613E+03 0.  0.
        2    1    3    3  502    0  0.10259132488E+03 -0.20780391308E+03  0.32396166524E+03  0.39831972935E+03  0.25500000920E-02 0. -1.
       -2    1    3    3    0  502 -0.10259132488E+03  0.20780391308E+03 -0.21144200998E+03  0.31371192171E+03  0.25500000920E-02 0.  1.
</event>
<event>
 5   0  0.5023894E-03  0.6999328E+03  0.7818609E-02  0.9717347E-01
        2   -1    0    0  501    0  0.00000000000E+00  0.00000000000E+00  0.13424030981E+04  0.13424030981E+04  0.25500000920E-02 0.  1.
       -2   -1    0    0    0  501  0.00000000000E+00  0.00000000000E+00 -0.91236728282E+02  0.91236728318E+02  0.25500000920E-02 0. -1.
    10030    2    1    2    0    0  0.00000000000E+00  0.00000000000E+00  0.12511663698E+04  0.14336398264E+04  0.69993275886E+03 0.  0.
        2    1    3    3  502    0 -0.25465004758E+03  0.21756354646E+03  0.83341708388E+03  0.89820074549E+03  0.25500000920E-02 0.  1.
       -2    1    3    3    0  502  0.25465004758E+03 -0.21756354646E+03  0.41774928593E+03  0.53543908092E+03  0.25500000920E-02 0. -1.
</event>
<event>
 5   0  0.2938783E-03  0.6991640E+03  0.7818609E-02  0.9718663E-01
       -1   -1    0    0    0  501  0.00000000000E+00  0.00000000000E+00  0.36637890413E+03  0.36637890417E+03  0.50400001928E-02 0.  1.
        1   -1    0    0  501    0  0.00000000000E+00  0.00000000000E+00 -0.33355517546E+03  0.33355517549E+03  0.50400001928E-02 0. -1.
    10030    2    1    2    0    0  0.00000000000E+00  0.00000000000E+00  0.32823728675E+02  0.69993407966E+03  0.69916401417E+03 0.  0.
        4    1    3    3  502    0 -0.28668269256E+02 -0.22065755157E+03  0.28632770795E+03  0.36262486672E+03  0.12699999809E+01 0.  1.
       -4    1    3    3    0  502  0.28668269256E+02  0.22065755157E+03 -0.25350397927E+03  0.33730921294E+03  0.12699999809E+01 0. -1.
</event>
<event>
 5   0  0.2934483E-03  0.7002752E+03  0.7818609E-02  0.9716762E-01
       -1   -1    0    0    0  501  0.00000000000E+00  0.00000000000E+00  0.39687220679E+03  0.39687220682E+03  0.50400001928E-02 0.  1.
        1   -1    0    0  501    0  0.00000000000E+00  0.00000000000E+00 -0.30890637625E+03  0.30890637629E+03  0.50400001928E-02 0. -1.
    10030    2    1    2    0    0  0.00000000000E+00  0.00000000000E+00  0.87965830542E+02  0.70577858311E+03  0.70027524662E+03 0.  0.
        5    1    3    3  502    0 -0.34958930009E+02 -0.28222444905E+03  0.24979720882E+03  0.37854128171E+03  0.46999998093E+01 0.  1.
       -5    1    3    3    0  502  0.34958930009E+02  0.28222444905E+03 -0.16183137828E+03  0.32723730139E+03  0.46999998093E+01 0. -1.
</event>
<event>
 5   0  0.1981750E-03  0.6953874E+03  0.7818609E-02  0.9725153E-01
       -4   -1    0    0    0  501  0.00000000000E+00  0.00000000000E+00  0.91003377831E+03  0.91003466449E+03  0.12699999809E+01 0. -1.
        4   -1    0    0  501    0  0.00000000000E+00  0.00000000000E+00 -0.13283824860E+03  0.13284431938E+03  0.12699999809E+01 0.  1.
    10030    2    1    2    0    0  0.00000000000E+00  0.00000000000E+00  0.77719552971E+03  0.10428789839E+04  0.69538743416E+03 0.  0.
        5    1    3    3  502    0  0.23427465406E+03 -0.11229101808E+03  0.42119659598E+02  0.26323001728E+03  0.46999998093E+01 0.  1.
       -5    1    3    3    0  502 -0.23427465406E+03  0.11229101808E+03  0.73507587011E+03  0.77964896658E+03  0.46999998093E+01 0. -1.
</event>
<event>
 5   0  0.5113683E-03  0.7000935E+03  0.7818609E-02  0.9717072E-01
        2   -1    0    0  501    0  0.00000000000E+00  0.00000000000E+00  0.27666554078E+03  0.27666554079E+03  0.25500000920E-02 0. -1.
       -2   -1    0    0    0  501  0.00000000000E+00  0.00000000000E+00 -0.44289123746E+03  0.44289123747E+03  0.25500000920E-02 0.  1.
    10030    2    1    2    0    0  0.00000000000E+00  0.00000000000E+00 -0.16622569668E+03  0.71955677825E+03  0.70009354724E+03 0.  0.
        3    1    3    3  502    0  0.30486634724E+03 -0.15610140050E+03 -0.88433222972E+01  0.34262129453E+03  0.10100000352E+00 0. -1.
       -3    1    3    3    0  502 -0.30486634724E+03  0.15610140050E+03 -0.15738237438E+03  0.37693548372E+03  0.10100000352E+00 0.  1.
</event>
<event>
 5   0  0.3013140E-03  0.7002602E+03  0.7818609E-02  0.9716787E-01
       -1   -1    0    0    0  501  0.00000000000E+00  0.00000000000E+00  0.21509637298E+03  0.21509637304E+03  0.50400001928E-02 0.  1.
        1   -1    0    0  501    0  0.00000000000E+00  0.00000000000E+00 -0.56993557918E+03  0.56993557921E+03  0.50400001928E-02 0. -1.
    10030    2    1    2    0    0  0.00000000000E+00  0.00000000000E+00 -0.35483920620E+03  0.78503195225E+03  0.70026016865E+03 0.  0.
        2    1    3    3  502    0 -0.31661277205E+03 -0.71358447713E+02 -0.30157692423E+02  0.32595269887E+03  0.25500000920E-02 0.  1.
       -2    1    3    3    0  502  0.31661277205E+03  0.71358447713E+02 -0.32468151378E+03  0.45907925337E+03  0.25500000920E-02 0. -1.
</event>
<event>
 5   0  0.2913582E-03  0.6997382E+03  0.7818609E-02  0.9717680E-01
        1   -1    0    0  501    0  0.00000000000E+00  0.00000000000E+00  0.91522725300E+03  0.91522725301E+03  0.50400001928E-02 0. -1.
       -1   -1    0    0    0  501  0.00000000000E+00  0.00000000000E+00 -0.13374643070E+03  0.13374643080E+03  0.50400001928E-02 0.  1.
    10030    2    1    2    0    0  0.00000000000E+00  0.00000000000E+00  0.78148082229E+03  0.10489736838E+04  0.69973817511E+03 0.  0.
        1    1    3    3  502    0 -0.33611970940E+03 -0.49779080805E+02  0.26573028422E+03  0.43135484222E+03  0.50400001928E-02 0. -1.
       -1    1    3    3    0  502  0.33611970940E+03  0.49779080805E+02  0.51575053807E+03  0.61761884158E+03  0.50400001928E-02 0.  1.
</event>
<event>
 5   0  0.5072407E-03  0.6967715E+03  0.7818609E-02  0.9722769E-01
        2   -1    0    0  501    0  0.00000000000E+00  0.00000000000E+00  0.11331136825E+04  0.11331136825E+04  0.25500000920E-02 0.  1.
       -2   -1    0    0    0  501  0.00000000000E+00  0.00000000000E+00 -0.10711424836E+03  0.10711424839E+03  0.25500000920E-02 0. -1.
    10030    2    1    2    0    0  0.00000000000E+00  0.00000000000E+00  0.10259994342E+04  0.12402279309E+04  0.69677147023E+03 0.  0.
        1    1    3    3  502    0 -0.34110543763E+03  0.70165786758E+02  0.49551768267E+03  0.60565165819E+03  0.50400001928E-02 0.  1.
       -1    1    3    3    0  502  0.34110543763E+03 -0.70165786758E+02  0.53048175150E+03  0.63457627273E+03  0.50400001928E-02 0. -1.
</event>
<event>
 5   0  0.2934483E-03  0.7012716E+03  0.7818609E-02  0.9715060E-01
        1   -1    0    0  501    0  0.00000000000E+00  0.00000000000E+00  0.84957717586E+03  0.84957717587E+03  0.50400001928E-02 0. -1.
       -1   -1    0    0    0  501  0.00000000000E+00  0.00000000000E+00 -0.14471372800E+03  0.14471372809E+03  0.50400001928E-02 0.  1.
    10030    2    1    2    0    0  0.00000000000E+00  0.00000000000E+00  0.70486344786E+03  0.99429090396E+03  0.70127164607E+03 0.  0.
        5    1    3    3  502    0  0.13414393124E+03 -0.28198841074E+03  0.57844861899E+03  0.65737124434E+03  0.46999998093E+01 0. -1.
       -5    1    3    3    0  502 -0.13414393124E+03  0.28198841074E+03  0.12641482887E+03  0.33691965962E+03  0.46999998093E+01 0.  1.
</event>
<event>
 5   0  0.2934483E-03  0.7039158E+03  0.7818609E-02  0.9710559E-01
        1   -1    0    0  501    0  0.00000000000E+00  0.00000000000E+00  0.38193930707E+03  0.38193930710E+03  0.50400001928E-02 0. -1.
       -1   -1    0    0    0  501  0.00000000000E+00  0.00000000000E+00 -0.32432996731E+03  0.32432996735E+03  0.50400001928E-02 0.  1.
    10030    2    1    2    0    0  0.00000000000E+00  0.00000000000E+00  0.57609339756E+02  0.70626927446E+03  0.70391579895E+03 0.  0.
        5    1    3    3  502    0  0.18379449345E+03 -0.10991676866E+02  0.32972580775E+03  0.37768032922E+03  0.46999998093E+01 0. -1.
       -5    1    3    3    0  502 -0.18379449345E+03  0.10991676866E+02 -0.27211646799E+03  0.32858894524E+03  0.46999998093E+01 0.  1.
</event>
<event>
 5   0  0.5023894E-03  0.6977762E+03  0.7818609E-02  0.9721043E-01
       -2   -1    0    0    0  501  0.00000000000E+00  0.00000000000E+00  0.39855539929E+03  0.39855539930E+03  0.25500000920E-02 0. -1.
        2   -1    0    0  501    0  0.00000000000E+00  0.00000000000E+00 -0.30541025181E+03  0.30541025182E+03  0.25500000920E-02 0.  1.
    10030    2    1    2    0    0  0.00000000000E+00  0.00000000000E+00  0.93145147488E+02  0.70396565112E+03  0.69777619582E+03 0.  0.
        2    1    3    3  502    0 -0.25714556818E+03 -0.22780586541E+03 -0.14824035196E+02  0.34385913915E+03  0.25500000920E-02 0. -1.
       -2    1    3    3    0  502  0.25714556818E+03  0.22780586541E+03  0.10796918268E+03  0.36010651197E+03  0.25500000920E-02 0.  1.
</event>
<event>
 5   0  0.5023894E-03  0.6999934E+03  0.7818609E-02  0.9717244E-01
       -2   -1    0    0    0  501  0.00000000000E+00  0.00000000000E+00  0.37007150529E+03  0.37007150530E+03  0.25500000920E-02 0.  1.
        2   -1    0    0  501    0  0.00000000000E+00  0.00000000000E+00 -0.33101082664E+03  0.33101082665E+03  0.25500000920E-02 0. -1.
    10030    2    1    2    0    0  0.00000000000E+00  0.00000000000E+00  0.39060678651E+02  0.70108233195E+03  0.69999335680E+03 0.  0.
        2    1    3    3  502    0 -0.30853284055E+03 -0.82279892894E+02  0.16305428508E+03  0.35853757734E+03  0.25500000920E-02 0.  1.
       -2    1    3    3    0  502  0.30853284055E+03  0.82279892894E+02 -0.12399360643E+03  0.34254475462E+03  0.25500000920E-02 0. -1.
</event>
<event>
 5   0  0.2913582E-03  0.6997178E+03  0.7818609E-02  0.9717715E-01
        1   -1    0    0  501    0  0.00000000000E+00  0.00000000000E+00  0.16012251929E+04  0.16012251929E+04  0.50400001928E-02 0.  1.
       -1   -1    0    0    0  501  0.00000000000E+00  0.00000000000E+00 -0.76442254152E+02  0.76442254318E+02  0.50400001928E-02 0. -1.
    10030    2    1    2    0    0  0.00000000000E+00  0.00000000000E+00  0.15247829388E+04  0.16776674472E+04  0.69971783827E+03 0.  0.
        1    1    3    3  502    0  0.33939516233E+03  0.82488220931E+02  0.81081421225E+03  0.88284374020E+03  0.50400001928E-02 0. -1.
       -1    1    3    3    0  502 -0.33939516233E+03 -0.82488220931E+02  0.71396872651E+03  0.79482370703E+03  0.50400001928E-02 0.  1.
</event>
<event>
 5   0  0.5076796E-03  0.7007839E+03  0.7818609E-02  0.9715893E-01
        2   -1    0    0  501    0  0.00000000000E+00  0.00000000000E+00  0.59732264772E+03  0.59732264772E+03  0.25500000920E-02 0.  1.
       -2   -1    0    0    0  501  0.00000000000E+00  0.00000000000E+00 -0.20554139012E+03  0.20554139014E+03  0.25500000920E-02 0. -1.
    10030    2    1    2    0    0  0.00000000000E+00  0.00000000000E+00  0.39178125760E+03  0.80286403786E+03  0.70078392496E+03 0.  0.
        5    1    3    3  502    0  0.18906450073E+03  0.23145421399E+03  0.40538146216E+03  0.50365926823E+03  0.46999998093E+01 0.  1.
       -5    1    3    3    0  502 -0.18906450073E+03 -0.23145421399E+03 -0.13600204561E+02  0.29920476963E+03  0.46999998093E+01 0. -1.
</event>
<event>
 5   0  0.2938783E-03  0.6993525E+03  0.7818609E-02  0.9718340E-01
        1   -1    0    0  501    0  0.00000000000E+00  0.00000000000E+00  0.25952287716E+03  0.25952287721E+03  0.50400001928E-02 0.  1.
       -1   -1    0    0    0  501  0.00000000000E+00  0.00000000000E+00 -0.47114723686E+03  0.47114723689E+03  0.50400001928E-02 0. -1.
    10030    2    1    2    0    0  0.00000000000E+00  0.00000000000E+00 -0.21162435970E+03  0.73067011409E+03  0.69935251913E+03 0.  0.
        4    1    3    3  502    0 -0.76642687211E+02 -0.32422463871E+03  0.51323090014E+01  0.33320214787E+03  0.12699999809E+01 0.  1.
       -4    1    3    3    0  502  0.76642687211E+02  0.32422463871E+03 -0.21675666870E+03  0.39746796623E+03  0.12699999809E+01 0. -1.
</event>
<event>
 5   0  0.5023894E-03  0.6990456E+03  0.7818609E-02  0.9718866E-01
        2   -1    0    0  501    0  0.00000000000E+00  0.00000000000E+00  0.95349382321E+03  0.95349382321E+03  0.25500000920E-02 0.  1.
       -2   -1    0    0    0  501  0.00000000000E+00  0.00000000000E+00 -0.12812479727E+03  0.12812479729E+03  0.25500000920E-02 0. -1.
    10030    2    1    2    0    0  0.00000000000E+00  0.00000000000E+00  0.82536902594E+03  0.10816186205E+04  0.69904564318E+03 0.  0.
        2    1    3    3  502    0  0.18409325592E+03  0.17516677635E+03  0.78400721187E+03  0.82416080632E+03  0.25500000920E-02 0.  1.
       -2    1    3    3    0  502 -0.18409325592E+03 -0.17516677635E+03  0.41361814077E+02  0.25745781418E+03  0.25500000920E-02 0. -1.
</event>
<event>
 5   0  0.2937617E-03  0.6995619E+03  0.7818609E-02  0.9717982E-01
       -1   -1    0    0    0  501  0.00000000000E+00  0.00000000000E+00  0.10157050083E+03  0.10157050095E+03  0.50400001928E-02 0.  1.
        1   -1    0    0  501    0  0.00000000000E+00  0.00000000000E+00 -0.12045495792E+04  0.12045495792E+04  0.50400001928E-02 0. -1.
    10030    2    1    2    0    0  0.00000000000E+00  0.00000000000E+00 -0.11029790783E+04  0.13061200801E+04  0.69956187464E+03 0.  0.
        3    1    3    3  502    0  0.42330740584E+02  0.23311348085E+03 -0.10319175299E+04  0.10587670118E+04  0.10100000352E+00 0. -1.
       -3    1    3    3    0  502 -0.42330740584E+02 -0.23311348085E+03 -0.71061548468E+02  0.24735306836E+03  0.10100000352E+00 0.  1.
</event>
<event>
 5   0  0.2934483E-03  0.6994946E+03  0.7818609E-02  0.9718097E-01
       -1   -1    0    0    0  501  0.00000000000E+00  0.00000000000E+00  0.86505473260E+02  0.86505473407E+02  0.50400001928E-02 0.  1.
        1   -1    0    0  501    0  0.00000000000E+00  0.00000000000E+00 -0.14140511148E+04  0.14140511148E+04  0.50400001928E-02 0. -1.
    10030    2    1    2    0    0  0.00000000000E+00  0.00000000000E+00 -0.13275456415E+04  0.15005565882E+04  0.69949456328E+03 0.  0.
        5    1    3    3  502    0 -0.11218077257E+03 -0.25830237831E+03 -0.21895291226E+03  0.35674516417E+03  0.46999998093E+01 0.  1.
       -5    1    3    3    0  502  0.11218077257E+03  0.25830237831E+03 -0.11085927293E+04  0.11438114240E+04  0.46999998093E+01 0. -1.
</event>
<event>
 5   0  0.3013140E-03  0.7015456E+03  0.7818609E-02  0.9714593E-01
       -1   -1    0    0    0  501  0.00000000000E+00  0.00000000000E+00  0.16191575234E+03  0.16191575242E+03  0.50400001928E-02 0.  1.
        1   -1    0    0  501    0  0.00000000000E+00  0.00000000000E+00 -0.75991102987E+03  0.75991102989E+03  0.50400001928E-02 0. -1.
    10030    2    1    2    0    0  0.00000000000E+00  0.00000000000E+00 -0.59799527753E+03  0.92182678231E+03  0.70154562549E+03 0.  0.
        2    1    3    3  502    0 -0.28611055671E+03 -0.11420919330E+02 -0.56522943121E+03  0.63361975819E+03  0.25500000920E-02 0. -1.
       -2    1    3    3    0  502  0.28611055671E+03  0.11420919330E+02 -0.32765846314E+02  0.28820702412E+03  0.25500000920E-02 0.  1.
</event>
<event>
 5   0  0.2934483E-03  0.6966839E+03  0.7818609E-02  0.9722920E-01
        1   -1    0    0  501    0  0.00000000000E+00  0.00000000000E+00  0.42397897525E+03  0.42397897528E+03  0.50400001928E-02 0. -1.
       -1   -1    0    0    0  501  0.00000000000E+00  0.00000000000E+00 -0.28619844067E+03  0.28619844072E+03  0.50400001928E-02 0.  1.
    10030    2    1    2    0    0  0.00000000000E+00  0.00000000000E+00  0.13778053458E+03  0.71017741600E+03  0.69668392151E+03 0.  0.
        5    1    3    3  502    0  0.17416114758E+03  0.17134652961E+03  0.32194888958E+03  0.40418426000E+03  0.46999998093E+01 0. -1.
       -5    1    3    3    0  502 -0.17416114758E+03 -0.17134652961E+03 -0.18416835500E+03  0.30599315600E+03  0.46999998093E+01 0.  1.
</event>
<event>
 5   0  0.5023894E-03  0.6995314E+03  0.7818609E-02  0.9718034E-01
        2   -1    0    0  501    0  0.00000000000E+00  0.00000000000E+00  0.34783529388E+03  0.34783529389E+03  0.25500000920E-02 0.  1.
       -2   -1    0    0    0  501  0.00000000000E+00  0.00000000000E+00 -0.35170686024E+03  0.35170686025E+03  0.25500000920E-02 0. -1.
    10030    2    1    2    0    0  0.00000000000E+00  0.00000000000E+00 -0.38715663597E+01  0.69954215414E+03  0.69953144061E+03 0.  0.
        2    1    3    3  502    0 -0.32637454948E+03 -0.10088636518E+03  0.73149678467E+02  0.34935552192E+03  0.25500000920E-02 0. -1.
       -2    1    3    3    0  502  0.32637454948E+03  0.10088636518E+03 -0.77021244826E+02  0.35018663222E+03  0.25500000920E-02 0.  1.
</event>
<event>
 5   0  0.5023894E-03  0.6992477E+03  0.7818609E-02  0.9718520E-01
       -2   -1    0    0    0  501  0.00000000000E+00  0.00000000000E+00  0.19267867391E+03  0.19267867393E+03  0.25500000920E-02 0.  1.
        2   -1    0    0  501    0  0.00000000000E+00  0.00000000000E+00 -0.63440764507E+03  0.63440764507E+03  0.25500000920E-02 0. -1.
    10030    2    1    2    0    0  0.00000000000E+00  0.00000000000E+00 -0.44172897115E+03  0.82708631900E+03  0.69924766365E+03 0.  0.
        2    1    3    3  502    0  0.10152702172E+03  0.40558688221E+01 -0.61655840706E+03  0.62487475188E+03  0.25500000920E-02 0. -1.
       -2    1    3    3    0  502 -0.10152702172E+03 -0.40558688221E+01  0.17482943591E+03  0.20221156712E+03  0.25500000920E-02 0.  1.
</event>
<event>
 5   0  0.3013140E-03  0.6997216E+03  0.7818609E-02  0.9717708E-01
        1   -1    0    0  501    0  0.00000000000E+00  0.00000000000E+00  0.38794925363E+03  0.38794925366E+03  0.50400001928E-02 0.  1.
       -1   -1    0    0    0  501  0.00000000000E+00  0.00000000000E+00 -0.31551185318E+03  0.31551185322E+03  0.50400001928E-02 0. -1.
    10030    2    1    2    0    0  0.00000000000E+00  0.00000000000E+00  0.72437400446E+02  0.70346110688E+03  0.69972162458E+03 0.  0.
        2    1    3    3  502    0 -0.80747734309E+02 -0.30319502547E+03  0.19182042437E+03  0.36775330764E+03  0.25500000920E-02 0.  1.
       -2    1    3    3    0  502  0.80747734309E+02  0.30319502547E+03 -0.11938302393E+03  0.33570779924E+03  0.25500000920E-02 0. -1.
</event>
<event>
 5   0  0.4878235E-03  0.6956835E+03  0.7818609E-02  0.9724643E-01
       -2   -1    0    0    0  501  0.00000000000E+00  0.00000000000E+00  0.14370429968E+03  0.14370429970E+03  0.25500000920E-02 0.  1.
        2   -1    0    0  501    0  0.00000000000E+00  0.00000000000E+00 -0.84196429251E+03  0.84196429251E+03  0.25500000920E-02 0. -1.
    10030    2    1    2    0    0  0.00000000000E+00  0.00000000000E+00 -0.69825999283E+03  0.98566859222E+03  0.69568351720E+03 0.  0.
        4    1    3    3  502    0  0.32495631762E+03 -0.70414137267E+02 -0.20438025281E+03  0.39029176231E+03  0.12699999809E+01 0. -1.
       -4    1    3    3    0  502 -0.32495631762E+03  0.70414137267E+02 -0.49387974002E+03  0.59537682991E+03  0.12699999809E+01 0.  1.
</event>
<event>
 5   0  0.2934483E-03  0.6983427E+03  0.7818609E-02  0.9720071E-01
        1   -1    0    0  501    0  0.00000000000E+00  0.00000000000E+00  0.17131498222E+04  0.17131498222E+04  0.50400001928E-02 0. -1.
       -1   -1    0    0    0  501  0.00000000000E+00  0.00000000000E+00 -0.71167522933E+02  0.71167523112E+02  0.50400001928E-02 0.  1.
    10030    2    1    2    0    0  0.00000000000E+00  0.00000000000E+00  0.16419822992E+04  0.17843173453E+04  0.69834269359E+03 0.  0.
        5    1    3    3  502    0  0.30635081386E+03  0.16534047658E+03  0.75289734203E+03  0.82949671005E+03  0.46999998093E+01 0.  1.
       -5    1    3    3    0  502 -0.30635081386E+03 -0.16534047658E+03  0.88908495720E+03  0.95482063524E+03  0.46999998093E+01 0. -1.
</event>
<event>
 5   0  0.2934483E-03  0.7004488E+03  0.7818609E-02  0.9716465E-01
        1   -1    0    0  501    0  0.00000000000E+00  0.00000000000E+00  0.17359858662E+04  0.17359858662E+04  0.50400001928E-02 0.  1.
       -1   -1    0    0    0  501  0.00000000000E+00  0.00000000000E+00 -0.70655606315E+02  0.70655606495E+02  0.50400001928E-02 0. -1.
    10030    2    1    2    0    0  0.00000000000E+00  0.00000000000E+00  0.16653302599E+04  0.18066414727E+04  0.70044881069E+03 0.  0.
        5    1    3    3  502    0 -0.62876152065E+02  0.49679041525E+02 -0.46608604329E+02  0.92821708996E+02  0.46999998093E+01 0. -1.
       -5    1    3    3    0  502  0.62876152065E+02 -0.49679041525E+02  0.17119388642E+04  0.17138197637E+04  0.46999998093E+01 0.  1.
</event>
<event>
 5   0  0.2937617E-03  0.7008115E+03  0.7818609E-02  0.9715845E-01
        1   -1    0    0  501    0  0.00000000000E+00  0.00000000000E+00  0.44353703378E+03  0.44353703381E+03  0.50400001928E-02 0. -1.
       -1   -1    0    0    0  501  0.00000000000E+00  0.00000000000E+00 -0.27682964342E+03  0.27682964346E+03  0.50400001928E-02 0.  1.
    10030    2    1    2    0    0  0.00000000000E+00  0.00000000000E+00  0.16670739036E+03  0.72036667727E+03  0.70081152653E+03 0.  0.
        3    1    3    3  502    0 -0.33396709137E+03  0.64262385752E+02 -0.33840491444E+01  0.34011047372E+03  0.10100000352E+00 0.  1.
       -3    1    3    3    0  502  0.33396709137E+03 -0.64262385752E+02  0.17009143951E+03  0.38025620355E+03  0.10100000352E+00 0. -1.
</event>
<event>
 5   0  0.5023894E-03  0.6999255E+03  0.7818609E-02  0.9717360E-01
        2   -1    0    0  501    0  0.00000000000E+00  0.00000000000E+00  0.12849673398E+04  0.12849673398E+04  0.25500000920E-02 0.  1.
       -2   -1    0    0    0  501  0.00000000000E+00  0.00000000000E+00 -0.95312873987E+02  0.95312874021E+02  0.25500000920E-02 0. -1.
    10030    2    1    2    0    0  0.00000000000E+00  0.00000000000E+00  0.11896544658E+04  0.13802802138E+04  0.69992551078E+03 0.  0.
        2    1    3    3  502    0  0.32401302290E+03 -0.39607382744E+02  0.84365403124E+03  0.90460229284E+03  0.25500000920E-02 0.  1.
       -2    1    3    3    0  502 -0.32401302290E+03  0.39607382744E+02  0.34600043457E+03  0.47567792098E+03  0.25500000920E-02 0. -1.
</event>
<event>
 5   0  0.2913582E-03  0.6962963E+03  0.7818609E-02  0.9723587E-01
       -1   -1    0    0    0  501  0.00000000000E+00  0.00000000000E+00  0.92448992089E+02  0.92448992227E+02  0.50400001928E-02 0.  1.
        1   -1    0    0  501    0  0.00000000000E+00  0.00000000000E+00 -0.13110704202E+04  0.13110704202E+04  0.50400001928E-02 0. -1.
    10030    2    1    2    0    0  0.00000000000E+00  0.00000000000E+00 -0.12186214281E+04  0.14035194124E+04  0.69629631338E+03 0.  0.
        1    1    3    3  502    0 -0.28076499613E+03  0.51700806676E+02 -0.10109608575E+04  0.10504969357E+04  0.50400001928E-02 0. -1.
       -1    1    3    3    0  502  0.28076499613E+03 -0.51700806676E+02 -0.20766057056E+03  0.35302247670E+03  0.50400001928E-02 0.  1.
</event>
<event>
 5   0  0.5023894E-03  0.7003240E+03  0.7818609E-02  0.9716678E-01
        2   -1    0    0  501    0  0.00000000000E+00  0.00000000000E+00  0.18604579863E+03  0.18604579864E+03  0.25500000920E-02 0.  1.
       -2   -1    0    0    0  501  0.00000000000E+00  0.00000000000E+00 -0.65904969221E+03  0.65904969222E+03  0.25500000920E-02 0. -1.
    10030    2    1    2    0    0  0.00000000000E+00  0.00000000000E+00 -0.47300389359E+03  0.84509549086E+03  0.70032400025E+03 0.  0.
        2    1    3    3  502    0  0.16597166162E+03 -0.18965380185E+03 -0.52985739332E+03  0.58674015909E+03  0.25500000920E-02 0. -1.
       -2    1    3    3    0  502 -0.16597166162E+03  0.18965380185E+03  0.56853499738E+02  0.25835533177E+03  0.25500000920E-02 0.  1.
</event>
<event>
 5   0  0.5023894E-03  0.6994641E+03  0.7818609E-02  0.9718149E-01
       -2   -1    0    0    0  501  0.00000000000E+00  0.00000000000E+00  0.24125158500E+03  0.24125158502E+03  0.25500000920E-02 0. -1.
        2   -1    0    0  501    0  0.00000000000E+00  0.00000000000E+00 -0.50699149619E+03  0.50699149619E+03  0.25500000920E-02 0.  1.
    10030    2    1    2    0    0  0.00000000000E+00  0.00000000000E+00 -0.26573991118E+03  0.74824308121E+03  0.69946408642E+03 0.  0.
        2    1    3    3  502    0  0.11042711213E+03 -0.32155691025E+03 -0.22055914189E+03  0.40526451695E+03  0.25500000920E-02 0. -1.
       -2    1    3    3    0  502 -0.11042711213E+03  0.32155691025E+03 -0.45180769295E+02  0.34297856426E+03  0.25500000920E-02 0.  1.
</event>
<event>
 5   0  0.2937617E-03  0.7006979E+03  0.7818609E-02  0.9716039E-01
        1   -1    0    0  501    0  0.00000000000E+00  0.00000000000E+00  0.29401663006E+03  0.29401663010E+03  0.50400001928E-02 0.  1.
       -1   -1    0    0    0  501  0.00000000000E+00  0.00000000000E+00 -0.41747428947E+03  0.41747428950E+03  0.50400001928E-02 0. -1.
    10030    2    1    2    0    0  0.00000000000E+00  0.00000000000E+00 -0.12345765941E+03  0.71149091961E+03  0.70069789140E+03 0.  0.
        3    1    3    3  502    0  0.28213692473E+03  0.12094296538E+03 -0.23319652434E+03  0.38549847514E+03  0.10100000352E+00 0. -1.
       -3    1    3    3    0  502 -0.28213692473E+03 -0.12094296538E+03  0.10973886492E+03  0.32599244446E+03  0.10100000352E+00 0.  1.
</event>
<event>
 5   0  0.2913582E-03  0.6949194E+03  0.7818609E-02  0.9725960E-01
        1   -1    0    0  501    0  0.00000000000E+00  0.00000000000E+00  0.39667155998E+03  0.39667156001E+03  0.50400001928E-02 0.  1.
       -1   -1    0    0    0  501  0.00000000000E+00  0.00000000000E+00 -0.30435314933E+03  0.30435314937E+03  0.50400001928E-02 0. -1.
    10030    2    1    2    0    0  0.00000000000E+00  0.00000000000E+00  0.92318410645E+02  0.70102470938E+03  0.69491938685E+03 0.  0.
        1    1    3    3  502    0 -0.30834606052E+03 -0.15031215507E+03 -0.96185371012E+01  0.34316694666E+03  0.50400001928E-02 0. -1.
       -1    1    3    3    0  502  0.30834606052E+03  0.15031215507E+03  0.10193694775E+03  0.35785776272E+03  0.50400001928E-02 0.  1.
</event>
<event>
 5   0  0.2937617E-03  0.7012337E+03  0.7818609E-02  0.9715125E-01
       -1   -1    0    0    0  501  0.00000000000E+00  0.00000000000E+00  0.15555348033E+03  0.15555348042E+03  0.50400001928E-02 0. -1.
        1   -1    0    0  501    0  0.00000000000E+00  0.00000000000E+00 -0.79028890434E+03  0.79028890436E+03  0.50400001928E-02 0.  1.
    10030    2    1    2    0    0  0.00000000000E+00  0.00000000000E+00 -0.63473542401E+03  0.94584238477E+03  0.70123374016E+03 0.  0.
        3    1    3    3  502    0 -0.17375890975E+03  0.19776845930E+03 -0.62972409099E+03  0.68253715150E+03  0.10100000352E+00 0.  1.
       -3    1    3    3    0  502  0.17375890975E+03 -0.19776845930E+03 -0.50113330238E+01  0.26330523327E+03  0.10100000352E+00 0. -1.
</event>
<event>
 5   0  0.2934483E-03  0.6983615E+03  0.7818609E-02  0.9720038E-01
       -1   -1    0    0    0  501  0.00000000000E+00  0.00000000000E+00  0.36548325510E+03  0.36548325514E+03  0.50400001928E-02 0.  1.
        1   -1    0    0  501    0  0.00000000000E+00  0.00000000000E+00 -0.33360540667E+03  0.33360540671E+03  0.50400001928E-02 0. -1.
    10030    2    1    2    0    0  0.00000000000E+00  0.00000000000E+00  0.31877848432E+02  0.69908866185E+03  0.69836148226E+03 0.  0.
        5    1    3    3  502    0  0.23679928820E+03  0.75041836799E+02 -0.22967327675E+03  0.33834462344E+03  0.46999998093E+01 0. -1.
       -5    1    3    3    0  502 -0.23679928820E+03 -0.75041836799E+02  0.26155112519E+03  0.36074403840E+03  0.46999998093E+01 0.  1.
</event>
<event>
 5   0  0.2938783E-03  0.6990487E+03  0.7818609E-02  0.9718860E-01
       -1   -1    0    0    0  501  0.00000000000E+00  0.00000000000E+00  0.28662757104E+03  0.28662757109E+03  0.50400001928E-02 0. -1.
        1   -1    0    0  501    0  0.00000000000E+00  0.00000000000E+00 -0.42622302103E+03  0.42622302106E+03  0.50400001928E-02 0.  1.
    10030    2    1    2    0    0  0.00000000000E+00  0.00000000000E+00 -0.13959544999E+03  0.71285059215E+03  0.69904869435E+03 0.  0.
        4    1    3    3  502    0 -0.64011806462E+02  0.18180862432E+03  0.22753021467E+03  0.29820043382E+03  0.12699999809E+01 0. -1.
       -4    1    3    3    0  502  0.64011806462E+02 -0.18180862432E+03 -0.36712566466E+03  0.41465015833E+03  0.12699999809E+01 0.  1.
</event>
<event>
 5   0  0.2938783E-03  0.6996752E+03  0.7818609E-02  0.9717788E-01
       -1   -1    0    0    0  501  0.00000000000E+00  0.00000000000E+00  0.32412604918E+03  0.32412604922E+03  0.50400001928E-02 0. -1.
        1   -1    0    0  501    0  0.00000000000E+00  0.00000000000E+00 -0.37758869866E+03  0.37758869870E+03  0.50400001928E-02 0.  1.
    10030    2    1    2    0    0  0.00000000000E+00  0.00000000000E+00 -0.53462649481E+02  0.70171474792E+03  0.69967516217E+03 0.  0.
        4    1    3    3  502    0  0.26040273091E+03  0.22517030077E+03  0.35687336390E+02  0.34610178487E+03  0.12699999809E+01 0. -1.
       -4    1    3    3    0  502 -0.26040273091E+03 -0.22517030077E+03 -0.89149985871E+02  0.35561296305E+03  0.12699999809E+01 0.  1.
</event>
<event>
 5   0  0.5072407E-03  0.7029475E+03  0.7818609E-02  0.9712205E-01
        2   -1    0    0  501    0  0.00000000000E+00  0.00000000000E+00  0.31685807147E+03  0.31685807148E+03  0.25500000920E-02 0. -1.
       -2   -1    0    0    0  501  0.00000000000E+00  0.00000000000E+00 -0.38987105197E+03  0.38987105198E+03  0.25500000920E-02 0.  1.
    10030    2    1    2    0    0  0.00000000000E+00  0.00000000000E+00 -0.73012980493E+02  0.70672912346E+03  0.70294747928E+03 0.  0.
        1    1    3    3  502    0  0.19087299384E+03 -0.23620010608E+03  0.14139401880E+03  0.33498546008E+03  0.50400001928E-02 0. -1.
       -1    1    3    3    0  502 -0.19087299384E+03  0.23620010608E+03 -0.21440699929E+03  0.37174366338E+03  0.50400001928E-02 0.  1.
</event>
<event>
 5   0  0.5113683E-03  0.7010209E+03  0.7818609E-02  0.9715488E-01
       -2   -1    0    0    0  501  0.00000000000E+00  0.00000000000E+00  0.78298828831E+02  0.78298828873E+02  0.25500000920E-02 0. -1.
        2   -1    0    0  501    0  0.00000000000E+00  0.00000000000E+00 -0.15690858573E+04  0.15690858573E+04  0.25500000920E-02 0.  1.
    10030    2    1    2    0    0  0.00000000000E+00  0.00000000000E+00 -0.14907870284E+04  0.16473846861E+04  0.70102092692E+03 0.  0.
        3    1    3    3  502    0 -0.34314723877E+03  0.33975392055E+02 -0.89314761284E+03  0.95740118198E+03  0.10100000352E+00 0. -1.
       -3    1    3    3    0  502  0.34314723877E+03 -0.33975392055E+02 -0.59763941559E+03  0.68998350416E+03  0.10100000352E+00 0.  1.
</event>
<event>
 5   0  0.2934483E-03  0.7002005E+03  0.7818609E-02  0.9716889E-01
        1   -1    0    0  501    0  0.00000000000E+00  0.00000000000E+00  0.40908591981E+03  0.40908591984E+03  0.50400001928E-02 0. -1.
       -1   -1    0    0    0  501  0.00000000000E+00  0.00000000000E+00 -0.29961965805E+03  0.29961965809E+03  0.50400001928E-02 0.  1.
    10030    2    1    2    0    0  0.00000000000E+00  0.00000000000E+00  0.10946626176E+03  0.70870557793E+03  0.70020049538E+03 0.  0.
        5    1    3    3  502    0  0.16428289922E+03  0.30500523142E+03  0.38126857007E+01  0.34648764587E+03  0.46999998093E+01 0.  1.
       -5    1    3    3    0  502 -0.16428289922E+03 -0.30500523142E+03  0.10565357606E+03  0.36221793206E+03  0.46999998093E+01 0. -1.
</event>
<event>
 5   0  0.5023894E-03  0.7016213E+03  0.7818609E-02  0.9714464E-01
        2   -1    0    0  501    0  0.00000000000E+00  0.00000000000E+00  0.55321227322E+03  0.55321227322E+03  0.25500000920E-02 0. -1.
       -2   -1    0    0    0  501  0.00000000000E+00  0.00000000000E+00 -0.22246094225E+03  0.22246094227E+03  0.25500000920E-02 0.  1.
    10030    2    1    2    0    0  0.00000000000E+00  0.00000000000E+00  0.33075133096E+03  0.77567321549E+03  0.70162133255E+03 0.  0.
        2    1    3    3  502    0 -0.12530099310E+03  0.74652422171E+02 -0.18735141847E+03  0.23743183657E+03  0.25500000920E-02 0.  1.
       -2    1    3    3    0  502  0.12530099310E+03 -0.74652422171E+02  0.51810274943E+03  0.53824137892E+03  0.25500000920E-02 0. -1.
</event>
<event>
 5   0  0.4878235E-03  0.7051839E+03  0.7818609E-02  0.9708408E-01
        2   -1    0    0  501    0  0.00000000000E+00  0.00000000000E+00  0.14928455242E+03  0.14928455244E+03  0.25500000920E-02 0.  1.
       -2   -1    0    0    0  501  0.00000000000E+00  0.00000000000E+00 -0.83277938369E+03  0.83277938369E+03  0.25500000920E-02 0. -1.
    10030    2    1    2    0    0  0.00000000000E+00  0.00000000000E+00 -0.68349483127E+03  0.98206393614E+03  0.70518394075E+03 0.  0.
        4    1    3    3  502    0  0.18141954874E+03  0.74648467982E+02  0.66259122081E+02  0.20706842008E+03  0.12699999809E+01 0.  1.
       -4    1    3    3    0  502 -0.18141954874E+03 -0.74648467982E+02 -0.74975395335E+03  0.77499551605E+03  0.12699999809E+01 0. -1.
</event>
<event>
 5   0  0.2938783E-03  0.6992507E+03  0.7818609E-02  0.9718514E-01
        1   -1    0    0  501    0  0.00000000000E+00  0.00000000000E+00  0.26133344977E+04  0.26133344977E+04  0.50400001928E-02 0.  1.
       -1   -1    0    0    0  501  0.00000000000E+00  0.00000000000E+00 -0.46774684855E+02  0.46774685127E+02  0.50400001928E-02 0. -1.
    10030    2    1    2    0    0  0.00000000000E+00  0.00000000000E+00  0.25665598129E+04  0.26601091829E+04  0.69925073592E+03 0.  0.
        4    1    3    3  502    0 -0.17301051242E+03  0.29923197882E+03  0.14832777776E+04  0.15230190389E+04  0.12699999809E+01 0.  1.
       -4    1    3    3    0  502  0.17301051242E+03 -0.29923197882E+03  0.10832820353E+04  0.11370901439E+04  0.12699999809E+01 0. -1.
</event>
<event>
 5   0  0.5076796E-03  0.6972435E+03  0.7818609E-02  0.9721958E-01
        2   -1    0    0  501    0  0.00000000000E+00  0.00000000000E+00  0.12485282992E+04  0.12485282992E+04  0.25500000920E-02 0.  1.
       -2   -1    0    0    0  501  0.00000000000E+00  0.00000000000E+00 -0.97344309960E+02  0.97344309993E+02  0.25500000920E-02 0. -1.
    10030    2    1    2    0    0  0.00000000000E+00  0.00000000000E+00  0.11511839892E+04  0.13458726092E+04  0.69724350344E+03 0.  0.
        5    1    3    3  502    0  0.86660941696E+01  0.23987093188E+03  0.87640936653E+02  0.25557032090E+03  0.46999998093E+01 0. -1.
       -5    1    3    3    0  502 -0.86660941696E+01 -0.23987093188E+03  0.10635430526E+04  0.10903022883E+04  0.46999998093E+01 0.  1.
</event>
<event>
 5   0  0.5113683E-03  0.7007551E+03  0.7818609E-02  0.9715942E-01
        2   -1    0    0  501    0  0.00000000000E+00  0.00000000000E+00  0.35610215017E+03  0.35610215018E+03  0.25500000920E-02 0.  1.
       -2   -1    0    0    0  501  0.00000000000E+00  0.00000000000E+00 -0.34474499757E+03  0.34474499758E+03  0.25500000920E-02 0. -1.
    10030    2    1    2    0    0  0.00000000000E+00  0.00000000000E+00  0.11357152600E+02  0.70084714777E+03  0.70075512101E+03 0.  0.
        3    1    3    3  502    0 -0.34247696155E+02 -0.30650680244E+03  0.17196856860E+03  0.35311828531E+03  0.10100000352E+00 0.  1.
       -3    1    3    3    0  502  0.34247696155E+02  0.30650680244E+03 -0.16061141600E+03  0.34772886245E+03  0.10100000352E+00 0. -1.
</event>
<event>
 5   0  0.2938783E-03  0.7001615E+03  0.7818609E-02  0.9716956E-01
       -1   -1    0    0    0  501  0.00000000000E+00  0.00000000000E+00  0.29295918145E+03  0.29295918149E+03  0.50400001928E-02 0.  1.
        1   -1    0    0  501    0  0.00000000000E+00  0.00000000000E+00 -0.41833992432E+03  0.41833992435E+03  0.50400001928E-02 0. -1.
    10030    2    1    2    0    0  0.00000000000E+00  0.00000000000E+00 -0.12538074288E+03  0.71129910585E+03  0.70016147230E+03 0.  0.
        4    1    3    3  502    0 -0.12753002468E+03 -0.21470423059E+03  0.18655516586E+03  0.31171502472E+03  0.12699999809E+01 0.  1.
       -4    1    3    3    0  502  0.12753002468E+03  0.21470423059E+03 -0.31193590874E+03  0.39958408112E+03  0.12699999809E+01 0. -1.
</event>
<event>
 5   0  0.1981750E-03  0.6997146E+03  0.7818609E-02  0.9717720E-01
        3   -1    0    0  501    0  0.00000000000E+00  0.00000000000E+00  0.34769636832E+03  0.34769638299E+03  0.10100000352E+00 0. -1.
       -3   -1    0    0    0  501  0.00000000000E+00  0.00000000000E+00 -0.35203164949E+03  0.35203166398E+03  0.10100000352E+00 0.  1.
    10030    2    1    2    0    0  0.00000000000E+00  0.00000000000E+00 -0.43352811699E+01  0.69972804697E+03  0.69971461687E+03 0.  0.
        4    1    3    3  502    0 -0.29452865168E+03 -0.77064027859E+02 -0.17454418455E+03  0.35093201096E+03  0.12699999809E+01 0.  1.
       -4    1    3    3    0  502  0.29452865168E+03  0.77064027859E+02  0.17020890338E+03  0.34879603602E+03  0.12699999809E+01 0. -1.
</event>
<event>
 5   0  0.2913582E-03  0.6999121E+03  0.7818609E-02  0.9717382E-01
        1   -1    0    0  501    0  0.00000000000E+00  0.00000000000E+00  0.34165969485E+03  0.34165969488E+03  0.50400001928E-02 0.  1.
       -1   -1    0    0    0  501  0.00000000000E+00  0.00000000000E+00 -0.35845388809E+03  0.35845388813E+03  0.50400001928E-02 0. -1.
    10030    2    1    2    0    0  0.00000000000E+00  0.00000000000E+00 -0.16794193245E+02  0.70011358301E+03  0.69991212605E+03 0.  0.
        1    1    3    3  502    0 -0.26477349203E+03 -0.22736858220E+03  0.17451621586E+02  0.34943673730E+03  0.50400001928E-02 0.  1.
       -1    1    3    3    0  502  0.26477349203E+03  0.22736858220E+03 -0.34245814831E+02  0.35067684571E+03  0.50400001928E-02 0. -1.
</event>
<event>
 5   0  0.4878235E-03  0.6990934E+03  0.7818609E-02  0.9718784E-01
       -2   -1    0    0    0  501  0.00000000000E+00  0.00000000000E+00  0.83581751529E+02  0.83581751568E+02  0.25500000920E-02 0.  1.
        2   -1    0    0  501    0  0.00000000000E+00  0.00000000000E+00 -0.14618370143E+04  0.14618370143E+04  0.25500000920E-02 0. -1.
    10030    2    1    2    0    0  0.00000000000E+00  0.00000000000E+00 -0.13782552628E+04  0.15454187659E+04  0.69909340759E+03 0.  0.
        4    1    3    3  502    0 -0.45849161599E+02  0.30433714145E+03 -0.10554350992E+04  0.10993944255E+04  0.12699999809E+01 0. -1.
       -4    1    3    3    0  502  0.45849161599E+02 -0.30433714145E+03 -0.32282016351E+03  0.44602434032E+03  0.12699999809E+01 0.  1.
</event>
<event>
 5   0  0.5113683E-03  0.6982128E+03  0.7818609E-02  0.9720293E-01
        2   -1    0    0  501    0  0.00000000000E+00  0.00000000000E+00  0.18066361328E+03  0.18066361330E+03  0.25500000920E-02 0.  1.
       -2   -1    0    0    0  501  0.00000000000E+00  0.00000000000E+00 -0.67459774548E+03  0.67459774548E+03  0.25500000920E-02 0. -1.
    10030    2    1    2    0    0  0.00000000000E+00  0.00000000000E+00 -0.49393413220E+03  0.85526135878E+03  0.69821276476E+03 0.  0.
        3    1    3    3  502    0 -0.22975250207E+03  0.21502008097E+03 -0.61782170406E+02  0.32068192061E+03  0.10100000352E+00 0.  1.
       -3    1    3    3    0  502  0.22975250207E+03 -0.21502008097E+03 -0.43215196179E+03  0.53457943817E+03  0.10100000352E+00 0. -1.
</event>
<event>
 5   0  0.5023894E-03  0.7000956E+03  0.7818609E-02  0.9717069E-01
        2   -1    0    0  501    0  0.00000000000E+00  0.00000000000E+00  0.74484281587E+03  0.74484281587E+03  0.25500000920E-02 0. -1.
       -2   -1    0    0    0  501  0.00000000000E+00  0.00000000000E+00 -0.16450915286E+03  0.16450915288E+03  0.25500000920E-02 0.  1.
    10030    2    1    2    0    0  0.00000000000E+00  0.00000000000E+00  0.58033366301E+03  0.90935196876E+03  0.70009559537E+03 0.  0.
        2    1    3    3  502    0 -0.32650263115E+03  0.38338042952E+02  0.13397651257E+03  0.35499785860E+03  0.25500000920E-02 0.  1.
       -2    1    3    3    0  502  0.32650263115E+03 -0.38338042952E+02  0.44635715044E+03  0.55435411015E+03  0.25500000920E-02 0. -1.
</event>
<event>
 5   0  0.5023894E-03  0.7017896E+03  0.7818609E-02  0.9714177E-01
       -2   -1    0    0    0  501  0.00000000000E+00  0.00000000000E+00  0.11817601018E+03  0.11817601021E+03  0.25500000920E-02 0.  1.
        2   -1    0    0  501    0  0.00000000000E+00  0.00000000000E+00 -0.10418963875E+04  0.10418963875E+04  0.25500000920E-02 0. -1.
    10030    2    1    2    0    0  0.00000000000E+00  0.00000000000E+00 -0.92372037728E+03  0.11600723977E+04  0.70178959270E+03 0.  0.
        2    1    3    3  502    0  0.99610393527E+02  0.29822763382E+03 -0.20436438161E+03  0.37500233672E+03  0.25500000920E-02 0.  1.
       -2    1    3    3    0  502 -0.99610393527E+02 -0.29822763382E+03 -0.71935599568E+03  0.78507006095E+03  0.25500000920E-02 0. -1.
</event>
<event>
 5   0  0.4878235E-03  0.7001657E+03  0.7818609E-02  0.9716949E-01
        2   -1    0    0  501    0  0.00000000000E+00  0.00000000000E+00  0.84737923346E+03  0.84737923347E+03  0.25500000920E-02 0. -1.
       -2   -1    0    0    0  501  0.00000000000E+00  0.00000000000E+00 -0.14463183567E+03  0.14463183570E+03  0.25500000920E-02 0.  1.
    10030    2    1    2    0    0  0.00000000000E+00  0.00000000000E+00  0.70274739779E+03  0.99201106916E+03  0.70016573484E+03 0.  0.
        4    1    3    3  502    0 -0.94534485911E+02 -0.32525248085E+03  0.22599920665E+03  0.40718939038E+03  0.12699999809E+01 0.  1.
       -4    1    3    3    0  502  0.94534485911E+02  0.32525248085E+03  0.47674819114E+03  0.58482167879E+03  0.12699999809E+01 0. -1.
</event>
<event>
 5   0  0.5076796E-03  0.6997118E+03  0.7818609E-02  0.9717725E-01
        2   -1    0    0  501    0  0.00000000000E+00  0.00000000000E+00  0.14923399776E+04  0.14923399776E+04  0.25500000920E-02 0. -1.
       -2   -1    0    0    0  501  0.00000000000E+00  0.00000000000E+00 -0.82018269110E+02  0.82018269149E+02  0.25500000920E-02 0.  1.
    10030    2    1    2    0    0  0.00000000000E+00  0.00000000000E+00  0.14103217085E+04  0.15743582467E+04  0.69971177471E+03 0.  0.
        5    1    3    3  502    0 -0.74863538977E+02  0.19045991937E+03  0.66786199926E+02  0.21531840807E+03  0.46999998093E+01 0.  1.
       -5    1    3    3    0  502  0.74863538977E+02 -0.19045991937E+03  0.13435355085E+04  0.13590398386E+04  0.46999998093E+01 0. -1.
</event>
<event>
 5   0  0.5076796E-03  0.7001471E+03  0.7818609E-02  0.9716981E-01
        2   -1    0    0  501    0  0.00000000000E+00  0.00000000000E+00  0.73959285704E+03  0.73959285704E+03  0.25500000920E-02 0. -1.
       -2   -1    0    0    0  501  0.00000000000E+00  0.00000000000E+00 -0.16570126634E+03  0.16570126636E+03  0.25500000920E-02 0.  1.
    10030    2    1    2    0    0  0.00000000000E+00  0.00000000000E+00  0.57389159070E+03  0.90529412340E+03  0.70014705026E+03 0.  0.
        5    1    3    3  502    0  0.11595074728E+03  0.23430778731E+03 -0.14034903439E+02  0.26184687032E+03  0.46999998093E+01 0.  1.
       -5    1    3    3    0  502 -0.11595074728E+03 -0.23430778731E+03  0.58792649414E+03  0.64344725308E+03  0.46999998093E+01 0. -1.
</event>
<event>
 5   0  0.5113683E-03  0.6938504E+03  0.7818609E-02  0.9727807E-01
        2   -1    0    0  501    0  0.00000000000E+00  0.00000000000E+00  0.34960704668E+03  0.34960704669E+03  0.25500000920E-02 0.  1.
       -2   -1    0    0    0  501  0.00000000000E+00  0.00000000000E+00 -0.34426395508E+03  0.34426395509E+03  0.25500000920E-02 0. -1.
    10030    2    1    2    0    0  0.00000000000E+00  0.00000000000E+00  0.53430915946E+01  0.69387100178E+03  0.69385042947E+03 0.  0.
        3    1    3    3  502    0  0.64449659356E+02  0.15662195495E+03  0.30545585062E+03  0.34926706435E+03  0.10100000352E+00 0.  1.
       -3    1    3    3    0  502 -0.64449659356E+02 -0.15662195495E+03 -0.30011275902E+03  0.34460393743E+03  0.10100000352E+00 0. -1.
</event>
<event>
 5   0  0.2938783E-03  0.7002467E+03  0.7818609E-02  0.9716810E-01
        1   -1    0    0  501    0  0.00000000000E+00  0.00000000000E+00  0.26968606212E+04  0.26968606212E+04  0.50400001928E-02 0.  1.
       -1   -1    0    0    0  501  0.00000000000E+00  0.00000000000E+00 -0.45455213520E+02  0.45455213800E+02  0.50400001928E-02 0. -1.
    10030    2    1    2    0    0  0.00000000000E+00  0.00000000000E+00  0.26514054077E+04  0.27423158350E+04  0.70024674440E+03 0.  0.
        4    1    3    3  502    0  0.19176461910E+03 -0.24835639794E+03  0.19340432645E+04  0.19593313991E+04  0.12699999809E+01 0.  1.
       -4    1    3    3    0  502 -0.19176461910E+03  0.24835639794E+03  0.71736214314E+03  0.78298443589E+03  0.12699999809E+01 0. -1.
</event>
<event>
 5   0  0.2913582E-03  0.7012729E+03  0.7818609E-02  0.9715058E-01
       -1   -1    0    0    0  501  0.00000000000E+00  0.00000000000E+00  0.20054649502E+03  0.20054649509E+03  0.50400001928E-02 0.  1.
        1   -1    0    0  501    0  0.00000000000E+00  0.00000000000E+00 -0.61305438903E+03  0.61305438905E+03  0.50400001928E-02 0. -1.
    10030    2    1    2    0    0  0.00000000000E+00  0.00000000000E+00 -0.41250789401E+03  0.81360088414E+03  0.70127286847E+03 0.  0.
        1    1    3    3  502    0  0.17713662541E+03  0.18630350627E+03  0.70393076530E+02  0.26653623724E+03  0.50400001928E-02 0.  1.
       -1    1    3    3    0  502 -0.17713662541E+03 -0.18630350627E+03 -0.48290097054E+03  0.54706464690E+03  0.50400001928E-02 0. -1.
</event>
<event>
 5   0  0.5023894E-03  0.7018321E+03  0.7818609E-02  0.9714104E-01
       -2   -1    0    0    0  501  0.00000000000E+00  0.00000000000E+00  0.16825344630E+03  0.16825344632E+03  0.25500000920E-02 0. -1.
        2   -1    0    0  501    0  0.00000000000E+00  0.00000000000E+00 -0.73188446172E+03  0.73188446172E+03  0.25500000920E-02 0.  1.
    10030    2    1    2    0    0  0.00000000000E+00  0.00000000000E+00 -0.56363101542E+03  0.90013790804E+03  0.70183212518E+03 0.  0.
        2    1    3    3  502    0  0.13591715366E+03 -0.18599727586E+03  0.57694903522E+02  0.23748086488E+03  0.25500000920E-02 0. -1.
       -2    1    3    3    0  502 -0.13591715366E+03  0.18599727586E+03 -0.62132591894E+03  0.66265704315E+03  0.25500000920E-02 0.  1.
</event>
<event>
 5   0  0.4878235E-03  0.6987688E+03  0.7818609E-02  0.9719340E-01
        2   -1    0    0  501    0  0.00000000000E+00  0.00000000000E+00  0.28963888689E+03  0.28963888690E+03  0.25500000920E-02 0.  1.
       -2   -1    0    0    0  501  0.00000000000E+00  0.00000000000E+00 -0.42145398526E+03  0.42145398527E+03  0.25500000920E-02 0. -1.
    10030    2    1    2    0    0  0.00000000000E+00  0.00000000000E+00 -0.13181509837E+03  0.71109287217E+03  0.69876881205E+03 0.  0.
        4    1    3    3  502    0 -0.42787486975E+02  0.84559688215E+02 -0.40812224483E+03  0.41898268406E+03  0.12699999809E+01 0. -1.
       -4    1    3    3    0  502  0.42787486975E+02 -0.84559688215E+02  0.27630714646E+03  0.29211018811E+03  0.12699999809E+01 0.  1.
</event>
<event>
 5   0  0.2934483E-03  0.6961650E+03  0.7818609E-02  0.9723813E-01
        1   -1    0    0  501    0  0.00000000000E+00  0.00000000000E+00  0.15767421767E+03  0.15767421775E+03  0.50400001928E-02 0.  1.
       -1   -1    0    0    0  501  0.00000000000E+00  0.00000000000E+00 -0.76842882801E+03  0.76842882802E+03  0.50400001928E-02 0. -1.
    10030    2    1    2    0    0  0.00000000000E+00  0.00000000000E+00 -0.61075461034E+03  0.92610304577E+03  0.69616496417E+03 0.  0.
        5    1    3    3  502    0  0.20448903062E+03 -0.26189426835E+03 -0.44320840490E+03  0.55394959302E+03  0.46999998093E+01 0.  1.
       -5    1    3    3    0  502 -0.20448903062E+03  0.26189426835E+03 -0.16754620544E+03  0.37215345275E+03  0.46999998093E+01 0. -1.
</event>
<event>
 5   0  0.1981750E-03  0.6994576E+03  0.7818609E-02  0.9718160E-01
        3   -1    0    0  501    0  0.00000000000E+00  0.00000000000E+00  0.39982977106E+03  0.39982978382E+03  0.10100000352E+00 0.  1.
       -3   -1    0    0    0  501  0.00000000000E+00  0.00000000000E+00 -0.30590577270E+03  0.30590578937E+03  0.10100000352E+00 0. -1.
    10030    2    1    2    0    0  0.00000000000E+00  0.00000000000E+00  0.93923998369E+02  0.70573557319E+03  0.69945763403E+03 0.  0.
        2    1    3    3  502    0 -0.29149392374E+03 -0.15133249059E+03 -0.74283163058E+02  0.33673167152E+03  0.25500000920E-02 0. -1.
       -2    1    3    3    0  502  0.29149392374E+03  0.15133249059E+03  0.16820716143E+03  0.36900390167E+03  0.25500000920E-02 0.  1.
</event>
<event>
 5   0  0.5072407E-03  0.6995834E+03  0.7818609E-02  0.9717945E-01
       -2   -1    0    0    0  501  0.00000000000E+00  0.00000000000E+00  0.13354468002E+03  0.13354468005E+03  0.25500000920E-02 0. -1.
        2   -1    0    0  501    0  0.00000000000E+00  0.00000000000E+00 -0.91620444638E+03  0.91620444639E+03  0.25500000920E-02 0.  1.
    10030    2    1    2    0    0  0.00000000000E+00  0.00000000000E+00 -0.78265976636E+03  0.10497491264E+04  0.69958338929E+03 0.  0.
        1    1    3    3  502    0 -0.22673275895E+03 -0.18284265493E+03 -0.68196547164E+03  0.74156327106E+03  0.50400001928E-02 0.  1.
       -1    1    3    3    0  502  0.22673275895E+03  0.18284265493E+03 -0.10069429472E+03  0.30818585538E+03  0.50400001928E-02 0. -1.
</event>
<event>
 5   0  0.2934483E-03  0.7020525E+03  0.7818609E-02  0.9713729E-01
       -1   -1    0    0    0  501  0.00000000000E+00  0.00000000000E+00  0.21264337421E+03  0.21264337427E+03  0.50400001928E-02 0. -1.
        1   -1    0    0  501    0  0.00000000000E+00  0.00000000000E+00 -0.57946516677E+03  0.57946516679E+03  0.50400001928E-02 0.  1.
    10030    2    1    2    0    0  0.00000000000E+00  0.00000000000E+00 -0.36682179256E+03  0.79210854106E+03  0.70205250041E+03 0.  0.
        5    1    3    3  502    0 -0.12322839409E+03 -0.12923030006E+03  0.15752925951E+03  0.23816646524E+03  0.46999998093E+01 0. -1.
       -5    1    3    3    0  502  0.12322839409E+03  0.12923030006E+03 -0.52435105207E+03  0.55394207582E+03  0.46999998093E+01 0.  1.
</event>
<event>
 5   0  0.2938783E-03  0.6982302E+03  0.7818609E-02  0.9720264E-01
        1   -1    0    0  501    0  0.00000000000E+00  0.00000000000E+00  0.82235971180E+03  0.82235971182E+03  0.50400001928E-02 0.  1.
       -1   -1    0    0    0  501  0.00000000000E+00  0.00000000000E+00 -0.14820928772E+03  0.14820928780E+03  0.50400001928E-02 0. -1.
    10030    2    1    2    0    0  0.00000000000E+00  0.00000000000E+00  0.67415042408E+03  0.97056899962E+03  0.69823018320E+03 0.  0.
        4    1    3    3  502    0  0.15708931797E+03 -0.53322973976E+02  0.76406771160E+03  0.78187049706E+03  0.12699999809E+01 0.  1.
       -4    1    3    3    0  502 -0.15708931797E+03  0.53322973976E+02 -0.89917287515E+02  0.18869850256E+03  0.12699999809E+01 0. -1.
</event>
<event>
 5   0  0.2938783E-03  0.7004295E+03  0.7818609E-02  0.9716498E-01
        1   -1    0    0  501    0  0.00000000000E+00  0.00000000000E+00  0.59652156860E+03  0.59652156862E+03  0.50400001928E-02 0. -1.
       -1   -1    0    0    0  501  0.00000000000E+00  0.00000000000E+00 -0.20560929888E+03  0.20560929894E+03  0.50400001928E-02 0.  1.
    10030    2    1    2    0    0  0.00000000000E+00  0.00000000000E+00  0.39091226972E+03  0.80213086756E+03  0.70042952969E+03 0.  0.
        4    1    3    3  502    0  0.10197979725E+03 -0.20124410215E+03 -0.11129828525E+03  0.25157104145E+03  0.12699999809E+01 0.  1.
       -4    1    3    3    0  502 -0.10197979725E+03  0.20124410215E+03  0.50221055497E+03  0.55055982611E+03  0.12699999809E+01 0. -1.
</event>
<event>
 5   0  0.2913582E-03  0.7010479E+03  0.7818609E-02  0.9715442E-01
       -1   -1    0    0    0  501  0.00000000000E+00  0.00000000000E+00  0.17475238477E+03  0.17475238485E+03  0.50400001928E-02 0.  1.
        1   -1    0    0  501    0  0.00000000000E+00  0.00000000000E+00 -0.70309226727E+03  0.70309226729E+03  0.50400001928E-02 0. -1.
    10030    2    1    2    0    0  0.00000000000E+00  0.00000000000E+00 -0.52833988249E+03  0.87784465213E+03  0.70104793120E+03 0.  0.
        1    1    3    3  502    0  0.91469222301E+02  0.24499181024E+03 -0.55644132242E+03  0.61482887948E+03  0.50400001928E-02 0. -1.
       -1    1    3    3    0  502 -0.91469222301E+02 -0.24499181024E+03  0.28101439928E+02  0.26301577266E+03  0.50400001928E-02 0.  1.
</event>
<event>
 5   0  0.2913582E-03  0.6992995E+03  0.7818609E-02  0.9718431E-01
        1   -1    0    0  501    0  0.00000000000E+00  0.00000000000E+00  0.17227407543E+04  0.17227407543E+04  0.50400001928E-02 0. -1.
       -1   -1    0    0    0  501  0.00000000000E+00  0.00000000000E+00 -0.70965383676E+02  0.70965383855E+02  0.50400001928E-02 0.  1.
    10030    2    1    2    0    0  0.00000000000E+00  0.00000000000E+00  0.16517753707E+04  0.17937061382E+04  0.69929953174E+03 0.  0.
        1    1    3    3  502    0  0.12705011874E+03  0.32476264925E+03  0.89090169543E+03  0.95672270903E+03  0.50400001928E-02 0. -1.
       -1    1    3    3    0  502 -0.12705011874E+03 -0.32476264925E+03  0.76087367522E+03  0.83698342916E+03  0.50400001928E-02 0.  1.
</event>
<event>
 5   0  0.1981750E-03  0.7005057E+03  0.7818609E-02  0.9716368E-01
        4   -1    0    0  501    0  0.00000000000E+00  0.00000000000E+00  0.10933635689E+03  0.10934373250E+03  0.12699999809E+01 0. -1.
       -4   -1    0    0    0  501  0.00000000000E+00  0.00000000000E+00 -0.11219695261E+04  0.11219702449E+04  0.12699999809E+01 0.  1.
    10030    2    1    2    0    0  0.00000000000E+00  0.00000000000E+00 -0.10126331692E+04  0.12313139774E+04  0.70050565700E+03 0.  0.
        3    1    3    3  502    0  0.17694546336E+03 -0.29519645751E+03 -0.39204405209E+03  0.52167920652E+03  0.10100000352E+00 0. -1.
       -3    1    3    3    0  502 -0.17694546336E+03  0.29519645751E+03 -0.62058911710E+03  0.70963477085E+03  0.10100000352E+00 0.  1.
</event>
<event>
 5   0  0.2934483E-03  0.7001326E+03  0.7818609E-02  0.9717005E-01
       -1   -1    0    0    0  501  0.00000000000E+00  0.00000000000E+00  0.25393672182E+03  0.25393672187E+03  0.50400001928E-02 0. -1.
        1   -1    0    0  501    0  0.00000000000E+00  0.00000000000E+00 -0.48258642165E+03  0.48258642168E+03  0.50400001928E-02 0.  1.
    10030    2    1    2    0    0  0.00000000000E+00  0.00000000000E+00 -0.22864969983E+03  0.73652314355E+03  0.70013259869E+03 0.  0.
        5    1    3    3  502    0 -0.97696432279E+02  0.47003932588E+02 -0.46444562820E+03  0.47695470865E+03  0.46999998093E+01 0.  1.
       -5    1    3    3    0  502  0.97696432279E+02 -0.47003932588E+02  0.23579592837E+03  0.25956843489E+03  0.46999998093E+01 0. -1.
</event>
<event>
 5   0  0.5113683E-03  0.6999006E+03  0.7818609E-02  0.9717402E-01
       -2   -1    0    0    0  501  0.00000000000E+00  0.00000000000E+00  0.15441224659E+03  0.15441224661E+03  0.25500000920E-02 0. -1.
        2   -1    0    0  501    0  0.00000000000E+00  0.00000000000E+00 -0.79310554702E+03  0.79310554703E+03  0.25500000920E-02 0.  1.
    10030    2    1    2    0    0  0.00000000000E+00  0.00000000000E+00 -0.63869330043E+03  0.94751779364E+03  0.69990059098E+03 0.  0.
        3    1    3    3  502    0  0.41672755979E+02  0.12682797994E+03 -0.75727858062E+03  0.76895566449E+03  0.10100000352E+00 0.  1.
       -3    1    3    3    0  502 -0.41672755979E+02 -0.12682797994E+03  0.11858528019E+03  0.17856212915E+03  0.10100000352E+00 0. -1.
</event>
<event>
 5   0  0.2937617E-03  0.6999565E+03  0.7818609E-02  0.9717307E-01
        1   -1    0    0  501    0  0.00000000000E+00  0.00000000000E+00  0.11742773104E+03  0.11742773114E+03  0.50400001928E-02 0.  1.
       -1   -1    0    0    0  501  0.00000000000E+00  0.00000000000E+00 -0.10430653045E+04  0.10430653045E+04  0.50400001928E-02 0. -1.
    10030    2    1    2    0    0  0.00000000000E+00  0.00000000000E+00 -0.92563757348E+03  0.11604930357E+04  0.69995654751E+03 0.  0.
        3    1    3    3  502    0  0.14131095171E+03  0.92038463070E+02 -0.97125810128E+03  0.98579012637E+03  0.10100000352E+00 0. -1.
       -3    1    3    3    0  502 -0.14131095171E+03 -0.92038463070E+02  0.45620527800E+02  0.17470290929E+03  0.10100000352E+00 0.  1.
</event>
<event>
 5   0  0.1981750E-03  0.7002707E+03  0.7818609E-02  0.9716769E-01
        3   -1    0    0  501    0  0.00000000000E+00  0.00000000000E+00  0.43322553932E+03  0.43322555109E+03  0.10100000352E+00 0.  1.
       -3   -1    0    0    0  501  0.00000000000E+00  0.00000000000E+00 -0.28298135309E+03  0.28298137111E+03  0.10100000352E+00 0. -1.
    10030    2    1    2    0    0  0.00000000000E+00  0.00000000000E+00  0.15024418623E+03  0.71620692221E+03  0.70027069046E+03 0.  0.
        3    1    3    3  502    0 -0.12426654338E+03  0.85326646530E+02  0.39833917601E+03  0.42590717270E+03  0.10100000352E+00 0.  1.
       -3    1    3    3    0  502  0.12426654338E+03 -0.85326646530E+02 -0.24809498978E+03  0.29029974951E+03  0.10100000352E+00 0. -1.
</event>
<event>
 5   0  0.3013140E-03  0.7003997E+03  0.7818609E-02  0.9716549E-01
       -1   -1    0    0    0  501  0.00000000000E+00  0.00000000000E+00  0.79622743287E+02  0.79622743446E+02  0.50400001928E-02 0.  1.
        1   -1    0    0  501    0  0.00000000000E+00  0.00000000000E+00 -0.15402626362E+04  0.15402626362E+04  0.50400001928E-02 0. -1.
    10030    2    1    2    0    0  0.00000000000E+00  0.00000000000E+00 -0.14606398929E+04  0.16198853797E+04  0.70039970477E+03 0.  0.
        2    1    3    3  502    0  0.16563423591E+03  0.27288312765E+03 -0.10633957431E+04  0.11102749245E+04  0.25500000920E-02 0. -1.
       -2    1    3    3    0  502 -0.16563423591E+03 -0.27288312765E+03 -0.39724414979E+03  0.50961045516E+03  0.25500000920E-02 0.  1.
</event>
<event>
 5   0  0.5076796E-03  0.6995662E+03  0.7818609E-02  0.9717974E-01
       -2   -1    0    0    0  501  0.00000000000E+00  0.00000000000E+00  0.10948670527E+03  0.10948670530E+03  0.25500000920E-02 0. -1.
        2   -1    0    0  501    0  0.00000000000E+00  0.00000000000E+00 -0.11174709056E+04  0.11174709056E+04  0.25500000920E-02 0.  1.
    10030    2    1    2    0    0  0.00000000000E+00  0.00000000000E+00 -0.10079842003E+04  0.12269576109E+04  0.69956617331E+03 0.  0.
        5    1    3    3  502    0 -0.15534521119E+03 -0.29000866612E+03 -0.71217266081E+03  0.78450567229E+03  0.46999998093E+01 0.  1.
       -5    1    3    3    0  502  0.15534521119E+03  0.29000866612E+03 -0.29581153951E+03  0.44245193860E+03  0.46999998093E+01 0. -1.
</event>
<event>
 5   0  0.5113683E-03  0.6994201E+03  0.7818609E-02  0.9718224E-01
        2   -1    0    0  501    0  0.00000000000E+00  0.00000000000E+00  0.19425234073E+03  0.19425234075E+03  0.25500000920E-02 0. -1.
       -2   -1    0    0    0  501  0.00000000000E+00  0.00000000000E+00 -0.62957859511E+03  0.62957859511E+03  0.25500000920E-02 0.  1.
    10030    2    1    2    0    0  0.00000000000E+00  0.00000000000E+00 -0.43532625438E+03  0.82383093586E+03  0.69942009059E+03 0.  0.
        3    1    3    3  502    0  0.30309460057E+03 -0.15033047249E+03 -0.32190038091E+03  0.46699620265E+03  0.10100000352E+00 0. -1.
       -3    1    3    3    0  502 -0.30309460057E+03  0.15033047249E+03 -0.11342587346E+03  0.35683473321E+03  0.10100000352E+00 0.  1.
</event>
<event>
 5   0  0.2913582E-03  0.6992891E+03  0.7818609E-02  0.9718449E-01
       -1   -1    0    0    0  501  0.00000000000E+00  0.00000000000E+00  0.36630647166E+03  0.36630647169E+03  0.50400001928E-02 0.  1.
        1   -1    0    0  501    0  0.00000000000E+00  0.00000000000E+00 -0.33374056238E+03  0.33374056242E+03  0.50400001928E-02 0. -1.
    10030    2    1    2    0    0  0.00000000000E+00  0.00000000000E+00  0.32565909274E+02  0.70004703411E+03  0.69928914729E+03 0.  0.
        1    1    3    3  502    0 -0.10940826203E+03 -0.19899272815E+03  0.28243394422E+03  0.36240475511E+03  0.50400001928E-02 0.  1.
       -1    1    3    3    0  502  0.10940826203E+03  0.19899272815E+03 -0.24986803494E+03  0.33764227900E+03  0.50400001928E-02 0. -1.
</event>
<event>
 5   0  0.4878235E-03  0.6994549E+03  0.7818609E-02  0.9718165E-01
       -2   -1    0    0    0  501  0.00000000000E+00  0.00000000000E+00  0.11789262811E+03  0.11789262814E+03  0.25500000920E-02 0.  1.
        2   -1    0    0  501    0  0.00000000000E+00  0.00000000000E+00 -0.10374633311E+04  0.10374633312E+04  0.25500000920E-02 0. -1.
    10030    2    1    2    0    0  0.00000000000E+00  0.00000000000E+00 -0.91957070304E+03  0.11553559593E+04  0.69945486973E+03 0.  0.
        4    1    3    3  502    0 -0.24552771366E+03 -0.18734032096E+03 -0.73083785094E+03  0.79341403523E+03  0.12699999809E+01 0. -1.
       -4    1    3    3    0  502  0.24552771366E+03  0.18734032096E+03 -0.18873285210E+03  0.36194192407E+03  0.12699999809E+01 0.  1.
</event>
<event>
 5   0  0.5072407E-03  0.7003721E+03  0.7818609E-02  0.9716596E-01
       -2   -1    0    0    0  501  0.00000000000E+00  0.00000000000E+00  0.42272237426E+03  0.42272237427E+03  0.25500000920E-02 0.  1.
        2   -1    0    0  501    0  0.00000000000E+00  0.00000000000E+00 -0.29009645617E+03  0.29009645618E+03  0.25500000920E-02 0. -1.
    10030    2    1    2    0    0  0.00000000000E+00  0.00000000000E+00  0.13262591809E+03  0.71281883045E+03  0.70037208032E+03 0.  0.
        1    1    3    3  502    0  0.30894405092E+02 -0.10475827436E+03  0.40494425786E+03  0.41941460670E+03  0.50400001928E-02 0.  1.
       -1    1    3    3    0  502 -0.30894405092E+02  0.10475827436E+03 -0.27231833977E+03  0.29340422375E+03  0.50400001928E-02 0. -1.
</event>
<event>
 5   0  0.5113683E-03  0.6989773E+03  0.7818609E-02  0.9718983E-01
       -2   -1    0    0    0  501  0.00000000000E+00  0.00000000000E+00  0.13128244673E+03  0.13128244675E+03  0.25500000920E-02 0.  1.
        2   -1    0    0  501    0  0.00000000000E+00  0.00000000000E+00 -0.93037822881E+03  0.93037822881E+03  0.25500000920E-02 0. -1.
    10030    2    1    2    0    0  0.00000000000E+00  0.00000000000E+00 -0.79909578208E+03  0.10616606756E+04  0.69897733948E+03 0.  0.
        3    1    3    3  502    0  0.16988808103E+03  0.71925339867E+02  0.51297985329E+02  0.19148552972E+03  0.10100000352E+00 0.  1.
       -3    1    3    3    0  502 -0.16988808103E+03 -0.71925339867E+02 -0.85039376741E+03  0.87017514584E+03  0.10100000352E+00 0. -1.
</event>
<event>
 5   0  0.2934483E-03  0.7013686E+03  0.7818609E-02  0.9714895E-01
       -1   -1    0    0    0  501  0.00000000000E+00  0.00000000000E+00  0.14126150563E+04  0.14126150563E+04  0.50400001928E-02 0.  1.
        1   -1    0    0  501    0  0.00000000000E+00  0.00000000000E+00 -0.87058014883E+02  0.87058015028E+02  0.50400001928E-02 0. -1.
    10030    2    1    2    0    0  0.00000000000E+00  0.00000000000E+00  0.13255570414E+04  0.14996730713E+04  0.70136855563E+03 0.  0.
        5    1    3    3  502    0 -0.65147901563E+01 -0.23128703967E+03  0.99404947504E+02  0.25187213184E+03  0.46999998093E+01 0. -1.
       -5    1    3    3    0  502  0.65147901563E+01  0.23128703967E+03  0.12261520939E+04  0.12478009395E+04  0.46999998093E+01 0.  1.
</event>
<event>
 5   0  0.3013140E-03  0.7006605E+03  0.7818609E-02  0.9716103E-01
        1   -1    0    0  501    0  0.00000000000E+00  0.00000000000E+00  0.25511736567E+03  0.25511736572E+03  0.50400001928E-02 0. -1.
       -1   -1    0    0    0  501  0.00000000000E+00  0.00000000000E+00 -0.48107770773E+03  0.48107770775E+03  0.50400001928E-02 0.  1.
    10030    2    1    2    0    0  0.00000000000E+00  0.00000000000E+00 -0.22596034206E+03  0.73619507347E+03  0.70066048128E+03 0.  0.
        2    1    3    3  502    0 -0.72477305925E+01  0.22810211894E+03 -0.39225754104E+03  0.45381613542E+03  0.25500000920E-02 0.  1.
       -2    1    3    3    0  502  0.72477305925E+01 -0.22810211894E+03  0.16629719898E+03  0.28237893805E+03  0.25500000920E-02 0. -1.
</event>
<event>
 5   0  0.2913582E-03  0.6993656E+03  0.7818609E-02  0.9718318E-01
       -1   -1    0    0    0  501  0.00000000000E+00  0.00000000000E+00  0.58470261623E+03  0.58470261625E+03  0.50400001928E-02 0.  1.
        1   -1    0    0  501    0  0.00000000000E+00  0.00000000000E+00 -0.20912865418E+03  0.20912865424E+03  0.50400001928E-02 0. -1.
    10030    2    1    2    0    0  0.00000000000E+00  0.00000000000E+00  0.37557396205E+03  0.79383127048E+03  0.69936563043E+03 0.  0.
        1    1    3    3  502    0 -0.16236718695E+03 -0.11530577685E+03 -0.13847413558E+03  0.24255640957E+03  0.50400001928E-02 0. -1.
       -1    1    3    3    0  502  0.16236718695E+03  0.11530577685E+03  0.51404809763E+03  0.55127486092E+03  0.50400001928E-02 0.  1.
</event>
<event>
 5   0  0.5023894E-03  0.6974307E+03  0.7818609E-02  0.9721636E-01
        2   -1    0    0  501    0  0.00000000000E+00  0.00000000000E+00  0.52194761514E+03  0.52194761514E+03  0.25500000920E-02 0. -1.
       -2   -1    0    0    0  501  0.00000000000E+00  0.00000000000E+00 -0.23297812939E+03  0.23297812941E+03  0.25500000920E-02 0.  1.
    10030    2    1    2    0    0  0.00000000000E+00  0.00000000000E+00  0.28896948575E+03  0.75492574455E+03  0.69743065325E+03 0.  0.
        2    1    3    3  502    0  0.79640271987E+02 -0.75905673218E+02 -0.21369957324E+03  0.24035754983E+03  0.25500000920E-02 0.  1.
       -2    1    3    3    0  502 -0.79640271987E+02  0.75905673218E+02  0.50266905899E+03  0.51456819472E+03  0.25500000920E-02 0. -1.
</event>
<event>
 5   0  0.4878235E-03  0.7006735E+03  0.7818609E-02  0.9716081E-01
        2   -1    0    0  501    0  0.00000000000E+00  0.00000000000E+00  0.92886124807E+03  0.92886124807E+03  0.25500000920E-02 0.  1.
       -2   -1    0    0    0  501  0.00000000000E+00  0.00000000000E+00 -0.13213581599E+03  0.13213581601E+03  0.25500000920E-02 0. -1.
    10030    2    1    2    0    0  0.00000000000E+00  0.00000000000E+00  0.79672543208E+03  0.10609970641E+04  0.70067350162E+03 0.  0.
        4    1    3    3  502    0  0.77147793757E+02  0.28802186091E+03  0.11986421729E+03  0.32136804124E+03  0.12699999809E+01 0.  1.
       -4    1    3    3    0  502 -0.77147793757E+02 -0.28802186091E+03  0.67686121479E+03  0.73962902284E+03  0.12699999809E+01 0. -1.
</event>
<event>
 5   0  0.3013140E-03  0.7000007E+03  0.7818609E-02  0.9717231E-01
        1   -1    0    0  501    0  0.00000000000E+00  0.00000000000E+00  0.25727063811E+03  0.25727063816E+03  0.50400001928E-02 0. -1.
       -1   -1    0    0    0  501  0.00000000000E+00  0.00000000000E+00 -0.47615327517E+03  0.47615327520E+03  0.50400001928E-02 0.  1.
    10030    2    1    2    0    0  0.00000000000E+00  0.00000000000E+00 -0.21888263707E+03  0.73342391336E+03  0.70000073420E+03 0.  0.
        2    1    3    3  502    0  0.27664532593E+02 -0.73191572299E+02  0.24798939992E+03  0.26004052588E+03  0.25500000920E-02 0. -1.
       -2    1    3    3    0  502 -0.27664532593E+02  0.73191572299E+02 -0.46687203699E+03  0.47338338748E+03  0.25500000920E-02 0.  1.
</event>
<event>
 5   0  0.1981750E-03  0.7004186E+03  0.7818609E-02  0.9716517E-01
       -3   -1    0    0    0  501  0.00000000000E+00  0.00000000000E+00  0.27361639434E+03  0.27361641298E+03  0.10100000352E+00 0.  1.
        3   -1    0    0  501    0  0.00000000000E+00  0.00000000000E+00 -0.44824261250E+03  0.44824262388E+03  0.10100000352E+00 0. -1.
    10030    2    1    2    0    0  0.00000000000E+00  0.00000000000E+00 -0.17462621817E+03  0.72185903686E+03  0.70041855560E+03 0.  0.
        1    1    3    3  502    0  0.14264424933E+03  0.29049321368E+03 -0.22524893808E+03  0.39429782296E+03  0.50400001928E-02 0. -1.
       -1    1    3    3    0  502 -0.14264424933E+03 -0.29049321368E+03  0.50622719911E+02  0.32756121391E+03  0.50400001928E-02 0.  1.
</event>
<event>
 5   0  0.2934483E-03  0.6998029E+03  0.7818609E-02  0.9717569E-01
        1   -1    0    0  501    0  0.00000000000E+00  0.00000000000E+00  0.41050788747E+03  0.41050788750E+03  0.50400001928E-02 0.  1.
       -1   -1    0    0    0  501  0.00000000000E+00  0.00000000000E+00 -0.29824277815E+03  0.29824277819E+03  0.50400001928E-02 0. -1.
    10030    2    1    2    0    0  0.00000000000E+00  0.00000000000E+00  0.11226510932E+03  0.70875066569E+03  0.69980286606E+03 0.  0.
        5    1    3    3  502    0  0.29410540310E+03  0.14622904356E+03  0.17820585925E+03  0.37371157272E+03  0.46999998093E+01 0.  1.
       -5    1    3    3    0  502 -0.29410540310E+03 -0.14622904356E+03 -0.65940749939E+02  0.33503909297E+03  0.46999998093E+01 0. -1.
</event>
<event>
 5   0  0.3013140E-03  0.7008069E+03  0.7818609E-02  0.9715853E-01
       -1   -1    0    0    0  501  0.00000000000E+00  0.00000000000E+00  0.10323399578E+04  0.10323399578E+04  0.50400001928E-02 0.  1.
        1   -1    0    0  501    0  0.00000000000E+00  0.00000000000E+00 -0.11893618450E+03  0.11893618460E+03  0.50400001928E-02 0. -1.
    10030    2    1    2    0    0  0.00000000000E+00  0.00000000000E+00  0.91340377328E+03  0.11512761424E+04  0.70080689423E+03 0.  0.
        2    1    3    3  502    0  0.18135144562E+03  0.27360174888E+03  0.65814471133E+03  0.73545953313E+03  0.25500000920E-02 0.  1.
       -2    1    3    3    0  502 -0.18135144562E+03 -0.27360174888E+03  0.25525906195E+03  0.41581660926E+03  0.25500000920E-02 0. -1.
</event>
<event>
 5   0  0.2934483E-03  0.7005566E+03  0.7818609E-02  0.9716281E-01
        1   -1    0    0  501    0  0.00000000000E+00  0.00000000000E+00  0.68410402809E+03  0.68410402811E+03  0.50400001928E-02 0.  1.
       -1   -1    0    0    0  501  0.00000000000E+00  0.00000000000E+00 -0.17935122512E+03  0.17935122519E+03  0.50400001928E-02 0. -1.
    10030    2    1    2    0    0  0.00000000000E+00  0.00000000000E+00  0.50475280297E+03  0.86345525330E+03  0.70055662323E+03 0.  0.
        5    1    3    3  502    0  0.28864458397E+02 -0.27516355864E+03  0.51708204679E+03  0.58646745355E+03  0.46999998093E+01 0.  1.
       -5    1    3    3    0  502 -0.28864458397E+02  0.27516355864E+03 -0.12329243820E+02  0.27698779975E+03  0.46999998093E+01 0. -1.
</event>
<event>
 5   0  0.5023894E-03  0.7001414E+03  0.7818609E-02  0.9716990E-01
       -2   -1    0    0    0  501  0.00000000000E+00  0.00000000000E+00  0.22900429315E+03  0.22900429316E+03  0.25500000920E-02 0.  1.
        2   -1    0    0  501    0  0.00000000000E+00  0.00000000000E+00 -0.53514062995E+03  0.53514062995E+03  0.25500000920E-02 0. -1.
    10030    2    1    2    0    0  0.00000000000E+00  0.00000000000E+00 -0.30613633680E+03  0.76414492311E+03  0.70014141915E+03 0.  0.
        2    1    3    3  502    0  0.12125287218E+03  0.16077423184E+03 -0.46559977593E+03  0.50728075460E+03  0.25500000920E-02 0. -1.
       -2    1    3    3    0  502 -0.12125287218E+03 -0.16077423184E+03  0.15946343913E+03  0.25686416851E+03  0.25500000920E-02 0.  1.
</event>
<event>
 5   0  0.5113683E-03  0.6995863E+03  0.7818609E-02  0.9717940E-01
       -2   -1    0    0    0  501  0.00000000000E+00  0.00000000000E+00  0.67758987624E+02  0.67758987672E+02  0.25500000920E-02 0.  1.
        2   -1    0    0  501    0  0.00000000000E+00  0.00000000000E+00 -0.18057420995E+04  0.18057420995E+04  0.25500000920E-02 0. -1.
    10030    2    1    2    0    0  0.00000000000E+00  0.00000000000E+00 -0.17379831119E+04  0.18735010872E+04  0.69958632525E+03 0.  0.
        3    1    3    3  502    0  0.27283961930E+03  0.11318644957E+03 -0.13707357785E+04  0.14022015600E+04  0.10100000352E+00 0. -1.
       -3    1    3    3    0  502 -0.27283961930E+03 -0.11318644957E+03 -0.36724733335E+03  0.47129952713E+03  0.10100000352E+00 0.  1.
</event>
<event>
 5   0  0.5023894E-03  0.6989071E+03  0.7818609E-02  0.9719103E-01
        2   -1    0    0  501    0  0.00000000000E+00  0.00000000000E+00  0.17962501886E+03  0.17962501888E+03  0.25500000920E-02 0. -1.
       -2   -1    0    0    0  501  0.00000000000E+00  0.00000000000E+00 -0.67984831636E+03  0.67984831637E+03  0.25500000920E-02 0.  1.
    10030    2    1    2    0    0  0.00000000000E+00  0.00000000000E+00 -0.50022329750E+03  0.85947333524E+03  0.69890705149E+03 0.  0.
        2    1    3    3  502    0  0.12515341333E+03 -0.19847633754E+03 -0.56856786040E+03  0.61508182002E+03  0.25500000920E-02 0.  1.
       -2    1    3    3    0  502 -0.12515341333E+03  0.19847633754E+03  0.68344562896E+02  0.24439151523E+03  0.25500000920E-02 0. -1.
</event>
<event>
 5   0  0.2937617E-03  0.6999585E+03  0.7818609E-02  0.9717303E-01
        1   -1    0    0  501    0  0.00000000000E+00  0.00000000000E+00  0.52545831421E+03  0.52545831424E+03  0.50400001928E-02 0.  1.
       -1   -1    0    0    0  501  0.00000000000E+00  0.00000000000E+00 -0.23310215701E+03  0.23310215707E+03  0.50400001928E-02 0. -1.
    10030    2    1    2    0    0  0.00000000000E+00  0.00000000000E+00  0.29235615720E+03  0.75856047130E+03  0.69995847446E+03 0.  0.
        3    1    3    3  502    0 -0.10156032383E+03 -0.22861133655E+03  0.41143068938E+03  0.48151102266E+03  0.10100000352E+00 0.  1.
       -3    1    3    3    0  502  0.10156032383E+03  0.22861133655E+03 -0.11907453218E+03  0.27704944864E+03  0.10100000352E+00 0. -1.
</event>
<event>
 5   0  0.2934483E-03  0.7000471E+03  0.7818609E-02  0.9717152E-01
       -1   -1    0    0    0  501  0.00000000000E+00  0.00000000000E+00  0.46513135882E+03  0.46513135885E+03  0.50400001928E-02 0. -1.
        1   -1    0    0  501    0  0.00000000000E+00  0.00000000000E+00 -0.26340191134E+03  0.26340191139E+03  0.50400001928E-02 0.  1.
    10030    2    1    2    0    0  0.00000000000E+00  0.00000000000E+00  0.20172944748E+03  0.72853327023E+03  0.70004710974E+03 0.  0.
        5    1    3    3  502    0  0.31898798256E+03 -0.14401735081E+03  0.10059211630E+03  0.36419115065E+03  0.46999998093E+01 0.  1.
       -5    1    3    3    0  502 -0.31898798256E+03  0.14401735081E+03  0.10113733118E+03  0.36434211959E+03  0.46999998093E+01 0. -1.
</event>
<event>
 5   0  0.5076796E-03  0.6992156E+03  0.7818609E-02  0.9718575E-01
       -2   -1    0    0    0  501  0.00000000000E+00  0.00000000000E+00  0.62027710370E+03  0.62027710371E+03  0.25500000920E-02 0. -1.
        2   -1    0    0  501    0  0.00000000000E+00  0.00000000000E+00 -0.19705000730E+03  0.19705000731E+03  0.25500000920E-02 0.  1.
    10030    2    1    2    0    0  0.00000000000E+00  0.00000000000E+00  0.42322709641E+03  0.81732711102E+03  0.69921558284E+03 0.  0.
        5    1    3    3  502    0  0.14532112782E+03  0.11394288588E+03  0.55857277814E+03  0.58832546257E+03  0.46999998093E+01 0. -1.
       -5    1    3    3    0  502 -0.14532112782E+03 -0.11394288588E+03 -0.13534568173E+03  0.22900164845E+03  0.46999998093E+01 0.  1.
</event>
<event>
 5   0  0.2934483E-03  0.7000889E+03  0.7818609E-02  0.9717080E-01
       -1   -1    0    0    0  501  0.00000000000E+00  0.00000000000E+00  0.32877602193E+03  0.32877602197E+03  0.50400001928E-02 0.  1.
        1   -1    0    0  501    0  0.00000000000E+00  0.00000000000E+00 -0.37268871304E+03  0.37268871307E+03  0.50400001928E-02 0. -1.
    10030    2    1    2    0    0  0.00000000000E+00  0.00000000000E+00 -0.43912691112E+02  0.70146473504E+03  0.70008888726E+03 0.  0.
        5    1    3    3  502    0  0.11109473197E+03  0.25608589932E+03 -0.23352764881E+03  0.36397703233E+03  0.46999998093E+01 0. -1.
       -5    1    3    3    0  502 -0.11109473197E+03 -0.25608589932E+03  0.18961495770E+03  0.33748770272E+03  0.46999998093E+01 0.  1.
</event>
<event>
 5   0  0.3013140E-03  0.7002398E+03  0.7818609E-02  0.9716822E-01
       -1   -1    0    0    0  501  0.00000000000E+00  0.00000000000E+00  0.36455732383E+03  0.36455732387E+03  0.50400001928E-02 0. -1.
        1   -1    0    0  501    0  0.00000000000E+00  0.00000000000E+00 -0.33625422285E+03  0.33625422289E+03  0.50400001928E-02 0.  1.
    10030    2    1    2    0    0  0.00000000000E+00  0.00000000000E+00  0.28303100978E+02  0.70081154676E+03  0.70023978646E+03 0.  0.
        2    1    3    3  502    0 -0.93299047231E+02 -0.25318898016E+03  0.23743586444E+03  0.35942337378E+03  0.25500000920E-02 0. -1.
       -2    1    3    3    0  502  0.93299047231E+02  0.25318898016E+03 -0.20913276346E+03  0.34138817298E+03  0.25500000920E-02 0.  1.
</event>
<event>
 5   0  0.5076796E-03  0.7007137E+03  0.7818609E-02  0.9716012E-01
        2   -1    0    0  501    0  0.00000000000E+00  0.00000000000E+00  0.14586321535E+04  0.14586321535E+04  0.25500000920E-02 0. -1.
       -2   -1    0    0    0  501  0.00000000000E+00  0.00000000000E+00 -0.84154133226E+02  0.84154133264E+02  0.25500000920E-02 0.  1.
    10030    2    1    2    0    0  0.00000000000E+00  0.00000000000E+00  0.13744780203E+04  0.15427862868E+04  0.70071370646E+03 0.  0.
        5    1    3    3  502    0  0.29961919933E+03 -0.17645310184E+03  0.78118046039E+03  0.85508617311E+03  0.46999998093E+01 0.  1.
       -5    1    3    3    0  502 -0.29961919933E+03  0.17645310184E+03  0.59329755991E+03  0.68770011368E+03  0.46999998093E+01 0. -1.
</event>
<event>
 5   0  0.2913582E-03  0.6997724E+03  0.7818609E-02  0.9717621E-01
        1   -1    0    0  501    0  0.00000000000E+00  0.00000000000E+00  0.51082131278E+03  0.51082131281E+03  0.50400001928E-02 0. -1.
       -1   -1    0    0    0  501  0.00000000000E+00  0.00000000000E+00 -0.23965397882E+03  0.23965397887E+03  0.50400001928E-02 0.  1.
    10030    2    1    2    0    0  0.00000000000E+00  0.00000000000E+00  0.27116733397E+03  0.75047529168E+03  0.69977242044E+03 0.  0.
        1    1    3    3  502    0  0.88811885912E+02 -0.28487327107E+03  0.33152358744E+03  0.44603612040E+03  0.50400001928E-02 0. -1.
       -1    1    3    3    0  502 -0.88811885912E+02  0.28487327107E+03 -0.60356253471E+02  0.30443917128E+03  0.50400001928E-02 0.  1.
</event>
<event>
 5   0  0.5113683E-03  0.6982687E+03  0.7818609E-02  0.9720198E-01
        2   -1    0    0  501    0  0.00000000000E+00  0.00000000000E+00  0.75905965415E+03  0.75905965415E+03  0.25500000920E-02 0. -1.
       -2   -1    0    0    0  501  0.00000000000E+00  0.00000000000E+00 -0.16058657466E+03  0.16058657468E+03  0.25500000920E-02 0.  1.
    10030    2    1    2    0    0  0.00000000000E+00  0.00000000000E+00  0.59847307949E+03  0.91964622883E+03  0.69826868706E+03 0.  0.
        3    1    3    3  502    0  0.68243426233E+02  0.33946859610E+03  0.24035616234E+03  0.42150585754E+03  0.10100000352E+00 0.  1.
       -3    1    3    3    0  502 -0.68243426233E+02 -0.33946859610E+03  0.35811691715E+03  0.49814037130E+03  0.10100000352E+00 0. -1.
</event>
<event>
 5   0  0.5072407E-03  0.7012368E+03  0.7818609E-02  0.9715119E-01
        2   -1    0    0  501    0  0.00000000000E+00  0.00000000000E+00  0.12565886281E+04  0.12565886281E+04  0.25500000920E-02 0. -1.
       -2   -1    0    0    0  501  0.00000000000E+00  0.00000000000E+00 -0.97830950112E+02  0.97830950145E+02  0.25500000920E-02 0.  1.
    10030    2    1    2    0    0  0.00000000000E+00  0.00000000000E+00  0.11587576780E+04  0.13544195782E+04  0.70123679141E+03 0.  0.
        1    1    3    3  502    0 -0.78241220700E+02  0.34143466068E+03  0.54983657385E+03  0.65193525300E+03  0.50400001928E-02 0.  1.
       -1    1    3    3    0  502  0.78241220700E+02 -0.34143466068E+03  0.60892110410E+03  0.70248432521E+03  0.50400001928E-02 0. -1.
</event>
<event>
 5   0  0.5113683E-03  0.6999767E+03  0.7818609E-02  0.9717272E-01
       -2   -1    0    0    0  501  0.00000000000E+00  0.00000000000E+00  0.12527049540E+03  0.12527049543E+03  0.25500000920E-02 0.  1.
        2   -1    0    0  501    0  0.00000000000E+00  0.00000000000E+00 -0.97781875263E+03  0.97781875263E+03  0.25500000920E-02 0. -1.
    10030    2    1    2    0    0  0.00000000000E+00  0.00000000000E+00 -0.85254825723E+03  0.11030892481E+04  0.69997668410E+03 0.  0.
        3    1    3    3  502    0  0.10454963807E+03  0.31546626700E+03 -0.25334001937E+03  0.41788846365E+03  0.10100000352E+00 0.  1.
       -3    1    3    3    0  502 -0.10454963807E+03 -0.31546626700E+03 -0.59920823786E+03  0.68520078441E+03  0.10100000352E+00 0. -1.
</event>
<event>
 5   0  0.1981750E-03  0.7066768E+03  0.7818609E-02  0.9705882E-01
       -4   -1    0    0    0  501  0.00000000000E+00  0.00000000000E+00  0.28893582565E+03  0.28893861674E+03  0.12699999809E+01 0.  1.
        4   -1    0    0  501    0  0.00000000000E+00  0.00000000000E+00 -0.43209020266E+03  0.43209206905E+03  0.12699999809E+01 0. -1.
    10030    2    1    2    0    0  0.00000000000E+00  0.00000000000E+00 -0.14315437701E+03  0.72103068579E+03  0.70667678199E+03 0.  0.
        3    1    3    3  502    0  0.27310351461E+03  0.84874355217E+02 -0.28329821931E+03  0.40255071374E+03  0.10100000352E+00 0.  1.
       -3    1    3    3    0  502 -0.27310351461E+03 -0.84874355217E+02  0.14014384230E+03  0.31847997206E+03  0.10100000352E+00 0. -1.
</event>
<event>
 5   0  0.4878235E-03  0.7205822E+03  0.7818609E-02  0.9682667E-01
        2   -1    0    0  501    0  0.00000000000E+00  0.00000000000E+00  0.46928738977E+03  0.46928738977E+03  0.25500000920E-02 0.  1.
       -2   -1    0    0    0  501  0.00000000000E+00  0.00000000000E+00 -0.27661020583E+03  0.27661020584E+03  0.25500000920E-02 0. -1.
    10030    2    1    2    0    0  0.00000000000E+00  0.00000000000E+00  0.19267718394E+03  0.74589759561E+03  0.72058221317E+03 0.  0.
        4    1    3    3  502    0  0.29902364901E+03 -0.97826576992E+02 -0.85393792419E+02  0.32600443941E+03  0.12699999809E+01 0. -1.
       -4    1    3    3    0  502 -0.29902364901E+03  0.97826576992E+02  0.27807097636E+03  0.41989315620E+03  0.12699999809E+01 0.  1.
</event>
<event>
 5   0  0.2934483E-03  0.7000420E+03  0.7818609E-02  0.9717160E-01
        1   -1    0    0  501    0  0.00000000000E+00  0.00000000000E+00  0.14218719066E+04  0.14218719066E+04  0.50400001928E-02 0. -1.
       -1   -1    0    0    0  501  0.00000000000E+00  0.00000000000E+00 -0.86164363586E+02  0.86164363733E+02  0.50400001928E-02 0.  1.
    10030    2    1    2    0    0  0.00000000000E+00  0.00000000000E+00  0.13357075430E+04  0.15080362703E+04  0.70004196460E+03 0.  0.
        5    1    3    3  502    0 -0.77203320929E+02  0.29898707459E+03  0.10227361447E+04  0.10683468235E+04  0.46999998093E+01 0. -1.
       -5    1    3    3    0  502  0.77203320929E+02 -0.29898707459E+03  0.31297139832E+03  0.43968944689E+03  0.46999998093E+01 0.  1.
</event>
<event>
 5   0  0.1981750E-03  0.7006270E+03  0.7818609E-02  0.9716160E-01
       -4   -1    0    0    0  501  0.00000000000E+00  0.00000000000E+00  0.18824624211E+03  0.18825052608E+03  0.12699999809E+01 0.  1.
        4   -1    0    0  501    0  0.00000000000E+00  0.00000000000E+00 -0.65189742705E+03  0.65189866413E+03  0.12699999809E+01 0. -1.
    10030    2    1    2    0    0  0.00000000000E+00  0.00000000000E+00 -0.46365118494E+03  0.84014919021E+03  0.70062703382E+03 0.  0.
        1    1    3    3  502    0 -0.32906492939E+03  0.88762118745E+02 -0.32892711572E+03  0.47366178752E+03  0.50400001928E-02 0. -1.
       -1    1    3    3    0  502  0.32906492939E+03 -0.88762118745E+02 -0.13472406923E+03  0.36648740269E+03  0.50400001928E-02 0.  1.
</event>
<event>
 5   0  0.1981750E-03  0.6998744E+03  0.7818609E-02  0.9717447E-01
       -3   -1    0    0    0  501  0.00000000000E+00  0.00000000000E+00  0.22730274073E+03  0.22730276317E+03  0.10100000352E+00 0. -1.
        3   -1    0    0  501    0  0.00000000000E+00  0.00000000000E+00 -0.53873536321E+03  0.53873537267E+03  0.10100000352E+00 0.  1.
    10030    2    1    2    0    0  0.00000000000E+00  0.00000000000E+00 -0.31143262248E+03  0.76603813584E+03  0.69987437960E+03 0.  0.
        4    1    3    3  502    0  0.34382126031E+03  0.65104510339E+02 -0.15753719356E+03  0.38375934720E+03  0.12699999809E+01 0. -1.
       -4    1    3    3    0  502 -0.34382126031E+03 -0.65104510339E+02 -0.15389542892E+03  0.38227878864E+03  0.12699999809E+01 0.  1.
</event>
<event>
 5   0  0.1981750E-03  0.7003013E+03  0.7818609E-02  0.9716717E-01
        3   -1    0    0  501    0  0.00000000000E+00  0.00000000000E+00  0.16351543710E+03  0.16351546829E+03  0.10100000352E+00 0. -1.
       -3   -1    0    0    0  501  0.00000000000E+00  0.00000000000E+00 -0.74980975608E+03  0.74980976288E+03  0.10100000352E+00 0.  1.
    10030    2    1    2    0    0  0.00000000000E+00  0.00000000000E+00 -0.58629431898E+03  0.91332523117E+03  0.70030132760E+03 0.  0.
        4    1    3    3  502    0  0.27666138518E+03  0.96396662805E+01 -0.57277155714E+03  0.63616296245E+03  0.12699999809E+01 0.  1.
       -4    1    3    3    0  502 -0.27666138518E+03 -0.96396662805E+01 -0.13522761832E+02  0.27716226873E+03  0.12699999809E+01 0. -1.
</event>
<event>
 5   0  0.2934483E-03  0.6999674E+03  0.7818609E-02  0.9717288E-01
       -1   -1    0    0    0  501  0.00000000000E+00  0.00000000000E+00  0.27471965829E+03  0.27471965833E+03  0.50400001928E-02 0. -1.
        1   -1    0    0  501    0  0.00000000000E+00  0.00000000000E+00 -0.44586758473E+03  0.44586758476E+03  0.50400001928E-02 0.  1.
    10030    2    1    2    0    0  0.00000000000E+00  0.00000000000E+00 -0.17114792645E+03  0.72058724310E+03  0.69996740080E+03 0.  0.
        5    1    3    3  502    0 -0.24780912414E+03  0.21099822730E+03 -0.21795800290E+03  0.39173638452E+03  0.46999998093E+01 0.  1.
       -5    1    3    3    0  502  0.24780912414E+03 -0.21099822730E+03  0.46810076449E+02  0.32885085858E+03  0.46999998093E+01 0. -1.
</event>
<event>
 5   0  0.3013140E-03  0.6997797E+03  0.7818609E-02  0.9717609E-01
       -1   -1    0    0    0  501  0.00000000000E+00  0.00000000000E+00  0.62384218559E+02  0.62384218763E+02  0.50400001928E-02 0. -1.
        1   -1    0    0  501    0  0.00000000000E+00  0.00000000000E+00 -0.19624018984E+04  0.19624018984E+04  0.50400001928E-02 0.  1.
    10030    2    1    2    0    0  0.00000000000E+00  0.00000000000E+00 -0.19000176799E+04  0.20247861172E+04  0.69977970575E+03 0.  0.
        2    1    3    3  502    0  0.14979189368E+03  0.19793591598E+03 -0.16635079315E+04  0.16819259426E+04  0.25500000920E-02 0.  1.
       -2    1    3    3    0  502 -0.14979189368E+03 -0.19793591598E+03 -0.23650974840E+03  0.34286017462E+03  0.25500000920E-02 0. -1.
</event>
<event>
 5   0  0.2937617E-03  0.7000865E+03  0.7818609E-02  0.9717084E-01
        1   -1    0    0  501    0  0.00000000000E+00  0.00000000000E+00  0.32041215904E+03  0.32041215908E+03  0.50400001928E-02 0.  1.
       -1   -1    0    0    0  501  0.00000000000E+00  0.00000000000E+00 -0.38241459846E+03  0.38241459849E+03  0.50400001928E-02 0. -1.
    10030    2    1    2    0    0  0.00000000000E+00  0.00000000000E+00 -0.62002439424E+02  0.70282675757E+03  0.70008652941E+03 0.  0.
        3    1    3    3  502    0 -0.83688776431E+02 -0.79702407354E+02  0.30070694484E+03  0.32215052680E+03  0.10100000352E+00 0.  1.
       -3    1    3    3    0  502  0.83688776431E+02  0.79702407354E+02 -0.36270938427E+03  0.38067623077E+03  0.10100000352E+00 0. -1.
</event>
<event>
 5   0  0.2934483E-03  0.6991151E+03  0.7818609E-02  0.9718747E-01
        1   -1    0    0  501    0  0.00000000000E+00  0.00000000000E+00  0.11906086359E+04  0.11906086359E+04  0.50400001928E-02 0. -1.
       -1   -1    0    0    0  501  0.00000000000E+00  0.00000000000E+00 -0.10262858245E+03  0.10262858257E+03  0.50400001928E-02 0.  1.
    10030    2    1    2    0    0  0.00000000000E+00  0.00000000000E+00  0.10879800534E+04  0.12932372185E+04  0.69911508821E+03 0.  0.
        5    1    3    3  502    0 -0.12170680553E+03  0.89783955643E+02 -0.38907903368E+02  0.15623578382E+03  0.46999998093E+01 0.  1.
       -5    1    3    3    0  502  0.12170680553E+03 -0.89783955643E+02  0.11268879568E+04  0.11370014346E+04  0.46999998093E+01 0. -1.
</event>
<event>
 5   0  0.5076796E-03  0.7020094E+03  0.7818609E-02  0.9713802E-01
        2   -1    0    0  501    0  0.00000000000E+00  0.00000000000E+00  0.11590601321E+04  0.11590601321E+04  0.25500000920E-02 0. -1.
       -2   -1    0    0    0  501  0.00000000000E+00  0.00000000000E+00 -0.10629673639E+03  0.10629673643E+03  0.25500000920E-02 0.  1.
    10030    2    1    2    0    0  0.00000000000E+00  0.00000000000E+00  0.10527633957E+04  0.12653568685E+04  0.70200942828E+03 0.  0.
        5    1    3    3  502    0 -0.20288002599E+03 -0.27486450177E+03  0.67138232408E+03  0.75331740612E+03  0.46999998093E+01 0.  1.
       -5    1    3    3    0  502  0.20288002599E+03  0.27486450177E+03  0.38138107164E+03  0.51203946242E+03  0.46999998093E+01 0. -1.
</event>
<event>
 5   0  0.2913582E-03  0.7018544E+03  0.7818609E-02  0.9714066E-01
       -1   -1    0    0    0  501  0.00000000000E+00  0.00000000000E+00  0.22846533757E+03  0.22846533763E+03  0.50400001928E-02 0. -1.
        1   -1    0    0  501    0  0.00000000000E+00  0.00000000000E+00 -0.53903093393E+03  0.53903093395E+03  0.50400001928E-02 0.  1.
    10030    2    1    2    0    0  0.00000000000E+00  0.00000000000E+00 -0.31056559636E+03  0.76749627158E+03  0.70185435615E+03 0.  0.
        1    1    3    3  502    0  0.24137668602E+03  0.25388269253E+03 -0.17797862641E+03  0.39293195034E+03  0.50400001928E-02 0. -1.
       -1    1    3    3    0  502 -0.24137668602E+03 -0.25388269253E+03 -0.13258696995E+03  0.37456432124E+03  0.50400001928E-02 0.  1.
</event>
<event>
 5   0  0.2934483E-03  0.6955036E+03  0.7818609E-02  0.9724953E-01
       -1   -1    0    0    0  501  0.00000000000E+00  0.00000000000E+00  0.13369253258E+03  0.13369253267E+03  0.50400001928E-02 0. -1.
        1   -1    0    0  501    0  0.00000000000E+00  0.00000000000E+00 -0.90454801960E+03  0.90454801961E+03  0.50400001928E-02 0.  1.
    10030    2    1    2    0    0  0.00000000000E+00  0.00000000000E+00 -0.77085548702E+03  0.10382405523E+04  0.69550360354E+03 0.  0.
        5    1    3    3  502    0  0.26774840041E+02 -0.29563687941E+03 -0.65574704328E+03  0.71982243040E+03  0.46999998093E+01 0.  1.
       -5    1    3    3    0  502 -0.26774840041E+02  0.29563687941E+03 -0.11510844374E+03  0.31841812189E+03  0.46999998093E+01 0. -1.
</event>
<event>
 5   0  0.2938783E-03  0.6991831E+03  0.7818609E-02  0.9718630E-01
       -1   -1    0    0    0  501  0.00000000000E+00  0.00000000000E+00  0.17447646063E+03  0.17447646070E+03  0.50400001928E-02 0. -1.
        1   -1    0    0  501    0  0.00000000000E+00  0.00000000000E+00 -0.70046267408E+03  0.70046267409E+03  0.50400001928E-02 0.  1.
    10030    2    1    2    0    0  0.00000000000E+00  0.00000000000E+00 -0.52598621344E+03  0.87493913480E+03  0.69918308966E+03 0.  0.
        4    1    3    3  502    0  0.33226197293E+03  0.61233112842E+02 -0.37537398242E+03  0.50502945690E+03  0.12699999809E+01 0.  1.
       -4    1    3    3    0  502 -0.33226197293E+03 -0.61233112842E+02 -0.15061223103E+03  0.36990967789E+03  0.12699999809E+01 0. -1.
</event>
<event>
 5   0  0.3013140E-03  0.6932805E+03  0.7818609E-02  0.9728793E-01
        1   -1    0    0  501    0  0.00000000000E+00  0.00000000000E+00  0.35127412402E+03  0.35127412406E+03  0.50400001928E-02 0.  1.
       -1   -1    0    0    0  501  0.00000000000E+00  0.00000000000E+00 -0.34206752409E+03  0.34206752413E+03  0.50400001928E-02 0. -1.
    10030    2    1    2    0    0  0.00000000000E+00  0.00000000000E+00  0.92065999323E+01  0.69334164818E+03  0.69328052015E+03 0.  0.
        2    1    3    3  502    0 -0.37472133951E+01  0.25475850111E+03 -0.23045685555E+03  0.34354955651E+03  0.25500000920E-02 0. -1.
       -2    1    3    3    0  502  0.37472133951E+01 -0.25475850111E+03  0.23966345549E+03  0.34979209168E+03  0.25500000920E-02 0.  1.
</event>
<event>
 5   0  0.5023894E-03  0.7000144E+03  0.7818609E-02  0.9717208E-01
        2   -1    0    0  501    0  0.00000000000E+00  0.00000000000E+00  0.34691168713E+03  0.34691168714E+03  0.25500000920E-02 0.  1.
       -2   -1    0    0    0  501  0.00000000000E+00  0.00000000000E+00 -0.35313036544E+03  0.35313036545E+03  0.25500000920E-02 0. -1.
    10030    2    1    2    0    0  0.00000000000E+00  0.00000000000E+00 -0.62186783021E+01  0.70004205259E+03  0.70001443087E+03 0.  0.
        2    1    3    3  502    0 -0.21620121211E+03  0.21795924417E+03  0.16499207233E+03  0.34852773229E+03  0.25500000920E-02 0.  1.
       -2    1    3    3    0  502  0.21620121211E+03 -0.21795924417E+03 -0.17121075063E+03  0.35151432030E+03  0.25500000920E-02 0. -1.
</event>
<event>
 5   0  0.5113683E-03  0.6992154E+03  0.7818609E-02  0.9718575E-01
       -2   -1    0    0    0  501  0.00000000000E+00  0.00000000000E+00  0.13459881764E+03  0.13459881767E+03  0.25500000920E-02 0.  1.
        2   -1    0    0  501    0  0.00000000000E+00  0.00000000000E+00 -0.90807288591E+03  0.90807288591E+03  0.25500000920E-02 0. -1.
    10030    2    1    2    0    0  0.00000000000E+00  0.00000000000E+00 -0.77347406826E+03  0.10426717036E+04  0.69921537967E+03 0.  0.
        3    1    3    3  502    0  0.18680484309E+03  0.21125381269E+03 -0.78590573930E+02  0.29274683822E+03  0.10100000352E+00 0.  1.
       -3    1    3    3    0  502 -0.18680484309E+03 -0.21125381269E+03 -0.69488349433E+03  0.74992486535E+03  0.10100000352E+00 0. -1.
</event>
<event>
 5   0  0.4878235E-03  0.6999370E+03  0.7818609E-02  0.9717340E-01
       -2   -1    0    0    0  501  0.00000000000E+00  0.00000000000E+00  0.17470657467E+03  0.17470657469E+03  0.25500000920E-02 0.  1.
        2   -1    0    0  501    0  0.00000000000E+00  0.00000000000E+00 -0.70104939442E+03  0.70104939443E+03  0.25500000920E-02 0. -1.
    10030    2    1    2    0    0  0.00000000000E+00  0.00000000000E+00 -0.52634281976E+03  0.87575596911E+03  0.69993696397E+03 0.  0.
        4    1    3    3  502    0  0.28318808347E+03 -0.69589490938E+02 -0.50526388738E+03  0.58337929056E+03  0.12699999809E+01 0. -1.
       -4    1    3    3    0  502 -0.28318808347E+03  0.69589490938E+02 -0.21078932380E+02  0.29237667855E+03  0.12699999809E+01 0.  1.
</event>
<event>
 5   0  0.2937617E-03  0.6999637E+03  0.7818609E-02  0.9717294E-01
       -1   -1    0    0    0  501  0.00000000000E+00  0.00000000000E+00  0.49654008533E+03  0.49654008536E+03  0.50400001928E-02 0. -1.
        1   -1    0    0  501    0  0.00000000000E+00  0.00000000000E+00 -0.24668161383E+03  0.24668161389E+03  0.50400001928E-02 0.  1.
    10030    2    1    2    0    0  0.00000000000E+00  0.00000000000E+00  0.24985847150E+03  0.74322169924E+03  0.69996374081E+03 0.  0.
        3    1    3    3  502    0  0.16530094140E+03 -0.25744123336E+03  0.30539439879E+03  0.43228016248E+03  0.10100000352E+00 0. -1.
       -3    1    3    3    0  502 -0.16530094140E+03  0.25744123336E+03 -0.55535927293E+02  0.31094153676E+03  0.10100000352E+00 0.  1.
</event>
<event>
 5   0  0.5072407E-03  0.6993117E+03  0.7818609E-02  0.9718410E-01
       -2   -1    0    0    0  501  0.00000000000E+00  0.00000000000E+00  0.93095526097E+02  0.93095526132E+02  0.25500000920E-02 0.  1.
        2   -1    0    0  501    0  0.00000000000E+00  0.00000000000E+00 -0.13132663681E+04  0.13132663681E+04  0.25500000920E-02 0. -1.
    10030    2    1    2    0    0  0.00000000000E+00  0.00000000000E+00 -0.12201708420E+04  0.14063618942E+04  0.69931172869E+03 0.  0.
        1    1    3    3  502    0  0.14265643232E+03  0.28354401869E+03 -0.90504203939E+03  0.95908767133E+03  0.50400001928E-02 0. -1.
       -1    1    3    3    0  502 -0.14265643232E+03 -0.28354401869E+03 -0.31512880263E+03  0.44727422292E+03  0.50400001928E-02 0.  1.
</event>
<event>
 5   0  0.5076796E-03  0.7014724E+03  0.7818609E-02  0.9714717E-01
        2   -1    0    0  501    0  0.00000000000E+00  0.00000000000E+00  0.85273659437E+02  0.85273659475E+02  0.25500000920E-02 0.  1.
       -2   -1    0    0    0  501  0.00000000000E+00  0.00000000000E+00 -0.14426012431E+04  0.14426012431E+04  0.25500000920E-02 0. -1.
    10030    2    1    2    0    0  0.00000000000E+00  0.00000000000E+00 -0.13573275837E+04  0.15278749026E+04  0.70147241468E+03 0.  0.
        5    1    3    3  502    0  0.10327636266E+03  0.32192465369E+03 -0.88173330997E+03  0.94433956268E+03  0.46999998093E+01 0. -1.
       -5    1    3    3    0  502 -0.10327636266E+03 -0.32192465369E+03 -0.47559427371E+03  0.58353533991E+03  0.46999998093E+01 0.  1.
</event>
<event>
 5   0  0.2938783E-03  0.6998204E+03  0.7818609E-02  0.9717539E-01
        1   -1    0    0  501    0  0.00000000000E+00  0.00000000000E+00  0.28168181792E+03  0.28168181797E+03  0.50400001928E-02 0. -1.
       -1   -1    0    0    0  501  0.00000000000E+00  0.00000000000E+00 -0.43466467634E+03  0.43466467637E+03  0.50400001928E-02 0.  1.
    10030    2    1    2    0    0  0.00000000000E+00  0.00000000000E+00 -0.15298285842E+03  0.71634649434E+03  0.69982036622E+03 0.  0.
        4    1    3    3  502    0 -0.60042395495E+02  0.21412178102E+03  0.20004052745E+03  0.29911712069E+03  0.12699999809E+01 0. -1.
       -4    1    3    3    0  502  0.60042395495E+02 -0.21412178102E+03 -0.35302338588E+03  0.41722937365E+03  0.12699999809E+01 0.  1.
</event>
<event>
 5   0  0.3013140E-03  0.6990294E+03  0.7818609E-02  0.9718894E-01
       -1   -1    0    0    0  501  0.00000000000E+00  0.00000000000E+00  0.87585175379E+02  0.87585175525E+02  0.50400001928E-02 0. -1.
        1   -1    0    0  501    0  0.00000000000E+00  0.00000000000E+00 -0.13947624431E+04  0.13947624431E+04  0.50400001928E-02 0.  1.
    10030    2    1    2    0    0  0.00000000000E+00  0.00000000000E+00 -0.13071772677E+04  0.14823476187E+04  0.69902936507E+03 0.  0.
        2    1    3    3  502    0  0.16708118620E+03 -0.41054397603E+02 -0.84340378685E+01  0.17225771201E+03  0.25500000920E-02 0. -1.
       -2    1    3    3    0  502 -0.16708118620E+03  0.41054397603E+02 -0.12987432299E+04  0.13100899067E+04  0.25500000920E-02 0.  1.
</event>
<event>
 5   0  0.3013140E-03  0.7007643E+03  0.7818609E-02  0.9715926E-01
        1   -1    0    0  501    0  0.00000000000E+00  0.00000000000E+00  0.21825633761E+03  0.21825633766E+03  0.50400001928E-02 0.  1.
       -1   -1    0    0    0  501  0.00000000000E+00  0.00000000000E+00 -0.56249295545E+03  0.56249295548E+03  0.50400001928E-02 0. -1.
    10030    2    1    2    0    0  0.00000000000E+00  0.00000000000E+00 -0.34423661785E+03  0.78074929314E+03  0.70076430394E+03 0.  0.
        2    1    3    3  502    0  0.26810854496E+03 -0.80792116038E+02  0.62534668615E+02  0.28691487009E+03  0.25500000920E-02 0.  1.
       -2    1    3    3    0  502 -0.26810854496E+03  0.80792116038E+02 -0.40677128646E+03  0.49383442305E+03  0.25500000920E-02 0. -1.
</event>
<event>
 5   0  0.2937617E-03  0.6996842E+03  0.7818609E-02  0.9717772E-01
       -1   -1    0    0    0  501  0.00000000000E+00  0.00000000000E+00  0.14915304626E+03  0.14915304635E+03  0.50400001928E-02 0.  1.
        1   -1    0    0  501    0  0.00000000000E+00  0.00000000000E+00 -0.82056313495E+03  0.82056313497E+03  0.50400001928E-02 0. -1.
    10030    2    1    2    0    0  0.00000000000E+00  0.00000000000E+00 -0.67141008869E+03  0.96971618132E+03  0.69968418955E+03 0.  0.
        3    1    3    3  502    0  0.20415848198E+03  0.28043610445E+03 -0.39867568352E+03  0.52845757187E+03  0.10100000352E+00 0. -1.
       -3    1    3    3    0  502 -0.20415848198E+03 -0.28043610445E+03 -0.27273440517E+03  0.44125860944E+03  0.10100000352E+00 0.  1.
</event>
<event>
 5   0  0.3013140E-03  0.6993142E+03  0.7818609E-02  0.9718406E-01
       -1   -1    0    0    0  501  0.00000000000E+00  0.00000000000E+00  0.18329596608E+03  0.18329596615E+03  0.50400001928E-02 0. -1.
        1   -1    0    0  501    0  0.00000000000E+00  0.00000000000E+00 -0.66700912782E+03  0.66700912783E+03  0.50400001928E-02 0.  1.
    10030    2    1    2    0    0  0.00000000000E+00  0.00000000000E+00 -0.48371316173E+03  0.85030509399E+03  0.69931418549E+03 0.  0.
        2    1    3    3  502    0 -0.25738957341E+03  0.18193225387E+03 -0.42590315397E+03  0.52985114331E+03  0.25500000920E-02 0.  1.
       -2    1    3    3    0  502  0.25738957341E+03 -0.18193225387E+03 -0.57810007763E+02  0.32045395068E+03  0.25500000920E-02 0. -1.
</event>
<event>
 5   0  0.5023894E-03  0.7014335E+03  0.7818609E-02  0.9714784E-01
       -2   -1    0    0    0  501  0.00000000000E+00  0.00000000000E+00  0.57095882291E+02  0.57095882348E+02  0.25500000920E-02 0.  1.
        2   -1    0    0  501    0  0.00000000000E+00  0.00000000000E+00 -0.21543102387E+04  0.21543102387E+04  0.25500000920E-02 0. -1.
    10030    2    1    2    0    0  0.00000000000E+00  0.00000000000E+00 -0.20972143564E+04  0.22114061211E+04  0.70143351466E+03 0.  0.
        2    1    3    3  502    0 -0.25107512520E+03  0.18574644593E+03 -0.15516748419E+04  0.15827935038E+04  0.25500000920E-02 0. -1.
       -2    1    3    3    0  502  0.25107512520E+03 -0.18574644593E+03 -0.54553951450E+03  0.62861261725E+03  0.25500000920E-02 0.  1.
</event>
<event>
 5   0  0.5023894E-03  0.6997173E+03  0.7818609E-02  0.9717716E-01
       -2   -1    0    0    0  501  0.00000000000E+00  0.00000000000E+00  0.28561989498E+03  0.28561989499E+03  0.25500000920E-02 0.  1.
        2   -1    0    0  501    0  0.00000000000E+00  0.00000000000E+00 -0.42854538586E+03  0.42854538587E+03  0.25500000920E-02 0. -1.
    10030    2    1    2    0    0  0.00000000000E+00  0.00000000000E+00 -0.14292549089E+03  0.71416528086E+03  0.69971733753E+03 0.  0.
        2    1    3    3  502    0 -0.81272735479E+02 -0.18444326169E+03 -0.36333337462E+03  0.41549454320E+03  0.25500000920E-02 0. -1.
       -2    1    3    3    0  502  0.81272735479E+02  0.18444326169E+03  0.22040788373E+03  0.29867073766E+03  0.25500000920E-02 0.  1.
</event>
<event>
 5   0  0.5113683E-03  0.6996430E+03  0.7818609E-02  0.9717843E-01
       -2   -1    0    0    0  501  0.00000000000E+00  0.00000000000E+00  0.66114896530E+03  0.66114896530E+03  0.25500000920E-02 0. -1.
        2   -1    0    0  501    0  0.00000000000E+00  0.00000000000E+00 -0.18509454335E+03  0.18509454337E+03  0.25500000920E-02 0.  1.
    10030    2    1    2    0    0  0.00000000000E+00  0.00000000000E+00  0.47605442195E+03  0.84624350867E+03  0.69964295416E+03 0.  0.
        3    1    3    3  502    0 -0.79502222436E+02 -0.19200626240E+03 -0.10234077339E+03  0.23164768997E+03  0.10100000352E+00 0.  1.
       -3    1    3    3    0  502  0.79502222436E+02  0.19200626240E+03  0.57839519534E+03  0.61459581870E+03  0.10100000352E+00 0. -1.
</event>
<event>
 5   0  0.1981750E-03  0.6946504E+03  0.7818609E-02  0.9726425E-01
       -3   -1    0    0    0  501  0.00000000000E+00  0.00000000000E+00  0.47170725192E+03  0.47170726273E+03  0.10100000352E+00 0. -1.
        3   -1    0    0  501    0  0.00000000000E+00  0.00000000000E+00 -0.25574078054E+03  0.25574080048E+03  0.10100000352E+00 0.  1.
    10030    2    1    2    0    0  0.00000000000E+00  0.00000000000E+00  0.21596647138E+03  0.72744806321E+03  0.69465039258E+03 0.  0.
        4    1    3    3  502    0 -0.60060269056E+02  0.28502613079E+02  0.46497983536E+03  0.46971001167E+03  0.12699999809E+01 0. -1.
       -4    1    3    3    0  502  0.60060269056E+02 -0.28502613079E+02 -0.24901336398E+03  0.25773805154E+03  0.12699999809E+01 0.  1.
</event>
<event>
 5   0  0.2938783E-03  0.6998117E+03  0.7818609E-02  0.9717554E-01
       -1   -1    0    0    0  501  0.00000000000E+00  0.00000000000E+00  0.39688482003E+03  0.39688482007E+03  0.50400001928E-02 0.  1.
        1   -1    0    0  501    0  0.00000000000E+00  0.00000000000E+00 -0.30848772312E+03  0.30848772317E+03  0.50400001928E-02 0. -1.
    10030    2    1    2    0    0  0.00000000000E+00  0.00000000000E+00  0.88397096910E+02  0.70537254323E+03  0.69981167324E+03 0.  0.
        4    1    3    3  502    0  0.38331419644E+02 -0.16100077784E+03  0.35493700153E+03  0.39162793076E+03  0.12699999809E+01 0.  1.
       -4    1    3    3    0  502 -0.38331419644E+02  0.16100077784E+03 -0.26653990462E+03  0.31374461247E+03  0.12699999809E+01 0. -1.
</event>
<event>
 5   0  0.3013140E-03  0.6999713E+03  0.7818609E-02  0.9717281E-01
       -1   -1    0    0    0  501  0.00000000000E+00  0.00000000000E+00  0.54331226339E+03  0.54331226341E+03  0.50400001928E-02 0. -1.
        1   -1    0    0  501    0  0.00000000000E+00  0.00000000000E+00 -0.22545037408E+03  0.22545037413E+03  0.50400001928E-02 0.  1.
    10030    2    1    2    0    0  0.00000000000E+00  0.00000000000E+00  0.31786188931E+03  0.76876263754E+03  0.69997129384E+03 0.  0.
        2    1    3    3  502    0 -0.24413338881E+03  0.59643228534E+02 -0.10858815896E+03  0.27376963768E+03  0.25500000920E-02 0.  1.
       -2    1    3    3    0  502  0.24413338881E+03 -0.59643228534E+02  0.42645004827E+03  0.49499299987E+03  0.25500000920E-02 0. -1.
</event>
<event>
 5   0  0.1981750E-03  0.7000224E+03  0.7818609E-02  0.9717194E-01
       -3   -1    0    0    0  501  0.00000000000E+00  0.00000000000E+00  0.19643843827E+04  0.19643843853E+04  0.10100000352E+00 0.  1.
        3   -1    0    0  501    0  0.00000000000E+00  0.00000000000E+00 -0.62364459330E+02  0.62364541115E+02  0.10100000352E+00 0. -1.
    10030    2    1    2    0    0  0.00000000000E+00  0.00000000000E+00  0.19020199234E+04  0.20267489264E+04  0.70002244380E+03 0.  0.
        3    1    3    3  502    0  0.12319247797E+03  0.31640612047E+03  0.70502121227E+03  0.78252421027E+03  0.10100000352E+00 0. -1.
       -3    1    3    3    0  502 -0.12319247797E+03 -0.31640612047E+03  0.11969987111E+04  0.12442247162E+04  0.10100000352E+00 0.  1.
</event>
<event>
 5   0  0.3013140E-03  0.7011571E+03  0.7818609E-02  0.9715255E-01
       -1   -1    0    0    0  501  0.00000000000E+00  0.00000000000E+00  0.13709494735E+03  0.13709494744E+03  0.50400001928E-02 0. -1.
        1   -1    0    0  501    0  0.00000000000E+00  0.00000000000E+00 -0.89649781231E+03  0.89649781233E+03  0.50400001928E-02 0.  1.
    10030    2    1    2    0    0  0.00000000000E+00  0.00000000000E+00 -0.75940286497E+03  0.10335927598E+04  0.70115710203E+03 0.  0.
        2    1    3    3  502    0 -0.17930092436E+03  0.55447889821E+02  0.56803765998E+02  0.19608660791E+03  0.25500000920E-02 0. -1.
       -2    1    3    3    0  502  0.17930092436E+03 -0.55447889821E+02 -0.81620663096E+03  0.83750615186E+03  0.25500000920E-02 0.  1.
</event>
<event>
 5   0  0.5113683E-03  0.7001903E+03  0.7818609E-02  0.9716907E-01
       -2   -1    0    0    0  501  0.00000000000E+00  0.00000000000E+00  0.30568682897E+03  0.30568682898E+03  0.25500000920E-02 0. -1.
        2   -1    0    0  501    0  0.00000000000E+00  0.00000000000E+00 -0.40095480517E+03  0.40095480518E+03  0.25500000920E-02 0.  1.
    10030    2    1    2    0    0  0.00000000000E+00  0.00000000000E+00 -0.95267976207E+02  0.70664163416E+03  0.70019026831E+03 0.  0.
        3    1    3    3  502    0  0.12774330931E+03  0.32534363018E+02  0.27968399994E+03  0.30919247707E+03  0.10100000352E+00 0. -1.
       -3    1    3    3    0  502 -0.12774330931E+03 -0.32534363018E+02 -0.37495197615E+03  0.39744915709E+03  0.10100000352E+00 0.  1.
</event>
<event>
 5   0  0.5023894E-03  0.6997115E+03  0.7818609E-02  0.9717726E-01
        2   -1    0    0  501    0  0.00000000000E+00  0.00000000000E+00  0.93408590370E+03  0.93408590370E+03  0.25500000920E-02 0.  1.
       -2   -1    0    0    0  501  0.00000000000E+00  0.00000000000E+00 -0.13103618398E+03  0.13103618400E+03  0.25500000920E-02 0. -1.
    10030    2    1    2    0    0  0.00000000000E+00  0.00000000000E+00  0.80304971972E+03  0.10651220877E+04  0.69971151868E+03 0.  0.
        2    1    3    3  502    0  0.15111660591E+03 -0.20783530222E+03  0.40119968771E+02  0.26007951348E+03  0.25500000920E-02 0. -1.
       -2    1    3    3    0  502 -0.15111660591E+03  0.20783530222E+03  0.76292975095E+03  0.80504257423E+03  0.25500000920E-02 0.  1.
</event>
<event>
 5   0  0.5023894E-03  0.7007082E+03  0.7818609E-02  0.9716022E-01
        2   -1    0    0  501    0  0.00000000000E+00  0.00000000000E+00  0.12386620987E+04  0.12386620987E+04  0.25500000920E-02 0.  1.
       -2   -1    0    0    0  501  0.00000000000E+00  0.00000000000E+00 -0.99097233113E+02  0.99097233145E+02  0.25500000920E-02 0. -1.
    10030    2    1    2    0    0  0.00000000000E+00  0.00000000000E+00  0.11395648656E+04  0.13377593319E+04  0.70070817540E+03 0.  0.
        2    1    3    3  502    0 -0.34479205855E+02  0.17627025621E+03 -0.45141369396E+01  0.17966746032E+03  0.25500000920E-02 0. -1.
       -2    1    3    3    0  502  0.34479205855E+02 -0.17627025621E+03  0.11440790026E+04  0.11580918716E+04  0.25500000920E-02 0.  1.
</event>
<event>
 5   0  0.2938783E-03  0.6998534E+03  0.7818609E-02  0.9717483E-01
       -1   -1    0    0    0  501  0.00000000000E+00  0.00000000000E+00  0.24203082617E+03  0.24203082622E+03  0.50400001928E-02 0.  1.
        1   -1    0    0  501    0  0.00000000000E+00  0.00000000000E+00 -0.50592185183E+03  0.50592185185E+03  0.50400001928E-02 0. -1.
    10030    2    1    2    0    0  0.00000000000E+00  0.00000000000E+00 -0.26389102566E+03  0.74795267808E+03  0.69985336694E+03 0.  0.
        4    1    3    3  502    0 -0.29668547204E+02 -0.63243631988E+02  0.23450045884E+03  0.24468767393E+03  0.12699999809E+01 0.  1.
       -4    1    3    3    0  502  0.29668547204E+02  0.63243631988E+02 -0.49839148449E+03  0.50326500414E+03  0.12699999809E+01 0. -1.
</event>
<event>
 5   0  0.2934483E-03  0.7009351E+03  0.7818609E-02  0.9715634E-01
        1   -1    0    0  501    0  0.00000000000E+00  0.00000000000E+00  0.16139679422E+04  0.16139679422E+04  0.50400001928E-02 0. -1.
       -1   -1    0    0    0  501  0.00000000000E+00  0.00000000000E+00 -0.76102824806E+02  0.76102824973E+02  0.50400001928E-02 0.  1.
    10030    2    1    2    0    0  0.00000000000E+00  0.00000000000E+00  0.15378651174E+04  0.16900707671E+04  0.70093514591E+03 0.  0.
        5    1    3    3  502    0 -0.31610895166E+03  0.94720833504E+02  0.10532919504E+04  0.11037857257E+04  0.46999998093E+01 0. -1.
       -5    1    3    3    0  502  0.31610895166E+03 -0.94720833504E+02  0.48457316699E+03  0.58628504141E+03  0.46999998093E+01 0.  1.
</event>
<event>
 5   0  0.5072407E-03  0.7005843E+03  0.7818609E-02  0.9716233E-01
       -2   -1    0    0    0  501  0.00000000000E+00  0.00000000000E+00  0.18876617548E+03  0.18876617549E+03  0.25500000920E-02 0. -1.
        2   -1    0    0  501    0  0.00000000000E+00  0.00000000000E+00 -0.65003483608E+03  0.65003483609E+03  0.25500000920E-02 0.  1.
    10030    2    1    2    0    0  0.00000000000E+00  0.00000000000E+00 -0.46126866061E+03  0.83880101158E+03  0.70058429884E+03 0.  0.
        1    1    3    3  502    0  0.33229417161E+02  0.16139145483E+03  0.13946742944E+03  0.21587626029E+03  0.50400001928E-02 0. -1.
       -1    1    3    3    0  502 -0.33229417161E+02 -0.16139145483E+03 -0.60073609005E+03  0.62292475129E+03  0.50400001928E-02 0.  1.
</event>
<event>
 5   0  0.5113683E-03  0.7000559E+03  0.7818609E-02  0.9717137E-01
        2   -1    0    0  501    0  0.00000000000E+00  0.00000000000E+00  0.49913612092E+03  0.49913612092E+03  0.25500000920E-02 0.  1.
       -2   -1    0    0    0  501  0.00000000000E+00  0.00000000000E+00 -0.24546326380E+03  0.24546326382E+03  0.25500000920E-02 0. -1.
    10030    2    1    2    0    0  0.00000000000E+00  0.00000000000E+00  0.25367285711E+03  0.74459938474E+03  0.70005594442E+03 0.  0.
        3    1    3    3  502    0  0.18466411893E+02  0.73939841287E+02 -0.23653157366E+03  0.24850614487E+03  0.10100000352E+00 0. -1.
       -3    1    3    3    0  502 -0.18466411893E+02 -0.73939841287E+02  0.49020443077E+03  0.49609323987E+03  0.10100000352E+00 0.  1.
</event>
<event>
 5   0  0.1981750E-03  0.7002556E+03  0.7818609E-02  0.9716795E-01
        4   -1    0    0  501    0  0.00000000000E+00  0.00000000000E+00  0.73152486938E+03  0.73152597180E+03  0.12699999809E+01 0. -1.
       -4   -1    0    0    0  501  0.00000000000E+00  0.00000000000E+00 -0.16757709111E+03  0.16758190345E+03  0.12699999809E+01 0.  1.
    10030    2    1    2    0    0  0.00000000000E+00  0.00000000000E+00  0.56394777827E+03  0.89910787525E+03  0.70025557814E+03 0.  0.
        3    1    3    3  502    0 -0.13448724284E+03  0.32124681450E+03  0.23562406143E+03  0.42048191737E+03  0.10100000352E+00 0.  1.
       -3    1    3    3    0  502  0.13448724284E+03 -0.32124681450E+03  0.32832371684E+03  0.47862595787E+03  0.10100000352E+00 0. -1.
</event>
<event>
 5   0  0.5113683E-03  0.6993497E+03  0.7818609E-02  0.9718345E-01
       -2   -1    0    0    0  501  0.00000000000E+00  0.00000000000E+00  0.25618172529E+03  0.25618172530E+03  0.25500000920E-02 0.  1.
        2   -1    0    0  501    0  0.00000000000E+00  0.00000000000E+00 -0.47728814605E+03  0.47728814605E+03  0.25500000920E-02 0. -1.
    10030    2    1    2    0    0  0.00000000000E+00  0.00000000000E+00 -0.22110642076E+03  0.73346987135E+03  0.69934969999E+03 0.  0.
        3    1    3    3  502    0 -0.69872710800E+02 -0.10210539671E+03  0.23245798336E+03  0.26333330967E+03  0.10100000352E+00 0.  1.
       -3    1    3    3    0  502  0.69872710800E+02  0.10210539671E+03 -0.45356440412E+03  0.47013656169E+03  0.10100000352E+00 0. -1.
</event>
<event>
 5   0  0.5023894E-03  0.7020385E+03  0.7818609E-02  0.9713752E-01
        2   -1    0    0  501    0  0.00000000000E+00  0.00000000000E+00  0.19481488722E+03  0.19481488723E+03  0.25500000920E-02 0. -1.
       -2   -1    0    0    0  501  0.00000000000E+00  0.00000000000E+00 -0.63246964133E+03  0.63246964134E+03  0.25500000920E-02 0.  1.
    10030    2    1    2    0    0  0.00000000000E+00  0.00000000000E+00 -0.43765475412E+03  0.82728452857E+03  0.70203846577E+03 0.  0.
        2    1    3    3  502    0 -0.12585751057E+03 -0.25669146083E+03 -0.45883978465E+03  0.54061498963E+03  0.25500000920E-02 0.  1.
       -2    1    3    3    0  502  0.12585751057E+03  0.25669146083E+03  0.21185030535E+02  0.28666953894E+03  0.25500000920E-02 0. -1.
</event>
<event>
 5   0  0.5076796E-03  0.7002429E+03  0.7818609E-02  0.9716817E-01
       -2   -1    0    0    0  501  0.00000000000E+00  0.00000000000E+00  0.10835153278E+03  0.10835153281E+03  0.25500000920E-02 0. -1.
        2   -1    0    0  501    0  0.00000000000E+00  0.00000000000E+00 -0.11313639655E+04  0.11313639655E+04  0.25500000920E-02 0.  1.
    10030    2    1    2    0    0  0.00000000000E+00  0.00000000000E+00 -0.10230124327E+04  0.12397154983E+04  0.70024287164E+03 0.  0.
        5    1    3    3  502    0  0.11875964857E+03  0.18102696331E+03 -0.99857214462E+03  0.10217842402E+04  0.46999998093E+01 0.  1.
       -5    1    3    3    0  502 -0.11875964857E+03 -0.18102696331E+03 -0.24440288107E+02  0.21793125810E+03  0.46999998093E+01 0. -1.
</event>
<event>
 5   0  0.2937617E-03  0.6960322E+03  0.7818609E-02  0.9724042E-01
        1   -1    0    0  501    0  0.00000000000E+00  0.00000000000E+00  0.96932011936E+03  0.96932011938E+03  0.50400001928E-02 0. -1.
       -1   -1    0    0    0  501  0.00000000000E+00  0.00000000000E+00 -0.12494859680E+03  0.12494859690E+03  0.50400001928E-02 0.  1.
    10030    2    1    2    0    0  0.00000000000E+00  0.00000000000E+00  0.84437152257E+03  0.10942687163E+04  0.69603215105E+03 0.  0.
        3    1    3    3  502    0  0.19707170835E+03 -0.83826743703E+02 -0.90857919178E+01  0.21435191393E+03  0.10100000352E+00 0.  1.
       -3    1    3    3    0  502 -0.19707170835E+03  0.83826743703E+02  0.85345731449E+03  0.87991680234E+03  0.10100000352E+00 0. -1.
</event>
<event>
 5   0  0.2934483E-03  0.7001610E+03  0.7818609E-02  0.9716957E-01
        1   -1    0    0  501    0  0.00000000000E+00  0.00000000000E+00  0.23421180685E+04  0.23421180685E+04  0.50400001928E-02 0.  1.
       -1   -1    0    0    0  501  0.00000000000E+00  0.00000000000E+00 -0.52327150868E+02  0.52327151111E+02  0.50400001928E-02 0. -1.
    10030    2    1    2    0    0  0.00000000000E+00  0.00000000000E+00  0.22897909176E+04  0.23944452196E+04  0.70016102667E+03 0.  0.
        5    1    3    3  502    0 -0.96600528764E+02  0.45159202701E+02  0.46782003493E+01  0.10684096266E+03  0.46999998093E+01 0. -1.
       -5    1    3    3    0  502  0.96600528764E+02 -0.45159202701E+02  0.22851127172E+04  0.22876042569E+04  0.46999998093E+01 0.  1.
</event>
<event>
 5   0  0.5072407E-03  0.6996304E+03  0.7818609E-02  0.9717864E-01
        2   -1    0    0  501    0  0.00000000000E+00  0.00000000000E+00  0.34176550965E+03  0.34176550966E+03  0.25500000920E-02 0. -1.
       -2   -1    0    0    0  501  0.00000000000E+00  0.00000000000E+00 -0.35805448583E+03  0.35805448584E+03  0.25500000920E-02 0.  1.
    10030    2    1    2    0    0  0.00000000000E+00  0.00000000000E+00 -0.16288976186E+02  0.69981999550E+03  0.69963039911E+03 0.  0.
        1    1    3    3  502    0  0.97932405380E+02 -0.21537895703E+03 -0.26588042126E+03  0.35590904680E+03  0.50400001928E-02 0.  1.
       -1    1    3    3    0  502 -0.97932405380E+02  0.21537895703E+03  0.24959144508E+03  0.34391094870E+03  0.50400001928E-02 0. -1.
</event>
<event>
 5   0  0.3013140E-03  0.7003414E+03  0.7818609E-02  0.9716649E-01
        1   -1    0    0  501    0  0.00000000000E+00  0.00000000000E+00  0.36275030445E+03  0.36275030449E+03  0.50400001928E-02 0.  1.
       -1   -1    0    0    0  501  0.00000000000E+00  0.00000000000E+00 -0.33802729248E+03  0.33802729252E+03  0.50400001928E-02 0. -1.
    10030    2    1    2    0    0  0.00000000000E+00  0.00000000000E+00  0.24723011971E+02  0.70077759701E+03  0.70034135473E+03 0.  0.
        2    1    3    3  502    0  0.28264978012E+03 -0.54351834666E+02 -0.18719813320E+03  0.34334845451E+03  0.25500000920E-02 0.  1.
       -2    1    3    3    0  502 -0.28264978012E+03  0.54351834666E+02  0.21192114517E+03  0.35742914250E+03  0.25500000920E-02 0. -1.
</event>
<event>
 5   0  0.5023894E-03  0.7027319E+03  0.7818609E-02  0.9712572E-01
        2   -1    0    0  501    0  0.00000000000E+00  0.00000000000E+00  0.42942383408E+03  0.42942383409E+03  0.25500000920E-02 0. -1.
       -2   -1    0    0    0  501  0.00000000000E+00  0.00000000000E+00 -0.28749690787E+03  0.28749690789E+03  0.25500000920E-02 0.  1.
    10030    2    1    2    0    0  0.00000000000E+00  0.00000000000E+00  0.14192692621E+03  0.71692074198E+03  0.70273188194E+03 0.  0.
        2    1    3    3  502    0 -0.52414210276E+02  0.28267495189E+03 -0.13511927707E+03  0.31766270934E+03  0.25500000920E-02 0. -1.
       -2    1    3    3    0  502  0.52414210276E+02 -0.28267495189E+03  0.27704620328E+03  0.39925803263E+03  0.25500000920E-02 0.  1.
</event>
<event>
 5   0  0.2913582E-03  0.7067003E+03  0.7818609E-02  0.9705842E-01
       -1   -1    0    0    0  501  0.00000000000E+00  0.00000000000E+00  0.11692520093E+03  0.11692520104E+03  0.50400001928E-02 0. -1.
        1   -1    0    0  501    0  0.00000000000E+00  0.00000000000E+00 -0.10678308051E+04  0.10678308051E+04  0.50400001928E-02 0.  1.
    10030    2    1    2    0    0  0.00000000000E+00  0.00000000000E+00 -0.95090560420E+03  0.11847560062E+04  0.70670030854E+03 0.  0.
        1    1    3    3  502    0 -0.59192927297E+02  0.15769931261E+03 -0.99619175207E+03  0.10103320656E+04  0.50400001928E-02 0.  1.
       -1    1    3    3    0  502  0.59192927297E+02 -0.15769931261E+03  0.45286147863E+02  0.17442394060E+03  0.50400001928E-02 0. -1.
</event>
<event>
 5   0  0.4878235E-03  0.6998346E+03  0.7818609E-02  0.9717515E-01
        2   -1    0    0  501    0  0.00000000000E+00  0.00000000000E+00  0.22004832073E+04  0.22004832073E+04  0.25500000920E-02 0.  1.
       -2   -1    0    0    0  501  0.00000000000E+00  0.00000000000E+00 -0.55643293502E+02  0.55643293561E+02  0.25500000920E-02 0. -1.
    10030    2    1    2    0    0  0.00000000000E+00  0.00000000000E+00  0.21448399138E+04  0.22561265009E+04  0.69983464624E+03 0.  0.
        4    1    3    3  502    0 -0.30472998001E+03  0.11157689977E+03  0.14943653581E+04  0.15291956061E+04  0.12699999809E+01 0.  1.
       -4    1    3    3    0  502  0.30472998001E+03 -0.11157689977E+03  0.65047455572E+03  0.72693089481E+03  0.12699999809E+01 0. -1.
</event>
<event>
 5   0  0.2938783E-03  0.7006721E+03  0.7818609E-02  0.9716083E-01
        1   -1    0    0  501    0  0.00000000000E+00  0.00000000000E+00  0.55512022029E+03  0.55512022031E+03  0.50400001928E-02 0.  1.
       -1   -1    0    0    0  501  0.00000000000E+00  0.00000000000E+00 -0.22109688355E+03  0.22109688361E+03  0.50400001928E-02 0. -1.
    10030    2    1    2    0    0  0.00000000000E+00  0.00000000000E+00  0.33402333673E+03  0.77621710392E+03  0.70067210800E+03 0.  0.
        4    1    3    3  502    0  0.13508866556E+03 -0.74925633324E+02 -0.18132781992E+03  0.23821038867E+03  0.12699999809E+01 0. -1.
       -4    1    3    3    0  502 -0.13508866556E+03  0.74925633324E+02  0.51535115665E+03  0.53800671525E+03  0.12699999809E+01 0.  1.
</event>
<event>
 5   0  0.1981750E-03  0.6995553E+03  0.7818609E-02  0.9717993E-01
       -4   -1    0    0    0  501  0.00000000000E+00  0.00000000000E+00  0.16116015373E+03  0.16116515768E+03  0.12699999809E+01 0. -1.
        4   -1    0    0  501    0  0.00000000000E+00  0.00000000000E+00 -0.75913076344E+03  0.75913182578E+03  0.12699999809E+01 0.  1.
    10030    2    1    2    0    0  0.00000000000E+00  0.00000000000E+00 -0.59797060972E+03  0.92029698345E+03  0.69955534997E+03 0.  0.
        2    1    3    3  502    0  0.20216174225E+03  0.23468042468E+03 -0.51273677711E+03  0.59903528641E+03  0.25500000920E-02 0.  1.
       -2    1    3    3    0  502 -0.20216174225E+03 -0.23468042468E+03 -0.85233832602E+02  0.32126169704E+03  0.25500000920E-02 0. -1.
</event>
<event>
 5   0  0.3013140E-03  0.6988720E+03  0.7818609E-02  0.9719163E-01
        1   -1    0    0  501    0  0.00000000000E+00  0.00000000000E+00  0.42451073756E+03  0.42451073759E+03  0.50400001928E-02 0. -1.
       -1   -1    0    0    0  501  0.00000000000E+00  0.00000000000E+00 -0.28763825267E+03  0.28763825271E+03  0.50400001928E-02 0.  1.
    10030    2    1    2    0    0  0.00000000000E+00  0.00000000000E+00  0.13687248489E+03  0.71214899030E+03  0.69887202496E+03 0.  0.
        2    1    3    3  502    0  0.11248857280E+03 -0.31445671788E+03 -0.36321580623E+02  0.33594041682E+03  0.25500000920E-02 0.  1.
       -2    1    3    3    0  502 -0.11248857280E+03  0.31445671788E+03  0.17319406551E+03  0.37620857348E+03  0.25500000920E-02 0. -1.
</event>
<event>
 5   0  0.2937617E-03  0.7002226E+03  0.7818609E-02  0.9716852E-01
        1   -1    0    0  501    0  0.00000000000E+00  0.00000000000E+00  0.22887165561E+03  0.22887165567E+03  0.50400001928E-02 0.  1.
       -1   -1    0    0    0  501  0.00000000000E+00  0.00000000000E+00 -0.53557490808E+03  0.53557490811E+03  0.50400001928E-02 0. -1.
    10030    2    1    2    0    0  0.00000000000E+00  0.00000000000E+00 -0.30670325247E+03  0.76444656377E+03  0.70022258160E+03 0.  0.
        3    1    3    3  502    0  0.10068197718E+03  0.33353930176E+03 -0.19105278269E+03  0.39734934544E+03  0.10100000352E+00 0. -1.
       -3    1    3    3    0  502 -0.10068197718E+03 -0.33353930176E+03 -0.11565046978E+03  0.36709721833E+03  0.10100000352E+00 0.  1.
</event>
<event>
 5   0  0.5072407E-03  0.7000867E+03  0.7818609E-02  0.9717084E-01
       -2   -1    0    0    0  501  0.00000000000E+00  0.00000000000E+00  0.69909137742E+02  0.69909137788E+02  0.25500000920E-02 0. -1.
        2   -1    0    0  501    0  0.00000000000E+00  0.00000000000E+00 -0.17527084077E+04  0.17527084077E+04  0.25500000920E-02 0.  1.
    10030    2    1    2    0    0  0.00000000000E+00  0.00000000000E+00 -0.16827992699E+04  0.18226175455E+04  0.70008666188E+03 0.  0.
        1    1    3    3  502    0  0.32919072951E+03  0.92229097128E+02 -0.64557852501E+03  0.73050966779E+03  0.50400001928E-02 0. -1.
       -1    1    3    3    0  502 -0.32919072951E+03 -0.92229097128E+02 -0.10372207449E+04  0.10921078777E+04  0.50400001928E-02 0.  1.
</event>
<event>
 5   0  0.2937617E-03  0.6990181E+03  0.7818609E-02  0.9718913E-01
       -1   -1    0    0    0  501  0.00000000000E+00  0.00000000000E+00  0.84375633267E+02  0.84375633417E+02  0.50400001928E-02 0.  1.
        1   -1    0    0  501    0  0.00000000000E+00  0.00000000000E+00 -0.14477705685E+04  0.14477705685E+04  0.50400001928E-02 0. -1.
    10030    2    1    2    0    0  0.00000000000E+00  0.00000000000E+00 -0.13633949352E+04  0.15321462019E+04  0.69901805031E+03 0.  0.
        3    1    3    3  502    0 -0.11472137151E+03  0.32363464487E+02  0.38446693308E+02  0.12524593942E+03  0.10100000352E+00 0.  1.
       -3    1    3    3    0  502  0.11472137151E+03 -0.32363464487E+02 -0.14018416286E+04  0.14069002625E+04  0.10100000352E+00 0. -1.
</event>
<event>
 5   0  0.5072407E-03  0.6997584E+03  0.7818609E-02  0.9717645E-01
       -2   -1    0    0    0  501  0.00000000000E+00  0.00000000000E+00  0.41043328615E+03  0.41043328616E+03  0.25500000920E-02 0. -1.
        2   -1    0    0  501    0  0.00000000000E+00  0.00000000000E+00 -0.29825908322E+03  0.29825908323E+03  0.25500000920E-02 0.  1.
    10030    2    1    2    0    0  0.00000000000E+00  0.00000000000E+00  0.11217420293E+03  0.70869236939E+03  0.69975840304E+03 0.  0.
        1    1    3    3  502    0 -0.29775762277E+03  0.15288903656E+03 -0.47099893959E+02  0.33801340130E+03  0.50400001928E-02 0.  1.
       -1    1    3    3    0  502  0.29775762277E+03 -0.15288903656E+03  0.15927409689E+03  0.37067896809E+03  0.50400001928E-02 0. -1.
</event>
<event>
 5   0  0.2937617E-03  0.6981095E+03  0.7818609E-02  0.9720471E-01
       -1   -1    0    0    0  501  0.00000000000E+00  0.00000000000E+00  0.57335890049E+03  0.57335890051E+03  0.50400001928E-02 0. -1.
        1   -1    0    0  501    0  0.00000000000E+00  0.00000000000E+00 -0.21250080888E+03  0.21250080894E+03  0.50400001928E-02 0.  1.
    10030    2    1    2    0    0  0.00000000000E+00  0.00000000000E+00  0.36085809161E+03  0.78585970945E+03  0.69810953343E+03 0.  0.
        3    1    3    3  502    0 -0.14100022594E+03 -0.20776764452E+03  0.45337458419E+03  0.51826342879E+03  0.10100000352E+00 0. -1.
       -3    1    3    3    0  502  0.14100022594E+03  0.20776764452E+03 -0.92516492585E+02  0.26759628067E+03  0.10100000352E+00 0.  1.
</event>
<event>
 5   0  0.2934483E-03  0.7001403E+03  0.7818609E-02  0.9716992E-01
        1   -1    0    0  501    0  0.00000000000E+00  0.00000000000E+00  0.15654406082E+04  0.15654406082E+04  0.50400001928E-02 0.  1.
       -1   -1    0    0    0  501  0.00000000000E+00  0.00000000000E+00 -0.78284098185E+02  0.78284098347E+02  0.50400001928E-02 0. -1.
    10030    2    1    2    0    0  0.00000000000E+00  0.00000000000E+00  0.14871565100E+04  0.16437247065E+04  0.70014028998E+03 0.  0.
        5    1    3    3  502    0  0.27677520629E+03  0.53096772619E+02  0.25616319621E+03  0.38087459245E+03  0.46999998093E+01 0. -1.
       -5    1    3    3    0  502 -0.27677520629E+03 -0.53096772619E+02  0.12309933138E+04  0.12628501141E+04  0.46999998093E+01 0.  1.
</event>
<event>
 5   0  0.4878235E-03  0.6988510E+03  0.7818609E-02  0.9719199E-01
        2   -1    0    0  501    0  0.00000000000E+00  0.00000000000E+00  0.13336356528E+04  0.13336356528E+04  0.25500000920E-02 0. -1.
       -2   -1    0    0    0  501  0.00000000000E+00  0.00000000000E+00 -0.91552870135E+02  0.91552870170E+02  0.25500000920E-02 0.  1.
    10030    2    1    2    0    0  0.00000000000E+00  0.00000000000E+00  0.12420827827E+04  0.14251885230E+04  0.69885097626E+03 0.  0.
        4    1    3    3  502    0 -0.78349202823E+02  0.17069825183E+02 -0.72530831954E+02  0.10813099000E+03  0.12699999809E+01 0.  1.
       -4    1    3    3    0  502  0.78349202823E+02 -0.17069825183E+02  0.13146136146E+04  0.13170575330E+04  0.12699999809E+01 0. -1.
</event>
<event>
 5   0  0.5023894E-03  0.7000236E+03  0.7818609E-02  0.9717192E-01
        2   -1    0    0  501    0  0.00000000000E+00  0.00000000000E+00  0.20115255406E+03  0.20115255408E+03  0.25500000920E-02 0. -1.
       -2   -1    0    0    0  501  0.00000000000E+00  0.00000000000E+00 -0.60903163462E+03  0.60903163463E+03  0.25500000920E-02 0.  1.
    10030    2    1    2    0    0  0.00000000000E+00  0.00000000000E+00 -0.40787908056E+03  0.81018418871E+03  0.70002362480E+03 0.  0.
        2    1    3    3  502    0 -0.51746078616E+01  0.22208153200E+03  0.10910903374E+03  0.24749093857E+03  0.25500000920E-02 0. -1.
       -2    1    3    3    0  502  0.51746078616E+01 -0.22208153200E+03 -0.51698811430E+03  0.56269325014E+03  0.25500000920E-02 0.  1.
</event>
<event>
 5   0  0.2938783E-03  0.7062905E+03  0.7818609E-02  0.9706535E-01
       -1   -1    0    0    0  501  0.00000000000E+00  0.00000000000E+00  0.11062308395E+03  0.11062308406E+03  0.50400001928E-02 0. -1.
        1   -1    0    0  501    0  0.00000000000E+00  0.00000000000E+00 -0.11273558476E+04  0.11273558476E+04  0.50400001928E-02 0.  1.
    10030    2    1    2    0    0  0.00000000000E+00  0.00000000000E+00 -0.10167327637E+04  0.12379789317E+04  0.70629053694E+03 0.  0.
        4    1    3    3  502    0 -0.96231295455E+02 -0.33817538094E+03 -0.56615311005E+03  0.66644880330E+03  0.12699999809E+01 0.  1.
       -4    1    3    3    0  502  0.96231295455E+02  0.33817538094E+03 -0.45057965360E+03  0.57153012837E+03  0.12699999809E+01 0. -1.
</event>
<event>
 5   0  0.1981750E-03  0.7008577E+03  0.7818609E-02  0.9715767E-01
       -3   -1    0    0    0  501  0.00000000000E+00  0.00000000000E+00  0.67116219766E+03  0.67116220526E+03  0.10100000352E+00 0. -1.
        3   -1    0    0  501    0  0.00000000000E+00  0.00000000000E+00 -0.18296674579E+03  0.18296677367E+03  0.10100000352E+00 0.  1.
    10030    2    1    2    0    0  0.00000000000E+00  0.00000000000E+00  0.48819545187E+03  0.85412897893E+03  0.70085769841E+03 0.  0.
        4    1    3    3  502    0 -0.22167969508E+03  0.22010239085E+03  0.50591175339E+02  0.31646173480E+03  0.12699999809E+01 0.  1.
       -4    1    3    3    0  502  0.22167969508E+03 -0.22010239085E+03  0.43760427653E+03  0.53766724413E+03  0.12699999809E+01 0. -1.
</event>
<event>
 5   0  0.5076796E-03  0.7021932E+03  0.7818609E-02  0.9713489E-01
       -2   -1    0    0    0  501  0.00000000000E+00  0.00000000000E+00  0.28447595480E+03  0.28447595481E+03  0.25500000920E-02 0.  1.
        2   -1    0    0  501    0  0.00000000000E+00  0.00000000000E+00 -0.43331894534E+03  0.43331894535E+03  0.25500000920E-02 0. -1.
    10030    2    1    2    0    0  0.00000000000E+00  0.00000000000E+00 -0.14884299054E+03  0.71779490016E+03  0.70219319483E+03 0.  0.
        5    1    3    3  502    0 -0.31463502157E+03 -0.12075168061E+03 -0.17494547840E+03  0.37974224887E+03  0.46999998093E+01 0. -1.
       -5    1    3    3    0  502  0.31463502157E+03  0.12075168061E+03  0.26102487862E+02  0.33805265128E+03  0.46999998093E+01 0.  1.
</event>
<event>
 5   0  0.2938783E-03  0.7003145E+03  0.7818609E-02  0.9716694E-01
        1   -1    0    0  501    0  0.00000000000E+00  0.00000000000E+00  0.14044880189E+04  0.14044880189E+04  0.50400001928E-02 0.  1.
       -1   -1    0    0    0  501  0.00000000000E+00  0.00000000000E+00 -0.87298794855E+02  0.87298795000E+02  0.50400001928E-02 0. -1.
    10030    2    1    2    0    0  0.00000000000E+00  0.00000000000E+00  0.13171892241E+04  0.14917868139E+04  0.70031453377E+03 0.  0.
        4    1    3    3  502    0  0.23221740524E+03 -0.13420564928E+03  0.17908265247E+03  0.32250316109E+03  0.12699999809E+01 0. -1.
       -4    1    3    3    0  502 -0.23221740524E+03  0.13420564928E+03  0.11381065716E+04  0.11692836528E+04  0.12699999809E+01 0.  1.
</event>
<event>
 5   0  0.4878235E-03  0.7007041E+03  0.7818609E-02  0.9716029E-01
       -2   -1    0    0    0  501  0.00000000000E+00  0.00000000000E+00  0.76859165715E+02  0.76859165757E+02  0.25500000920E-02 0. -1.
        2   -1    0    0  501    0  0.00000000000E+00  0.00000000000E+00 -0.15970320342E+04  0.15970320342E+04  0.25500000920E-02 0.  1.
    10030    2    1    2    0    0  0.00000000000E+00  0.00000000000E+00 -0.15201728685E+04  0.16738911999E+04  0.70070407393E+03 0.  0.
        4    1    3    3  502    0  0.19584320940E+02 -0.18085007502E+03 -0.14753711962E+04  0.14865436673E+04  0.12699999809E+01 0.  1.
       -4    1    3    3    0  502 -0.19584320940E+02  0.18085007502E+03 -0.44801672284E+02  0.18734753268E+03  0.12699999809E+01 0. -1.
</event>
<event>
 5   0  0.3013140E-03  0.6999526E+03  0.7818609E-02  0.9717313E-01
       -1   -1    0    0    0  501  0.00000000000E+00  0.00000000000E+00  0.13173539330E+03  0.13173539340E+03  0.50400001928E-02 0. -1.
        1   -1    0    0  501    0  0.00000000000E+00  0.00000000000E+00 -0.92976849266E+03  0.92976849267E+03  0.50400001928E-02 0.  1.
    10030    2    1    2    0    0  0.00000000000E+00  0.00000000000E+00 -0.79803309936E+03  0.10615038861E+04  0.69995262159E+03 0.  0.
        2    1    3    3  502    0  0.15818221213E+03 -0.28538375684E+03 -0.59095234041E+03  0.67504827201E+03  0.25500000920E-02 0. -1.
       -2    1    3    3    0  502 -0.15818221213E+03  0.28538375684E+03 -0.20708075895E+03  0.38645561406E+03  0.25500000920E-02 0.  1.
</event>
<event>
 5   0  0.3013140E-03  0.6998757E+03  0.7818609E-02  0.9717445E-01
        1   -1    0    0  501    0  0.00000000000E+00  0.00000000000E+00  0.10881100603E+04  0.10881100603E+04  0.50400001928E-02 0.  1.
       -1   -1    0    0    0  501  0.00000000000E+00  0.00000000000E+00 -0.11254055732E+03  0.11254055743E+03  0.50400001928E-02 0. -1.
    10030    2    1    2    0    0  0.00000000000E+00  0.00000000000E+00  0.97556950301E+03  0.12006506178E+04  0.69987573950E+03 0.  0.
        2    1    3    3  502    0  0.24271599815E+03 -0.24163641195E+03  0.36458581377E+03  0.50022197768E+03  0.25500000920E-02 0. -1.
       -2    1    3    3    0  502 -0.24271599815E+03  0.24163641195E+03  0.61098368924E+03  0.70042864009E+03  0.25500000920E-02 0.  1.
</event>
<event>
 5   0  0.5023894E-03  0.7000037E+03  0.7818609E-02  0.9717226E-01
        2   -1    0    0  501    0  0.00000000000E+00  0.00000000000E+00  0.56302155622E+03  0.56302155622E+03  0.25500000920E-02 0. -1.
       -2   -1    0    0    0  501  0.00000000000E+00  0.00000000000E+00 -0.21757834042E+03  0.21757834044E+03  0.25500000920E-02 0.  1.
    10030    2    1    2    0    0  0.00000000000E+00  0.00000000000E+00  0.34544321579E+03  0.78059989666E+03  0.70000370237E+03 0.  0.
        2    1    3    3  502    0  0.15224532345E+02 -0.23687215291E+03 -0.11411163749E+03  0.26336603621E+03  0.25500000920E-02 0.  1.
       -2    1    3    3    0  502 -0.15224532345E+02  0.23687215291E+03  0.45955485329E+03  0.51723386045E+03  0.25500000920E-02 0. -1.
</event>
<event>
 5   0  0.2934483E-03  0.6973229E+03  0.7818609E-02  0.9721821E-01
        1   -1    0    0  501    0  0.00000000000E+00  0.00000000000E+00  0.25481086160E+03  0.25481086165E+03  0.50400001928E-02 0.  1.
       -1   -1    0    0    0  501  0.00000000000E+00  0.00000000000E+00 -0.47707857621E+03  0.47707857624E+03  0.50400001928E-02 0. -1.
    10030    2    1    2    0    0  0.00000000000E+00  0.00000000000E+00 -0.22226771461E+03  0.73188943789E+03  0.69732288958E+03 0.  0.
        5    1    3    3  502    0  0.10836294293E+03  0.20536572826E+03  0.16180510090E+03  0.28305580796E+03  0.46999998093E+01 0.  1.
       -5    1    3    3    0  502 -0.10836294293E+03 -0.20536572826E+03 -0.38407281551E+03  0.44883362993E+03  0.46999998093E+01 0. -1.
</event>
<event>
 5   0  0.2938783E-03  0.7004323E+03  0.7818609E-02  0.9716493E-01
        1   -1    0    0  501    0  0.00000000000E+00  0.00000000000E+00  0.14830383583E+04  0.14830383583E+04  0.50400001928E-02 0.  1.
       -1   -1    0    0    0  501  0.00000000000E+00  0.00000000000E+00 -0.82702757792E+02  0.82702757946E+02  0.50400001928E-02 0. -1.
    10030    2    1    2    0    0  0.00000000000E+00  0.00000000000E+00  0.14003356005E+04  0.15657411163E+04  0.70043233013E+03 0.  0.
        4    1    3    3  502    0  0.31702254945E+03  0.68971467971E+02  0.40538921151E+03  0.51923249702E+03  0.12699999809E+01 0. -1.
       -4    1    3    3    0  502 -0.31702254945E+03 -0.68971467971E+02  0.99494638903E+03  0.10465086193E+04  0.12699999809E+01 0.  1.
</event>
<event>
 5   0  0.2934483E-03  0.6925021E+03  0.7818609E-02  0.9730141E-01
        1   -1    0    0  501    0  0.00000000000E+00  0.00000000000E+00  0.59429352160E+03  0.59429352162E+03  0.50400001928E-02 0. -1.
       -1   -1    0    0    0  501  0.00000000000E+00  0.00000000000E+00 -0.20173495249E+03  0.20173495255E+03  0.50400001928E-02 0.  1.
    10030    2    1    2    0    0  0.00000000000E+00  0.00000000000E+00  0.39255856911E+03  0.79602847417E+03  0.69250205885E+03 0.  0.
        5    1    3    3  502    0  0.78590732827E+02 -0.32160969913E+03  0.79854082674E+02  0.34059956897E+03  0.46999998093E+01 0.  1.
       -5    1    3    3    0  502 -0.78590732827E+02  0.32160969913E+03  0.31270448643E+03  0.45542890520E+03  0.46999998093E+01 0. -1.
</event>
<event>
 5   0  0.5023894E-03  0.6987545E+03  0.7818609E-02  0.9719365E-01
       -2   -1    0    0    0  501  0.00000000000E+00  0.00000000000E+00  0.68225331444E+02  0.68225331492E+02  0.25500000920E-02 0. -1.
        2   -1    0    0  501    0  0.00000000000E+00  0.00000000000E+00 -0.17891370650E+04  0.17891370650E+04  0.25500000920E-02 0.  1.
    10030    2    1    2    0    0  0.00000000000E+00  0.00000000000E+00 -0.17209117335E+04  0.18573623965E+04  0.69875451856E+03 0.  0.
        2    1    3    3  502    0 -0.23949527071E+03  0.12140575322E+03 -0.26628108956E+03  0.37815732212E+03  0.25500000920E-02 0. -1.
       -2    1    3    3    0  502  0.23949527071E+03 -0.12140575322E+03 -0.14546306440E+04  0.14792050744E+04  0.25500000920E-02 0.  1.
</event>
<event>
 5   0  0.5023894E-03  0.6993373E+03  0.7818609E-02  0.9718366E-01
       -2   -1    0    0    0  501  0.00000000000E+00  0.00000000000E+00  0.99783028584E+02  0.99783028616E+02  0.25500000920E-02 0.  1.
        2   -1    0    0  501    0  0.00000000000E+00  0.00000000000E+00 -0.12253404359E+04  0.12253404359E+04  0.25500000920E-02 0. -1.
    10030    2    1    2    0    0  0.00000000000E+00  0.00000000000E+00 -0.11255574073E+04  0.13251234645E+04  0.69933734281E+03 0.  0.
        2    1    3    3  502    0 -0.13510512969E+03  0.30637775174E+03 -0.37190406253E+03  0.50043316693E+03  0.25500000920E-02 0.  1.
       -2    1    3    3    0  502  0.13510512969E+03 -0.30637775174E+03 -0.75365334477E+03  0.82469029758E+03  0.25500000920E-02 0. -1.
</event>
<event>
 5   0  0.2938783E-03  0.6993755E+03  0.7818609E-02  0.9718301E-01
       -1   -1    0    0    0  501  0.00000000000E+00  0.00000000000E+00  0.15806466796E+03  0.15806466804E+03  0.50400001928E-02 0. -1.
        1   -1    0    0  501    0  0.00000000000E+00  0.00000000000E+00 -0.77361696289E+03  0.77361696291E+03  0.50400001928E-02 0.  1.
    10030    2    1    2    0    0  0.00000000000E+00  0.00000000000E+00 -0.61555229494E+03  0.93168163095E+03  0.69937545971E+03 0.  0.
        4    1    3    3  502    0  0.45445821554E+02 -0.28878131184E+03 -0.56339836835E+03  0.63472773937E+03  0.12699999809E+01 0.  1.
       -4    1    3    3    0  502 -0.45445821554E+02  0.28878131184E+03 -0.52153926583E+02  0.29695389158E+03  0.12699999809E+01 0. -1.
</event>
<event>
 5   0  0.5113683E-03  0.7044444E+03  0.7818609E-02  0.9709662E-01
       -2   -1    0    0    0  501  0.00000000000E+00  0.00000000000E+00  0.36505445289E+03  0.36505445290E+03  0.25500000920E-02 0.  1.
        2   -1    0    0  501    0  0.00000000000E+00  0.00000000000E+00 -0.33984104335E+03  0.33984104336E+03  0.25500000920E-02 0. -1.
    10030    2    1    2    0    0  0.00000000000E+00  0.00000000000E+00  0.25213409538E+02  0.70489549626E+03  0.70444442267E+03 0.  0.
        3    1    3    3  502    0 -0.23579947043E+03 -0.63937241928E+02  0.26648379727E+03  0.36152867876E+03  0.10100000352E+00 0.  1.
       -3    1    3    3    0  502  0.23579947043E+03  0.63937241928E+02 -0.24127038773E+03  0.34336681750E+03  0.10100000352E+00 0. -1.
</event>
<event>
 5   0  0.5113683E-03  0.6998621E+03  0.7818609E-02  0.9717468E-01
        2   -1    0    0  501    0  0.00000000000E+00  0.00000000000E+00  0.44957166298E+03  0.44957166299E+03  0.25500000920E-02 0.  1.
       -2   -1    0    0    0  501  0.00000000000E+00  0.00000000000E+00 -0.27237426340E+03  0.27237426342E+03  0.25500000920E-02 0. -1.
    10030    2    1    2    0    0  0.00000000000E+00  0.00000000000E+00  0.17719739958E+03  0.72194592641E+03  0.69986213088E+03 0.  0.
        3    1    3    3  502    0 -0.14622923622E+03  0.23006201634E+03  0.31493082867E+03  0.41652485873E+03  0.10100000352E+00 0.  1.
       -3    1    3    3    0  502  0.14622923622E+03 -0.23006201634E+03 -0.13773342909E+03  0.30542106768E+03  0.10100000352E+00 0. -1.
</event>
<event>
 5   0  0.4878235E-03  0.7007556E+03  0.7818609E-02  0.9715941E-01
        2   -1    0    0  501    0  0.00000000000E+00  0.00000000000E+00  0.76052518170E+03  0.76052518171E+03  0.25500000920E-02 0.  1.
       -2   -1    0    0    0  501  0.00000000000E+00  0.00000000000E+00 -0.16142082399E+03  0.16142082401E+03  0.25500000920E-02 0. -1.
    10030    2    1    2    0    0  0.00000000000E+00  0.00000000000E+00  0.59910435771E+03  0.92194600572E+03  0.70075559651E+03 0.  0.
        4    1    3    3  502    0  0.31830695870E+03  0.96006363582E+02  0.15407695185E+03  0.36643943810E+03  0.12699999809E+01 0. -1.
       -4    1    3    3    0  502 -0.31830695870E+03 -0.96006363582E+02  0.44502740586E+03  0.55550656762E+03  0.12699999809E+01 0.  1.
</event>
<event>
 5   0  0.2938783E-03  0.6994917E+03  0.7818609E-02  0.9718102E-01
       -1   -1    0    0    0  501  0.00000000000E+00  0.00000000000E+00  0.65903381815E+03  0.65903381817E+03  0.50400001928E-02 0. -1.
        1   -1    0    0  501    0  0.00000000000E+00  0.00000000000E+00 -0.18560830980E+03  0.18560830987E+03  0.50400001928E-02 0.  1.
    10030    2    1    2    0    0  0.00000000000E+00  0.00000000000E+00  0.47342550836E+03  0.84464212804E+03  0.69949168151E+03 0.  0.
        4    1    3    3  502    0 -0.18583318581E+03  0.44686475708E+02  0.59039049213E+03  0.62055894173E+03  0.12699999809E+01 0. -1.
       -4    1    3    3    0  502  0.18583318581E+03 -0.44686475708E+02 -0.11696498377E+03  0.22408318631E+03  0.12699999809E+01 0.  1.
</event>
<event>
 5   0  0.2938783E-03  0.7013130E+03  0.7818609E-02  0.9714989E-01
        1   -1    0    0  501    0  0.00000000000E+00  0.00000000000E+00  0.10459786085E+04  0.10459786085E+04  0.50400001928E-02 0. -1.
       -1   -1    0    0    0  501  0.00000000000E+00  0.00000000000E+00 -0.11755497146E+03  0.11755497157E+03  0.50400001928E-02 0.  1.
    10030    2    1    2    0    0  0.00000000000E+00  0.00000000000E+00  0.92842363703E+03  0.11635335801E+04  0.70131301297E+03 0.  0.
        4    1    3    3  502    0  0.28339787903E+03  0.67421551245E+02  0.14037956388E+03  0.32336984750E+03  0.12699999809E+01 0.  1.
       -4    1    3    3    0  502 -0.28339787903E+03 -0.67421551245E+02  0.78804407315E+03  0.84016373257E+03  0.12699999809E+01 0. -1.
</event>
<event>
 5   0  0.5076796E-03  0.7008202E+03  0.7818609E-02  0.9715831E-01
       -2   -1    0    0    0  501  0.00000000000E+00  0.00000000000E+00  0.24122711828E+03  0.24122711829E+03  0.25500000920E-02 0. -1.
        2   -1    0    0  501    0  0.00000000000E+00  0.00000000000E+00 -0.50901091591E+03  0.50901091592E+03  0.25500000920E-02 0.  1.
    10030    2    1    2    0    0  0.00000000000E+00  0.00000000000E+00 -0.26778379763E+03  0.75023803421E+03  0.70082019499E+03 0.  0.
        5    1    3    3  502    0  0.26251429775E+03  0.20238574277E+03 -0.25543841874E+03  0.41850283292E+03  0.46999998093E+01 0. -1.
       -5    1    3    3    0  502 -0.26251429775E+03 -0.20238574277E+03 -0.12345378893E+02  0.33173520129E+03  0.46999998093E+01 0.  1.
</event>
<event>
 5   0  0.2938783E-03  0.7114299E+03  0.7818609E-02  0.9697883E-01
        1   -1    0    0  501    0  0.00000000000E+00  0.00000000000E+00  0.24928754546E+03  0.24928754551E+03  0.50400001928E-02 0.  1.
       -1   -1    0    0    0  501  0.00000000000E+00  0.00000000000E+00 -0.50757901735E+03  0.50757901738E+03  0.50400001928E-02 0. -1.
    10030    2    1    2    0    0  0.00000000000E+00  0.00000000000E+00 -0.25829147190E+03  0.75686656288E+03  0.71142990488E+03 0.  0.
        4    1    3    3  502    0 -0.22500253555E+03 -0.18971202905E+03  0.83400659106E+02  0.30589880322E+03  0.12699999809E+01 0.  1.
       -4    1    3    3    0  502  0.22500253555E+03  0.18971202905E+03 -0.34169213100E+03  0.45096775967E+03  0.12699999809E+01 0. -1.
</event>
<event>
 5   0  0.5113683E-03  0.6996402E+03  0.7818609E-02  0.9717848E-01
       -2   -1    0    0    0  501  0.00000000000E+00  0.00000000000E+00  0.82980659512E+02  0.82980659551E+02  0.25500000920E-02 0.  1.
        2   -1    0    0  501    0  0.00000000000E+00  0.00000000000E+00 -0.14747305485E+04  0.14747305485E+04  0.25500000920E-02 0. -1.
    10030    2    1    2    0    0  0.00000000000E+00  0.00000000000E+00 -0.13917498890E+04  0.15577112080E+04  0.69964023197E+03 0.  0.
        3    1    3    3  502    0  0.10023100566E+03 -0.35562960977E+02 -0.14378633407E+04  0.14417912385E+04  0.10100000352E+00 0. -1.
       -3    1    3    3    0  502 -0.10023100566E+03  0.35562960977E+02  0.46113451781E+02  0.11591996948E+03  0.10100000352E+00 0.  1.
</event>
<event>
 5   0  0.5076796E-03  0.6997259E+03  0.7818609E-02  0.9717701E-01
        2   -1    0    0  501    0  0.00000000000E+00  0.00000000000E+00  0.22271033418E+04  0.22271033418E+04  0.25500000920E-02 0. -1.
       -2   -1    0    0    0  501  0.00000000000E+00  0.00000000000E+00 -0.54961110578E+02  0.54961110637E+02  0.25500000920E-02 0.  1.
    10030    2    1    2    0    0  0.00000000000E+00  0.00000000000E+00  0.21721422312E+04  0.22820644524E+04  0.69972586949E+03 0.  0.
        5    1    3    3  502    0 -0.16863362029E+02  0.29623888499E+03  0.16904384221E+04  0.17162884370E+04  0.46999998093E+01 0. -1.
       -5    1    3    3    0  502  0.16863362029E+02 -0.29623888499E+03  0.48170380909E+03  0.56577601544E+03  0.46999998093E+01 0.  1.
</event>
<event>
 5   0  0.2938783E-03  0.6998503E+03  0.7818609E-02  0.9717488E-01
        1   -1    0    0  501    0  0.00000000000E+00  0.00000000000E+00  0.64968383330E+03  0.64968383332E+03  0.50400001928E-02 0. -1.
       -1   -1    0    0    0  501  0.00000000000E+00  0.00000000000E+00 -0.18847259832E+03  0.18847259839E+03  0.50400001928E-02 0.  1.
    10030    2    1    2    0    0  0.00000000000E+00  0.00000000000E+00  0.46121123497E+03  0.83815643171E+03  0.69985027023E+03 0.  0.
        4    1    3    3  502    0  0.90980110857E+02  0.33786506208E+03  0.23536705787E+03  0.42169828738E+03  0.12699999809E+01 0.  1.
       -4    1    3    3    0  502 -0.90980110857E+02 -0.33786506208E+03  0.22584417710E+03  0.41645814433E+03  0.12699999809E+01 0. -1.
</event>
<event>
 5   0  0.2937617E-03  0.7000424E+03  0.7818609E-02  0.9717160E-01
        1   -1    0    0  501    0  0.00000000000E+00  0.00000000000E+00  0.59475606017E+03  0.59475606019E+03  0.50400001928E-02 0.  1.
       -1   -1    0    0    0  501  0.00000000000E+00  0.00000000000E+00 -0.20599175141E+03  0.20599175148E+03  0.50400001928E-02 0. -1.
    10030    2    1    2    0    0  0.00000000000E+00  0.00000000000E+00  0.38876430875E+03  0.80074781166E+03  0.70004240595E+03 0.  0.
        3    1    3    3  502    0 -0.17189206253E+03 -0.11286725040E+03  0.51837612272E+03  0.55767348169E+03  0.10100000352E+00 0.  1.
       -3    1    3    3    0  502  0.17189206253E+03  0.11286725040E+03 -0.12961181397E+03  0.24307432998E+03  0.10100000352E+00 0. -1.
</event>
<event>
 5   0  0.2938783E-03  0.6999926E+03  0.7818609E-02  0.9717245E-01
       -1   -1    0    0    0  501  0.00000000000E+00  0.00000000000E+00  0.52520399454E+03  0.52520399457E+03  0.50400001928E-02 0.  1.
        1   -1    0    0  501    0  0.00000000000E+00  0.00000000000E+00 -0.23323774016E+03  0.23323774022E+03  0.50400001928E-02 0. -1.
    10030    2    1    2    0    0  0.00000000000E+00  0.00000000000E+00  0.29196625438E+03  0.75844173478E+03  0.69999255093E+03 0.  0.
        4    1    3    3  502    0 -0.15201602436E+03  0.30740489752E+03  0.22174399128E+03  0.40838542243E+03  0.12699999809E+01 0. -1.
       -4    1    3    3    0  502  0.15201602436E+03 -0.30740489752E+03  0.70222263103E+02  0.35005631235E+03  0.12699999809E+01 0.  1.
</event>
<event>
 5   0  0.5076796E-03  0.7020447E+03  0.7818609E-02  0.9713742E-01
        2   -1    0    0  501    0  0.00000000000E+00  0.00000000000E+00  0.86486273570E+03  0.86486273570E+03  0.25500000920E-02 0. -1.
       -2   -1    0    0    0  501  0.00000000000E+00  0.00000000000E+00 -0.14246963689E+03  0.14246963692E+03  0.25500000920E-02 0.  1.
    10030    2    1    2    0    0  0.00000000000E+00  0.00000000000E+00  0.72239309880E+03  0.10073323726E+04  0.70204467075E+03 0.  0.
        5    1    3    3  502    0 -0.20585364332E+03  0.15101203010E+03  0.70679781656E+03  0.75150888165E+03  0.46999998093E+01 0. -1.
       -5    1    3    3    0  502  0.20585364332E+03 -0.15101203010E+03  0.15595282241E+02  0.25582349097E+03  0.46999998093E+01 0.  1.
</event>
<event>
 5   0  0.2938783E-03  0.6999655E+03  0.7818609E-02  0.9717291E-01
        1   -1    0    0  501    0  0.00000000000E+00  0.00000000000E+00  0.43555190589E+03  0.43555190592E+03  0.50400001928E-02 0. -1.
       -1   -1    0    0    0  501  0.00000000000E+00  0.00000000000E+00 -0.28122466051E+03  0.28122466055E+03  0.50400001928E-02 0.  1.
    10030    2    1    2    0    0  0.00000000000E+00  0.00000000000E+00  0.15432724538E+03  0.71677656647E+03  0.69996553313E+03 0.  0.
        4    1    3    3  502    0 -0.23224960483E+03 -0.40117155070E+02  0.34209930616E+03  0.41543087663E+03  0.12699999809E+01 0. -1.
       -4    1    3    3    0  502  0.23224960483E+03  0.40117155070E+02 -0.18777206079E+03  0.30134568984E+03  0.12699999809E+01 0.  1.
</event>
<event>
 5   0  0.1981750E-03  0.7007596E+03  0.7818609E-02  0.9715934E-01
        3   -1    0    0  501    0  0.00000000000E+00  0.00000000000E+00  0.39634365571E+03  0.39634366858E+03  0.10100000352E+00 0.  1.
       -3   -1    0    0    0  501  0.00000000000E+00  0.00000000000E+00 -0.30974636309E+03  0.30974637955E+03  0.10100000352E+00 0. -1.
    10030    2    1    2    0    0  0.00000000000E+00  0.00000000000E+00  0.86597292627E+02  0.70609004813E+03  0.70075963424E+03 0.  0.
        2    1    3    3  502    0  0.21670201391E+03 -0.20607833027E+03 -0.14067712093E+03  0.33048160826E+03  0.25500000920E-02 0. -1.
       -2    1    3    3    0  502 -0.21670201391E+03  0.20607833027E+03  0.22727441355E+03  0.37560843987E+03  0.25500000920E-02 0.  1.
</event>
<event>
 5   0  0.3013140E-03  0.6988796E+03  0.7818609E-02  0.9719150E-01
       -1   -1    0    0    0  501  0.00000000000E+00  0.00000000000E+00  0.50400047395E+03  0.50400047397E+03  0.50400001928E-02 0. -1.
        1   -1    0    0  501    0  0.00000000000E+00  0.00000000000E+00 -0.24227790862E+03  0.24227790867E+03  0.50400001928E-02 0.  1.
    10030    2    1    2    0    0  0.00000000000E+00  0.00000000000E+00  0.26172256533E+03  0.74627838265E+03  0.69887961996E+03 0.  0.
        2    1    3    3  502    0  0.15989424164E+03  0.17375325194E+03 -0.14419711233E+03  0.27667520359E+03  0.25500000920E-02 0.  1.
       -2    1    3    3    0  502 -0.15989424164E+03 -0.17375325194E+03  0.40591967766E+03  0.46960317906E+03  0.25500000920E-02 0. -1.
</event>
<event>
 5   0  0.2934483E-03  0.7023302E+03  0.7818609E-02  0.9713256E-01
       -1   -1    0    0    0  501  0.00000000000E+00  0.00000000000E+00  0.22360252973E+03  0.22360252979E+03  0.50400001928E-02 0.  1.
        1   -1    0    0  501    0  0.00000000000E+00  0.00000000000E+00 -0.55150061090E+03  0.55150061093E+03  0.50400001928E-02 0. -1.
    10030    2    1    2    0    0  0.00000000000E+00  0.00000000000E+00 -0.32789808117E+03  0.77510314072E+03  0.70233021230E+03 0.  0.
        5    1    3    3  502    0  0.14106156324E+03  0.32134793144E+03 -0.15127021642E+03  0.38218794596E+03  0.46999998093E+01 0.  1.
       -5    1    3    3    0  502 -0.14106156324E+03 -0.32134793144E+03 -0.17662786476E+03  0.39291519476E+03  0.46999998093E+01 0. -1.
</event>
<event>
 5   0  0.5023894E-03  0.6979242E+03  0.7818609E-02  0.9720789E-01
       -2   -1    0    0    0  501  0.00000000000E+00  0.00000000000E+00  0.17123468514E+03  0.17123468516E+03  0.25500000920E-02 0. -1.
        2   -1    0    0  501    0  0.00000000000E+00  0.00000000000E+00 -0.71115580603E+03  0.71115580603E+03  0.25500000920E-02 0.  1.
    10030    2    1    2    0    0  0.00000000000E+00  0.00000000000E+00 -0.53992112088E+03  0.88239049119E+03  0.69792418082E+03 0.  0.
        2    1    3    3  502    0  0.72422850038E+02 -0.32669539088E+02 -0.69956863599E+03  0.70406579555E+03  0.25500000920E-02 0.  1.
       -2    1    3    3    0  502 -0.72422850038E+02  0.32669539088E+02  0.15964751511E+03  0.17832469565E+03  0.25500000920E-02 0. -1.
</event>
<event>
 5   0  0.4878235E-03  0.7002291E+03  0.7818609E-02  0.9716841E-01
        2   -1    0    0  501    0  0.00000000000E+00  0.00000000000E+00  0.78250608943E+03  0.78250608943E+03  0.25500000920E-02 0.  1.
       -2   -1    0    0    0  501  0.00000000000E+00  0.00000000000E+00 -0.15665077238E+03  0.15665077240E+03  0.25500000920E-02 0. -1.
    10030    2    1    2    0    0  0.00000000000E+00  0.00000000000E+00  0.62585531705E+03  0.93915686183E+03  0.70022905770E+03 0.  0.
        4    1    3    3  502    0 -0.55068045522E+02 -0.17467091463E+03 -0.87276133213E+02  0.20288211943E+03  0.12699999809E+01 0. -1.
       -4    1    3    3    0  502  0.55068045522E+02  0.17467091463E+03  0.71313145026E+03  0.73627474241E+03  0.12699999809E+01 0.  1.
</event>
<event>
 5   0  0.5113683E-03  0.6984871E+03  0.7818609E-02  0.9719823E-01
       -2   -1    0    0    0  501  0.00000000000E+00  0.00000000000E+00  0.16445489781E+03  0.16445489783E+03  0.25500000920E-02 0.  1.
        2   -1    0    0  501    0  0.00000000000E+00  0.00000000000E+00 -0.74166880132E+03  0.74166880132E+03  0.25500000920E-02 0. -1.
    10030    2    1    2    0    0  0.00000000000E+00  0.00000000000E+00 -0.57721390350E+03  0.90612369915E+03  0.69848712784E+03 0.  0.
        3    1    3    3  502    0 -0.17443860064E+03  0.12873652213E+03  0.66590911373E+02  0.22679567280E+03  0.10100000352E+00 0.  1.
       -3    1    3    3    0  502  0.17443860064E+03 -0.12873652213E+03 -0.64380481488E+03  0.67932802635E+03  0.10100000352E+00 0. -1.
</event>
<event>
 5   0  0.2938783E-03  0.7019903E+03  0.7818609E-02  0.9713835E-01
       -1   -1    0    0    0  501  0.00000000000E+00  0.00000000000E+00  0.13186118074E+03  0.13186118083E+03  0.50400001928E-02 0. -1.
        1   -1    0    0  501    0  0.00000000000E+00  0.00000000000E+00 -0.93429762678E+03  0.93429762679E+03  0.50400001928E-02 0.  1.
    10030    2    1    2    0    0  0.00000000000E+00  0.00000000000E+00 -0.80243644604E+03  0.10661588076E+04  0.70199027995E+03 0.  0.
        4    1    3    3  502    0  0.27228858540E+03  0.17787651301E+03 -0.20079380027E+03  0.38223146226E+03  0.12699999809E+01 0. -1.
       -4    1    3    3    0  502 -0.27228858540E+03 -0.17787651301E+03 -0.60164264577E+03  0.68392734536E+03  0.12699999809E+01 0.  1.
</event>
<event>
 5   0  0.2937617E-03  0.6999212E+03  0.7818609E-02  0.9717367E-01
       -1   -1    0    0    0  501  0.00000000000E+00  0.00000000000E+00  0.72826738777E+02  0.72826738951E+02  0.50400001928E-02 0. -1.
        1   -1    0    0  501    0  0.00000000000E+00  0.00000000000E+00 -0.16816958648E+04  0.16816958648E+04  0.50400001928E-02 0.  1.
    10030    2    1    2    0    0  0.00000000000E+00  0.00000000000E+00 -0.16088691260E+04  0.17545226038E+04  0.69992121159E+03 0.  0.
        3    1    3    3  502    0  0.16446893176E+02  0.21168693618E+03 -0.10707976036E+03  0.23779811716E+03  0.10100000352E+00 0. -1.
       -3    1    3    3    0  502 -0.16446893176E+02 -0.21168693618E+03 -0.15017893657E+04  0.15167244866E+04  0.10100000352E+00 0.  1.
</event>
<event>
 5   0  0.2934483E-03  0.7004189E+03  0.7818609E-02  0.9716516E-01
       -1   -1    0    0    0  501  0.00000000000E+00  0.00000000000E+00  0.38731049598E+03  0.38731049601E+03  0.50400001928E-02 0. -1.
        1   -1    0    0  501    0  0.00000000000E+00  0.00000000000E+00 -0.31666239958E+03  0.31666239962E+03  0.50400001928E-02 0.  1.
    10030    2    1    2    0    0  0.00000000000E+00  0.00000000000E+00  0.70648096398E+02  0.70397289563E+03  0.70041893482E+03 0.  0.
        5    1    3    3  502    0 -0.57124453412E+02  0.10184249746E+03  0.36713472593E+03  0.38528573091E+03  0.46999998093E+01 0. -1.
       -5    1    3    3    0  502  0.57124453412E+02 -0.10184249746E+03 -0.29648662953E+03  0.31868716471E+03  0.46999998093E+01 0.  1.
</event>
<event>
 5   0  0.2934483E-03  0.7007340E+03  0.7818609E-02  0.9715978E-01
        1   -1    0    0  501    0  0.00000000000E+00  0.00000000000E+00  0.22045916881E+04  0.22045916881E+04  0.50400001928E-02 0.  1.
       -1   -1    0    0    0  501  0.00000000000E+00  0.00000000000E+00 -0.55682438785E+02  0.55682439013E+02  0.50400001928E-02 0. -1.
    10030    2    1    2    0    0  0.00000000000E+00  0.00000000000E+00  0.21489092493E+04  0.22602741271E+04  0.70073402082E+03 0.  0.
        5    1    3    3  502    0 -0.18621782098E+03  0.13931681829E+03  0.19195856925E+04  0.19336280856E+04  0.46999998093E+01 0.  1.
       -5    1    3    3    0  502  0.18621782098E+03 -0.13931681829E+03  0.22932355683E+03  0.32664604149E+03  0.46999998093E+01 0. -1.
</event>
<event>
 5   0  0.5023894E-03  0.7022521E+03  0.7818609E-02  0.9713389E-01
        2   -1    0    0  501    0  0.00000000000E+00  0.00000000000E+00  0.14808818080E+04  0.14808818080E+04  0.25500000920E-02 0.  1.
       -2   -1    0    0    0  501  0.00000000000E+00  0.00000000000E+00 -0.83254115213E+02  0.83254115252E+02  0.25500000920E-02 0. -1.
    10030    2    1    2    0    0  0.00000000000E+00  0.00000000000E+00  0.13976276928E+04  0.15641359233E+04  0.70225210486E+03 0.  0.
        2    1    3    3  502    0  0.42413444736E+02 -0.34532478479E+03  0.59336523298E+03  0.68784475501E+03  0.25500000920E-02 0. -1.
       -2    1    3    3    0  502 -0.42413444736E+02  0.34532478479E+03  0.80426245985E+03  0.87629116828E+03  0.25500000920E-02 0.  1.
</event>
<event>
 5   0  0.5023894E-03  0.6997144E+03  0.7818609E-02  0.9717721E-01
       -2   -1    0    0    0  501  0.00000000000E+00  0.00000000000E+00  0.16843620009E+03  0.16843620011E+03  0.25500000920E-02 0.  1.
        2   -1    0    0  501    0  0.00000000000E+00  0.00000000000E+00 -0.72668510128E+03  0.72668510129E+03  0.25500000920E-02 0. -1.
    10030    2    1    2    0    0  0.00000000000E+00  0.00000000000E+00 -0.55824890119E+03  0.89512130139E+03  0.69971444785E+03 0.  0.
        2    1    3    3  502    0  0.27574064548E+03  0.12920501825E+03 -0.49948990439E+03  0.58499316655E+03  0.25500000920E-02 0. -1.
       -2    1    3    3    0  502 -0.27574064548E+03 -0.12920501825E+03 -0.58758996800E+02  0.31012813485E+03  0.25500000920E-02 0.  1.
</event>
<event>
 5   0  0.2913582E-03  0.6989442E+03  0.7818609E-02  0.9719039E-01
        1   -1    0    0  501    0  0.00000000000E+00  0.00000000000E+00  0.25000176123E+04  0.25000176123E+04  0.50400001928E-02 0. -1.
       -1   -1    0    0    0  501  0.00000000000E+00  0.00000000000E+00 -0.48851951568E+02  0.48851951828E+02  0.50400001928E-02 0.  1.
    10030    2    1    2    0    0  0.00000000000E+00  0.00000000000E+00  0.24511656607E+04  0.25488695641E+04  0.69894417417E+03 0.  0.
        1    1    3    3  502    0  0.21157719372E+03  0.30483484768E+02  0.22338038979E+04  0.22440084684E+04  0.50400001928E-02 0. -1.
       -1    1    3    3    0  502 -0.21157719372E+03 -0.30483484768E+02  0.21736176279E+03  0.30486109574E+03  0.50400001928E-02 0.  1.
</event>
<event>
 5   0  0.2913582E-03  0.7006469E+03  0.7818609E-02  0.9716127E-01
       -1   -1    0    0    0  501  0.00000000000E+00  0.00000000000E+00  0.97645683162E+02  0.97645683292E+02  0.50400001928E-02 0.  1.
        1   -1    0    0  501    0  0.00000000000E+00  0.00000000000E+00 -0.12568556520E+04  0.12568556520E+04  0.50400001928E-02 0. -1.
    10030    2    1    2    0    0  0.00000000000E+00  0.00000000000E+00 -0.11592099689E+04  0.13545013353E+04  0.70064692641E+03 0.  0.
        1    1    3    3  502    0  0.19302009816E+03  0.20895283230E+03 -0.97489189055E+03  0.10155452933E+04  0.50400001928E-02 0. -1.
       -1    1    3    3    0  502 -0.19302009816E+03 -0.20895283230E+03 -0.18431807831E+03  0.33895604204E+03  0.50400001928E-02 0.  1.
</event>
<event>
 5   0  0.5072407E-03  0.6874362E+03  0.7818609E-02  0.9738963E-01
       -2   -1    0    0    0  501  0.00000000000E+00  0.00000000000E+00  0.13912629424E+03  0.13912629427E+03  0.25500000920E-02 0.  1.
        2   -1    0    0  501    0  0.00000000000E+00  0.00000000000E+00 -0.84917173336E+03  0.84917173336E+03  0.25500000920E-02 0. -1.
    10030    2    1    2    0    0  0.00000000000E+00  0.00000000000E+00 -0.71004543911E+03  0.98829802763E+03  0.68743615399E+03 0.  0.
        1    1    3    3  502    0 -0.24923936202E+03 -0.17251244285E+02 -0.69439602710E+03  0.73797270104E+03  0.50400001928E-02 0. -1.
       -1    1    3    3    0  502  0.24923936202E+03  0.17251244285E+02 -0.15649412014E+02  0.25032532659E+03  0.50400001928E-02 0.  1.
</event>
<event>
 5   0  0.5076796E-03  0.7006842E+03  0.7818609E-02  0.9716063E-01
        2   -1    0    0  501    0  0.00000000000E+00  0.00000000000E+00  0.14509453069E+04  0.14509453069E+04  0.25500000920E-02 0.  1.
       -2   -1    0    0    0  501  0.00000000000E+00  0.00000000000E+00 -0.84592853777E+02  0.84592853815E+02  0.25500000920E-02 0. -1.
    10030    2    1    2    0    0  0.00000000000E+00  0.00000000000E+00  0.13663524531E+04  0.15355381607E+04  0.70068424904E+03 0.  0.
        5    1    3    3  502    0 -0.17424903724E+03  0.21663743946E+03  0.21611243583E+03  0.35216641248E+03  0.46999998093E+01 0. -1.
       -5    1    3    3    0  502  0.17424903724E+03 -0.21663743946E+03  0.11502400173E+04  0.11833717482E+04  0.46999998093E+01 0.  1.
</event>
<event>
 5   0  0.3013140E-03  0.7003339E+03  0.7818609E-02  0.9716661E-01
       -1   -1    0    0    0  501  0.00000000000E+00  0.00000000000E+00  0.73340230285E+02  0.73340230458E+02  0.50400001928E-02 0. -1.
        1   -1    0    0  501    0  0.00000000000E+00  0.00000000000E+00 -0.16718914621E+04  0.16718914621E+04  0.50400001928E-02 0.  1.
    10030    2    1    2    0    0  0.00000000000E+00  0.00000000000E+00 -0.15985512318E+04  0.17452316925E+04  0.70033393462E+03 0.  0.
        2    1    3    3  502    0  0.30741359909E+02 -0.22116544426E+03 -0.12709271423E+03  0.25692750527E+03  0.25500000920E-02 0. -1.
       -2    1    3    3    0  502 -0.30741359909E+02  0.22116544426E+03 -0.14714585176E+04  0.14883041873E+04  0.25500000920E-02 0.  1.
</event>
<event>
 5   0  0.3013140E-03  0.7005720E+03  0.7818609E-02  0.9716255E-01
       -1   -1    0    0    0  501  0.00000000000E+00  0.00000000000E+00  0.26585056055E+03  0.26585056060E+03  0.50400001928E-02 0. -1.
        1   -1    0    0  501    0  0.00000000000E+00  0.00000000000E+00 -0.46153853840E+03  0.46153853842E+03  0.50400001928E-02 0.  1.
    10030    2    1    2    0    0  0.00000000000E+00  0.00000000000E+00 -0.19568797784E+03  0.72738909903E+03  0.70057199253E+03 0.  0.
        2    1    3    3  502    0  0.20439471250E+03  0.25385429265E+03  0.35448855202E+02  0.32783505263E+03  0.25500000920E-02 0. -1.
       -2    1    3    3    0  502 -0.20439471250E+03 -0.25385429265E+03 -0.23113683304E+03  0.39955404639E+03  0.25500000920E-02 0.  1.
</event>
<event>
 5   0  0.2937617E-03  0.6998533E+03  0.7818609E-02  0.9717483E-01
        1   -1    0    0  501    0  0.00000000000E+00  0.00000000000E+00  0.27394689728E+03  0.27394689733E+03  0.50400001928E-02 0.  1.
       -1   -1    0    0    0  501  0.00000000000E+00  0.00000000000E+00 -0.44697959884E+03  0.44697959887E+03  0.50400001928E-02 0. -1.
    10030    2    1    2    0    0  0.00000000000E+00  0.00000000000E+00 -0.17303270156E+03  0.72092649620E+03  0.69985333972E+03 0.  0.
        3    1    3    3  502    0 -0.21231206570E+02 -0.25778211122E+03 -0.32929553601E+03  0.41873373549E+03  0.10100000352E+00 0. -1.
       -3    1    3    3    0  502  0.21231206570E+02  0.25778211122E+03  0.15626283445E+03  0.30219276071E+03  0.10100000352E+00 0.  1.
</event>
<event>
 5   0  0.5113683E-03  0.6993760E+03  0.7818609E-02  0.9718300E-01
       -2   -1    0    0    0  501  0.00000000000E+00  0.00000000000E+00  0.92400691429E+03  0.92400691429E+03  0.25500000920E-02 0.  1.
        2   -1    0    0  501    0  0.00000000000E+00  0.00000000000E+00 -0.13233851732E+03  0.13233851734E+03  0.25500000920E-02 0. -1.
    10030    2    1    2    0    0  0.00000000000E+00  0.00000000000E+00  0.79166839697E+03  0.10563454316E+04  0.69937602202E+03 0.  0.
        3    1    3    3  502    0  0.15008696939E+03 -0.23266199426E+03  0.73213768731E+02  0.28638779319E+03  0.10100000352E+00 0. -1.
       -3    1    3    3    0  502 -0.15008696939E+03  0.23266199426E+03  0.71845462824E+03  0.76995763845E+03  0.10100000352E+00 0.  1.
</event>
<event>
 5   0  0.2934483E-03  0.7010502E+03  0.7818609E-02  0.9715438E-01
       -1   -1    0    0    0  501  0.00000000000E+00  0.00000000000E+00  0.11273431820E+03  0.11273431831E+03  0.50400001928E-02 0.  1.
        1   -1    0    0  501    0  0.00000000000E+00  0.00000000000E+00 -0.10898886023E+04  0.10898886023E+04  0.50400001928E-02 0. -1.
    10030    2    1    2    0    0  0.00000000000E+00  0.00000000000E+00 -0.97715428406E+03  0.12026229206E+04  0.70105020808E+03 0.  0.
        5    1    3    3  502    0  0.13049045279E+03 -0.16394033740E+03 -0.97056180958E+03  0.99293328513E+03  0.46999998093E+01 0. -1.
       -5    1    3    3    0  502 -0.13049045279E+03  0.16394033740E+03 -0.65924744709E+01  0.20968963545E+03  0.46999998093E+01 0.  1.
</event>
<event>
 5   0  0.3013140E-03  0.6997650E+03  0.7818609E-02  0.9717634E-01
        1   -1    0    0  501    0  0.00000000000E+00  0.00000000000E+00  0.23326205057E+04  0.23326205057E+04  0.50400001928E-02 0. -1.
       -1   -1    0    0    0  501  0.00000000000E+00  0.00000000000E+00 -0.52480790190E+02  0.52480790432E+02  0.50400001928E-02 0.  1.
    10030    2    1    2    0    0  0.00000000000E+00  0.00000000000E+00  0.22801397155E+04  0.23851012961E+04  0.69976501098E+03 0.  0.
        2    1    3    3  502    0  0.20417524454E+02 -0.32863095874E+03  0.73674153688E+03  0.80697166897E+03  0.25500000920E-02 0.  1.
       -2    1    3    3    0  502 -0.20417524454E+02  0.32863095874E+03  0.15433981786E+04  0.15781296271E+04  0.25500000920E-02 0. -1.
</event>
<event>
 5   0  0.5113683E-03  0.6991772E+03  0.7818609E-02  0.9718640E-01
       -2   -1    0    0    0  501  0.00000000000E+00  0.00000000000E+00  0.23211090977E+03  0.23211090978E+03  0.25500000920E-02 0.  1.
        2   -1    0    0  501    0  0.00000000000E+00  0.00000000000E+00 -0.52652498721E+03  0.52652498721E+03  0.25500000920E-02 0. -1.
    10030    2    1    2    0    0  0.00000000000E+00  0.00000000000E+00 -0.29441407744E+03  0.75863589699E+03  0.69917721302E+03 0.  0.
        3    1    3    3  502    0 -0.13245084931E+03  0.30441860105E+03 -0.26605875696E+03  0.42544233981E+03  0.10100000352E+00 0. -1.
       -3    1    3    3    0  502  0.13245084931E+03 -0.30441860105E+03 -0.28355320483E+02  0.33319355718E+03  0.10100000352E+00 0.  1.
</event>
<event>
 5   0  0.5076796E-03  0.7004038E+03  0.7818609E-02  0.9716542E-01
        2   -1    0    0  501    0  0.00000000000E+00  0.00000000000E+00  0.13578737189E+03  0.13578737192E+03  0.25500000920E-02 0.  1.
       -2   -1    0    0    0  501  0.00000000000E+00  0.00000000000E+00 -0.90318677798E+03  0.90318677798E+03  0.25500000920E-02 0. -1.
    10030    2    1    2    0    0  0.00000000000E+00  0.00000000000E+00 -0.76739940609E+03  0.10389741499E+04  0.70040376619E+03 0.  0.
        5    1    3    3  502    0 -0.25575076083E+03  0.10309894028E+03 -0.70385644980E+03  0.75595888452E+03  0.46999998093E+01 0. -1.
       -5    1    3    3    0  502  0.25575076083E+03 -0.10309894028E+03 -0.63542956284E+02  0.28301526538E+03  0.46999998093E+01 0.  1.
</event>
<event>
 5   0  0.5076796E-03  0.6995037E+03  0.7818609E-02  0.9718081E-01
       -2   -1    0    0    0  501  0.00000000000E+00  0.00000000000E+00  0.30435275571E+03  0.30435275572E+03  0.25500000920E-02 0. -1.
        2   -1    0    0  501    0  0.00000000000E+00  0.00000000000E+00 -0.40192291989E+03  0.40192291990E+03  0.25500000920E-02 0.  1.
    10030    2    1    2    0    0  0.00000000000E+00  0.00000000000E+00 -0.97570164184E+02  0.70627567562E+03  0.69950367621E+03 0.  0.
        5    1    3    3  502    0  0.45079288839E+02 -0.25626905511E+03 -0.28470997036E+03  0.38573025304E+03  0.46999998093E+01 0.  1.
       -5    1    3    3    0  502 -0.45079288839E+02  0.25626905511E+03  0.18713980617E+03  0.32054542259E+03  0.46999998093E+01 0. -1.
</event>
<event>
 5   0  0.5076796E-03  0.7003406E+03  0.7818609E-02  0.9716650E-01
       -2   -1    0    0    0  501  0.00000000000E+00  0.00000000000E+00  0.14056357552E+03  0.14056357554E+03  0.25500000920E-02 0. -1.
        2   -1    0    0  501    0  0.00000000000E+00  0.00000000000E+00 -0.87233997967E+03  0.87233997967E+03  0.25500000920E-02 0.  1.
    10030    2    1    2    0    0  0.00000000000E+00  0.00000000000E+00 -0.73177640414E+03  0.10129035552E+04  0.70034056465E+03 0.  0.
        5    1    3    3  502    0  0.17031280350E+03 -0.12043414753E+03  0.40844832635E+02  0.21260579784E+03  0.46999998093E+01 0. -1.
       -5    1    3    3    0  502 -0.17031280350E+03  0.12043414753E+03 -0.77262123678E+03  0.80029775737E+03  0.46999998093E+01 0.  1.
</event>
<event>
 5   0  0.5023894E-03  0.7001346E+03  0.7818609E-02  0.9717002E-01
       -2   -1    0    0    0  501  0.00000000000E+00  0.00000000000E+00  0.14801408843E+03  0.14801408845E+03  0.25500000920E-02 0.  1.
        2   -1    0    0  501    0  0.00000000000E+00  0.00000000000E+00 -0.82794217919E+03  0.82794217920E+03  0.25500000920E-02 0. -1.
    10030    2    1    2    0    0  0.00000000000E+00  0.00000000000E+00 -0.67992809077E+03  0.97595626765E+03  0.70013457831E+03 0.  0.
        2    1    3    3  502    0  0.98801810889E+02 -0.99534815937E+02  0.10714181263E+03  0.17648893857E+03  0.25500000920E-02 0.  1.
       -2    1    3    3    0  502 -0.98801810889E+02  0.99534815937E+02 -0.78706990340E+03  0.79946732908E+03  0.25500000920E-02 0. -1.
</event>
<event>
 5   0  0.4878235E-03  0.7009884E+03  0.7818609E-02  0.9715543E-01
        2   -1    0    0  501    0  0.00000000000E+00  0.00000000000E+00  0.15176412839E+04  0.15176412839E+04  0.25500000920E-02 0.  1.
       -2   -1    0    0    0  501  0.00000000000E+00  0.00000000000E+00 -0.80945471831E+02  0.80945471871E+02  0.25500000920E-02 0. -1.
    10030    2    1    2    0    0  0.00000000000E+00  0.00000000000E+00  0.14366958121E+04  0.15985867558E+04  0.70098841597E+03 0.  0.
        4    1    3    3  502    0 -0.25864141021E+03 -0.19811912169E+03  0.10130327140E+04  0.10641350750E+04  0.12699999809E+01 0.  1.
       -4    1    3    3    0  502  0.25864141021E+03  0.19811912169E+03  0.42366309813E+03  0.53445168077E+03  0.12699999809E+01 0. -1.
</event>
<event>
 5   0  0.5113683E-03  0.7001518E+03  0.7818609E-02  0.9716973E-01
       -2   -1    0    0    0  501  0.00000000000E+00  0.00000000000E+00  0.37746569333E+03  0.37746569334E+03  0.25500000920E-02 0.  1.
        2   -1    0    0  501    0  0.00000000000E+00  0.00000000000E+00 -0.32467353422E+03  0.32467353423E+03  0.25500000920E-02 0. -1.
    10030    2    1    2    0    0  0.00000000000E+00  0.00000000000E+00  0.52792159107E+02  0.70213922757E+03  0.70015175700E+03 0.  0.
        3    1    3    3  502    0  0.28760908112E+03 -0.10400315368E+03 -0.14443261954E+03  0.33822541493E+03  0.10100000352E+00 0. -1.
       -3    1    3    3    0  502 -0.28760908112E+03  0.10400315368E+03  0.19722477865E+03  0.36391381264E+03  0.10100000352E+00 0.  1.
</event>
<event>
 5   0  0.5076796E-03  0.7011425E+03  0.7818609E-02  0.9715280E-01
        2   -1    0    0  501    0  0.00000000000E+00  0.00000000000E+00  0.55397569281E+03  0.55397569282E+03  0.25500000920E-02 0. -1.
       -2   -1    0    0    0  501  0.00000000000E+00  0.00000000000E+00 -0.22185127344E+03  0.22185127346E+03  0.25500000920E-02 0.  1.
    10030    2    1    2    0    0  0.00000000000E+00  0.00000000000E+00  0.33212441937E+03  0.77582696627E+03  0.70114253305E+03 0.  0.
        5    1    3    3  502    0  0.17736201967E+03  0.10027629784E+03  0.48169252479E+03  0.52303193055E+03  0.46999998093E+01 0. -1.
       -5    1    3    3    0  502 -0.17736201967E+03 -0.10027629784E+03 -0.14956810543E+03  0.25279503573E+03  0.46999998093E+01 0.  1.
</event>
<event>
 5   0  0.5072407E-03  0.7007848E+03  0.7818609E-02  0.9715891E-01
        2   -1    0    0  501    0  0.00000000000E+00  0.00000000000E+00  0.61064908042E+03  0.61064908043E+03  0.25500000920E-02 0. -1.
       -2   -1    0    0    0  501  0.00000000000E+00  0.00000000000E+00 -0.20105625788E+03  0.20105625790E+03  0.25500000920E-02 0.  1.
    10030    2    1    2    0    0  0.00000000000E+00  0.00000000000E+00  0.40959282254E+03  0.81170533832E+03  0.70078475724E+03 0.  0.
        1    1    3    3  502    0 -0.18314176771E+03  0.27763143733E+03  0.77097903631E+02  0.34141500969E+03  0.50400001928E-02 0.  1.
       -1    1    3    3    0  502  0.18314176771E+03 -0.27763143733E+03  0.33249491891E+03  0.47029032863E+03  0.50400001928E-02 0. -1.
</event>
<event>
 5   0  0.2934483E-03  0.6998092E+03  0.7818609E-02  0.9717559E-01
        1   -1    0    0  501    0  0.00000000000E+00  0.00000000000E+00  0.90568522141E+03  0.90568522142E+03  0.50400001928E-02 0. -1.
       -1   -1    0    0    0  501  0.00000000000E+00  0.00000000000E+00 -0.13518296527E+03  0.13518296537E+03  0.50400001928E-02 0.  1.
    10030    2    1    2    0    0  0.00000000000E+00  0.00000000000E+00  0.77050225614E+03  0.10408681868E+04  0.69980915653E+03 0.  0.
        5    1    3    3  502    0 -0.18538177555E+03 -0.24714616650E+03  0.62948404427E+03  0.70122741126E+03  0.46999998093E+01 0. -1.
       -5    1    3    3    0  502  0.18538177555E+03  0.24714616650E+03  0.14101821187E+03  0.33964077553E+03  0.46999998093E+01 0.  1.
</event>
<event>
 5   0  0.5072407E-03  0.7010023E+03  0.7818609E-02  0.9715520E-01
        2   -1    0    0  501    0  0.00000000000E+00  0.00000000000E+00  0.19517238485E+04  0.19517238485E+04  0.25500000920E-02 0.  1.
       -2   -1    0    0    0  501  0.00000000000E+00  0.00000000000E+00 -0.62944900110E+02  0.62944900162E+02  0.25500000920E-02 0. -1.
    10030    2    1    2    0    0  0.00000000000E+00  0.00000000000E+00  0.18887789484E+04  0.20146687486E+04  0.70100231879E+03 0.  0.
        1    1    3    3  502    0  0.24432898911E+03  0.63315536200E+02  0.16433380673E+04  0.16626080462E+04  0.50400001928E-02 0.  1.
       -1    1    3    3    0  502 -0.24432898911E+03 -0.63315536200E+02  0.24544088111E+03  0.35206070242E+03  0.50400001928E-02 0. -1.
</event>
<event>
 5   0  0.3013140E-03  0.7001780E+03  0.7818609E-02  0.9716928E-01
        1   -1    0    0  501    0  0.00000000000E+00  0.00000000000E+00  0.91345132543E+03  0.91345132544E+03  0.50400001928E-02 0. -1.
       -1   -1    0    0    0  501  0.00000000000E+00  0.00000000000E+00 -0.13417499178E+03  0.13417499188E+03  0.50400001928E-02 0.  1.
    10030    2    1    2    0    0  0.00000000000E+00  0.00000000000E+00  0.77927633365E+03  0.10476263173E+04  0.70017804633E+03 0.  0.
        2    1    3    3  502    0  0.16533782858E+03 -0.17891771598E+03  0.13449977995E+02  0.24398575484E+03  0.25500000920E-02 0.  1.
       -2    1    3    3    0  502 -0.16533782858E+03  0.17891771598E+03  0.76582635565E+03  0.80364056248E+03  0.25500000920E-02 0. -1.
</event>
<event>
 5   0  0.5113683E-03  0.7005812E+03  0.7818609E-02  0.9716239E-01
        2   -1    0    0  501    0  0.00000000000E+00  0.00000000000E+00  0.44052861269E+03  0.44052861270E+03  0.25500000920E-02 0.  1.
       -2   -1    0    0    0  501  0.00000000000E+00  0.00000000000E+00 -0.27853699304E+03  0.27853699305E+03  0.25500000920E-02 0. -1.
    10030    2    1    2    0    0  0.00000000000E+00  0.00000000000E+00  0.16199161966E+03  0.71906560575E+03  0.70058123050E+03 0.  0.
        3    1    3    3  502    0  0.25914619880E+02  0.34434013952E+03  0.14138530016E+03  0.37313739093E+03  0.10100000352E+00 0. -1.
       -3    1    3    3    0  502 -0.25914619880E+02 -0.34434013952E+03  0.20606319501E+02  0.34592821482E+03  0.10100000352E+00 0.  1.
</event>
<event>
 5   0  0.2938783E-03  0.6995679E+03  0.7818609E-02  0.9717971E-01
        1   -1    0    0  501    0  0.00000000000E+00  0.00000000000E+00  0.25814108166E+03  0.25814108171E+03  0.50400001928E-02 0.  1.
       -1   -1    0    0    0  501  0.00000000000E+00  0.00000000000E+00 -0.47396099770E+03  0.47396099772E+03  0.50400001928E-02 0. -1.
    10030    2    1    2    0    0  0.00000000000E+00  0.00000000000E+00 -0.21581991604E+03  0.73210207943E+03  0.69956787987E+03 0.  0.
        4    1    3    3  502    0 -0.25820263212E+03 -0.11194550351E+02 -0.35456875616E+03  0.43876478087E+03  0.12699999809E+01 0. -1.
       -4    1    3    3    0  502  0.25820263212E+03  0.11194550351E+02  0.13874884012E+03  0.29333729856E+03  0.12699999809E+01 0.  1.
</event>
<event>
 5   0  0.2913582E-03  0.7001793E+03  0.7818609E-02  0.9716926E-01
       -1   -1    0    0    0  501  0.00000000000E+00  0.00000000000E+00  0.53678560952E+03  0.53678560955E+03  0.50400001928E-02 0. -1.
        1   -1    0    0  501    0  0.00000000000E+00  0.00000000000E+00 -0.22832721177E+03  0.22832721183E+03  0.50400001928E-02 0.  1.
    10030    2    1    2    0    0  0.00000000000E+00  0.00000000000E+00  0.30845839775E+03  0.76511282138E+03  0.70017929582E+03 0.  0.
        1    1    3    3  502    0  0.21743002597E+03 -0.63631583777E+02  0.44588590943E+03  0.50013901957E+03  0.50400001928E-02 0. -1.
       -1    1    3    3    0  502 -0.21743002597E+03  0.63631583777E+02 -0.13742751168E+03  0.26497380180E+03  0.50400001928E-02 0.  1.
</event>
<event>
 5   0  0.2934483E-03  0.6997278E+03  0.7818609E-02  0.9717698E-01
       -1   -1    0    0    0  501  0.00000000000E+00  0.00000000000E+00  0.18195333705E+03  0.18195333712E+03  0.50400001928E-02 0.  1.
        1   -1    0    0  501    0  0.00000000000E+00  0.00000000000E+00 -0.67272608339E+03  0.67272608341E+03  0.50400001928E-02 0. -1.
    10030    2    1    2    0    0  0.00000000000E+00  0.00000000000E+00 -0.49077274634E+03  0.85467942053E+03  0.69972782089E+03 0.  0.
        5    1    3    3  502    0 -0.13135967203E+03 -0.19589423575E+03 -0.56096580421E+03  0.60855126203E+03  0.46999998093E+01 0. -1.
       -5    1    3    3    0  502  0.13135967203E+03  0.19589423575E+03  0.70193057866E+02  0.24612815850E+03  0.46999998093E+01 0.  1.
</event>
<event>
 5   0  0.4878235E-03  0.6985106E+03  0.7818609E-02  0.9719783E-01
       -2   -1    0    0    0  501  0.00000000000E+00  0.00000000000E+00  0.90793674239E+03  0.90793674239E+03  0.25500000920E-02 0.  1.
        2   -1    0    0  501    0  0.00000000000E+00  0.00000000000E+00 -0.13434773983E+03  0.13434773986E+03  0.25500000920E-02 0. -1.
    10030    2    1    2    0    0  0.00000000000E+00  0.00000000000E+00  0.77358900255E+03  0.10422844822E+04  0.69851055616E+03 0.  0.
        4    1    3    3  502    0  0.12107662261E+03 -0.27753115628E+03  0.64650859398E+03  0.71390340120E+03  0.12699999809E+01 0.  1.
       -4    1    3    3    0  502 -0.12107662261E+03  0.27753115628E+03  0.12708040857E+03  0.32838108105E+03  0.12699999809E+01 0. -1.
</event>
<event>
 5   0  0.3013140E-03  0.6997116E+03  0.7818609E-02  0.9717726E-01
       -1   -1    0    0    0  501  0.00000000000E+00  0.00000000000E+00  0.52097187126E+03  0.52097187129E+03  0.50400001928E-02 0. -1.
        1   -1    0    0  501    0  0.00000000000E+00  0.00000000000E+00 -0.23494373423E+03  0.23494373428E+03  0.50400001928E-02 0.  1.
    10030    2    1    2    0    0  0.00000000000E+00  0.00000000000E+00  0.28602813703E+03  0.75591560557E+03  0.69971158885E+03 0.  0.
        2    1    3    3  502    0  0.24292430764E+03 -0.45112933432E+02  0.41060258836E+03  0.47920964262E+03  0.25500000920E-02 0. -1.
       -2    1    3    3    0  502 -0.24292430764E+03  0.45112933432E+02 -0.12457445133E+03  0.27670596295E+03  0.25500000920E-02 0.  1.
</event>
<event>
 5   0  0.5023894E-03  0.6997156E+03  0.7818609E-02  0.9717719E-01
        2   -1    0    0  501    0  0.00000000000E+00  0.00000000000E+00  0.97075475153E+03  0.97075475154E+03  0.25500000920E-02 0. -1.
       -2   -1    0    0    0  501  0.00000000000E+00  0.00000000000E+00 -0.12608796222E+03  0.12608796225E+03  0.25500000920E-02 0.  1.
    10030    2    1    2    0    0  0.00000000000E+00  0.00000000000E+00  0.84466678931E+03  0.10968427138E+04  0.69971562354E+03 0.  0.
        2    1    3    3  502    0 -0.33900546154E+03 -0.12518483895E+02  0.28822658695E+03  0.44514714514E+03  0.25500000920E-02 0.  1.
       -2    1    3    3    0  502  0.33900546154E+03  0.12518483895E+02  0.55644020235E+03  0.65169556865E+03  0.25500000920E-02 0. -1.
</event>
<event>
 5   0  0.1981750E-03  0.7001777E+03  0.7818609E-02  0.9716928E-01
       -3   -1    0    0    0  501  0.00000000000E+00  0.00000000000E+00  0.34078116570E+03  0.34078118067E+03  0.10100000352E+00 0. -1.
        3   -1    0    0  501    0  0.00000000000E+00  0.00000000000E+00 -0.35965070069E+03  0.35965071487E+03  0.10100000352E+00 0.  1.
    10030    2    1    2    0    0  0.00000000000E+00  0.00000000000E+00 -0.18869534987E+02  0.70043189554E+03  0.70017767812E+03 0.  0.
        3    1    3    3  502    0 -0.97269087723E+02  0.31106956795E+02 -0.34441940495E+03  0.35924038594E+03  0.10100000352E+00 0.  1.
       -3    1    3    3    0  502  0.97269087723E+02 -0.31106956795E+02  0.32554986996E+03  0.34119150959E+03  0.10100000352E+00 0. -1.
</event>
<event>
 5   0  0.5072407E-03  0.6989334E+03  0.7818609E-02  0.9719058E-01
        2   -1    0    0  501    0  0.00000000000E+00  0.00000000000E+00  0.19640409615E+04  0.19640409615E+04  0.25500000920E-02 0.  1.
       -2   -1    0    0    0  501  0.00000000000E+00  0.00000000000E+00 -0.62181481077E+02  0.62181481130E+02  0.25500000920E-02 0. -1.
    10030    2    1    2    0    0  0.00000000000E+00  0.00000000000E+00  0.19018594804E+04  0.20262224426E+04  0.69893340437E+03 0.  0.
        1    1    3    3  502    0  0.99452001952E+02  0.27013876491E+03  0.15253553428E+04  0.15522804434E+04  0.50400001928E-02 0.  1.
       -1    1    3    3    0  502 -0.99452001952E+02 -0.27013876491E+03  0.37650413761E+03  0.47394199926E+03  0.50400001928E-02 0. -1.
</event>
<event>
 5   0  0.5076796E-03  0.7002588E+03  0.7818609E-02  0.9716790E-01
       -2   -1    0    0    0  501  0.00000000000E+00  0.00000000000E+00  0.18814875302E+03  0.18814875304E+03  0.25500000920E-02 0.  1.
        2   -1    0    0  501    0  0.00000000000E+00  0.00000000000E+00 -0.65156203096E+03  0.65156203097E+03  0.25500000920E-02 0. -1.
    10030    2    1    2    0    0  0.00000000000E+00  0.00000000000E+00 -0.46341327794E+03  0.83971078401E+03  0.70025876261E+03 0.  0.
        5    1    3    3  502    0 -0.30361896960E+03 -0.16789617003E+03 -0.28788611205E+03  0.45085929748E+03  0.46999998093E+01 0. -1.
       -5    1    3    3    0  502  0.30361896960E+03  0.16789617003E+03 -0.17552716590E+03  0.38885148653E+03  0.46999998093E+01 0.  1.
</event>
<event>
 5   0  0.3013140E-03  0.7010738E+03  0.7818609E-02  0.9715398E-01
        1   -1    0    0  501    0  0.00000000000E+00  0.00000000000E+00  0.54345103473E+03  0.54345103475E+03  0.50400001928E-02 0.  1.
       -1   -1    0    0    0  501  0.00000000000E+00  0.00000000000E+00 -0.22610340744E+03  0.22610340749E+03  0.50400001928E-02 0. -1.
    10030    2    1    2    0    0  0.00000000000E+00  0.00000000000E+00  0.31734762729E+03  0.76955444225E+03  0.70107383565E+03 0.  0.
        2    1    3    3  502    0  0.34685567788E+03  0.37511439062E+02  0.19606203443E+03  0.40019531568E+03  0.25500000920E-02 0. -1.
       -2    1    3    3    0  502 -0.34685567788E+03 -0.37511439062E+02  0.12128559286E+03  0.36935912657E+03  0.25500000920E-02 0.  1.
</event>
<event>
 5   0  0.2938783E-03  0.6996820E+03  0.7818609E-02  0.9717776E-01
       -1   -1    0    0    0  501  0.00000000000E+00  0.00000000000E+00  0.85595351187E+02  0.85595351335E+02  0.50400001928E-02 0. -1.
        1   -1    0    0  501    0  0.00000000000E+00  0.00000000000E+00 -0.14298523895E+04  0.14298523895E+04  0.50400001928E-02 0.  1.
    10030    2    1    2    0    0  0.00000000000E+00  0.00000000000E+00 -0.13442570383E+04  0.15154477409E+04  0.69968197789E+03 0.  0.
        4    1    3    3  502    0 -0.10509479658E+03 -0.11273271628E+03  0.80964190166E+01  0.15433971132E+03  0.12699999809E+01 0.  1.
       -4    1    3    3    0  502  0.10509479658E+03  0.11273271628E+03 -0.13523534573E+04  0.13611080295E+04  0.12699999809E+01 0. -1.
</event>
<event>
 5   0  0.4878235E-03  0.7004197E+03  0.7818609E-02  0.9716515E-01
       -2   -1    0    0    0  501  0.00000000000E+00  0.00000000000E+00  0.49786871831E+02  0.49786871897E+02  0.25500000920E-02 0.  1.
        2   -1    0    0  501    0  0.00000000000E+00  0.00000000000E+00 -0.24634395180E+04  0.24634395180E+04  0.25500000920E-02 0. -1.
    10030    2    1    2    0    0  0.00000000000E+00  0.00000000000E+00 -0.24136526462E+04  0.25132263899E+04  0.70041972454E+03 0.  0.
        4    1    3    3  502    0  0.29519880279E+03  0.18055874516E+03 -0.10135460158E+04  0.10709906315E+04  0.12699999809E+01 0.  1.
       -4    1    3    3    0  502 -0.29519880279E+03 -0.18055874516E+03 -0.14001066304E+04  0.14422357584E+04  0.12699999809E+01 0. -1.
</event>
<event>
 5   0  0.5113683E-03  0.6983033E+03  0.7818609E-02  0.9720138E-01
        2   -1    0    0  501    0  0.00000000000E+00  0.00000000000E+00  0.65579809851E+03  0.65579809851E+03  0.25500000920E-02 0.  1.
       -2   -1    0    0    0  501  0.00000000000E+00  0.00000000000E+00 -0.18589084902E+03  0.18589084904E+03  0.25500000920E-02 0. -1.
    10030    2    1    2    0    0  0.00000000000E+00  0.00000000000E+00  0.46990724949E+03  0.84168894755E+03  0.69830327316E+03 0.  0.
        3    1    3    3  502    0  0.15086421968E+03  0.30248597540E+03  0.34037096728E+03  0.47969801299E+03  0.10100000352E+00 0.  1.
       -3    1    3    3    0  502 -0.15086421968E+03 -0.30248597540E+03  0.12953628220E+03  0.36199093456E+03  0.10100000352E+00 0. -1.
</event>
<event>
 5   0  0.2913582E-03  0.6984681E+03  0.7818609E-02  0.9719855E-01
       -1   -1    0    0    0  501  0.00000000000E+00  0.00000000000E+00  0.11752391081E+04  0.11752391081E+04  0.50400001928E-02 0. -1.
        1   -1    0    0  501    0  0.00000000000E+00  0.00000000000E+00 -0.10377840336E+03  0.10377840348E+03  0.50400001928E-02 0.  1.
    10030    2    1    2    0    0  0.00000000000E+00  0.00000000000E+00  0.10714607047E+04  0.12790175116E+04  0.69846814757E+03 0.  0.
        1    1    3    3  502    0  0.21049225205E+03 -0.27628955765E+03  0.60229880599E+03  0.69527459292E+03  0.50400001928E-02 0. -1.
       -1    1    3    3    0  502 -0.21049225205E+03  0.27628955765E+03  0.46916189875E+03  0.58374291868E+03  0.50400001928E-02 0.  1.
</event>
<event>
 5   0  0.2913582E-03  0.6990653E+03  0.7818609E-02  0.9718832E-01
        1   -1    0    0  501    0  0.00000000000E+00  0.00000000000E+00  0.22745630643E+04  0.22745630643E+04  0.50400001928E-02 0. -1.
       -1   -1    0    0    0  501  0.00000000000E+00  0.00000000000E+00 -0.53712763930E+02  0.53712764166E+02  0.50400001928E-02 0.  1.
    10030    2    1    2    0    0  0.00000000000E+00  0.00000000000E+00  0.22208503004E+04  0.23282758285E+04  0.69906528793E+03 0.  0.
        1    1    3    3  502    0 -0.26114097998E+03 -0.23077373789E+03  0.10209366686E+04  0.10787783882E+04  0.50400001928E-02 0. -1.
       -1    1    3    3    0  502  0.26114097998E+03  0.23077373789E+03  0.11999136318E+04  0.12494974403E+04  0.50400001928E-02 0.  1.
</event>
<event>
 5   0  0.3013140E-03  0.7013683E+03  0.7818609E-02  0.9714895E-01
       -1   -1    0    0    0  501  0.00000000000E+00  0.00000000000E+00  0.24371697544E+03  0.24371697549E+03  0.50400001928E-02 0.  1.
        1   -1    0    0  501    0  0.00000000000E+00  0.00000000000E+00 -0.50459917791E+03  0.50459917793E+03  0.50400001928E-02 0. -1.
    10030    2    1    2    0    0  0.00000000000E+00  0.00000000000E+00 -0.26088220247E+03  0.74831615342E+03  0.70136833540E+03 0.  0.
        2    1    3    3  502    0 -0.26541187096E+03 -0.26423160803E+02 -0.37336038844E+03  0.45884597016E+03  0.25500000920E-02 0. -1.
       -2    1    3    3    0  502  0.26541187096E+03  0.26423160803E+02  0.11247818597E+03  0.28947018326E+03  0.25500000920E-02 0.  1.
</event>
<event>
 5   0  0.3013140E-03  0.7009008E+03  0.7818609E-02  0.9715693E-01
       -1   -1    0    0    0  501  0.00000000000E+00  0.00000000000E+00  0.14452951537E+03  0.14452951546E+03  0.50400001928E-02 0.  1.
        1   -1    0    0  501    0  0.00000000000E+00  0.00000000000E+00 -0.84976053314E+03  0.84976053316E+03  0.50400001928E-02 0. -1.
    10030    2    1    2    0    0  0.00000000000E+00  0.00000000000E+00 -0.70523101777E+03  0.99429004862E+03  0.70090078639E+03 0.  0.
        2    1    3    3  502    0 -0.49335621025E+00 -0.17962225758E+03  0.74262086020E+02  0.19436886645E+03  0.25500000920E-02 0.  1.
       -2    1    3    3    0  502  0.49335621025E+00  0.17962225758E+03 -0.77949310379E+03  0.79992118217E+03  0.25500000920E-02 0. -1.
</event>
<event>
 5   0  0.5076796E-03  0.6986673E+03  0.7818609E-02  0.9719514E-01
        2   -1    0    0  501    0  0.00000000000E+00  0.00000000000E+00  0.14391558499E+04  0.14391558499E+04  0.25500000920E-02 0. -1.
       -2   -1    0    0    0  501  0.00000000000E+00  0.00000000000E+00 -0.84795531238E+02  0.84795531276E+02  0.25500000920E-02 0.  1.
    10030    2    1    2    0    0  0.00000000000E+00  0.00000000000E+00  0.13543603186E+04  0.15239513812E+04  0.69866725945E+03 0.  0.
        5    1    3    3  502    0 -0.19287571114E+03  0.19716000378E+03  0.11446897079E+04  0.11774590118E+04  0.46999998093E+01 0. -1.
       -5    1    3    3    0  502  0.19287571114E+03 -0.19716000378E+03  0.20967061076E+03  0.34649236940E+03  0.46999998093E+01 0.  1.
</event>
<event>
 5   0  0.2934483E-03  0.7008190E+03  0.7818609E-02  0.9715833E-01
       -1   -1    0    0    0  501  0.00000000000E+00  0.00000000000E+00  0.10068155974E+03  0.10068155987E+03  0.50400001928E-02 0.  1.
        1   -1    0    0  501    0  0.00000000000E+00  0.00000000000E+00 -0.12195560070E+04  0.12195560070E+04  0.50400001928E-02 0. -1.
    10030    2    1    2    0    0  0.00000000000E+00  0.00000000000E+00 -0.11188744473E+04  0.13202375669E+04  0.70081895256E+03 0.  0.
        5    1    3    3  502    0  0.26736354719E+03 -0.13837237512E+03 -0.22173631614E+03  0.37392414265E+03  0.46999998093E+01 0.  1.
       -5    1    3    3    0  502 -0.26736354719E+03  0.13837237512E+03 -0.89713813112E+03  0.94631342423E+03  0.46999998093E+01 0. -1.
</event>
<event>
 5   0  0.2937617E-03  0.7019001E+03  0.7818609E-02  0.9713988E-01
       -1   -1    0    0    0  501  0.00000000000E+00  0.00000000000E+00  0.26086197721E+03  0.26086197726E+03  0.50400001928E-02 0.  1.
        1   -1    0    0  501    0  0.00000000000E+00  0.00000000000E+00 -0.47214989093E+03  0.47214989096E+03  0.50400001928E-02 0. -1.
    10030    2    1    2    0    0  0.00000000000E+00  0.00000000000E+00 -0.21128791372E+03  0.73301186822E+03  0.70190014708E+03 0.  0.
        3    1    3    3  502    0 -0.15071719727E+03  0.24701246160E+03  0.10174098740E+03  0.30672800403E+03  0.10100000352E+00 0.  1.
       -3    1    3    3    0  502  0.15071719727E+03 -0.24701246160E+03 -0.31302890111E+03  0.42628386419E+03  0.10100000352E+00 0. -1.
</event>
<event>
 5   0  0.2937617E-03  0.6990694E+03  0.7818609E-02  0.9718825E-01
        1   -1    0    0  501    0  0.00000000000E+00  0.00000000000E+00  0.76651759944E+03  0.76651759946E+03  0.50400001928E-02 0. -1.
       -1   -1    0    0    0  501  0.00000000000E+00  0.00000000000E+00 -0.15938902246E+03  0.15938902254E+03  0.50400001928E-02 0.  1.
    10030    2    1    2    0    0  0.00000000000E+00  0.00000000000E+00  0.60712857699E+03  0.92590662200E+03  0.69906935540E+03 0.  0.
        3    1    3    3  502    0  0.26541775748E+03  0.17994772132E+03  0.48779011449E+03  0.58375249412E+03  0.10100000352E+00 0. -1.
       -3    1    3    3    0  502 -0.26541775748E+03 -0.17994772132E+03  0.11933846249E+03  0.34215412788E+03  0.10100000352E+00 0.  1.
</event>
<event>
 5   0  0.2938783E-03  0.6983361E+03  0.7818609E-02  0.9720082E-01
       -1   -1    0    0    0  501  0.00000000000E+00  0.00000000000E+00  0.15938523342E+03  0.15938523349E+03  0.50400001928E-02 0.  1.
        1   -1    0    0  501    0  0.00000000000E+00  0.00000000000E+00 -0.76492853108E+03  0.76492853109E+03  0.50400001928E-02 0. -1.
    10030    2    1    2    0    0  0.00000000000E+00  0.00000000000E+00 -0.60554329766E+03  0.92431376459E+03  0.69833605812E+03 0.  0.
        4    1    3    3  502    0 -0.31841939469E+03 -0.10387433275E+03 -0.43337167575E+03  0.54771654180E+03  0.12699999809E+01 0. -1.
       -4    1    3    3    0  502  0.31841939469E+03  0.10387433275E+03 -0.17217162191E+03  0.37659722279E+03  0.12699999809E+01 0.  1.
</event>
<event>
 5   0  0.5023894E-03  0.6988862E+03  0.7818609E-02  0.9719139E-01
       -2   -1    0    0    0  501  0.00000000000E+00  0.00000000000E+00  0.14260273228E+03  0.14260273231E+03  0.25500000920E-02 0.  1.
        2   -1    0    0  501    0  0.00000000000E+00  0.00000000000E+00 -0.85629833743E+03  0.85629833744E+03  0.25500000920E-02 0. -1.
    10030    2    1    2    0    0  0.00000000000E+00  0.00000000000E+00 -0.71369560515E+03  0.99890106974E+03  0.69888620699E+03 0.  0.
        2    1    3    3  502    0 -0.27209206467E+03 -0.10140583607E+03 -0.78989669353E+02  0.30092624198E+03  0.25500000920E-02 0. -1.
       -2    1    3    3    0  502  0.27209206467E+03  0.10140583607E+03 -0.63470593580E+03  0.69797482776E+03  0.25500000920E-02 0.  1.
</event>
<event>
 5   0  0.5072407E-03  0.7001078E+03  0.7818609E-02  0.9717048E-01
        2   -1    0    0  501    0  0.00000000000E+00  0.00000000000E+00  0.13954519013E+04  0.13954519013E+04  0.25500000920E-02 0. -1.
       -2   -1    0    0    0  501  0.00000000000E+00  0.00000000000E+00 -0.87812210315E+02  0.87812210352E+02  0.25500000920E-02 0.  1.
    10030    2    1    2    0    0  0.00000000000E+00  0.00000000000E+00  0.13076396910E+04  0.14832641116E+04  0.70010775133E+03 0.  0.
        1    1    3    3  502    0  0.49959394194E-01  0.18296890399E+03  0.21560618134E+02  0.18423485718E+03  0.50400001928E-02 0.  1.
       -1    1    3    3    0  502 -0.49959394194E-01 -0.18296890399E+03  0.12860790728E+04  0.12990292544E+04  0.50400001928E-02 0. -1.
</event>
<event>
 5   0  0.2934483E-03  0.7014645E+03  0.7818609E-02  0.9714731E-01
       -1   -1    0    0    0  501  0.00000000000E+00  0.00000000000E+00  0.20039506127E+03  0.20039506134E+03  0.50400001928E-02 0.  1.
        1   -1    0    0  501    0  0.00000000000E+00  0.00000000000E+00 -0.61385297285E+03  0.61385297287E+03  0.50400001928E-02 0. -1.
    10030    2    1    2    0    0  0.00000000000E+00  0.00000000000E+00 -0.41345791157E+03  0.81424803420E+03  0.70146447990E+03 0.  0.
        5    1    3    3  502    0  0.87537013967E+01 -0.31965980850E+03 -0.39592353891E+02  0.32225558947E+03  0.46999998093E+01 0.  1.
       -5    1    3    3    0  502 -0.87537013967E+01  0.31965980850E+03 -0.37386555768E+03  0.49199244474E+03  0.46999998093E+01 0. -1.
</event>
<event>
 5   0  0.3013140E-03  0.6998559E+03  0.7818609E-02  0.9717479E-01
        1   -1    0    0  501    0  0.00000000000E+00  0.00000000000E+00  0.13574113348E+04  0.13574113349E+04  0.50400001928E-02 0.  1.
       -1   -1    0    0    0  501  0.00000000000E+00  0.00000000000E+00 -0.90208149012E+02  0.90208149152E+02  0.50400001928E-02 0. -1.
    10030    2    1    2    0    0  0.00000000000E+00  0.00000000000E+00  0.12672031858E+04  0.14476194840E+04  0.69985588252E+03 0.  0.
        2    1    3    3  502    0  0.26142691527E+03  0.17399645919E+03  0.31428992564E+03  0.44429377354E+03  0.25500000920E-02 0. -1.
       -2    1    3    3    0  502 -0.26142691527E+03 -0.17399645919E+03  0.95291326020E+03  0.10033257105E+04  0.25500000920E-02 0.  1.
</event>
<event>
 5   0  0.2937617E-03  0.7007600E+03  0.7818609E-02  0.9715933E-01
       -1   -1    0    0    0  501  0.00000000000E+00  0.00000000000E+00  0.10522911318E+03  0.10522911330E+03  0.50400001928E-02 0. -1.
        1   -1    0    0  501    0  0.00000000000E+00  0.00000000000E+00 -0.11666558413E+04  0.11666558414E+04  0.50400001928E-02 0.  1.
    10030    2    1    2    0    0  0.00000000000E+00  0.00000000000E+00 -0.10614267282E+04  0.12718849547E+04  0.70076004354E+03 0.  0.
        3    1    3    3  502    0 -0.29804825524E+03  0.83313410381E+02 -0.82890684500E+03  0.88479401822E+03  0.10100000352E+00 0.  1.
       -3    1    3    3    0  502  0.29804825524E+03 -0.83313410381E+02 -0.23251988317E+03  0.38709093644E+03  0.10100000352E+00 0. -1.
</event>
<event>
 5   0  0.5023894E-03  0.7016916E+03  0.7818609E-02  0.9714344E-01
        2   -1    0    0  501    0  0.00000000000E+00  0.00000000000E+00  0.22942718171E+03  0.22942718172E+03  0.25500000920E-02 0. -1.
       -2   -1    0    0    0  501  0.00000000000E+00  0.00000000000E+00 -0.53652227036E+03  0.53652227037E+03  0.25500000920E-02 0.  1.
    10030    2    1    2    0    0  0.00000000000E+00  0.00000000000E+00 -0.30709508865E+03  0.76594945209E+03  0.70169164857E+03 0.  0.
        2    1    3    3  502    0 -0.29730154235E+02  0.12289839712E+03  0.20369112312E+03  0.23974563965E+03  0.25500000920E-02 0. -1.
       -2    1    3    3    0  502  0.29730154235E+02 -0.12289839712E+03 -0.51078621177E+03  0.52620381244E+03  0.25500000920E-02 0.  1.
</event>
<event>
 5   0  0.5072407E-03  0.7002403E+03  0.7818609E-02  0.9716821E-01
        2   -1    0    0  501    0  0.00000000000E+00  0.00000000000E+00  0.55225040830E+03  0.55225040830E+03  0.25500000920E-02 0.  1.
       -2   -1    0    0    0  501  0.00000000000E+00  0.00000000000E+00 -0.22197196039E+03  0.22197196041E+03  0.25500000920E-02 0. -1.
    10030    2    1    2    0    0  0.00000000000E+00  0.00000000000E+00  0.33027844790E+03  0.77422236871E+03  0.70024026096E+03 0.  0.
        1    1    3    3  502    0 -0.12041446428E+03 -0.66841884655E+02  0.52104362511E+03  0.53893778866E+03  0.50400001928E-02 0.  1.
       -1    1    3    3    0  502  0.12041446428E+03  0.66841884655E+02 -0.19076517721E+03  0.23528458005E+03  0.50400001928E-02 0. -1.
</event>
<event>
 5   0  0.2913582E-03  0.6998707E+03  0.7818609E-02  0.9717453E-01
        1   -1    0    0  501    0  0.00000000000E+00  0.00000000000E+00  0.22671907102E+03  0.22671907108E+03  0.50400001928E-02 0.  1.
       -1   -1    0    0    0  501  0.00000000000E+00  0.00000000000E+00 -0.54011664343E+03  0.54011664345E+03  0.50400001928E-02 0. -1.
    10030    2    1    2    0    0  0.00000000000E+00  0.00000000000E+00 -0.31339757241E+03  0.76683571453E+03  0.69987068426E+03 0.  0.
        1    1    3    3  502    0  0.29855485647E+03  0.17414113229E+03 -0.21665779897E+03  0.40792246586E+03  0.50400001928E-02 0. -1.
       -1    1    3    3    0  502 -0.29855485647E+03 -0.17414113229E+03 -0.96739773439E+02  0.35891324866E+03  0.50400001928E-02 0.  1.
</event>
<event>
 5   0  0.5023894E-03  0.6953285E+03  0.7818609E-02  0.9725255E-01
       -2   -1    0    0    0  501  0.00000000000E+00  0.00000000000E+00  0.18491171615E+03  0.18491171617E+03  0.25500000920E-02 0.  1.
        2   -1    0    0  501    0  0.00000000000E+00  0.00000000000E+00 -0.65366560780E+03  0.65366560781E+03  0.25500000920E-02 0. -1.
    10030    2    1    2    0    0  0.00000000000E+00  0.00000000000E+00 -0.46875389165E+03  0.83857732398E+03  0.69532849600E+03 0.  0.
        2    1    3    3  502    0  0.21850594996E+03 -0.25728998607E+03 -0.33475517804E+03  0.47539879715E+03  0.25500000920E-02 0. -1.
       -2    1    3    3    0  502 -0.21850594996E+03  0.25728998607E+03 -0.13399871361E+03  0.36317852683E+03  0.25500000920E-02 0.  1.
</event>
<event>
 5   0  0.2938783E-03  0.7089821E+03  0.7818609E-02  0.9701994E-01
        1   -1    0    0  501    0  0.00000000000E+00  0.00000000000E+00  0.25255567599E+03  0.25255567604E+03  0.50400001928E-02 0. -1.
       -1   -1    0    0    0  501  0.00000000000E+00  0.00000000000E+00 -0.49756908858E+03  0.49756908861E+03  0.50400001928E-02 0.  1.
    10030    2    1    2    0    0  0.00000000000E+00  0.00000000000E+00 -0.24501341259E+03  0.75012476465E+03  0.70898208030E+03 0.  0.
        4    1    3    3  502    0 -0.17578767416E+03  0.10841249967E+03 -0.42733653127E+03  0.47462901337E+03  0.12699999809E+01 0.  1.
       -4    1    3    3    0  502  0.17578767416E+03 -0.10841249967E+03  0.18232311867E+03  0.27549575129E+03  0.12699999809E+01 0. -1.
</event>
<event>
 5   0  0.1981750E-03  0.6995423E+03  0.7818609E-02  0.9718015E-01
       -3   -1    0    0    0  501  0.00000000000E+00  0.00000000000E+00  0.21356241696E+03  0.21356244085E+03  0.10100000352E+00 0. -1.
        3   -1    0    0  501    0  0.00000000000E+00  0.00000000000E+00 -0.57285282578E+03  0.57285283468E+03  0.10100000352E+00 0.  1.
    10030    2    1    2    0    0  0.00000000000E+00  0.00000000000E+00 -0.35929040882E+03  0.78641527553E+03  0.69954227015E+03 0.  0.
        2    1    3    3  502    0  0.72957602648E+02  0.30883481846E+03 -0.34501166860E+03  0.46875879550E+03  0.25500000920E-02 0.  1.
       -2    1    3    3    0  502 -0.72957602648E+02 -0.30883481846E+03 -0.14278740211E+02  0.31765648003E+03  0.25500000920E-02 0. -1.
</event>
<event>
 5   0  0.2937617E-03  0.7003096E+03  0.7818609E-02  0.9716703E-01
       -1   -1    0    0    0  501  0.00000000000E+00  0.00000000000E+00  0.22028288806E+03  0.22028288812E+03  0.50400001928E-02 0.  1.
        1   -1    0    0  501    0  0.00000000000E+00  0.00000000000E+00 -0.55659514203E+03  0.55659514205E+03  0.50400001928E-02 0. -1.
    10030    2    1    2    0    0  0.00000000000E+00  0.00000000000E+00 -0.33631225397E+03  0.77687803018E+03  0.70030960410E+03 0.  0.
        3    1    3    3  502    0  0.17058241354E+03  0.46119348541E+02  0.16719171301E+03  0.24326617772E+03  0.10100000352E+00 0.  1.
       -3    1    3    3    0  502 -0.17058241354E+03 -0.46119348541E+02 -0.50350396698E+03  0.53361185246E+03  0.10100000352E+00 0. -1.
</event>
<event>
 5   0  0.5076796E-03  0.6994606E+03  0.7818609E-02  0.9718155E-01
        2   -1    0    0  501    0  0.00000000000E+00  0.00000000000E+00  0.89602142668E+03  0.89602142668E+03  0.25500000920E-02 0. -1.
       -2   -1    0    0    0  501  0.00000000000E+00  0.00000000000E+00 -0.13650487994E+03  0.13650487996E+03  0.25500000920E-02 0.  1.
    10030    2    1    2    0    0  0.00000000000E+00  0.00000000000E+00  0.75951654674E+03  0.10325263066E+04  0.69946064159E+03 0.  0.
        5    1    3    3  502    0 -0.24159854798E+02 -0.10286262856E+03 -0.11233034118E+03  0.15428744112E+03  0.46999998093E+01 0.  1.
       -5    1    3    3    0  502  0.24159854798E+02  0.10286262856E+03  0.87184688793E+03  0.87823886553E+03  0.46999998093E+01 0. -1.
</event>
<event>
 5   0  0.5023894E-03  0.6899737E+03  0.7818609E-02  0.9734534E-01
       -2   -1    0    0    0  501  0.00000000000E+00  0.00000000000E+00  0.11009901956E+03  0.11009901959E+03  0.25500000920E-02 0. -1.
        2   -1    0    0  501    0  0.00000000000E+00  0.00000000000E+00 -0.10809898478E+04  0.10809898478E+04  0.25500000920E-02 0.  1.
    10030    2    1    2    0    0  0.00000000000E+00  0.00000000000E+00 -0.97089082821E+03  0.11910888674E+04  0.68997368764E+03 0.  0.
        2    1    3    3  502    0 -0.12269978530E+03 -0.18271267937E+03 -0.94405433748E+03  0.96936977085E+03  0.25500000920E-02 0.  1.
       -2    1    3    3    0  502  0.12269978530E+03  0.18271267937E+03 -0.26836490732E+02  0.22171909651E+03  0.25500000920E-02 0. -1.
</event>
<event>
 5   0  0.2934483E-03  0.7004275E+03  0.7818609E-02  0.9716501E-01
        1   -1    0    0  501    0  0.00000000000E+00  0.00000000000E+00  0.43502833231E+03  0.43502833234E+03  0.50400001928E-02 0.  1.
       -1   -1    0    0    0  501  0.00000000000E+00  0.00000000000E+00 -0.28193489034E+03  0.28193489038E+03  0.50400001928E-02 0. -1.
    10030    2    1    2    0    0  0.00000000000E+00  0.00000000000E+00  0.15309344198E+03  0.71696322272E+03  0.70042748430E+03 0.  0.
        5    1    3    3  502    0  0.18344014276E+03 -0.31115511722E+02  0.38021366882E+03  0.42332373545E+03  0.46999998093E+01 0.  1.
       -5    1    3    3    0  502 -0.18344014276E+03  0.31115511722E+02 -0.22712022684E+03  0.29363948727E+03  0.46999998093E+01 0. -1.
</event>
<event>
 5   0  0.1981750E-03  0.6996397E+03  0.7818609E-02  0.9717848E-01
        3   -1    0    0  501    0  0.00000000000E+00  0.00000000000E+00  0.55603143283E+03  0.55603144200E+03  0.10100000352E+00 0.  1.
       -3   -1    0    0    0  501  0.00000000000E+00  0.00000000000E+00 -0.22008455628E+03  0.22008457945E+03  0.10100000352E+00 0. -1.
    10030    2    1    2    0    0  0.00000000000E+00  0.00000000000E+00  0.33594687655E+03  0.77611602145E+03  0.69963974650E+03 0.  0.
        5    1    3    3  502    0 -0.17718138366E+03 -0.20168113965E+03  0.41672406624E+03  0.49573134074E+03  0.46999998093E+01 0.  1.
       -5    1    3    3    0  502  0.17718138366E+03  0.20168113965E+03 -0.80777189695E+02  0.28038468071E+03  0.46999998093E+01 0. -1.
</event>
<event>
 5   0  0.2934483E-03  0.7003467E+03  0.7818609E-02  0.9716640E-01
       -1   -1    0    0    0  501  0.00000000000E+00  0.00000000000E+00  0.12295459767E+03  0.12295459778E+03  0.50400001928E-02 0.  1.
        1   -1    0    0  501    0  0.00000000000E+00  0.00000000000E+00 -0.99728976891E+03  0.99728976893E+03  0.50400001928E-02 0. -1.
    10030    2    1    2    0    0  0.00000000000E+00  0.00000000000E+00 -0.87433517124E+03  0.11202443667E+04  0.70034666378E+03 0.  0.
        5    1    3    3  502    0 -0.24967367283E+03  0.86762725070E+02 -0.80448994380E+03  0.84681218286E+03  0.46999998093E+01 0. -1.
       -5    1    3    3    0  502  0.24967367283E+03 -0.86762725070E+02 -0.69845227442E+02  0.27343218384E+03  0.46999998093E+01 0.  1.
</event>
<event>
 5   0  0.3013140E-03  0.7010232E+03  0.7818609E-02  0.9715484E-01
        1   -1    0    0  501    0  0.00000000000E+00  0.00000000000E+00  0.13345465712E+04  0.13345465712E+04  0.50400001928E-02 0.  1.
       -1   -1    0    0    0  501  0.00000000000E+00  0.00000000000E+00 -0.92060013650E+02  0.92060013788E+02  0.50400001928E-02 0. -1.
    10030    2    1    2    0    0  0.00000000000E+00  0.00000000000E+00  0.12424865576E+04  0.14266065850E+04  0.70102318269E+03 0.  0.
        2    1    3    3  502    0  0.25290532726E+03  0.16919731370E+03  0.97530155912E+03  0.10216662698E+04  0.25500000920E-02 0.  1.
       -2    1    3    3    0  502 -0.25290532726E+03 -0.16919731370E+03  0.26718499843E+03  0.40494031524E+03  0.25500000920E-02 0. -1.
</event>
<event>
 5   0  0.2913582E-03  0.6980413E+03  0.7818609E-02  0.9720588E-01
        1   -1    0    0  501    0  0.00000000000E+00  0.00000000000E+00  0.15902742350E+04  0.15902742350E+04  0.50400001928E-02 0. -1.
       -1   -1    0    0    0  501  0.00000000000E+00  0.00000000000E+00 -0.76600248654E+02  0.76600248820E+02  0.50400001928E-02 0.  1.
    10030    2    1    2    0    0  0.00000000000E+00  0.00000000000E+00  0.15136739863E+04  0.16668744838E+04  0.69804126517E+03 0.  0.
        1    1    3    3  502    0 -0.29881950767E+03 -0.13133926281E+02  0.32734247330E+03  0.44341706444E+03  0.50400001928E-02 0.  1.
       -1    1    3    3    0  502  0.29881950767E+03  0.13133926281E+02  0.11863315130E+04  0.12234574193E+04  0.50400001928E-02 0. -1.
</event>
<event>
 5   0  0.5023894E-03  0.7000146E+03  0.7818609E-02  0.9717207E-01
        2   -1    0    0  501    0  0.00000000000E+00  0.00000000000E+00  0.12974468997E+04  0.12974468997E+04  0.25500000920E-02 0. -1.
       -2   -1    0    0    0  501  0.00000000000E+00  0.00000000000E+00 -0.94420122374E+02  0.94420122409E+02  0.25500000920E-02 0.  1.
    10030    2    1    2    0    0  0.00000000000E+00  0.00000000000E+00  0.12030267773E+04  0.13918670221E+04  0.70001455719E+03 0.  0.
        2    1    3    3  502    0 -0.12199855687E+03 -0.17878087118E+03  0.11484292689E+04  0.11686470953E+04  0.25500000920E-02 0. -1.
       -2    1    3    3    0  502  0.12199855687E+03  0.17878087118E+03  0.54597508436E+02  0.22321992678E+03  0.25500000920E-02 0.  1.
</event>
<event>
 5   0  0.2913582E-03  0.7000176E+03  0.7818609E-02  0.9717202E-01
        1   -1    0    0  501    0  0.00000000000E+00  0.00000000000E+00  0.47823823241E+03  0.47823823243E+03  0.50400001928E-02 0. -1.
       -1   -1    0    0    0  501  0.00000000000E+00  0.00000000000E+00 -0.25616137361E+03  0.25616137366E+03  0.50400001928E-02 0.  1.
    10030    2    1    2    0    0  0.00000000000E+00  0.00000000000E+00  0.22207685880E+03  0.73439960609E+03  0.70001760708E+03 0.  0.
        1    1    3    3  502    0  0.81927350733E+02  0.10843709509E+03 -0.22734897133E+03  0.26487402511E+03  0.50400001928E-02 0.  1.
       -1    1    3    3    0  502 -0.81927350733E+02 -0.10843709509E+03  0.44942583012E+03  0.46952558098E+03  0.50400001928E-02 0. -1.
</event>
<event>
 5   0  0.1981750E-03  0.7007407E+03  0.7818609E-02  0.9715966E-01
       -3   -1    0    0    0  501  0.00000000000E+00  0.00000000000E+00  0.62804677955E+03  0.62804678767E+03  0.10100000352E+00 0.  1.
        3   -1    0    0  501    0  0.00000000000E+00  0.00000000000E+00 -0.19546216326E+03  0.19546218936E+03  0.10100000352E+00 0. -1.
    10030    2    1    2    0    0  0.00000000000E+00  0.00000000000E+00  0.43258461628E+03  0.82350897703E+03  0.70074074022E+03 0.  0.
        1    1    3    3  502    0 -0.26294617888E+03 -0.59065942701E+02  0.47941570415E+03  0.54997172290E+03  0.50400001928E-02 0.  1.
       -1    1    3    3    0  502  0.26294617888E+03  0.59065942701E+02 -0.46831087872E+02  0.27353725412E+03  0.50400001928E-02 0. -1.
</event>
<event>
 5   0  0.5076796E-03  0.7033626E+03  0.7818609E-02  0.9711499E-01
       -2   -1    0    0    0  501  0.00000000000E+00  0.00000000000E+00  0.26840172261E+03  0.26840172263E+03  0.25500000920E-02 0.  1.
        2   -1    0    0  501    0  0.00000000000E+00  0.00000000000E+00 -0.46080080335E+03  0.46080080336E+03  0.25500000920E-02 0. -1.
    10030    2    1    2    0    0  0.00000000000E+00  0.00000000000E+00 -0.19239908074E+03  0.72920252599E+03  0.70336257907E+03 0.  0.
        5    1    3    3  502    0  0.12212583467E+02 -0.50112175991E+02 -0.45682524333E+03  0.45975185733E+03  0.46999998093E+01 0. -1.
       -5    1    3    3    0  502 -0.12212583467E+02  0.50112175991E+02  0.26442616259E+03  0.26945066866E+03  0.46999998093E+01 0.  1.
</event>
<event>
 5   0  0.2937617E-03  0.6995353E+03  0.7818609E-02  0.9718027E-01
       -1   -1    0    0    0  501  0.00000000000E+00  0.00000000000E+00  0.11283740900E+03  0.11283740912E+03  0.50400001928E-02 0. -1.
        1   -1    0    0  501    0  0.00000000000E+00  0.00000000000E+00 -0.10841918251E+04  0.10841918251E+04  0.50400001928E-02 0.  1.
    10030    2    1    2    0    0  0.00000000000E+00  0.00000000000E+00 -0.97135441611E+03  0.11970292342E+04  0.69953526425E+03 0.  0.
        3    1    3    3  502    0  0.10270617962E+03  0.11687735525E+02  0.86102624478E+02  0.13453190936E+03  0.10100000352E+00 0. -1.
       -3    1    3    3    0  502 -0.10270617962E+03 -0.11687735525E+02 -0.10574570406E+04  0.10624973249E+04  0.10100000352E+00 0.  1.
</event>
<event>
 5   0  0.2934483E-03  0.6996468E+03  0.7818609E-02  0.9717836E-01
        1   -1    0    0  501    0  0.00000000000E+00  0.00000000000E+00  0.69266167705E+03  0.69266167707E+03  0.50400001928E-02 0.  1.
       -1   -1    0    0    0  501  0.00000000000E+00  0.00000000000E+00 -0.17667558675E+03  0.17667558682E+03  0.50400001928E-02 0. -1.
    10030    2    1    2    0    0  0.00000000000E+00  0.00000000000E+00  0.51598609030E+03  0.86933726389E+03  0.69964679161E+03 0.  0.
        5    1    3    3  502    0 -0.27579929405E+02  0.24995613360E+03 -0.44113746697E+02  0.25535628810E+03  0.46999998093E+01 0. -1.
       -5    1    3    3    0  502  0.27579929405E+02 -0.24995613360E+03  0.56009983699E+03  0.61398097578E+03  0.46999998093E+01 0.  1.
</event>
<event>
 5   0  0.2934483E-03  0.6998055E+03  0.7818609E-02  0.9717565E-01
       -1   -1    0    0    0  501  0.00000000000E+00  0.00000000000E+00  0.34098790916E+03  0.34098790920E+03  0.50400001928E-02 0. -1.
        1   -1    0    0  501    0  0.00000000000E+00  0.00000000000E+00 -0.35905061229E+03  0.35905061233E+03  0.50400001928E-02 0.  1.
    10030    2    1    2    0    0  0.00000000000E+00  0.00000000000E+00 -0.18062703133E+02  0.70003852152E+03  0.69980545180E+03 0.  0.
        5    1    3    3  502    0  0.33316248308E+02  0.13873262135E+03  0.31053257588E+03  0.34177373116E+03  0.46999998093E+01 0. -1.
       -5    1    3    3    0  502 -0.33316248308E+02 -0.13873262135E+03 -0.32859527901E+03  0.35826479037E+03  0.46999998093E+01 0.  1.
</event>
<event>
 5   0  0.5023894E-03  0.6993778E+03  0.7818609E-02  0.9718297E-01
       -2   -1    0    0    0  501  0.00000000000E+00  0.00000000000E+00  0.10587825918E+03  0.10587825921E+03  0.25500000920E-02 0.  1.
        2   -1    0    0  501    0  0.00000000000E+00  0.00000000000E+00 -0.11549331819E+04  0.11549331819E+04  0.25500000920E-02 0. -1.
    10030    2    1    2    0    0  0.00000000000E+00  0.00000000000E+00 -0.10490549228E+04  0.12608114412E+04  0.69937776573E+03 0.  0.
        2    1    3    3  502    0 -0.81414278974E+02 -0.19319384089E+03 -0.10290758853E+04  0.10502139414E+04  0.25500000920E-02 0. -1.
       -2    1    3    3    0  502  0.81414278974E+02  0.19319384089E+03 -0.19979037493E+02  0.21059749980E+03  0.25500000920E-02 0.  1.
</event>
<event>
 5   0  0.2934483E-03  0.6998538E+03  0.7818609E-02  0.9717482E-01
        1   -1    0    0  501    0  0.00000000000E+00  0.00000000000E+00  0.66402962522E+03  0.66402962524E+03  0.50400001928E-02 0.  1.
       -1   -1    0    0    0  501  0.00000000000E+00  0.00000000000E+00 -0.18440267700E+03  0.18440267707E+03  0.50400001928E-02 0. -1.
    10030    2    1    2    0    0  0.00000000000E+00  0.00000000000E+00  0.47962694822E+03  0.84843230231E+03  0.69985381484E+03 0.  0.
        5    1    3    3  502    0 -0.21809593704E+03  0.12929154561E+03  0.53213755176E+03  0.58946976641E+03  0.46999998093E+01 0.  1.
       -5    1    3    3    0  502  0.21809593704E+03 -0.12929154561E+03 -0.52510603535E+02  0.25896253591E+03  0.46999998093E+01 0. -1.
</event>
<event>
 5   0  0.2913582E-03  0.6981094E+03  0.7818609E-02  0.9720471E-01
       -1   -1    0    0    0  501  0.00000000000E+00  0.00000000000E+00  0.19884574554E+03  0.19884574560E+03  0.50400001928E-02 0.  1.
        1   -1    0    0  501    0  0.00000000000E+00  0.00000000000E+00 -0.61273213624E+03  0.61273213626E+03  0.50400001928E-02 0. -1.
    10030    2    1    2    0    0  0.00000000000E+00  0.00000000000E+00 -0.41388639070E+03  0.81157788187E+03  0.69810938536E+03 0.  0.
        1    1    3    3  502    0  0.43837817615E+02 -0.25091749896E+03  0.70505990371E+02  0.26429612226E+03  0.50400001928E-02 0.  1.
       -1    1    3    3    0  502 -0.43837817615E+02  0.25091749896E+03 -0.48439238107E+03  0.54728175961E+03  0.50400001928E-02 0. -1.
</event>
<event>
 5   0  0.5023894E-03  0.6995042E+03  0.7818609E-02  0.9718080E-01
        2   -1    0    0  501    0  0.00000000000E+00  0.00000000000E+00  0.67768782334E+03  0.67768782334E+03  0.25500000920E-02 0.  1.
       -2   -1    0    0    0  501  0.00000000000E+00  0.00000000000E+00 -0.18050574946E+03  0.18050574948E+03  0.25500000920E-02 0. -1.
    10030    2    1    2    0    0  0.00000000000E+00  0.00000000000E+00  0.49718207388E+03  0.85819357282E+03  0.69950424862E+03 0.  0.
        2    1    3    3  502    0  0.18545374354E+03  0.22946524214E+03  0.18153078081E+02  0.29559587716E+03  0.25500000920E-02 0. -1.
       -2    1    3    3    0  502 -0.18545374354E+03 -0.22946524214E+03  0.47902899580E+03  0.56259769566E+03  0.25500000920E-02 0.  1.
</event>
<event>
 5   0  0.1981750E-03  0.6972729E+03  0.7818609E-02  0.9721907E-01
        4   -1    0    0  501    0  0.00000000000E+00  0.00000000000E+00  0.11558312790E+03  0.11559010491E+03  0.12699999809E+01 0.  1.
       -4   -1    0    0    0  501  0.00000000000E+00  0.00000000000E+00 -0.10515624041E+04  0.10515631710E+04  0.12699999809E+01 0. -1.
    10030    2    1    2    0    0  0.00000000000E+00  0.00000000000E+00 -0.93597927622E+03  0.11671532759E+04  0.69727294800E+03 0.  0.
        5    1    3    3  502    0  0.14953336554E+03  0.31368608639E+03 -0.51432061279E+03  0.62073099725E+03  0.46999998093E+01 0.  1.
       -5    1    3    3    0  502 -0.14953336554E+03 -0.31368608639E+03 -0.42165866343E+03  0.54642227869E+03  0.46999998093E+01 0. -1.
</event>
<event>
 5   0  0.3013140E-03  0.6975336E+03  0.7818609E-02  0.9721459E-01
       -1   -1    0    0    0  501  0.00000000000E+00  0.00000000000E+00  0.88535945891E+02  0.88535946035E+02  0.50400001928E-02 0. -1.
        1   -1    0    0  501    0  0.00000000000E+00  0.00000000000E+00 -0.13738857830E+04  0.13738857830E+04  0.50400001928E-02 0.  1.
    10030    2    1    2    0    0  0.00000000000E+00  0.00000000000E+00 -0.12853498371E+04  0.14624217291E+04  0.69753359047E+03 0.  0.
        2    1    3    3  502    0  0.10409944215E+03  0.20319772284E+03 -0.11954369923E+04  0.12170437999E+04  0.25500000920E-02 0.  1.
       -2    1    3    3    0  502 -0.10409944215E+03 -0.20319772284E+03 -0.89912844820E+02  0.24537792911E+03  0.25500000920E-02 0. -1.
</event>
<event>
 5   0  0.2938783E-03  0.6999918E+03  0.7818609E-02  0.9717246E-01
       -1   -1    0    0    0  501  0.00000000000E+00  0.00000000000E+00  0.28191636170E+03  0.28191636175E+03  0.50400001928E-02 0. -1.
        1   -1    0    0  501    0  0.00000000000E+00  0.00000000000E+00 -0.43451585552E+03  0.43451585555E+03  0.50400001928E-02 0.  1.
    10030    2    1    2    0    0  0.00000000000E+00  0.00000000000E+00 -0.15259949382E+03  0.71643221730E+03  0.69999179743E+03 0.  0.
        4    1    3    3  502    0  0.27751743270E+03  0.15940495546E+03  0.68694932513E+02  0.32733235698E+03  0.12699999809E+01 0.  1.
       -4    1    3    3    0  502 -0.27751743270E+03 -0.15940495546E+03 -0.22129442633E+03  0.38909986032E+03  0.12699999809E+01 0. -1.
</event>
<event>
 5   0  0.2938783E-03  0.6983872E+03  0.7818609E-02  0.9719994E-01
       -1   -1    0    0    0  501  0.00000000000E+00  0.00000000000E+00  0.97107990644E+02  0.97107990774E+02  0.50400001928E-02 0.  1.
        1   -1    0    0  501    0  0.00000000000E+00  0.00000000000E+00 -0.12556760952E+04  0.12556760952E+04  0.50400001928E-02 0. -1.
    10030    2    1    2    0    0  0.00000000000E+00  0.00000000000E+00 -0.11585681045E+04  0.13527840859E+04  0.69838723527E+03 0.  0.
        4    1    3    3  502    0  0.17279723998E+03  0.29243866606E+03 -0.73611393382E+03  0.81070623288E+03  0.12699999809E+01 0. -1.
       -4    1    3    3    0  502 -0.17279723998E+03 -0.29243866606E+03 -0.42245417070E+03  0.54207785307E+03  0.12699999809E+01 0.  1.
</event>
<event>
 5   0  0.2934483E-03  0.6997297E+03  0.7818609E-02  0.9717695E-01
        1   -1    0    0  501    0  0.00000000000E+00  0.00000000000E+00  0.57027862674E+03  0.57027862676E+03  0.50400001928E-02 0. -1.
       -1   -1    0    0    0  501  0.00000000000E+00  0.00000000000E+00 -0.21464140330E+03  0.21464140336E+03  0.50400001928E-02 0.  1.
    10030    2    1    2    0    0  0.00000000000E+00  0.00000000000E+00  0.35563722344E+03  0.78492003012E+03  0.69972967565E+03 0.  0.
        5    1    3    3  502    0  0.46057839324E+02 -0.23177935285E+03 -0.11154076973E+03  0.26135498136E+03  0.46999998093E+01 0.  1.
       -5    1    3    3    0  502 -0.46057839324E+02  0.23177935285E+03  0.46717799317E+03  0.52356504875E+03  0.46999998093E+01 0. -1.
</event>
<event>
 5   0  0.2937617E-03  0.6997689E+03  0.7818609E-02  0.9717627E-01
       -1   -1    0    0    0  501  0.00000000000E+00  0.00000000000E+00  0.44921544847E+03  0.44921544850E+03  0.50400001928E-02 0. -1.
        1   -1    0    0  501    0  0.00000000000E+00  0.00000000000E+00 -0.27251762424E+03  0.27251762429E+03  0.50400001928E-02 0.  1.
    10030    2    1    2    0    0  0.00000000000E+00  0.00000000000E+00  0.17669782422E+03  0.72173307279E+03  0.69976889561E+03 0.  0.
        3    1    3    3  502    0 -0.12583935694E+03  0.15970512470E+03  0.38202803448E+03  0.43276633412E+03  0.10100000352E+00 0. -1.
       -3    1    3    3    0  502  0.12583935694E+03 -0.15970512470E+03 -0.20533021026E+03  0.28896673867E+03  0.10100000352E+00 0.  1.
</event>
<event>
 5   0  0.5076796E-03  0.6998949E+03  0.7818609E-02  0.9717412E-01
        2   -1    0    0  501    0  0.00000000000E+00  0.00000000000E+00  0.11037035032E+04  0.11037035032E+04  0.25500000920E-02 0. -1.
       -2   -1    0    0    0  501  0.00000000000E+00  0.00000000000E+00 -0.11095663015E+03  0.11095663017E+03  0.25500000920E-02 0.  1.
    10030    2    1    2    0    0  0.00000000000E+00  0.00000000000E+00  0.99274687301E+03  0.12146601333E+04  0.69989491043E+03 0.  0.
        5    1    3    3  502    0  0.15693075415E+03  0.27132855283E+03  0.76632257102E+03  0.82796063798E+03  0.46999998093E+01 0. -1.
       -5    1    3    3    0  502 -0.15693075415E+03 -0.27132855283E+03  0.22642430199E+03  0.38669949536E+03  0.46999998093E+01 0.  1.
</event>
<event>
 5   0  0.2934483E-03  0.7000239E+03  0.7818609E-02  0.9717191E-01
       -1   -1    0    0    0  501  0.00000000000E+00  0.00000000000E+00  0.12454530443E+03  0.12454530453E+03  0.50400001928E-02 0. -1.
        1   -1    0    0  501    0  0.00000000000E+00  0.00000000000E+00 -0.98364488722E+03  0.98364488723E+03  0.50400001928E-02 0.  1.
    10030    2    1    2    0    0  0.00000000000E+00  0.00000000000E+00 -0.85909958279E+03  0.11081901918E+04  0.70002386243E+03 0.  0.
        5    1    3    3  502    0 -0.29021192979E+03  0.76211894632E+02 -0.14435435959E+03  0.33300373602E+03  0.46999998093E+01 0. -1.
       -5    1    3    3    0  502  0.29021192979E+03 -0.76211894632E+02 -0.71474522320E+03  0.77518645574E+03  0.46999998093E+01 0.  1.
</event>
<event>
 5   0  0.5072407E-03  0.6997205E+03  0.7818609E-02  0.9717710E-01
        2   -1    0    0  501    0  0.00000000000E+00  0.00000000000E+00  0.15763421193E+03  0.15763421195E+03  0.25500000920E-02 0.  1.
       -2   -1    0    0    0  501  0.00000000000E+00  0.00000000000E+00 -0.77649502280E+03  0.77649502280E+03  0.25500000920E-02 0. -1.
    10030    2    1    2    0    0  0.00000000000E+00  0.00000000000E+00 -0.61886081087E+03  0.93412923475E+03  0.69972046131E+03 0.  0.
        1    1    3    3  502    0 -0.82348332602E+02 -0.33922423123E+03 -0.34067787275E+03  0.48776607092E+03  0.50400001928E-02 0. -1.
       -1    1    3    3    0  502  0.82348332602E+02  0.33922423123E+03 -0.27818293812E+03  0.44636316383E+03  0.50400001928E-02 0.  1.
</event>
<event>
 5   0  0.2937617E-03  0.7002284E+03  0.7818609E-02  0.9716842E-01
        1   -1    0    0  501    0  0.00000000000E+00  0.00000000000E+00  0.23312076282E+03  0.23312076288E+03  0.50400001928E-02 0. -1.
       -1   -1    0    0    0  501  0.00000000000E+00  0.00000000000E+00 -0.52582162717E+03  0.52582162719E+03  0.50400001928E-02 0.  1.
    10030    2    1    2    0    0  0.00000000000E+00  0.00000000000E+00 -0.29270086434E+03  0.75894239007E+03  0.70022835950E+03 0.  0.
        3    1    3    3  502    0 -0.27897301840E+03 -0.44555703648E+02  0.77796350700E+02  0.29302463737E+03  0.10100000352E+00 0. -1.
       -3    1    3    3    0  502  0.27897301840E+03  0.44555703648E+02 -0.37049721504E+03  0.46591775270E+03  0.10100000352E+00 0.  1.
</event>
<event>
 5   0  0.3013140E-03  0.7000557E+03  0.7818609E-02  0.9717137E-01
       -1   -1    0    0    0  501  0.00000000000E+00  0.00000000000E+00  0.63778016048E+02  0.63778016247E+02  0.50400001928E-02 0.  1.
        1   -1    0    0  501    0  0.00000000000E+00  0.00000000000E+00 -0.19210302774E+04  0.19210302774E+04  0.50400001928E-02 0. -1.
    10030    2    1    2    0    0  0.00000000000E+00  0.00000000000E+00 -0.18572522613E+04  0.19848082936E+04  0.70005571225E+03 0.  0.
        2    1    3    3  502    0  0.13615984796E+03 -0.16066645614E+03 -0.17213021144E+04  0.17341378790E+04  0.25500000920E-02 0. -1.
       -2    1    3    3    0  502 -0.13615984796E+03  0.16066645614E+03 -0.13595014698E+03  0.25067041468E+03  0.25500000920E-02 0.  1.
</event>
<event>
 5   0  0.1981750E-03  0.6999962E+03  0.7818609E-02  0.9717239E-01
        3   -1    0    0  501    0  0.00000000000E+00  0.00000000000E+00  0.22783933043E+03  0.22783935282E+03  0.10100000352E+00 0. -1.
       -3   -1    0    0    0  501  0.00000000000E+00  0.00000000000E+00 -0.53765363551E+03  0.53765364500E+03  0.10100000352E+00 0.  1.
    10030    2    1    2    0    0  0.00000000000E+00  0.00000000000E+00 -0.30981430508E+03  0.76549299781E+03  0.69999616147E+03 0.  0.
        4    1    3    3  502    0  0.26231320026E+03  0.20573563522E+03 -0.27147178081E+03  0.42992314116E+03  0.12699999809E+01 0. -1.
       -4    1    3    3    0  502 -0.26231320026E+03 -0.20573563522E+03 -0.38342524272E+02  0.33556985665E+03  0.12699999809E+01 0.  1.
</event>
<event>
 5   0  0.5072407E-03  0.7005340E+03  0.7818609E-02  0.9716319E-01
       -2   -1    0    0    0  501  0.00000000000E+00  0.00000000000E+00  0.13932224679E+03  0.13932224681E+03  0.25500000920E-02 0. -1.
        2   -1    0    0  501    0  0.00000000000E+00  0.00000000000E+00 -0.88059868557E+03  0.88059868557E+03  0.25500000920E-02 0.  1.
    10030    2    1    2    0    0  0.00000000000E+00  0.00000000000E+00 -0.74127643878E+03  0.10199209324E+04  0.70053404601E+03 0.  0.
        1    1    3    3  502    0 -0.12978186915E+03 -0.29889830637E+03 -0.55767400647E+03  0.64589769208E+03  0.50400001928E-02 0.  1.
       -1    1    3    3    0  502  0.12978186915E+03  0.29889830637E+03 -0.18360243231E+03  0.37402324030E+03  0.50400001928E-02 0. -1.
</event>
<event>
 5   0  0.5113683E-03  0.6868575E+03  0.7818609E-02  0.9739975E-01
        2   -1    0    0  501    0  0.00000000000E+00  0.00000000000E+00  0.93673959207E+03  0.93673959207E+03  0.25500000920E-02 0.  1.
       -2   -1    0    0    0  501  0.00000000000E+00  0.00000000000E+00 -0.12590831886E+03  0.12590831889E+03  0.25500000920E-02 0. -1.
    10030    2    1    2    0    0  0.00000000000E+00  0.00000000000E+00  0.81083127321E+03  0.10626479110E+04  0.68685750272E+03 0.  0.
        3    1    3    3  502    0  0.24133645577E+03 -0.23856073314E+03  0.32371403734E+03  0.46898325818E+03  0.10100000352E+00 0. -1.
       -3    1    3    3    0  502 -0.24133645577E+03  0.23856073314E+03  0.48711723587E+03  0.59366465278E+03  0.10100000352E+00 0.  1.
</event>
<event>
 5   0  0.5072407E-03  0.6998306E+03  0.7818609E-02  0.9717522E-01
       -2   -1    0    0    0  501  0.00000000000E+00  0.00000000000E+00  0.31615901663E+03  0.31615901664E+03  0.25500000920E-02 0.  1.
        2   -1    0    0  501    0  0.00000000000E+00  0.00000000000E+00 -0.38727570217E+03  0.38727570218E+03  0.25500000920E-02 0. -1.
    10030    2    1    2    0    0  0.00000000000E+00  0.00000000000E+00 -0.71116685535E+02  0.70343471882E+03  0.69983056570E+03 0.  0.
        1    1    3    3  502    0  0.14782684485E+03 -0.20642016612E+03  0.20646927169E+03  0.32724856183E+03  0.50400001928E-02 0.  1.
       -1    1    3    3    0  502 -0.14782684485E+03  0.20642016612E+03 -0.27758595723E+03  0.37618615699E+03  0.50400001928E-02 0. -1.
</event>
<event>
 5   0  0.5113683E-03  0.6979859E+03  0.7818609E-02  0.9720683E-01
        2   -1    0    0  501    0  0.00000000000E+00  0.00000000000E+00  0.44388830013E+03  0.44388830014E+03  0.25500000920E-02 0.  1.
       -2   -1    0    0    0  501  0.00000000000E+00  0.00000000000E+00 -0.27438451605E+03  0.27438451606E+03  0.25500000920E-02 0. -1.
    10030    2    1    2    0    0  0.00000000000E+00  0.00000000000E+00  0.16950378408E+03  0.71827281620E+03  0.69798589217E+03 0.  0.
        3    1    3    3  502    0 -0.24211669179E+03 -0.19556180483E+02 -0.17311693811E+03  0.29828245188E+03  0.10100000352E+00 0. -1.
       -3    1    3    3    0  502  0.24211669179E+03  0.19556180483E+02  0.34262072219E+03  0.41999036432E+03  0.10100000352E+00 0.  1.
</event>
<event>
 5   0  0.5023894E-03  0.6962317E+03  0.7818609E-02  0.9723698E-01
       -2   -1    0    0    0  501  0.00000000000E+00  0.00000000000E+00  0.39472808874E+03  0.39472808875E+03  0.25500000920E-02 0. -1.
        2   -1    0    0  501    0  0.00000000000E+00  0.00000000000E+00 -0.30700787541E+03  0.30700787542E+03  0.25500000920E-02 0.  1.
    10030    2    1    2    0    0  0.00000000000E+00  0.00000000000E+00  0.87720213330E+02  0.70173596417E+03  0.69623166229E+03 0.  0.
        2    1    3    3  502    0  0.31156413961E+03 -0.13157942744E+03 -0.39249496163E+02  0.34047890063E+03  0.25500000920E-02 0. -1.
       -2    1    3    3    0  502 -0.31156413961E+03  0.13157942744E+03  0.12696970949E+03  0.36125706354E+03  0.25500000920E-02 0.  1.
</event>
<event>
 5   0  0.5072407E-03  0.7019775E+03  0.7818609E-02  0.9713856E-01
       -2   -1    0    0    0  501  0.00000000000E+00  0.00000000000E+00  0.38757592686E+03  0.38757592687E+03  0.25500000920E-02 0.  1.
        2   -1    0    0  501    0  0.00000000000E+00  0.00000000000E+00 -0.31785540730E+03  0.31785540731E+03  0.25500000920E-02 0. -1.
    10030    2    1    2    0    0  0.00000000000E+00  0.00000000000E+00  0.69720519561E+02  0.70543133417E+03  0.70197750419E+03 0.  0.
        1    1    3    3  502    0  0.31157653104E+03  0.16039818083E+03  0.15127124158E+02  0.35076536462E+03  0.50400001928E-02 0. -1.
       -1    1    3    3    0  502 -0.31157653104E+03 -0.16039818083E+03  0.54593395403E+02  0.35466596955E+03  0.50400001928E-02 0.  1.
</event>
<event>
 5   0  0.2934483E-03  0.6998960E+03  0.7818609E-02  0.9717410E-01
        1   -1    0    0  501    0  0.00000000000E+00  0.00000000000E+00  0.63388689020E+03  0.63388689022E+03  0.50400001928E-02 0. -1.
       -1   -1    0    0    0  501  0.00000000000E+00  0.00000000000E+00 -0.19319472416E+03  0.19319472423E+03  0.50400001928E-02 0.  1.
    10030    2    1    2    0    0  0.00000000000E+00  0.00000000000E+00  0.44069216603E+03  0.82708161444E+03  0.69989600066E+03 0.  0.
        5    1    3    3  502    0  0.19432431257E+03  0.15565480379E+03  0.51089359576E+03  0.56835263050E+03  0.46999998093E+01 0. -1.
       -5    1    3    3    0  502 -0.19432431257E+03 -0.15565480379E+03 -0.70201429728E+02  0.25872898395E+03  0.46999998093E+01 0.  1.
</event>
<event>
 5   0  0.2937617E-03  0.6991648E+03  0.7818609E-02  0.9718662E-01
        1   -1    0    0  501    0  0.00000000000E+00  0.00000000000E+00  0.35906538523E+03  0.35906538526E+03  0.50400001928E-02 0. -1.
       -1   -1    0    0    0  501  0.00000000000E+00  0.00000000000E+00 -0.34034982973E+03  0.34034982977E+03  0.50400001928E-02 0.  1.
    10030    2    1    2    0    0  0.00000000000E+00  0.00000000000E+00  0.18715555497E+02  0.69941521503E+03  0.69916476670E+03 0.  0.
        3    1    3    3  502    0 -0.51969080481E+02 -0.19399233889E+03  0.29559664039E+03  0.35736703385E+03  0.10100000352E+00 0. -1.
       -3    1    3    3    0  502  0.51969080481E+02  0.19399233889E+03 -0.27688108489E+03  0.34204818118E+03  0.10100000352E+00 0.  1.
</event>
<event>
 5   0  0.5023894E-03  0.7005140E+03  0.7818609E-02  0.9716354E-01
        2   -1    0    0  501    0  0.00000000000E+00  0.00000000000E+00  0.72859904005E+03  0.72859904006E+03  0.25500000920E-02 0.  1.
       -2   -1    0    0    0  501  0.00000000000E+00  0.00000000000E+00 -0.16837787364E+03  0.16837787366E+03  0.25500000920E-02 0. -1.
    10030    2    1    2    0    0  0.00000000000E+00  0.00000000000E+00  0.56022116642E+03  0.89697691371E+03  0.70051397447E+03 0.  0.
        2    1    3    3  502    0 -0.14366011422E+03 -0.20535250254E+03  0.59342229484E+03  0.64417225859E+03  0.25500000920E-02 0.  1.
       -2    1    3    3    0  502  0.14366011422E+03  0.20535250254E+03 -0.33201128424E+02  0.25280465512E+03  0.25500000920E-02 0. -1.
</event>
<event>
 5   0  0.2937617E-03  0.6983797E+03  0.7818609E-02  0.9720007E-01
       -1   -1    0    0    0  501  0.00000000000E+00  0.00000000000E+00  0.36058966356E+03  0.36058966360E+03  0.50400001928E-02 0. -1.
        1   -1    0    0  501    0  0.00000000000E+00  0.00000000000E+00 -0.33815042388E+03  0.33815042392E+03  0.50400001928E-02 0.  1.
    10030    2    1    2    0    0  0.00000000000E+00  0.00000000000E+00  0.22439239678E+02  0.69874008752E+03  0.69837968930E+03 0.  0.
        3    1    3    3  502    0 -0.14630200733E+03 -0.24044305711E+03  0.21800572972E+03  0.35601074345E+03  0.10100000352E+00 0. -1.
       -3    1    3    3    0  502  0.14630200733E+03  0.24044305711E+03 -0.19556649004E+03  0.34272934407E+03  0.10100000352E+00 0.  1.
</event>
<event>
 5   0  0.2937617E-03  0.7023885E+03  0.7818609E-02  0.9713156E-01
       -1   -1    0    0    0  501  0.00000000000E+00  0.00000000000E+00  0.30129657852E+03  0.30129657856E+03  0.50400001928E-02 0.  1.
        1   -1    0    0  501    0  0.00000000000E+00  0.00000000000E+00 -0.40935548575E+03  0.40935548578E+03  0.50400001928E-02 0. -1.
    10030    2    1    2    0    0  0.00000000000E+00  0.00000000000E+00 -0.10805890722E+03  0.71065206434E+03  0.70238851722E+03 0.  0.
        3    1    3    3  502    0 -0.25159943184E+03 -0.85401231371E+02  0.17832815481E+03  0.31999466467E+03  0.10100000352E+00 0.  1.
       -3    1    3    3    0  502  0.25159943184E+03  0.85401231371E+02 -0.28638706203E+03  0.39065739967E+03  0.10100000352E+00 0. -1.
</event>
<event>
 5   0  0.1981750E-03  0.7019286E+03  0.7818609E-02  0.9713940E-01
       -4   -1    0    0    0  501  0.00000000000E+00  0.00000000000E+00  0.30864644187E+03  0.30864905472E+03  0.12699999809E+01 0.  1.
        4   -1    0    0  501    0  0.00000000000E+00  0.00000000000E+00 -0.39907896500E+03  0.39908098578E+03  0.12699999809E+01 0. -1.
    10030    2    1    2    0    0  0.00000000000E+00  0.00000000000E+00 -0.90432523132E+02  0.70773004050E+03  0.70192860676E+03 0.  0.
        2    1    3    3  502    0  0.16993128335E+03  0.17954111198E+03  0.20596982787E+03  0.32176889525E+03  0.25500000920E-02 0.  1.
       -2    1    3    3    0  502 -0.16993128335E+03 -0.17954111198E+03 -0.29640235100E+03  0.38596114525E+03  0.25500000920E-02 0. -1.
</event>
<event>
 5   0  0.5113683E-03  0.7021439E+03  0.7818609E-02  0.9713573E-01
       -2   -1    0    0    0  501  0.00000000000E+00  0.00000000000E+00  0.28046442835E+03  0.28046442836E+03  0.25500000920E-02 0. -1.
        2   -1    0    0  501    0  0.00000000000E+00  0.00000000000E+00 -0.43945501140E+03  0.43945501141E+03  0.25500000920E-02 0.  1.
    10030    2    1    2    0    0  0.00000000000E+00  0.00000000000E+00 -0.15899058305E+03  0.71991943977E+03  0.70214385581E+03 0.  0.
        3    1    3    3  502    0 -0.28280187384E+02  0.13791588356E+03 -0.40924393113E+03  0.43278304646E+03  0.10100000352E+00 0.  1.
       -3    1    3    3    0  502  0.28280187384E+02 -0.13791588356E+03  0.25025334808E+03  0.28713639331E+03  0.10100000352E+00 0. -1.
</event>
<event>
 5   0  0.2934483E-03  0.7002149E+03  0.7818609E-02  0.9716865E-01
       -1   -1    0    0    0  501  0.00000000000E+00  0.00000000000E+00  0.95076294952E+02  0.95076295086E+02  0.50400001928E-02 0.  1.
        1   -1    0    0  501    0  0.00000000000E+00  0.00000000000E+00 -0.12892302715E+04  0.12892302715E+04  0.50400001928E-02 0. -1.
    10030    2    1    2    0    0  0.00000000000E+00  0.00000000000E+00 -0.11941539766E+04  0.13843065666E+04  0.70021493173E+03 0.  0.
        5    1    3    3  502    0 -0.33108114955E+03 -0.43424226309E+02 -0.38923359926E+03  0.51285989881E+03  0.46999998093E+01 0.  1.
       -5    1    3    3    0  502  0.33108114955E+03  0.43424226309E+02 -0.80492037731E+03  0.87144666780E+03  0.46999998093E+01 0. -1.
</event>
<event>
 5   0  0.5023894E-03  0.7002596E+03  0.7818609E-02  0.9716788E-01
       -2   -1    0    0    0  501  0.00000000000E+00  0.00000000000E+00  0.31263688390E+03  0.31263688391E+03  0.25500000920E-02 0. -1.
        2   -1    0    0  501    0  0.00000000000E+00  0.00000000000E+00 -0.39211904973E+03  0.39211904974E+03  0.25500000920E-02 0.  1.
    10030    2    1    2    0    0  0.00000000000E+00  0.00000000000E+00 -0.79482165835E+02  0.70475593365E+03  0.70025960281E+03 0.  0.
        2    1    3    3  502    0  0.29461275268E+03 -0.13718275995E+03 -0.17086616223E+03  0.36716621450E+03  0.25500000920E-02 0.  1.
       -2    1    3    3    0  502 -0.29461275268E+03  0.13718275995E+03  0.91383996395E+02  0.33758971915E+03  0.25500000920E-02 0. -1.
</event>
<event>
 5   0  0.2913582E-03  0.7002673E+03  0.7818609E-02  0.9716775E-01
       -1   -1    0    0    0  501  0.00000000000E+00  0.00000000000E+00  0.51541196585E+03  0.51541196587E+03  0.50400001928E-02 0.  1.
        1   -1    0    0  501    0  0.00000000000E+00  0.00000000000E+00 -0.23785548703E+03  0.23785548709E+03  0.50400001928E-02 0. -1.
    10030    2    1    2    0    0  0.00000000000E+00  0.00000000000E+00  0.27755647881E+03  0.75326745296E+03  0.70026727523E+03 0.  0.
        1    1    3    3  502    0 -0.18751771135E+03  0.18634490043E+03 -0.10817596875E+03  0.28563850270E+03  0.50400001928E-02 0. -1.
       -1    1    3    3    0  502  0.18751771135E+03 -0.18634490043E+03  0.38573244756E+03  0.46762895025E+03  0.50400001928E-02 0.  1.
</event>
<event>
 5   0  0.2934483E-03  0.6995077E+03  0.7818609E-02  0.9718074E-01
        1   -1    0    0  501    0  0.00000000000E+00  0.00000000000E+00  0.53004562078E+03  0.53004562081E+03  0.50400001928E-02 0. -1.
       -1   -1    0    0    0  501  0.00000000000E+00  0.00000000000E+00 -0.23078723283E+03  0.23078723289E+03  0.50400001928E-02 0.  1.
    10030    2    1    2    0    0  0.00000000000E+00  0.00000000000E+00  0.29925838795E+03  0.76083285369E+03  0.69950771868E+03 0.  0.
        5    1    3    3  502    0 -0.34489785445E+02  0.23610910045E+03 -0.12845826475E+03  0.27103628612E+03  0.46999998093E+01 0.  1.
       -5    1    3    3    0  502  0.34489785445E+02 -0.23610910045E+03  0.42771665270E+03  0.48979656757E+03  0.46999998093E+01 0. -1.
</event>
<event>
 5   0  0.5113683E-03  0.7078928E+03  0.7818609E-02  0.9703829E-01
        2   -1    0    0  501    0  0.00000000000E+00  0.00000000000E+00  0.16723765296E+04  0.16723765296E+04  0.25500000920E-02 0. -1.
       -2   -1    0    0    0  501  0.00000000000E+00  0.00000000000E+00 -0.74910191825E+02  0.74910191868E+02  0.25500000920E-02 0.  1.
    10030    2    1    2    0    0  0.00000000000E+00  0.00000000000E+00  0.15974663378E+04  0.17472867215E+04  0.70789277911E+03 0.  0.
        3    1    3    3  502    0 -0.14972022565E+03 -0.24220293488E+03  0.27980648240E+03  0.39921183027E+03  0.10100000352E+00 0.  1.
       -3    1    3    3    0  502  0.14972022565E+03  0.24220293488E+03  0.13176598554E+04  0.13480748912E+04  0.10100000352E+00 0. -1.
</event>
<event>
 5   0  0.3013140E-03  0.6999562E+03  0.7818609E-02  0.9717307E-01
       -1   -1    0    0    0  501  0.00000000000E+00  0.00000000000E+00  0.11031466071E+03  0.11031466082E+03  0.50400001928E-02 0.  1.
        1   -1    0    0  501    0  0.00000000000E+00  0.00000000000E+00 -0.11103208371E+04  0.11103208371E+04  0.50400001928E-02 0. -1.
    10030    2    1    2    0    0  0.00000000000E+00  0.00000000000E+00 -0.10000061763E+04  0.12206354979E+04  0.69995618861E+03 0.  0.
        2    1    3    3  502    0  0.28970684663E+03 -0.17800511874E+03 -0.64453214514E+03  0.72872324336E+03  0.25500000920E-02 0. -1.
       -2    1    3    3    0  502 -0.28970684663E+03  0.17800511874E+03 -0.35547403121E+03  0.49191225453E+03  0.25500000920E-02 0.  1.
</event>
<event>
 5   0  0.2937617E-03  0.7003183E+03  0.7818609E-02  0.9716688E-01
        1   -1    0    0  501    0  0.00000000000E+00  0.00000000000E+00  0.18551843409E+04  0.18551843409E+04  0.50400001928E-02 0.  1.
       -1   -1    0    0    0  501  0.00000000000E+00  0.00000000000E+00 -0.66091237092E+02  0.66091237284E+02  0.50400001928E-02 0. -1.
    10030    2    1    2    0    0  0.00000000000E+00  0.00000000000E+00  0.17890931038E+04  0.19212755782E+04  0.70031829424E+03 0.  0.
        3    1    3    3  502    0  0.23160882118E+03 -0.50693909346E+02  0.16014736541E+04  0.16189287796E+04  0.10100000352E+00 0.  1.
       -3    1    3    3    0  502 -0.23160882118E+03  0.50693909346E+02  0.18761944968E+03  0.30234679854E+03  0.10100000352E+00 0. -1.
</event>
<event>
 5   0  0.2934483E-03  0.6982679E+03  0.7818609E-02  0.9720199E-01
        1   -1    0    0  501    0  0.00000000000E+00  0.00000000000E+00  0.56805930640E+03  0.56805930642E+03  0.50400001928E-02 0. -1.
       -1   -1    0    0    0  501  0.00000000000E+00  0.00000000000E+00 -0.21458061402E+03  0.21458061408E+03  0.50400001928E-02 0.  1.
    10030    2    1    2    0    0  0.00000000000E+00  0.00000000000E+00  0.35347869239E+03  0.78263992050E+03  0.69826789930E+03 0.  0.
        5    1    3    3  502    0 -0.15750836874E+03 -0.51340813117E+02 -0.16768158127E+03  0.23576252460E+03  0.46999998093E+01 0.  1.
       -5    1    3    3    0  502  0.15750836874E+03  0.51340813117E+02  0.52116027365E+03  0.54687739590E+03  0.46999998093E+01 0. -1.
</event>
<event>
 5   0  0.3013140E-03  0.6987391E+03  0.7818609E-02  0.9719391E-01
        1   -1    0    0  501    0  0.00000000000E+00  0.00000000000E+00  0.79549279582E+03  0.79549279584E+03  0.50400001928E-02 0.  1.
       -1   -1    0    0    0  501  0.00000000000E+00  0.00000000000E+00 -0.15343834180E+03  0.15343834188E+03  0.50400001928E-02 0. -1.
    10030    2    1    2    0    0  0.00000000000E+00  0.00000000000E+00  0.64205445402E+03  0.94893113772E+03  0.69873913744E+03 0.  0.
        2    1    3    3  502    0  0.24749015492E+02  0.29908461037E+03  0.78108759044E+02  0.31010497606E+03  0.25500000920E-02 0. -1.
       -2    1    3    3    0  502 -0.24749015492E+02 -0.29908461037E+03  0.56394569498E+03  0.63882616166E+03  0.25500000920E-02 0.  1.
</event>
<event>
 5   0  0.1981750E-03  0.7003790E+03  0.7818609E-02  0.9716584E-01
       -3   -1    0    0    0  501  0.00000000000E+00  0.00000000000E+00  0.22903161981E+03  0.22903164208E+03  0.10100000352E+00 0.  1.
        3   -1    0    0  501    0  0.00000000000E+00  0.00000000000E+00 -0.53543990691E+03  0.53543991643E+03  0.10100000352E+00 0. -1.
    10030    2    1    2    0    0  0.00000000000E+00  0.00000000000E+00 -0.30640828710E+03  0.76447155851E+03  0.70037898695E+03 0.  0.
        3    1    3    3  502    0  0.31899707860E+03  0.11301860329E+03 -0.25144216085E+03  0.42161061573E+03  0.10100000352E+00 0.  1.
       -3    1    3    3    0  502 -0.31899707860E+03 -0.11301860329E+03 -0.54966126254E+02  0.34286094278E+03  0.10100000352E+00 0. -1.
</event>
<event>
 5   0  0.4878235E-03  0.7003695E+03  0.7818609E-02  0.9716600E-01
        2   -1    0    0  501    0  0.00000000000E+00  0.00000000000E+00  0.70789260107E+03  0.70789260107E+03  0.25500000920E-02 0.  1.
       -2   -1    0    0    0  501  0.00000000000E+00  0.00000000000E+00 -0.17323160521E+03  0.17323160523E+03  0.25500000920E-02 0. -1.
    10030    2    1    2    0    0  0.00000000000E+00  0.00000000000E+00  0.53466099586E+03  0.88112420630E+03  0.70036953563E+03 0.  0.
        4    1    3    3  502    0 -0.32439760751E+03  0.12928130732E+03  0.30014443763E+03  0.46047340913E+03  0.12699999809E+01 0. -1.
       -4    1    3    3    0  502  0.32439760751E+03 -0.12928130732E+03  0.23451655823E+03  0.42065079717E+03  0.12699999809E+01 0.  1.
</event>
<event>
 5   0  0.2938783E-03  0.7014746E+03  0.7818609E-02  0.9714714E-01
        1   -1    0    0  501    0  0.00000000000E+00  0.00000000000E+00  0.11333295090E+04  0.11333295091E+04  0.50400001928E-02 0.  1.
       -1   -1    0    0    0  501  0.00000000000E+00  0.00000000000E+00 -0.10854448170E+03  0.10854448182E+03  0.50400001928E-02 0. -1.
    10030    2    1    2    0    0  0.00000000000E+00  0.00000000000E+00  0.10247850273E+04  0.12418739909E+04  0.70147463028E+03 0.  0.
        4    1    3    3  502    0  0.62156141976E+02  0.28136231819E+03  0.86640981906E+03  0.91306939908E+03  0.12699999809E+01 0.  1.
       -4    1    3    3    0  502 -0.62156141976E+02 -0.28136231819E+03  0.15837520829E+03  0.32880459179E+03  0.12699999809E+01 0. -1.
</event>
<event>
 5   0  0.2937617E-03  0.6998953E+03  0.7818609E-02  0.9717411E-01
       -1   -1    0    0    0  501  0.00000000000E+00  0.00000000000E+00  0.16350464271E+03  0.16350464279E+03  0.50400001928E-02 0.  1.
        1   -1    0    0  501    0  0.00000000000E+00  0.00000000000E+00 -0.74899008439E+03  0.74899008441E+03  0.50400001928E-02 0. -1.
    10030    2    1    2    0    0  0.00000000000E+00  0.00000000000E+00 -0.58548544168E+03  0.91249472720E+03  0.69989529556E+03 0.  0.
        3    1    3    3  502    0  0.23037549495E+02  0.34884790780E+03 -0.27263968324E+03  0.44334861964E+03  0.10100000352E+00 0.  1.
       -3    1    3    3    0  502 -0.23037549495E+02 -0.34884790780E+03 -0.31284575845E+03  0.46914610756E+03  0.10100000352E+00 0. -1.
</event>
<event>
 5   0  0.1981750E-03  0.7000843E+03  0.7818609E-02  0.9717088E-01
        4   -1    0    0  501    0  0.00000000000E+00  0.00000000000E+00  0.93666531632E+02  0.93675141035E+02  0.12699999809E+01 0. -1.
       -4   -1    0    0    0  501  0.00000000000E+00  0.00000000000E+00 -0.13080770439E+04  0.13080776604E+04  0.12699999809E+01 0.  1.
    10030    2    1    2    0    0  0.00000000000E+00  0.00000000000E+00 -0.12144105123E+04  0.14017528015E+04  0.70008429783E+03 0.  0.
        1    1    3    3  502    0  0.13491596395E+03 -0.15127220125E+02  0.38810381696E+02  0.14119984373E+03  0.50400001928E-02 0. -1.
       -1    1    3    3    0  502 -0.13491596395E+03  0.15127220125E+02 -0.12532208940E+04  0.12605529577E+04  0.50400001928E-02 0.  1.
</event>
<event>
 5   0  0.5072407E-03  0.7000831E+03  0.7818609E-02  0.9717090E-01
       -2   -1    0    0    0  501  0.00000000000E+00  0.00000000000E+00  0.92672423213E+02  0.92672423248E+02  0.25500000920E-02 0. -1.
        2   -1    0    0  501    0  0.00000000000E+00  0.00000000000E+00 -0.13221740781E+04  0.13221740781E+04  0.25500000920E-02 0.  1.
    10030    2    1    2    0    0  0.00000000000E+00  0.00000000000E+00 -0.12295016549E+04  0.14148465014E+04  0.70008306866E+03 0.  0.
        1    1    3    3  502    0  0.30001348043E+03 -0.17003387476E+03 -0.73616835700E+03  0.81293508774E+03  0.50400001928E-02 0.  1.
       -1    1    3    3    0  502 -0.30001348043E+03  0.17003387476E+03 -0.49333329790E+03  0.60191141363E+03  0.50400001928E-02 0. -1.
</event>
<event>
 5   0  0.5113683E-03  0.7006901E+03  0.7818609E-02  0.9716053E-01
       -2   -1    0    0    0  501  0.00000000000E+00  0.00000000000E+00  0.15539397695E+03  0.15539397697E+03  0.25500000920E-02 0.  1.
        2   -1    0    0  501    0  0.00000000000E+00  0.00000000000E+00 -0.78987386040E+03  0.78987386040E+03  0.25500000920E-02 0. -1.
    10030    2    1    2    0    0  0.00000000000E+00  0.00000000000E+00 -0.63447988344E+03  0.94526783738E+03  0.70069006121E+03 0.  0.
        3    1    3    3  502    0 -0.82107039040E+01  0.18603310869E+02  0.15459716800E+03  0.15592880872E+03  0.10100000352E+00 0.  1.
       -3    1    3    3    0  502  0.82107039040E+01 -0.18603310869E+02 -0.78907705145E+03  0.78933902865E+03  0.10100000352E+00 0. -1.
</event>
<event>
 5   0  0.5113683E-03  0.7002323E+03  0.7818609E-02  0.9716835E-01
       -2   -1    0    0    0  501  0.00000000000E+00  0.00000000000E+00  0.13331094106E+03  0.13331094108E+03  0.25500000920E-02 0.  1.
        2   -1    0    0  501    0  0.00000000000E+00  0.00000000000E+00 -0.91951439141E+03  0.91951439142E+03  0.25500000920E-02 0. -1.
    10030    2    1    2    0    0  0.00000000000E+00  0.00000000000E+00 -0.78620345036E+03  0.10528253325E+04  0.70023232959E+03 0.  0.
        3    1    3    3  502    0 -0.74751315847E+02  0.17095073068E+03 -0.83853817301E+03  0.85904492859E+03  0.10100000352E+00 0. -1.
       -3    1    3    3    0  502  0.74751315847E+02 -0.17095073068E+03  0.52334722655E+02  0.19378040391E+03  0.10100000352E+00 0.  1.
</event>
<event>
 5   0  0.2938783E-03  0.7003100E+03  0.7818609E-02  0.9716702E-01
       -1   -1    0    0    0  501  0.00000000000E+00  0.00000000000E+00  0.52347244673E+03  0.52347244676E+03  0.50400001928E-02 0. -1.
        1   -1    0    0  501    0  0.00000000000E+00  0.00000000000E+00 -0.23422152316E+03  0.23422152321E+03  0.50400001928E-02 0.  1.
    10030    2    1    2    0    0  0.00000000000E+00  0.00000000000E+00  0.28925092358E+03  0.75769396997E+03  0.70030997089E+03 0.  0.
        4    1    3    3  502    0 -0.90260296497E+02 -0.34977497484E+02 -0.21945455652E+03  0.23985883709E+03  0.12699999809E+01 0.  1.
       -4    1    3    3    0  502  0.90260296497E+02  0.34977497484E+02  0.50870548010E+03  0.51783513287E+03  0.12699999809E+01 0. -1.
</event>
<event>
 5   0  0.5072407E-03  0.6991807E+03  0.7818609E-02  0.9718634E-01
        2   -1    0    0  501    0  0.00000000000E+00  0.00000000000E+00  0.68144725899E+03  0.68144725900E+03  0.25500000920E-02 0.  1.
       -2   -1    0    0    0  501  0.00000000000E+00  0.00000000000E+00 -0.17934390492E+03  0.17934390494E+03  0.25500000920E-02 0. -1.
    10030    2    1    2    0    0  0.00000000000E+00  0.00000000000E+00  0.50210335407E+03  0.86079116393E+03  0.69918069891E+03 0.  0.
        1    1    3    3  502    0 -0.33631317555E+03  0.39353875742E+02  0.14401918698E+03  0.36796304954E+03  0.50400001928E-02 0.  1.
       -1    1    3    3    0  502  0.33631317555E+03 -0.39353875742E+02  0.35808416709E+03  0.49282811439E+03  0.50400001928E-02 0. -1.
</event>
<event>
 5   0  0.3013140E-03  0.6975806E+03  0.7818609E-02  0.9721379E-01
       -1   -1    0    0    0  501  0.00000000000E+00  0.00000000000E+00  0.12366203957E+03  0.12366203967E+03  0.50400001928E-02 0.  1.
        1   -1    0    0  501    0  0.00000000000E+00  0.00000000000E+00 -0.98376728128E+03  0.98376728129E+03  0.50400001928E-02 0. -1.
    10030    2    1    2    0    0  0.00000000000E+00  0.00000000000E+00 -0.86010524171E+03  0.11074293210E+04  0.69758058611E+03 0.  0.
        2    1    3    3  502    0 -0.29764376091E+03  0.12834327678E+03 -0.22557013013E+03  0.39489959320E+03  0.25500000920E-02 0.  1.
       -2    1    3    3    0  502  0.29764376091E+03 -0.12834327678E+03 -0.63453511158E+03  0.71252972776E+03  0.25500000920E-02 0. -1.
</event>
<event>
 5   0  0.2913582E-03  0.7068357E+03  0.7818609E-02  0.9705613E-01
        1   -1    0    0  501    0  0.00000000000E+00  0.00000000000E+00  0.55166460427E+03  0.55166460429E+03  0.50400001928E-02 0. -1.
       -1   -1    0    0    0  501  0.00000000000E+00  0.00000000000E+00 -0.22641326725E+03  0.22641326730E+03  0.50400001928E-02 0.  1.
    10030    2    1    2    0    0  0.00000000000E+00  0.00000000000E+00  0.32525133702E+03  0.77807787159E+03  0.70683572492E+03 0.  0.
        1    1    3    3  502    0 -0.32828391735E+03  0.75991829571E+02  0.27994686283E+03  0.43808142461E+03  0.50400001928E-02 0. -1.
       -1    1    3    3    0  502  0.32828391735E+03 -0.75991829571E+02  0.45304474194E+02  0.33999644698E+03  0.50400001928E-02 0.  1.
</event>
<event>
 5   0  0.2934483E-03  0.6982116E+03  0.7818609E-02  0.9720295E-01
       -1   -1    0    0    0  501  0.00000000000E+00  0.00000000000E+00  0.19766983357E+03  0.19766983363E+03  0.50400001928E-02 0. -1.
        1   -1    0    0  501    0  0.00000000000E+00  0.00000000000E+00 -0.61655774921E+03  0.61655774923E+03  0.50400001928E-02 0.  1.
    10030    2    1    2    0    0  0.00000000000E+00  0.00000000000E+00 -0.41888791564E+03  0.81422758286E+03  0.69821162323E+03 0.  0.
        5    1    3    3  502    0 -0.49528451418E+01 -0.20046081692E+03 -0.54265554583E+03  0.57853798598E+03  0.46999998093E+01 0.  1.
       -5    1    3    3    0  502  0.49528451418E+01  0.20046081692E+03  0.12376763019E+03  0.23568959688E+03  0.46999998093E+01 0. -1.
</event>
<event>
 5   0  0.5023894E-03  0.6971891E+03  0.7818609E-02  0.9722051E-01
       -2   -1    0    0    0  501  0.00000000000E+00  0.00000000000E+00  0.33119680081E+03  0.33119680082E+03  0.25500000920E-02 0. -1.
        2   -1    0    0  501    0  0.00000000000E+00  0.00000000000E+00 -0.36690616123E+03  0.36690616123E+03  0.25500000920E-02 0.  1.
    10030    2    1    2    0    0  0.00000000000E+00  0.00000000000E+00 -0.35709360420E+02  0.69810296205E+03  0.69718906130E+03 0.  0.
        2    1    3    3  502    0 -0.48637779732E+02  0.17778896714E+02  0.32732379306E+03  0.33139491289E+03  0.25500000920E-02 0. -1.
       -2    1    3    3    0  502  0.48637779732E+02 -0.17778896714E+02 -0.36303315348E+03  0.36670804915E+03  0.25500000920E-02 0.  1.
</event>
<event>
 5   0  0.5072407E-03  0.6985279E+03  0.7818609E-02  0.9719753E-01
       -2   -1    0    0    0  501  0.00000000000E+00  0.00000000000E+00  0.17263773037E+03  0.17263773038E+03  0.25500000920E-02 0.  1.
        2   -1    0    0  501    0  0.00000000000E+00  0.00000000000E+00 -0.70659697678E+03  0.70659697679E+03  0.25500000920E-02 0. -1.
    10030    2    1    2    0    0  0.00000000000E+00  0.00000000000E+00 -0.53395924642E+03  0.87923470717E+03  0.69852787594E+03 0.  0.
        1    1    3    3  502    0 -0.11082551882E+03  0.33103227260E+03 -0.25315473165E+03  0.43122149680E+03  0.50400001928E-02 0.  1.
       -1    1    3    3    0  502  0.11082551882E+03 -0.33103227260E+03 -0.28080451477E+03  0.44801321037E+03  0.50400001928E-02 0. -1.
</event>
<event>
 5   0  0.5076796E-03  0.7001821E+03  0.7818609E-02  0.9716921E-01
        2   -1    0    0  501    0  0.00000000000E+00  0.00000000000E+00  0.11745724724E+04  0.11745724724E+04  0.25500000920E-02 0.  1.
       -2   -1    0    0    0  501  0.00000000000E+00  0.00000000000E+00 -0.10434752141E+03  0.10434752144E+03  0.25500000920E-02 0. -1.
    10030    2    1    2    0    0  0.00000000000E+00  0.00000000000E+00  0.10702249510E+04  0.12789199938E+04  0.70018205126E+03 0.  0.
        5    1    3    3  502    0 -0.32072237282E+03 -0.13961829501E+03  0.51023326761E+03  0.61864059526E+03  0.46999998093E+01 0.  1.
       -5    1    3    3    0  502  0.32072237282E+03  0.13961829501E+03  0.55999168334E+03  0.66027939854E+03  0.46999998093E+01 0. -1.
</event>
<event>
 5   0  0.2934483E-03  0.7006068E+03  0.7818609E-02  0.9716195E-01
       -1   -1    0    0    0  501  0.00000000000E+00  0.00000000000E+00  0.86357355160E+02  0.86357355307E+02  0.50400001928E-02 0.  1.
        1   -1    0    0  501    0  0.00000000000E+00  0.00000000000E+00 -0.14209847854E+04  0.14209847854E+04  0.50400001928E-02 0. -1.
    10030    2    1    2    0    0  0.00000000000E+00  0.00000000000E+00 -0.13346274303E+04  0.15073421407E+04  0.70060684527E+03 0.  0.
        5    1    3    3  502    0  0.13035321265E+03 -0.29178486835E+03 -0.97580956108E+03  0.10268187566E+04  0.46999998093E+01 0. -1.
       -5    1    3    3    0  502 -0.13035321265E+03  0.29178486835E+03 -0.35881786918E+03  0.48052338412E+03  0.46999998093E+01 0.  1.
</event>
<event>
 5   0  0.1981750E-03  0.6989221E+03  0.7818609E-02  0.9719077E-01
       -4   -1    0    0    0  501  0.00000000000E+00  0.00000000000E+00  0.73753948708E+03  0.73754058052E+03  0.12699999809E+01 0.  1.
        4   -1    0    0  501    0  0.00000000000E+00  0.00000000000E+00 -0.16557800386E+03  0.16558287430E+03  0.12699999809E+01 0. -1.
    10030    2    1    2    0    0  0.00000000000E+00  0.00000000000E+00  0.57196148323E+03  0.90312345481E+03  0.69892205312E+03 0.  0.
        4    1    3    3  502    0 -0.85833663002E+02  0.17679311622E+03 -0.87404254595E+02  0.21509146954E+03  0.12699999809E+01 0. -1.
       -4    1    3    3    0  502  0.85833663002E+02 -0.17679311622E+03  0.65936573782E+03  0.68803198528E+03  0.12699999809E+01 0.  1.
</event>
<event>
 5   0  0.4878235E-03  0.6865730E+03  0.7818609E-02  0.9740474E-01
       -2   -1    0    0    0  501  0.00000000000E+00  0.00000000000E+00  0.82027768736E+03  0.82027768736E+03  0.25500000920E-02 0.  1.
        2   -1    0    0  501    0  0.00000000000E+00  0.00000000000E+00 -0.14366550480E+03  0.14366550483E+03  0.25500000920E-02 0. -1.
    10030    2    1    2    0    0  0.00000000000E+00  0.00000000000E+00  0.67661218255E+03  0.96394319219E+03  0.68657296203E+03 0.  0.
        4    1    3    3  502    0  0.48131826810E+02 -0.29771203119E+03  0.56855599629E+03  0.64358889058E+03  0.12699999809E+01 0.  1.
       -4    1    3    3    0  502 -0.48131826810E+02  0.29771203119E+03  0.10805618626E+03  0.32035430160E+03  0.12699999809E+01 0. -1.
</event>
<event>
 5   0  0.5072407E-03  0.6997259E+03  0.7818609E-02  0.9717701E-01
       -2   -1    0    0    0  501  0.00000000000E+00  0.00000000000E+00  0.58947802121E+02  0.58947802176E+02  0.25500000920E-02 0.  1.
        2   -1    0    0  501    0  0.00000000000E+00  0.00000000000E+00 -0.20764825432E+04  0.20764825432E+04  0.25500000920E-02 0. -1.
    10030    2    1    2    0    0  0.00000000000E+00  0.00000000000E+00 -0.20175347411E+04  0.21354303454E+04  0.69972589526E+03 0.  0.
        1    1    3    3  502    0 -0.19013803305E+03 -0.10059480548E+03 -0.16670952600E+03  0.27214674826E+03  0.50400001928E-02 0.  1.
       -1    1    3    3    0  502  0.19013803305E+03  0.10059480548E+03 -0.18508252151E+04  0.18632835971E+04  0.50400001928E-02 0. -1.
</event>
<event>
 5   0  0.2938783E-03  0.6993285E+03  0.7818609E-02  0.9718381E-01
        1   -1    0    0  501    0  0.00000000000E+00  0.00000000000E+00  0.72866648020E+03  0.72866648022E+03  0.50400001928E-02 0. -1.
       -1   -1    0    0    0  501  0.00000000000E+00  0.00000000000E+00 -0.16779293115E+03  0.16779293122E+03  0.50400001928E-02 0.  1.
    10030    2    1    2    0    0  0.00000000000E+00  0.00000000000E+00  0.56087354906E+03  0.89645941144E+03  0.69932849100E+03 0.  0.
        4    1    3    3  502    0  0.87608169440E+02  0.28969946237E+03  0.50490413651E+03  0.58866864178E+03  0.12699999809E+01 0. -1.
       -4    1    3    3    0  502 -0.87608169440E+02 -0.28969946237E+03  0.55969412550E+02  0.30779076967E+03  0.12699999809E+01 0.  1.
</event>
<event>
 5   0  0.2934483E-03  0.6973110E+03  0.7818609E-02  0.9721842E-01
       -1   -1    0    0    0  501  0.00000000000E+00  0.00000000000E+00  0.13578266459E+04  0.13578266459E+04  0.50400001928E-02 0.  1.
        1   -1    0    0  501    0  0.00000000000E+00  0.00000000000E+00 -0.89525907925E+02  0.89525908066E+02  0.50400001928E-02 0. -1.
    10030    2    1    2    0    0  0.00000000000E+00  0.00000000000E+00  0.12683007380E+04  0.14473525540E+04  0.69731101638E+03 0.  0.
        5    1    3    3  502    0  0.95597396909E+02 -0.31012501457E+03  0.36978625632E+03  0.49201661793E+03  0.46999998093E+01 0.  1.
       -5    1    3    3    0  502 -0.95597396909E+02  0.31012501457E+03  0.89851448169E+03  0.95533593608E+03  0.46999998093E+01 0. -1.
</event>
<event>
 5   0  0.5076796E-03  0.7023357E+03  0.7818609E-02  0.9713246E-01
        2   -1    0    0  501    0  0.00000000000E+00  0.00000000000E+00  0.15305896466E+03  0.15305896468E+03  0.25500000920E-02 0. -1.
       -2   -1    0    0    0  501  0.00000000000E+00  0.00000000000E+00 -0.80569520882E+03  0.80569520883E+03  0.25500000920E-02 0.  1.
    10030    2    1    2    0    0  0.00000000000E+00  0.00000000000E+00 -0.65263624417E+03  0.95875417350E+03  0.70233574450E+03 0.  0.
        5    1    3    3  502    0  0.13548266007E+03  0.56755664926E+02  0.10905912680E+03  0.18301021779E+03  0.46999998093E+01 0. -1.
       -5    1    3    3    0  502 -0.13548266007E+03 -0.56755664926E+02 -0.76169537097E+03  0.77574395571E+03  0.46999998093E+01 0.  1.
</event>
<event>
 5   0  0.5076796E-03  0.7009316E+03  0.7818609E-02  0.9715640E-01
       -2   -1    0    0    0  501  0.00000000000E+00  0.00000000000E+00  0.30087724005E+03  0.30087724006E+03  0.25500000920E-02 0. -1.
        2   -1    0    0  501    0  0.00000000000E+00  0.00000000000E+00 -0.40822722363E+03  0.40822722364E+03  0.25500000920E-02 0.  1.
    10030    2    1    2    0    0  0.00000000000E+00  0.00000000000E+00 -0.10734998358E+03  0.70910446370E+03  0.70093160970E+03 0.  0.
        5    1    3    3  502    0 -0.32822404689E+03 -0.30175556319E+02 -0.17406933637E+03  0.37277850397E+03  0.46999998093E+01 0.  1.
       -5    1    3    3    0  502  0.32822404689E+03  0.30175556319E+02  0.66719352789E+02  0.33632595974E+03  0.46999998093E+01 0. -1.
</event>
<event>
 5   0  0.5076796E-03  0.6992745E+03  0.7818609E-02  0.9718474E-01
        2   -1    0    0  501    0  0.00000000000E+00  0.00000000000E+00  0.42943228887E+03  0.42943228888E+03  0.25500000920E-02 0.  1.
       -2   -1    0    0    0  501  0.00000000000E+00  0.00000000000E+00 -0.28466932201E+03  0.28466932202E+03  0.25500000920E-02 0. -1.
    10030    2    1    2    0    0  0.00000000000E+00  0.00000000000E+00  0.14476296686E+03  0.71410161090E+03  0.69927447695E+03 0.  0.
        5    1    3    3  502    0 -0.14608374689E+03  0.23877549292E+03  0.28627406114E+03  0.40041119516E+03  0.46999998093E+01 0.  1.
       -5    1    3    3    0  502  0.14608374689E+03 -0.23877549292E+03 -0.14151109428E+03  0.31369041574E+03  0.46999998093E+01 0. -1.
</event>
<event>
 5   0  0.4878235E-03  0.6992942E+03  0.7818609E-02  0.9718440E-01
        2   -1    0    0  501    0  0.00000000000E+00  0.00000000000E+00  0.23219766147E+04  0.23219766147E+04  0.25500000920E-02 0.  1.
       -2   -1    0    0    0  501  0.00000000000E+00  0.00000000000E+00 -0.52650435684E+02  0.52650435746E+02  0.25500000920E-02 0. -1.
    10030    2    1    2    0    0  0.00000000000E+00  0.00000000000E+00  0.22693261790E+04  0.23746270504E+04  0.69929415981E+03 0.  0.
        4    1    3    3  502    0  0.25628124731E+03  0.22989937662E+03  0.13417109386E+04  0.13851800087E+04  0.12699999809E+01 0.  1.
       -4    1    3    3    0  502 -0.25628124731E+03 -0.22989937662E+03  0.92761524042E+03  0.98944704166E+03  0.12699999809E+01 0. -1.
</event>
<event>
 5   0  0.4878235E-03  0.7057515E+03  0.7818609E-02  0.9707447E-01
        2   -1    0    0  501    0  0.00000000000E+00  0.00000000000E+00  0.19208170689E+04  0.19208170689E+04  0.25500000920E-02 0. -1.
       -2   -1    0    0    0  501  0.00000000000E+00  0.00000000000E+00 -0.64827257716E+02  0.64827257766E+02  0.25500000920E-02 0.  1.
    10030    2    1    2    0    0  0.00000000000E+00  0.00000000000E+00  0.18559898111E+04  0.19856443266E+04  0.70575152341E+03 0.  0.
        4    1    3    3  502    0 -0.33234430096E+03 -0.48925290330E+02  0.12319755528E+04  0.12769541081E+04  0.12699999809E+01 0. -1.
       -4    1    3    3    0  502  0.33234430096E+03  0.48925290330E+02  0.62401425831E+03  0.70869021856E+03  0.12699999809E+01 0.  1.
</event>
<event>
 5   0  0.2934483E-03  0.7030964E+03  0.7818609E-02  0.9711952E-01
        1   -1    0    0  501    0  0.00000000000E+00  0.00000000000E+00  0.96806387570E+03  0.96806387572E+03  0.50400001928E-02 0. -1.
       -1   -1    0    0    0  501  0.00000000000E+00  0.00000000000E+00 -0.12766319242E+03  0.12766319252E+03  0.50400001928E-02 0.  1.
    10030    2    1    2    0    0  0.00000000000E+00  0.00000000000E+00  0.84040068328E+03  0.10957270682E+04  0.70309636580E+03 0.  0.
        5    1    3    3  502    0  0.22959015989E+03 -0.20495144964E+03  0.68489190419E+03  0.75087665341E+03  0.46999998093E+01 0. -1.
       -5    1    3    3    0  502 -0.22959015989E+03  0.20495144964E+03  0.15550877910E+03  0.34485041482E+03  0.46999998093E+01 0.  1.
</event>
<event>
 5   0  0.5113683E-03  0.6995562E+03  0.7818609E-02  0.9717991E-01
        2   -1    0    0  501    0  0.00000000000E+00  0.00000000000E+00  0.93002561226E+03  0.93002561226E+03  0.25500000920E-02 0. -1.
       -2   -1    0    0    0  501  0.00000000000E+00  0.00000000000E+00 -0.13154985285E+03  0.13154985287E+03  0.25500000920E-02 0.  1.
    10030    2    1    2    0    0  0.00000000000E+00  0.00000000000E+00  0.79847575941E+03  0.10615754651E+04  0.69955623778E+03 0.  0.
        3    1    3    3  502    0  0.55935731893E+02  0.21184799367E+03 -0.14503384732E+02  0.21958765196E+03  0.10100000352E+00 0.  1.
       -3    1    3    3    0  502 -0.55935731893E+02 -0.21184799367E+03  0.81297914414E+03  0.84198781317E+03  0.10100000352E+00 0. -1.
</event>
<event>
 5   0  0.5023894E-03  0.7002235E+03  0.7818609E-02  0.9716850E-01
       -2   -1    0    0    0  501  0.00000000000E+00  0.00000000000E+00  0.14844787941E+03  0.14844787943E+03  0.25500000920E-02 0. -1.
        2   -1    0    0  501    0  0.00000000000E+00  0.00000000000E+00 -0.82573250669E+03  0.82573250669E+03  0.25500000920E-02 0.  1.
    10030    2    1    2    0    0  0.00000000000E+00  0.00000000000E+00 -0.67728462728E+03  0.97418038612E+03  0.70022350600E+03 0.  0.
        2    1    3    3  502    0 -0.10580839925E+03  0.94584816221E+02 -0.78391918250E+03  0.79666240623E+03  0.25500000920E-02 0.  1.
       -2    1    3    3    0  502  0.10580839925E+03 -0.94584816221E+02  0.10663455522E+03  0.17751797989E+03  0.25500000920E-02 0. -1.
</event>
<event>
 5   0  0.2913582E-03  0.6994891E+03  0.7818609E-02  0.9718106E-01
       -1   -1    0    0    0  501  0.00000000000E+00  0.00000000000E+00  0.19706788377E+03  0.19706788383E+03  0.50400001928E-02 0. -1.
        1   -1    0    0  501    0  0.00000000000E+00  0.00000000000E+00 -0.62070609127E+03  0.62070609129E+03  0.50400001928E-02 0.  1.
    10030    2    1    2    0    0  0.00000000000E+00  0.00000000000E+00 -0.42363820750E+03  0.81777397512E+03  0.69948905891E+03 0.  0.
        1    1    3    3  502    0  0.71244076509E+02  0.11088808225E+03 -0.59056003046E+03  0.60508927839E+03  0.50400001928E-02 0.  1.
       -1    1    3    3    0  502 -0.71244076509E+02 -0.11088808225E+03  0.16692182295E+03  0.21268469674E+03  0.50400001928E-02 0. -1.
</event>
<event>
 5   0  0.5076796E-03  0.7005855E+03  0.7818609E-02  0.9716232E-01
       -2   -1    0    0    0  501  0.00000000000E+00  0.00000000000E+00  0.31306484440E+03  0.31306484441E+03  0.25500000920E-02 0. -1.
        2   -1    0    0  501    0  0.00000000000E+00  0.00000000000E+00 -0.39194754296E+03  0.39194754297E+03  0.25500000920E-02 0.  1.
    10030    2    1    2    0    0  0.00000000000E+00  0.00000000000E+00 -0.78882698564E+02  0.70501238738E+03  0.70058545962E+03 0.  0.
        5    1    3    3  502    0  0.69049287296E+02  0.16611324228E+03 -0.34187574572E+03  0.38634509036E+03  0.46999998093E+01 0.  1.
       -5    1    3    3    0  502 -0.69049287296E+02 -0.16611324228E+03  0.26299304716E+03  0.31866729702E+03  0.46999998093E+01 0. -1.
</event>
<event>
 5   0  0.5023894E-03  0.6988073E+03  0.7818609E-02  0.9719274E-01
       -2   -1    0    0    0  501  0.00000000000E+00  0.00000000000E+00  0.50175543123E+03  0.50175543124E+03  0.25500000920E-02 0. -1.
        2   -1    0    0  501    0  0.00000000000E+00  0.00000000000E+00 -0.24331158805E+03  0.24331158807E+03  0.25500000920E-02 0.  1.
    10030    2    1    2    0    0  0.00000000000E+00  0.00000000000E+00  0.25844384318E+03  0.74506701930E+03  0.69880730046E+03 0.  0.
        2    1    3    3  502    0 -0.25063370159E+03 -0.36087502519E+02 -0.12747144576E+03  0.28349343855E+03  0.25500000920E-02 0.  1.
       -2    1    3    3    0  502  0.25063370159E+03  0.36087502519E+02  0.38591528893E+03  0.46157358075E+03  0.25500000920E-02 0. -1.
</event>
<event>
 5   0  0.2913582E-03  0.7013564E+03  0.7818609E-02  0.9714915E-01
       -1   -1    0    0    0  501  0.00000000000E+00  0.00000000000E+00  0.27476798278E+03  0.27476798283E+03  0.50400001928E-02 0. -1.
        1   -1    0    0  501    0  0.00000000000E+00  0.00000000000E+00 -0.44756010276E+03  0.44756010279E+03  0.50400001928E-02 0.  1.
    10030    2    1    2    0    0  0.00000000000E+00  0.00000000000E+00 -0.17279211998E+03  0.72232808562E+03  0.70135636202E+03 0.  0.
        1    1    3    3  502    0 -0.24137928069E+03 -0.15952246795E+03  0.11767996651E+03  0.31234588115E+03  0.50400001928E-02 0. -1.
       -1    1    3    3    0  502  0.24137928069E+03  0.15952246795E+03 -0.29047208649E+03  0.40998220447E+03  0.50400001928E-02 0.  1.
</event>
<event>
 5   0  0.5076796E-03  0.7195492E+03  0.7818609E-02  0.9684372E-01
       -2   -1    0    0    0  501  0.00000000000E+00  0.00000000000E+00  0.20424158540E+03  0.20424158541E+03  0.25500000920E-02 0.  1.
        2   -1    0    0  501    0  0.00000000000E+00  0.00000000000E+00 -0.63374841290E+03  0.63374841291E+03  0.25500000920E-02 0. -1.
    10030    2    1    2    0    0  0.00000000000E+00  0.00000000000E+00 -0.42950682751E+03  0.83798999832E+03  0.71954924947E+03 0.  0.
        5    1    3    3  502    0 -0.10059890588E+03  0.16470565972E+03 -0.56831692774E+03  0.60021189139E+03  0.46999998093E+01 0. -1.
       -5    1    3    3    0  502  0.10059890588E+03 -0.16470565972E+03  0.13881010024E+03  0.23777810693E+03  0.46999998093E+01 0.  1.
</event>
<event>
 5   0  0.1981750E-03  0.6992750E+03  0.7818609E-02  0.9718473E-01
       -4   -1    0    0    0  501  0.00000000000E+00  0.00000000000E+00  0.31051233696E+03  0.31051493410E+03  0.12699999809E+01 0. -1.
        4   -1    0    0  501    0  0.00000000000E+00  0.00000000000E+00 -0.39368721693E+03  0.39368926538E+03  0.12699999809E+01 0.  1.
    10030    2    1    2    0    0  0.00000000000E+00  0.00000000000E+00 -0.83174879974E+02  0.70420419948E+03  0.69927497732E+03 0.  0.
        2    1    3    3  502    0  0.10892215013E+03 -0.33188978277E+03 -0.56910172665E+02  0.35391189646E+03  0.25500000920E-02 0.  1.
       -2    1    3    3    0  502 -0.10892215013E+03  0.33188978277E+03 -0.26264707309E+02  0.35029230302E+03  0.25500000920E-02 0. -1.
</event>
<event>
 5   0  0.5113683E-03  0.7009434E+03  0.7818609E-02  0.9715620E-01
        2   -1    0    0  501    0  0.00000000000E+00  0.00000000000E+00  0.53036687886E+03  0.53036687886E+03  0.25500000920E-02 0.  1.
       -2   -1    0    0    0  501  0.00000000000E+00  0.00000000000E+00 -0.23159516828E+03  0.23159516829E+03  0.25500000920E-02 0. -1.
    10030    2    1    2    0    0  0.00000000000E+00  0.00000000000E+00  0.29877171058E+03  0.76196204715E+03  0.70094338306E+03 0.  0.
        3    1    3    3  502    0 -0.98915613711E+02  0.33425830852E+03  0.18884271940E+03  0.39645239099E+03  0.10100000352E+00 0. -1.
       -3    1    3    3    0  502  0.98915613711E+02 -0.33425830852E+03  0.10992899118E+03  0.36550965617E+03  0.10100000352E+00 0.  1.
</event>
<event>
 5   0  0.1981750E-03  0.7009193E+03  0.7818609E-02  0.9715661E-01
       -4   -1    0    0    0  501  0.00000000000E+00  0.00000000000E+00  0.88852337326E+02  0.88861413157E+02  0.12699999809E+01 0. -1.
        4   -1    0    0  501    0  0.00000000000E+00  0.00000000000E+00 -0.13822354092E+04  0.13822359927E+04  0.12699999809E+01 0.  1.
    10030    2    1    2    0    0  0.00000000000E+00  0.00000000000E+00 -0.12933830719E+04  0.14710974058E+04  0.70091925836E+03 0.  0.
        5    1    3    3  502    0 -0.19926942148E+03  0.22167934579E+02 -0.43488062187E+02  0.20521457358E+03  0.46999998093E+01 0. -1.
       -5    1    3    3    0  502  0.19926942148E+03 -0.22167934579E+02 -0.12498950097E+04  0.12658828323E+04  0.46999998093E+01 0.  1.
</event>
<event>
 5   0  0.2934483E-03  0.6993682E+03  0.7818609E-02  0.9718313E-01
        1   -1    0    0  501    0  0.00000000000E+00  0.00000000000E+00  0.14165982882E+04  0.14165982882E+04  0.50400001928E-02 0.  1.
       -1   -1    0    0    0  501  0.00000000000E+00  0.00000000000E+00 -0.86318733423E+02  0.86318733571E+02  0.50400001928E-02 0. -1.
    10030    2    1    2    0    0  0.00000000000E+00  0.00000000000E+00  0.13302795548E+04  0.15029170218E+04  0.69936820095E+03 0.  0.
        5    1    3    3  502    0  0.31579669735E+03 -0.12130217296E+03  0.85511485855E+03  0.91961148455E+03  0.46999998093E+01 0.  1.
       -5    1    3    3    0  502 -0.31579669735E+03  0.12130217296E+03  0.47516469625E+03  0.58330553724E+03  0.46999998093E+01 0. -1.
</event>
<event>
 5   0  0.5023894E-03  0.7001910E+03  0.7818609E-02  0.9716906E-01
        2   -1    0    0  501    0  0.00000000000E+00  0.00000000000E+00  0.12123402904E+04  0.12123402904E+04  0.25500000920E-02 0.  1.
       -2   -1    0    0    0  501  0.00000000000E+00  0.00000000000E+00 -0.10109937690E+03  0.10109937693E+03  0.25500000920E-02 0. -1.
    10030    2    1    2    0    0  0.00000000000E+00  0.00000000000E+00  0.11112409135E+04  0.13134396673E+04  0.70019096815E+03 0.  0.
        2    1    3    3  502    0 -0.11103928154E+03  0.17773433171E+03  0.10816818766E+04  0.11017962139E+04  0.25500000920E-02 0.  1.
       -2    1    3    3    0  502  0.11103928154E+03 -0.17773433171E+03  0.29559036860E+02  0.21164345343E+03  0.25500000920E-02 0. -1.
</event>
<event>
 5   0  0.5072407E-03  0.6992681E+03  0.7818609E-02  0.9718485E-01
       -2   -1    0    0    0  501  0.00000000000E+00  0.00000000000E+00  0.24982780463E+03  0.24982780465E+03  0.25500000920E-02 0. -1.
        2   -1    0    0  501    0  0.00000000000E+00  0.00000000000E+00 -0.48931288710E+03  0.48931288710E+03  0.25500000920E-02 0.  1.
    10030    2    1    2    0    0  0.00000000000E+00  0.00000000000E+00 -0.23948508246E+03  0.73914069175E+03  0.69926808699E+03 0.  0.
        1    1    3    3  502    0  0.21322072983E+03  0.13493908164E+03  0.13607460509E+03  0.28668437969E+03  0.50400001928E-02 0. -1.
       -1    1    3    3    0  502 -0.21322072983E+03 -0.13493908164E+03 -0.37555968755E+03  0.45245631206E+03  0.50400001928E-02 0.  1.
</event>
<event>
 5   0  0.3013140E-03  0.6995721E+03  0.7818609E-02  0.9717964E-01
       -1   -1    0    0    0  501  0.00000000000E+00  0.00000000000E+00  0.38369288611E+03  0.38369288614E+03  0.50400001928E-02 0.  1.
        1   -1    0    0  501    0  0.00000000000E+00  0.00000000000E+00 -0.31887554072E+03  0.31887554076E+03  0.50400001928E-02 0. -1.
    10030    2    1    2    0    0  0.00000000000E+00  0.00000000000E+00  0.64817345389E+02  0.70256842691E+03  0.69957208794E+03 0.  0.
        2    1    3    3  502    0  0.19495888046E+02 -0.78760322960E+02  0.37411147633E+03  0.38280892734E+03  0.25500000920E-02 0.  1.
       -2    1    3    3    0  502 -0.19495888046E+02  0.78760322960E+02 -0.30929413094E+03  0.31975949957E+03  0.25500000920E-02 0. -1.
</event>
<event>
 5   0  0.2937617E-03  0.7000523E+03  0.7818609E-02  0.9717143E-01
        1   -1    0    0  501    0  0.00000000000E+00  0.00000000000E+00  0.18001503174E+03  0.18001503181E+03  0.50400001928E-02 0.  1.
       -1   -1    0    0    0  501  0.00000000000E+00  0.00000000000E+00 -0.68060035382E+03  0.68060035384E+03  0.50400001928E-02 0. -1.
    10030    2    1    2    0    0  0.00000000000E+00  0.00000000000E+00 -0.50058532208E+03  0.86061538565E+03  0.70005226758E+03 0.  0.
        3    1    3    3  502    0 -0.12917942721E+03 -0.30168198751E+03 -0.10063905649E+03  0.34326021601E+03  0.10100000352E+00 0. -1.
       -3    1    3    3    0  502  0.12917942721E+03  0.30168198751E+03 -0.39994626558E+03  0.51735516964E+03  0.10100000352E+00 0.  1.
</event>
<event>
 5   0  0.5023894E-03  0.7029411E+03  0.7818609E-02  0.9712216E-01
       -2   -1    0    0    0  501  0.00000000000E+00  0.00000000000E+00  0.21189359116E+03  0.21189359117E+03  0.25500000920E-02 0.  1.
        2   -1    0    0  501    0  0.00000000000E+00  0.00000000000E+00 -0.58298865967E+03  0.58298865968E+03  0.25500000920E-02 0. -1.
    10030    2    1    2    0    0  0.00000000000E+00  0.00000000000E+00 -0.37109506852E+03  0.79488225085E+03  0.70294113754E+03 0.  0.
        2    1    3    3  502    0 -0.39019032622E+02 -0.34561935971E+03 -0.24272075228E+03  0.42413275080E+03  0.25500000920E-02 0. -1.
       -2    1    3    3    0  502  0.39019032622E+02  0.34561935971E+03 -0.12837431624E+03  0.37074950005E+03  0.25500000920E-02 0.  1.
</event>
<event>
 5   0  0.2913582E-03  0.6998667E+03  0.7818609E-02  0.9717460E-01
       -1   -1    0    0    0  501  0.00000000000E+00  0.00000000000E+00  0.42359740165E+03  0.42359740168E+03  0.50400001928E-02 0. -1.
        1   -1    0    0  501    0  0.00000000000E+00  0.00000000000E+00 -0.28907955308E+03  0.28907955312E+03  0.50400001928E-02 0.  1.
    10030    2    1    2    0    0  0.00000000000E+00  0.00000000000E+00  0.13451784857E+03  0.71267695480E+03  0.69986669468E+03 0.  0.
        1    1    3    3  502    0 -0.14908397080E+03 -0.13727316064E+02  0.38933746881E+03  0.41713083583E+03  0.50400001928E-02 0. -1.
       -1    1    3    3    0  502  0.14908397080E+03  0.13727316064E+02 -0.25481962024E+03  0.29554611897E+03  0.50400001928E-02 0.  1.
</event>
<event>
 5   0  0.2913582E-03  0.6997944E+03  0.7818609E-02  0.9717584E-01
        1   -1    0    0  501    0  0.00000000000E+00  0.00000000000E+00  0.35578493634E+03  0.35578493638E+03  0.50400001928E-02 0. -1.
       -1   -1    0    0    0  501  0.00000000000E+00  0.00000000000E+00 -0.34410692169E+03  0.34410692172E+03  0.50400001928E-02 0.  1.
    10030    2    1    2    0    0  0.00000000000E+00  0.00000000000E+00  0.11678014658E+02  0.69989185810E+03  0.69979442482E+03 0.  0.
        1    1    3    3  502    0 -0.28026724463E+03 -0.20214968386E+03 -0.49067052717E+02  0.34902979641E+03  0.50400001928E-02 0.  1.
       -1    1    3    3    0  502  0.28026724463E+03  0.20214968386E+03  0.60745067375E+02  0.35086206169E+03  0.50400001928E-02 0. -1.
</event>
<event>
 5   0  0.3013140E-03  0.7036279E+03  0.7818609E-02  0.9711048E-01
        1   -1    0    0  501    0  0.00000000000E+00  0.00000000000E+00  0.83852600313E+03  0.83852600315E+03  0.50400001928E-02 0. -1.
       -1   -1    0    0    0  501  0.00000000000E+00  0.00000000000E+00 -0.14760787617E+03  0.14760787625E+03  0.50400001928E-02 0.  1.
    10030    2    1    2    0    0  0.00000000000E+00  0.00000000000E+00  0.69091812697E+03  0.98613387940E+03  0.70362786324E+03 0.  0.
        2    1    3    3  502    0 -0.66532963349E+02  0.33565569949E+03  0.23089853896E+03  0.41280203380E+03  0.25500000920E-02 0.  1.
       -2    1    3    3    0  502  0.66532963349E+02 -0.33565569949E+03  0.46001958801E+03  0.57333184560E+03  0.25500000920E-02 0. -1.
</event>
<event>
 5   0  0.4878235E-03  0.6973076E+03  0.7818609E-02  0.9721848E-01
       -2   -1    0    0    0  501  0.00000000000E+00  0.00000000000E+00  0.11337475593E+03  0.11337475596E+03  0.25500000920E-02 0.  1.
        2   -1    0    0  501    0  0.00000000000E+00  0.00000000000E+00 -0.10721917084E+04  0.10721917084E+04  0.25500000920E-02 0. -1.
    10030    2    1    2    0    0  0.00000000000E+00  0.00000000000E+00 -0.95881695245E+03  0.11855664644E+04  0.69730760292E+03 0.  0.
        4    1    3    3  502    0  0.15545719045E+03  0.92199314730E+02  0.27498733826E+02  0.18282626989E+03  0.12699999809E+01 0.  1.
       -4    1    3    3    0  502 -0.15545719045E+03 -0.92199314730E+02 -0.98631568628E+03  0.10027401945E+04  0.12699999809E+01 0. -1.
</event>
<event>
 5   0  0.1981750E-03  0.6994909E+03  0.7818609E-02  0.9718103E-01
       -4   -1    0    0    0  501  0.00000000000E+00  0.00000000000E+00  0.16923194083E+03  0.16923670611E+03  0.12699999809E+01 0. -1.
        4   -1    0    0  501    0  0.00000000000E+00  0.00000000000E+00 -0.72279060754E+03  0.72279172329E+03  0.12699999809E+01 0.  1.
    10030    2    1    2    0    0  0.00000000000E+00  0.00000000000E+00 -0.55355866672E+03  0.89202842940E+03  0.69949090156E+03 0.  0.
        4    1    3    3  502    0  0.17681992052E+03 -0.11221915499E+03  0.80432537009E+02  0.22434221392E+03  0.12699999809E+01 0. -1.
       -4    1    3    3    0  502 -0.17681992052E+03  0.11221915499E+03 -0.63399120373E+03  0.66768621548E+03  0.12699999809E+01 0.  1.
</event>
<event>
 5   0  0.4878235E-03  0.6982130E+03  0.7818609E-02  0.9720293E-01
       -2   -1    0    0    0  501  0.00000000000E+00  0.00000000000E+00  0.14842377954E+03  0.14842377956E+03  0.25500000920E-02 0.  1.
        2   -1    0    0  501    0  0.00000000000E+00  0.00000000000E+00 -0.82113089895E+03  0.82113089896E+03  0.25500000920E-02 0. -1.
    10030    2    1    2    0    0  0.00000000000E+00  0.00000000000E+00 -0.67270711941E+03  0.96955467852E+03  0.69821300913E+03 0.  0.
        4    1    3    3  502    0 -0.82782497948E+02 -0.13692491345E+03 -0.76721258018E+03  0.78372069641E+03  0.12699999809E+01 0. -1.
       -4    1    3    3    0  502  0.82782497948E+02  0.13692491345E+03  0.94505460769E+02  0.18583398211E+03  0.12699999809E+01 0.  1.
</event>
<event>
 5   0  0.5072407E-03  0.6997611E+03  0.7818609E-02  0.9717641E-01
       -2   -1    0    0    0  501  0.00000000000E+00  0.00000000000E+00  0.41966880127E+03  0.41966880128E+03  0.25500000920E-02 0. -1.
        2   -1    0    0  501    0  0.00000000000E+00  0.00000000000E+00 -0.29169765349E+03  0.29169765350E+03  0.25500000920E-02 0.  1.
    10030    2    1    2    0    0  0.00000000000E+00  0.00000000000E+00  0.12797114778E+03  0.71136645478E+03  0.69976111518E+03 0.  0.
        1    1    3    3  502    0  0.31404143129E+03  0.10526270403E+02 -0.92461435725E+02  0.32753921912E+03  0.50400001928E-02 0.  1.
       -1    1    3    3    0  502 -0.31404143129E+03 -0.10526270403E+02  0.22043258351E+03  0.38382723566E+03  0.50400001928E-02 0. -1.
</event>
<event>
 5   0  0.1981750E-03  0.6975952E+03  0.7818609E-02  0.9721354E-01
       -4   -1    0    0    0  501  0.00000000000E+00  0.00000000000E+00  0.87444013355E+03  0.87444105580E+03  0.12699999809E+01 0. -1.
        4   -1    0    0  501    0  0.00000000000E+00  0.00000000000E+00 -0.13912486751E+03  0.13913066398E+03  0.12699999809E+01 0.  1.
    10030    2    1    2    0    0  0.00000000000E+00  0.00000000000E+00  0.73531526605E+03  0.10135717198E+04  0.69759521978E+03 0.  0.
        2    1    3    3  502    0 -0.12281575559E+03 -0.37351771923E+02 -0.10355773549E+03  0.16493352986E+03  0.25500000920E-02 0.  1.
       -2    1    3    3    0  502  0.12281575559E+03  0.37351771923E+02  0.83887300153E+03  0.84863818992E+03  0.25500000920E-02 0. -1.
</event>
<event>
 5   0  0.5113683E-03  0.6993820E+03  0.7818609E-02  0.9718290E-01
       -2   -1    0    0    0  501  0.00000000000E+00  0.00000000000E+00  0.20717718791E+03  0.20717718793E+03  0.25500000920E-02 0. -1.
        2   -1    0    0  501    0  0.00000000000E+00  0.00000000000E+00 -0.59023776864E+03  0.59023776865E+03  0.25500000920E-02 0.  1.
    10030    2    1    2    0    0  0.00000000000E+00  0.00000000000E+00 -0.38306058073E+03  0.79741495657E+03  0.69938201611E+03 0.  0.
        3    1    3    3  502    0  0.28695785944E+03  0.11366709348E+03 -0.41160007605E+01  0.30867778167E+03  0.10100000352E+00 0. -1.
       -3    1    3    3    0  502 -0.28695785944E+03 -0.11366709348E+03 -0.37894457997E+03  0.48873717490E+03  0.10100000352E+00 0.  1.
</event>
<event>
 5   0  0.4878235E-03  0.6998962E+03  0.7818609E-02  0.9717410E-01
        2   -1    0    0  501    0  0.00000000000E+00  0.00000000000E+00  0.93196085096E+03  0.93196085096E+03  0.25500000920E-02 0.  1.
       -2   -1    0    0    0  501  0.00000000000E+00  0.00000000000E+00 -0.13140429574E+03  0.13140429576E+03  0.25500000920E-02 0. -1.
    10030    2    1    2    0    0  0.00000000000E+00  0.00000000000E+00  0.80055655522E+03  0.10633651467E+04  0.69989616171E+03 0.  0.
        4    1    3    3  502    0 -0.27114725304E+02 -0.13596834533E+03  0.88844890494E+03  0.89920279629E+03  0.12699999809E+01 0.  1.
       -4    1    3    3    0  502  0.27114725304E+02  0.13596834533E+03 -0.87892349724E+02  0.16416235044E+03  0.12699999809E+01 0. -1.
</event>
<event>
 5   0  0.2937617E-03  0.6992124E+03  0.7818609E-02  0.9718580E-01
        1   -1    0    0  501    0  0.00000000000E+00  0.00000000000E+00  0.64273605268E+03  0.64273605270E+03  0.50400001928E-02 0.  1.
       -1   -1    0    0    0  501  0.00000000000E+00  0.00000000000E+00 -0.19016281850E+03  0.19016281857E+03  0.50400001928E-02 0. -1.
    10030    2    1    2    0    0  0.00000000000E+00  0.00000000000E+00  0.45257323418E+03  0.83289887126E+03  0.69921241226E+03 0.  0.
        3    1    3    3  502    0 -0.23358487855E+03  0.16522426074E+03 -0.13032699570E+02  0.28641021853E+03  0.10100000352E+00 0. -1.
       -3    1    3    3    0  502  0.23358487855E+03 -0.16522426074E+03  0.46560593375E+03  0.54648865273E+03  0.10100000352E+00 0.  1.
</event>
<event>
 5   0  0.3013140E-03  0.6964240E+03  0.7818609E-02  0.9723367E-01
       -1   -1    0    0    0  501  0.00000000000E+00  0.00000000000E+00  0.10459841589E+04  0.10459841589E+04  0.50400001928E-02 0. -1.
        1   -1    0    0  501    0  0.00000000000E+00  0.00000000000E+00 -0.11592106956E+03  0.11592106967E+03  0.50400001928E-02 0.  1.
    10030    2    1    2    0    0  0.00000000000E+00  0.00000000000E+00  0.93006308933E+03  0.11619052286E+04  0.69642401600E+03 0.  0.
        2    1    3    3  502    0 -0.29758943134E+03 -0.11362712667E+03  0.69968188395E+03  0.76878171954E+03  0.25500000920E-02 0. -1.
       -2    1    3    3    0  502  0.29758943134E+03  0.11362712667E+03  0.23038120539E+03  0.39312350904E+03  0.25500000920E-02 0.  1.
</event>
<event>
 5   0  0.2937617E-03  0.7048293E+03  0.7818609E-02  0.9709009E-01
       -1   -1    0    0    0  501  0.00000000000E+00  0.00000000000E+00  0.27533029184E+03  0.27533029188E+03  0.50400001928E-02 0. -1.
        1   -1    0    0  501    0  0.00000000000E+00  0.00000000000E+00 -0.45108038886E+03  0.45108038889E+03  0.50400001928E-02 0.  1.
    10030    2    1    2    0    0  0.00000000000E+00  0.00000000000E+00 -0.17575009702E+03  0.72641068077E+03  0.70482932724E+03 0.  0.
        3    1    3    3  502    0  0.30801776034E+02  0.22777952633E+01 -0.44968281321E+03  0.45074225502E+03  0.10100000352E+00 0.  1.
       -3    1    3    3    0  502 -0.30801776034E+02 -0.22777952633E+01  0.27393271619E+03  0.27566842576E+03  0.10100000352E+00 0. -1.
</event>
<event>
 5   0  0.4878235E-03  0.7028372E+03  0.7818609E-02  0.9712393E-01
       -2   -1    0    0    0  501  0.00000000000E+00  0.00000000000E+00  0.12210583925E+03  0.12210583928E+03  0.25500000920E-02 0. -1.
        2   -1    0    0  501    0  0.00000000000E+00  0.00000000000E+00 -0.10113768393E+04  0.10113768393E+04  0.25500000920E-02 0.  1.
    10030    2    1    2    0    0  0.00000000000E+00  0.00000000000E+00 -0.88927100001E+03  0.11334826786E+04  0.70283715832E+03 0.  0.
        4    1    3    3  502    0 -0.60040464175E+02  0.25445250226E+03 -0.82334246092E+03  0.86385493811E+03  0.12699999809E+01 0.  1.
       -4    1    3    3    0  502  0.60040464175E+02 -0.25445250226E+03 -0.65928539091E+02  0.26962774044E+03  0.12699999809E+01 0. -1.
</event>
<event>
 5   0  0.2913582E-03  0.7007268E+03  0.7818609E-02  0.9715990E-01
       -1   -1    0    0    0  501  0.00000000000E+00  0.00000000000E+00  0.34878390831E+03  0.34878390835E+03  0.50400001928E-02 0. -1.
        1   -1    0    0  501    0  0.00000000000E+00  0.00000000000E+00 -0.35195006282E+03  0.35195006285E+03  0.50400001928E-02 0.  1.
    10030    2    1    2    0    0  0.00000000000E+00  0.00000000000E+00 -0.31661545055E+01  0.70073397120E+03  0.70072681828E+03 0.  0.
        1    1    3    3  502    0  0.25288957077E+03  0.21641647944E+02 -0.24310784498E+03  0.35145827668E+03  0.50400001928E-02 0.  1.
       -1    1    3    3    0  502 -0.25288957077E+03 -0.21641647944E+02  0.23994169047E+03  0.34927569452E+03  0.50400001928E-02 0. -1.
</event>
<event>
 5   0  0.2934483E-03  0.6993072E+03  0.7818609E-02  0.9718418E-01
        1   -1    0    0  501    0  0.00000000000E+00  0.00000000000E+00  0.73653408675E+03  0.73653408677E+03  0.50400001928E-02 0.  1.
       -1   -1    0    0    0  501  0.00000000000E+00  0.00000000000E+00 -0.16599047219E+03  0.16599047227E+03  0.50400001928E-02 0. -1.
    10030    2    1    2    0    0  0.00000000000E+00  0.00000000000E+00  0.57054361456E+03  0.90252455903E+03  0.69930720255E+03 0.  0.
        5    1    3    3  502    0 -0.20813495269E+03 -0.27781983691E+03  0.23156787212E+03  0.41731258034E+03  0.46999998093E+01 0. -1.
       -5    1    3    3    0  502  0.20813495269E+03  0.27781983691E+03  0.33897574244E+03  0.48521197870E+03  0.46999998093E+01 0.  1.
</event>
<event>
 5   0  0.2913582E-03  0.6997333E+03  0.7818609E-02  0.9717688E-01
        1   -1    0    0  501    0  0.00000000000E+00  0.00000000000E+00  0.13545055197E+03  0.13545055206E+03  0.50400001928E-02 0. -1.
       -1   -1    0    0    0  501  0.00000000000E+00  0.00000000000E+00 -0.90370012119E+03  0.90370012120E+03  0.50400001928E-02 0.  1.
    10030    2    1    2    0    0  0.00000000000E+00  0.00000000000E+00 -0.76824956922E+03  0.10391506733E+04  0.69973332145E+03 0.  0.
        1    1    3    3  502    0  0.21888509407E+03 -0.28951670039E+02  0.18921878122E+02  0.22160081476E+03  0.50400001928E-02 0. -1.
       -1    1    3    3    0  502 -0.21888509407E+03  0.28951670039E+02 -0.78717144734E+03  0.81754985850E+03  0.50400001928E-02 0.  1.
</event>
<event>
 5   0  0.3013140E-03  0.6986906E+03  0.7818609E-02  0.9719474E-01
       -1   -1    0    0    0  501  0.00000000000E+00  0.00000000000E+00  0.64717462052E+03  0.64717462054E+03  0.50400001928E-02 0. -1.
        1   -1    0    0  501    0  0.00000000000E+00  0.00000000000E+00 -0.18857681300E+03  0.18857681306E+03  0.50400001928E-02 0.  1.
    10030    2    1    2    0    0  0.00000000000E+00  0.00000000000E+00  0.45859780752E+03  0.83575143360E+03  0.69869056792E+03 0.  0.
        2    1    3    3  502    0  0.11010283769E+03 -0.63563075265E+01 -0.16720710816E+03  0.20030290696E+03  0.25500000920E-02 0.  1.
       -2    1    3    3    0  502 -0.11010283769E+03  0.63563075265E+01  0.62580491568E+03  0.63544852664E+03  0.25500000920E-02 0. -1.
</event>
<event>
 5   0  0.5076796E-03  0.7151210E+03  0.7818609E-02  0.9691717E-01
       -2   -1    0    0    0  501  0.00000000000E+00  0.00000000000E+00  0.52821781823E+02  0.52821781885E+02  0.25500000920E-02 0. -1.
        2   -1    0    0  501    0  0.00000000000E+00  0.00000000000E+00 -0.24203937744E+04  0.24203937744E+04  0.25500000920E-02 0.  1.
    10030    2    1    2    0    0  0.00000000000E+00  0.00000000000E+00 -0.23675719926E+04  0.24732155563E+04  0.71512100222E+03 0.  0.
        5    1    3    3  502    0 -0.21313164303E+03 -0.14776418856E+03 -0.33263952783E+03  0.42181808656E+03  0.46999998093E+01 0. -1.
       -5    1    3    3    0  502  0.21313164303E+03  0.14776418856E+03 -0.20349324647E+04  0.20513974697E+04  0.46999998093E+01 0.  1.
</event>
<event>
 5   0  0.4878235E-03  0.7025278E+03  0.7818609E-02  0.9712919E-01
        2   -1    0    0  501    0  0.00000000000E+00  0.00000000000E+00  0.10519134080E+04  0.10519134080E+04  0.25500000920E-02 0.  1.
       -2   -1    0    0    0  501  0.00000000000E+00  0.00000000000E+00 -0.11729703640E+03  0.11729703643E+03  0.25500000920E-02 0. -1.
    10030    2    1    2    0    0  0.00000000000E+00  0.00000000000E+00  0.93461637159E+03  0.11692104444E+04  0.70252779398E+03 0.  0.
        4    1    3    3  502    0  0.46362276064E+02  0.26596393722E+02 -0.11048569857E+03  0.12274172595E+03  0.12699999809E+01 0. -1.
       -4    1    3    3    0  502 -0.46362276064E+02 -0.26596393722E+02  0.10451020702E+04  0.10464687185E+04  0.12699999809E+01 0.  1.
</event>
<event>
 5   0  0.2937617E-03  0.7022295E+03  0.7818609E-02  0.9713427E-01
       -1   -1    0    0    0  501  0.00000000000E+00  0.00000000000E+00  0.75026540197E+03  0.75026540199E+03  0.50400001928E-02 0.  1.
        1   -1    0    0  501    0  0.00000000000E+00  0.00000000000E+00 -0.16431725882E+03  0.16431725890E+03  0.50400001928E-02 0. -1.
    10030    2    1    2    0    0  0.00000000000E+00  0.00000000000E+00  0.58594814315E+03  0.91458266089E+03  0.70222946189E+03 0.  0.
        3    1    3    3  502    0 -0.92633385572E+02  0.95185066919E+02 -0.13033633182E+03  0.18608791116E+03  0.10100000352E+00 0. -1.
       -3    1    3    3    0  502  0.92633385572E+02 -0.95185066919E+02  0.71628447498E+03  0.72849474973E+03  0.10100000352E+00 0.  1.
</event>
<event>
 5   0  0.3013140E-03  0.7042226E+03  0.7818609E-02  0.9710038E-01
        1   -1    0    0  501    0  0.00000000000E+00  0.00000000000E+00  0.17848021362E+04  0.17848021362E+04  0.50400001928E-02 0. -1.
       -1   -1    0    0    0  501  0.00000000000E+00  0.00000000000E+00 -0.69465602223E+02  0.69465602406E+02  0.50400001928E-02 0.  1.
    10030    2    1    2    0    0  0.00000000000E+00  0.00000000000E+00  0.17153365340E+04  0.18542677386E+04  0.70422256543E+03 0.  0.
        2    1    3    3  502    0 -0.28634245842E+03 -0.17692014733E+03  0.58543355243E+03  0.67529636926E+03  0.25500000920E-02 0. -1.
       -2    1    3    3    0  502  0.28634245842E+03  0.17692014733E+03  0.11299029815E+04  0.11789713693E+04  0.25500000920E-02 0.  1.
</event>
<event>
 5   0  0.4878235E-03  0.7002060E+03  0.7818609E-02  0.9716880E-01
        2   -1    0    0  501    0  0.00000000000E+00  0.00000000000E+00  0.88415275833E+03  0.88415275833E+03  0.25500000920E-02 0. -1.
       -2   -1    0    0    0  501  0.00000000000E+00  0.00000000000E+00 -0.13863229677E+03  0.13863229679E+03  0.25500000920E-02 0.  1.
    10030    2    1    2    0    0  0.00000000000E+00  0.00000000000E+00  0.74552046156E+03  0.10227850551E+04  0.70020604852E+03 0.  0.
        4    1    3    3  502    0  0.19833539881E+02 -0.61697578602E+01  0.88324858248E+03  0.88349369356E+03  0.12699999809E+01 0. -1.
       -4    1    3    3    0  502 -0.19833539881E+02  0.61697578602E+01 -0.13772812092E+03  0.13929136157E+03  0.12699999809E+01 0.  1.
</event>
<event>
 5   0  0.2913582E-03  0.6980955E+03  0.7818609E-02  0.9720495E-01
       -1   -1    0    0    0  501  0.00000000000E+00  0.00000000000E+00  0.17231916831E+03  0.17231916838E+03  0.50400001928E-02 0. -1.
        1   -1    0    0  501    0  0.00000000000E+00  0.00000000000E+00 -0.70702709512E+03  0.70702709514E+03  0.50400001928E-02 0.  1.
    10030    2    1    2    0    0  0.00000000000E+00  0.00000000000E+00 -0.53470792681E+03  0.87934626352E+03  0.69809546924E+03 0.  0.
        1    1    3    3  502    0  0.17012456830E+03 -0.10153014019E+03  0.94632194423E+02  0.21955862623E+03  0.50400001928E-02 0. -1.
       -1    1    3    3    0  502 -0.17012456830E+03  0.10153014019E+03 -0.62934012123E+03  0.65978763729E+03  0.50400001928E-02 0.  1.
</event>
<event>
 5   0  0.5072407E-03  0.6996540E+03  0.7818609E-02  0.9717824E-01
        2   -1    0    0  501    0  0.00000000000E+00  0.00000000000E+00  0.10774623298E+04  0.10774623298E+04  0.25500000920E-02 0.  1.
       -2   -1    0    0    0  501  0.00000000000E+00  0.00000000000E+00 -0.11358071669E+03  0.11358071672E+03  0.25500000920E-02 0. -1.
    10030    2    1    2    0    0  0.00000000000E+00  0.00000000000E+00  0.96388161313E+03  0.11910430465E+04  0.69965403922E+03 0.  0.
        1    1    3    3  502    0  0.21641855700E+03  0.16954511543E+03  0.85019725527E+03  0.89354233860E+03  0.50400001928E-02 0.  1.
       -1    1    3    3    0  502 -0.21641855700E+03 -0.16954511543E+03  0.11368435786E+03  0.29750070794E+03  0.50400001928E-02 0. -1.
</event>
<event>
 5   0  0.2938783E-03  0.7022290E+03  0.7818609E-02  0.9713428E-01
        1   -1    0    0  501    0  0.00000000000E+00  0.00000000000E+00  0.38694688882E+03  0.38694688885E+03  0.50400001928E-02 0.  1.
       -1   -1    0    0    0  501  0.00000000000E+00  0.00000000000E+00 -0.31860031559E+03  0.31860031563E+03  0.50400001928E-02 0. -1.
    10030    2    1    2    0    0  0.00000000000E+00  0.00000000000E+00  0.68346573232E+02  0.70554720448E+03  0.70222902508E+03 0.  0.
        4    1    3    3  502    0  0.76319266502E+02 -0.59970947854E+02  0.37319717531E+03  0.38561494990E+03  0.12699999809E+01 0.  1.
       -4    1    3    3    0  502 -0.76319266502E+02  0.59970947854E+02 -0.30485060208E+03  0.31993225457E+03  0.12699999809E+01 0. -1.
</event>
<event>
 5   0  0.2913582E-03  0.6996151E+03  0.7818609E-02  0.9717891E-01
       -1   -1    0    0    0  501  0.00000000000E+00  0.00000000000E+00  0.58017324027E+02  0.58017324246E+02  0.50400001928E-02 0. -1.
        1   -1    0    0  501    0  0.00000000000E+00  0.00000000000E+00 -0.21091170603E+04  0.21091170603E+04  0.50400001928E-02 0.  1.
    10030    2    1    2    0    0  0.00000000000E+00  0.00000000000E+00 -0.20510997363E+04  0.21671343846E+04  0.69961511746E+03 0.  0.
        1    1    3    3  502    0  0.31305331872E+03  0.35766760099E+01 -0.54218228202E+03  0.62608050596E+03  0.50400001928E-02 0.  1.
       -1    1    3    3    0  502 -0.31305331872E+03 -0.35766760099E+01 -0.15089174543E+04  0.15410538786E+04  0.50400001928E-02 0. -1.
</event>
<event>
 5   0  0.5113683E-03  0.7013970E+03  0.7818609E-02  0.9714846E-01
       -2   -1    0    0    0  501  0.00000000000E+00  0.00000000000E+00  0.17459117314E+03  0.17459117316E+03  0.25500000920E-02 0. -1.
        2   -1    0    0  501    0  0.00000000000E+00  0.00000000000E+00 -0.70444237707E+03  0.70444237707E+03  0.25500000920E-02 0.  1.
    10030    2    1    2    0    0  0.00000000000E+00  0.00000000000E+00 -0.52985120392E+03  0.87903355023E+03  0.70139695189E+03 0.  0.
        3    1    3    3  502    0  0.24533947261E+02  0.91564938640E+01  0.17336412840E+03  0.17533079354E+03  0.10100000352E+00 0. -1.
       -3    1    3    3    0  502 -0.24533947261E+02 -0.91564938640E+01 -0.70321533232E+03  0.70370275668E+03  0.10100000352E+00 0.  1.
</event>
<event>
 5   0  0.2934483E-03  0.7000042E+03  0.7818609E-02  0.9717225E-01
       -1   -1    0    0    0  501  0.00000000000E+00  0.00000000000E+00  0.14026492796E+03  0.14026492805E+03  0.50400001928E-02 0. -1.
        1   -1    0    0  501    0  0.00000000000E+00  0.00000000000E+00 -0.87335781606E+03  0.87335781607E+03  0.50400001928E-02 0.  1.
    10030    2    1    2    0    0  0.00000000000E+00  0.00000000000E+00 -0.73309288810E+03  0.10136227441E+04  0.70000420343E+03 0.  0.
        5    1    3    3  502    0 -0.88446016778E+02  0.28820468997E+03 -0.62393136026E+03  0.69296253399E+03  0.46999998093E+01 0.  1.
       -5    1    3    3    0  502  0.88446016778E+02 -0.28820468997E+03 -0.10916152784E+03  0.32066021013E+03  0.46999998093E+01 0. -1.
</event>
<event>
 5   0  0.5113683E-03  0.7008116E+03  0.7818609E-02  0.9715845E-01
       -2   -1    0    0    0  501  0.00000000000E+00  0.00000000000E+00  0.18099470344E+03  0.18099470346E+03  0.25500000920E-02 0.  1.
        2   -1    0    0  501    0  0.00000000000E+00  0.00000000000E+00 -0.67838581753E+03  0.67838581753E+03  0.25500000920E-02 0. -1.
    10030    2    1    2    0    0  0.00000000000E+00  0.00000000000E+00 -0.49739111409E+03  0.85938052099E+03  0.70081164337E+03 0.  0.
        3    1    3    3  502    0 -0.11380696631E+03 -0.18165989941E+03  0.91207398750E+02  0.23296168016E+03  0.10100000352E+00 0.  1.
       -3    1    3    3    0  502  0.11380696631E+03  0.18165989941E+03 -0.58859851284E+03  0.62641884083E+03  0.10100000352E+00 0. -1.
</event>
<event>
 5   0  0.4878235E-03  0.6877556E+03  0.7818609E-02  0.9738404E-01
       -2   -1    0    0    0  501  0.00000000000E+00  0.00000000000E+00  0.34542852191E+03  0.34542852192E+03  0.25500000920E-02 0. -1.
        2   -1    0    0  501    0  0.00000000000E+00  0.00000000000E+00 -0.34233405049E+03  0.34233405050E+03  0.25500000920E-02 0.  1.
    10030    2    1    2    0    0  0.00000000000E+00  0.00000000000E+00  0.30944714168E+01  0.68776257241E+03  0.68775561085E+03 0.  0.
        4    1    3    3  502    0  0.82612452208E+02 -0.72889513740E+02 -0.32420540339E+03  0.34241561728E+03  0.12699999809E+01 0.  1.
       -4    1    3    3    0  502 -0.82612452208E+02  0.72889513740E+02  0.32729987480E+03  0.34534695513E+03  0.12699999809E+01 0. -1.
</event>
<event>
 5   0  0.5113683E-03  0.6999004E+03  0.7818609E-02  0.9717403E-01
       -2   -1    0    0    0  501  0.00000000000E+00  0.00000000000E+00  0.11677627121E+03  0.11677627124E+03  0.25500000920E-02 0.  1.
        2   -1    0    0  501    0  0.00000000000E+00  0.00000000000E+00 -0.10487158481E+04  0.10487158481E+04  0.25500000920E-02 0. -1.
    10030    2    1    2    0    0  0.00000000000E+00  0.00000000000E+00 -0.93193957685E+03  0.11654921193E+04  0.69990035380E+03 0.  0.
        3    1    3    3  502    0 -0.13137887830E+03  0.17072155804E+03 -0.92521858072E+03  0.94996615327E+03  0.10100000352E+00 0. -1.
       -3    1    3    3    0  502  0.13137887830E+03 -0.17072155804E+03 -0.67209961301E+01  0.21552596603E+03  0.10100000352E+00 0.  1.
</event>
<event>
 5   0  0.5072407E-03  0.7013238E+03  0.7818609E-02  0.9714971E-01
        2   -1    0    0  501    0  0.00000000000E+00  0.00000000000E+00  0.94491922077E+03  0.94491922077E+03  0.25500000920E-02 0.  1.
       -2   -1    0    0    0  501  0.00000000000E+00  0.00000000000E+00 -0.13013149925E+03  0.13013149928E+03  0.25500000920E-02 0. -1.
    10030    2    1    2    0    0  0.00000000000E+00  0.00000000000E+00  0.81478772152E+03  0.10750507201E+04  0.70132376228E+03 0.  0.
        1    1    3    3  502    0  0.24824646528E+03 -0.24762802004E+03  0.40092459679E+03  0.53262226406E+03  0.50400001928E-02 0. -1.
       -1    1    3    3    0  502 -0.24824646528E+03  0.24762802004E+03  0.41386312473E+03  0.54242845599E+03  0.50400001928E-02 0.  1.
</event>
<event>
 5   0  0.3013140E-03  0.7015276E+03  0.7818609E-02  0.9714623E-01
       -1   -1    0    0    0  501  0.00000000000E+00  0.00000000000E+00  0.13455002212E+03  0.13455002221E+03  0.50400001928E-02 0.  1.
        1   -1    0    0  501    0  0.00000000000E+00  0.00000000000E+00 -0.91442020790E+03  0.91442020792E+03  0.50400001928E-02 0. -1.
    10030    2    1    2    0    0  0.00000000000E+00  0.00000000000E+00 -0.77987018579E+03  0.10489702301E+04  0.70152764523E+03 0.  0.
        2    1    3    3  502    0  0.35112322897E+02  0.64141484098E+02  0.12302659889E+03  0.14311725697E+03  0.25500000920E-02 0.  1.
       -2    1    3    3    0  502 -0.35112322897E+02 -0.64141484098E+02 -0.90289678467E+03  0.90585297316E+03  0.25500000920E-02 0. -1.
</event>
<event>
 5   0  0.2938783E-03  0.6996417E+03  0.7818609E-02  0.9717845E-01
       -1   -1    0    0    0  501  0.00000000000E+00  0.00000000000E+00  0.80654871945E+02  0.80654872103E+02  0.50400001928E-02 0. -1.
        1   -1    0    0  501    0  0.00000000000E+00  0.00000000000E+00 -0.15172625506E+04  0.15172625506E+04  0.50400001928E-02 0.  1.
    10030    2    1    2    0    0  0.00000000000E+00  0.00000000000E+00 -0.14366076786E+04  0.15979174227E+04  0.69964167073E+03 0.  0.
        4    1    3    3  502    0  0.15377129912E+03 -0.26501125080E+03 -0.11038477781E+04  0.11455819943E+04  0.12699999809E+01 0.  1.
       -4    1    3    3    0  502 -0.15377129912E+03  0.26501125080E+03 -0.33275990047E+03  0.45233542835E+03  0.12699999809E+01 0. -1.
</event>
<event>
 5   0  0.5076796E-03  0.6997292E+03  0.7818609E-02  0.9717695E-01
       -2   -1    0    0    0  501  0.00000000000E+00  0.00000000000E+00  0.13941912956E+03  0.13941912958E+03  0.25500000920E-02 0.  1.
        2   -1    0    0  501    0  0.00000000000E+00  0.00000000000E+00 -0.87796588820E+03  0.87796588821E+03  0.25500000920E-02 0. -1.
    10030    2    1    2    0    0  0.00000000000E+00  0.00000000000E+00 -0.73854675864E+03  0.10173850178E+04  0.69972920457E+03 0.  0.
        5    1    3    3  502    0  0.12150792441E+03  0.49010258854E+02 -0.84089991286E+03  0.85105871396E+03  0.46999998093E+01 0. -1.
       -5    1    3    3    0  502 -0.12150792441E+03 -0.49010258854E+02  0.10235315422E+03  0.16632630383E+03  0.46999998093E+01 0.  1.
</event>
<event>
 5   0  0.2913582E-03  0.6993594E+03  0.7818609E-02  0.9718328E-01
        1   -1    0    0  501    0  0.00000000000E+00  0.00000000000E+00  0.25445166700E+03  0.25445166705E+03  0.50400001928E-02 0. -1.
       -1   -1    0    0    0  501  0.00000000000E+00  0.00000000000E+00 -0.48054660379E+03  0.48054660382E+03  0.50400001928E-02 0.  1.
    10030    2    1    2    0    0  0.00000000000E+00  0.00000000000E+00 -0.22609493679E+03  0.73499827087E+03  0.69935937668E+03 0.  0.
        1    1    3    3  502    0  0.25904408903E+03  0.86126061423E+02 -0.34271117286E+03  0.43814664959E+03  0.50400001928E-02 0.  1.
       -1    1    3    3    0  502 -0.25904408903E+03 -0.86126061423E+02  0.11661623607E+03  0.29685162128E+03  0.50400001928E-02 0. -1.
</event>
<event>
 5   0  0.1981750E-03  0.7004871E+03  0.7818609E-02  0.9716399E-01
        3   -1    0    0  501    0  0.00000000000E+00  0.00000000000E+00  0.32794227669E+03  0.32794229225E+03  0.10100000352E+00 0.  1.
       -3   -1    0    0    0  501  0.00000000000E+00  0.00000000000E+00 -0.37406139961E+03  0.37406141324E+03  0.10100000352E+00 0. -1.
    10030    2    1    2    0    0  0.00000000000E+00  0.00000000000E+00 -0.46119122912E+02  0.70200370549E+03  0.70048713694E+03 0.  0.
        5    1    3    3  502    0 -0.14310005425E+03  0.82600230656E+02 -0.33251287193E+03  0.37133182415E+03  0.46999998093E+01 0. -1.
       -5    1    3    3    0  502  0.14310005425E+03 -0.82600230656E+02  0.28639374902E+03  0.33067188134E+03  0.46999998093E+01 0.  1.
</event>
<event>
 5   0  0.2938783E-03  0.6964292E+03  0.7818609E-02  0.9723358E-01
       -1   -1    0    0    0  501  0.00000000000E+00  0.00000000000E+00  0.12869908831E+03  0.12869908841E+03  0.50400001928E-02 0.  1.
        1   -1    0    0  501    0  0.00000000000E+00  0.00000000000E+00 -0.94214653998E+03  0.94214653999E+03  0.50400001928E-02 0. -1.
    10030    2    1    2    0    0  0.00000000000E+00  0.00000000000E+00 -0.81344745167E+03  0.10708456284E+04  0.69642918035E+03 0.  0.
        4    1    3    3  502    0  0.16914160488E+02 -0.32842861791E+03 -0.23073241521E+03  0.40173437271E+03  0.12699999809E+01 0.  1.
       -4    1    3    3    0  502 -0.16914160488E+02  0.32842861791E+03 -0.58271503645E+03  0.66911125569E+03  0.12699999809E+01 0. -1.
</event>
<event>
 5   0  0.2934483E-03  0.7008270E+03  0.7818609E-02  0.9715819E-01
        1   -1    0    0  501    0  0.00000000000E+00  0.00000000000E+00  0.13015424450E+04  0.13015424450E+04  0.50400001928E-02 0.  1.
       -1   -1    0    0    0  501  0.00000000000E+00  0.00000000000E+00 -0.94341622021E+02  0.94341622156E+02  0.50400001928E-02 0. -1.
    10030    2    1    2    0    0  0.00000000000E+00  0.00000000000E+00  0.12072008230E+04  0.13958840672E+04  0.70082701287E+03 0.  0.
        5    1    3    3  502    0 -0.69337618186E+02  0.19437127163E+02  0.12865819914E+04  0.12886042130E+04  0.46999998093E+01 0.  1.
       -5    1    3    3    0  502  0.69337618186E+02 -0.19437127163E+02 -0.79381168422E+02  0.10727985415E+03  0.46999998093E+01 0. -1.
</event>
<event>
 5   0  0.4878235E-03  0.7002095E+03  0.7818609E-02  0.9716874E-01
       -2   -1    0    0    0  501  0.00000000000E+00  0.00000000000E+00  0.14408146101E+03  0.14408146104E+03  0.25500000920E-02 0.  1.
        2   -1    0    0  501    0  0.00000000000E+00  0.00000000000E+00 -0.85072248702E+03  0.85072248702E+03  0.25500000920E-02 0. -1.
    10030    2    1    2    0    0  0.00000000000E+00  0.00000000000E+00 -0.70664102600E+03  0.99480394805E+03  0.70020950824E+03 0.  0.
        4    1    3    3  502    0 -0.24843174348E+02 -0.18165517519E+02 -0.84879367056E+03  0.84935238707E+03  0.12699999809E+01 0. -1.
       -4    1    3    3    0  502  0.24843174348E+02  0.18165517519E+02  0.14215264456E+03  0.14545156099E+03  0.12699999809E+01 0.  1.
</event>
<event>
 5   0  0.2913582E-03  0.7018582E+03  0.7818609E-02  0.9714060E-01
        1   -1    0    0  501    0  0.00000000000E+00  0.00000000000E+00  0.16040906425E+03  0.16040906433E+03  0.50400001928E-02 0. -1.
       -1   -1    0    0    0  501  0.00000000000E+00  0.00000000000E+00 -0.76773236674E+03  0.76773236676E+03  0.50400001928E-02 0.  1.
    10030    2    1    2    0    0  0.00000000000E+00  0.00000000000E+00 -0.60732330249E+03  0.92814143109E+03  0.70185819249E+03 0.  0.
        1    1    3    3  502    0  0.15104341409E+03  0.28153040711E+03 -0.11167241336E+03  0.33844380774E+03  0.50400001928E-02 0. -1.
       -1    1    3    3    0  502 -0.15104341409E+03 -0.28153040711E+03 -0.49565088912E+03  0.58969762335E+03  0.50400001928E-02 0.  1.
</event>
<event>
 5   0  0.5023894E-03  0.7013721E+03  0.7818609E-02  0.9714889E-01
       -2   -1    0    0    0  501  0.00000000000E+00  0.00000000000E+00  0.23025674117E+03  0.23025674118E+03  0.25500000920E-02 0.  1.
        2   -1    0    0  501    0  0.00000000000E+00  0.00000000000E+00 -0.53410258408E+03  0.53410258408E+03  0.25500000920E-02 0. -1.
    10030    2    1    2    0    0  0.00000000000E+00  0.00000000000E+00 -0.30384584291E+03  0.76435932527E+03  0.70137214221E+03 0.  0.
        2    1    3    3  502    0 -0.28858458714E+03  0.18099686199E+02 -0.36816644719E+03  0.46814014506E+03  0.25500000920E-02 0. -1.
       -2    1    3    3    0  502  0.28858458714E+03 -0.18099686199E+02  0.64320604282E+02  0.29621918020E+03  0.25500000920E-02 0.  1.
</event>
<event>
 5   0  0.5076796E-03  0.7003316E+03  0.7818609E-02  0.9716665E-01
        2   -1    0    0  501    0  0.00000000000E+00  0.00000000000E+00  0.82442425751E+03  0.82442425752E+03  0.25500000920E-02 0. -1.
       -2   -1    0    0    0  501  0.00000000000E+00  0.00000000000E+00 -0.14872934606E+03  0.14872934608E+03  0.25500000920E-02 0.  1.
    10030    2    1    2    0    0  0.00000000000E+00  0.00000000000E+00  0.67569491145E+03  0.97315360360E+03  0.70033158063E+03 0.  0.
        5    1    3    3  502    0  0.19618093715E+03 -0.36722596610E+02 -0.61898373403E+02  0.20901915661E+03  0.46999998093E+01 0.  1.
       -5    1    3    3    0  502 -0.19618093715E+03  0.36722596610E+02  0.73759328485E+03  0.76413444698E+03  0.46999998093E+01 0. -1.
</event>
<event>
 5   0  0.2937617E-03  0.7054192E+03  0.7818609E-02  0.9708009E-01
       -1   -1    0    0    0  501  0.00000000000E+00  0.00000000000E+00  0.70621329329E+03  0.70621329330E+03  0.50400001928E-02 0.  1.
        1   -1    0    0  501    0  0.00000000000E+00  0.00000000000E+00 -0.17615647903E+03  0.17615647910E+03  0.50400001928E-02 0. -1.
    10030    2    1    2    0    0  0.00000000000E+00  0.00000000000E+00  0.53005681426E+03  0.88236977241E+03  0.70541915831E+03 0.  0.
        3    1    3    3  502    0  0.13627847443E+03  0.59475806300E+02 -0.13503630081E+03  0.20085817600E+03  0.10100000352E+00 0. -1.
       -3    1    3    3    0  502 -0.13627847443E+03 -0.59475806300E+02  0.66509311507E+03  0.68151159641E+03  0.10100000352E+00 0.  1.
</event>
<event>
 5   0  0.1981750E-03  0.6997215E+03  0.7818609E-02  0.9717709E-01
        3   -1    0    0  501    0  0.00000000000E+00  0.00000000000E+00  0.89575834507E+03  0.89575835076E+03  0.10100000352E+00 0.  1.
       -3   -1    0    0    0  501  0.00000000000E+00  0.00000000000E+00 -0.13664680013E+03  0.13664683746E+03  0.10100000352E+00 0. -1.
    10030    2    1    2    0    0  0.00000000000E+00  0.00000000000E+00  0.75911154493E+03  0.10324051882E+04  0.69972146960E+03 0.  0.
        4    1    3    3  502    0 -0.66677737304E+02  0.29459191205E+03  0.11906184809E+03  0.32466544606E+03  0.12699999809E+01 0. -1.
       -4    1    3    3    0  502  0.66677737304E+02 -0.29459191205E+03  0.64004969684E+03  0.70773974216E+03  0.12699999809E+01 0.  1.
</event>
<event>
 5   0  0.2934483E-03  0.6999111E+03  0.7818609E-02  0.9717384E-01
        1   -1    0    0  501    0  0.00000000000E+00  0.00000000000E+00  0.36322478856E+03  0.36322478859E+03  0.50400001928E-02 0. -1.
       -1   -1    0    0    0  501  0.00000000000E+00  0.00000000000E+00 -0.33717103948E+03  0.33717103952E+03  0.50400001928E-02 0.  1.
    10030    2    1    2    0    0  0.00000000000E+00  0.00000000000E+00  0.26053749078E+02  0.70039582811E+03  0.69991107877E+03 0.  0.
        5    1    3    3  502    0  0.24227096177E+03 -0.13836347770E+02 -0.23925907124E+03  0.34081322833E+03  0.46999998093E+01 0.  1.
       -5    1    3    3    0  502 -0.24227096177E+03  0.13836347770E+02  0.26531282032E+03  0.35958259978E+03  0.46999998093E+01 0. -1.
</event>
<event>
 5   0  0.5023894E-03  0.6996060E+03  0.7818609E-02  0.9717906E-01
       -2   -1    0    0    0  501  0.00000000000E+00  0.00000000000E+00  0.59476261883E+02  0.59476261937E+02  0.25500000920E-02 0. -1.
        2   -1    0    0  501    0  0.00000000000E+00  0.00000000000E+00 -0.20573272151E+04  0.20573272151E+04  0.25500000920E-02 0.  1.
    10030    2    1    2    0    0  0.00000000000E+00  0.00000000000E+00 -0.19978509532E+04  0.21168034770E+04  0.69960598134E+03 0.  0.
        2    1    3    3  502    0 -0.15277484248E+03  0.26072493455E+03 -0.46581246896E+03  0.55524670214E+03  0.25500000920E-02 0. -1.
       -2    1    3    3    0  502  0.15277484248E+03 -0.26072493455E+03 -0.15320384842E+04  0.15615567749E+04  0.25500000920E-02 0.  1.
</event>
<event>
 5   0  0.2938783E-03  0.7005692E+03  0.7818609E-02  0.9716259E-01
        1   -1    0    0  501    0  0.00000000000E+00  0.00000000000E+00  0.10340358703E+04  0.10340358703E+04  0.50400001928E-02 0.  1.
       -1   -1    0    0    0  501  0.00000000000E+00  0.00000000000E+00 -0.11866057674E+03  0.11866057684E+03  0.50400001928E-02 0. -1.
    10030    2    1    2    0    0  0.00000000000E+00  0.00000000000E+00  0.91537529354E+03  0.11526964471E+04  0.70056917660E+03 0.  0.
        4    1    3    3  502    0  0.27014874148E+03  0.21346994722E+03  0.56365670221E+03  0.66050000131E+03  0.12699999809E+01 0.  1.
       -4    1    3    3    0  502 -0.27014874148E+03 -0.21346994722E+03  0.35171859133E+03  0.49219644582E+03  0.12699999809E+01 0. -1.
</event>
<event>
 5   0  0.5113683E-03  0.7016748E+03  0.7818609E-02  0.9714372E-01
        2   -1    0    0  501    0  0.00000000000E+00  0.00000000000E+00  0.13626273250E+04  0.13626273250E+04  0.25500000920E-02 0.  1.
       -2   -1    0    0    0  501  0.00000000000E+00  0.00000000000E+00 -0.90330566659E+02  0.90330566695E+02  0.25500000920E-02 0. -1.
    10030    2    1    2    0    0  0.00000000000E+00  0.00000000000E+00  0.12722967583E+04  0.14529578917E+04  0.70167484903E+03 0.  0.
        3    1    3    3  502    0 -0.12329150898E+03  0.35670039190E+02 -0.39971504890E+02  0.13442797062E+03  0.10100000352E+00 0. -1.
       -3    1    3    3    0  502  0.12329150898E+03 -0.35670039190E+02  0.13122682632E+04  0.13185299211E+04  0.10100000352E+00 0.  1.
</event>
<event>
 5   0  0.5076796E-03  0.6997248E+03  0.7818609E-02  0.9717703E-01
        2   -1    0    0  501    0  0.00000000000E+00  0.00000000000E+00  0.17056207065E+04  0.17056207065E+04  0.25500000920E-02 0.  1.
       -2   -1    0    0    0  501  0.00000000000E+00  0.00000000000E+00 -0.71764898045E+02  0.71764898090E+02  0.25500000920E-02 0. -1.
    10030    2    1    2    0    0  0.00000000000E+00  0.00000000000E+00  0.16338558084E+04  0.17773856046E+04  0.69972479203E+03 0.  0.
        5    1    3    3  502    0  0.29549962058E+03  0.16906861480E+01  0.12925395025E+04  0.13258971829E+04  0.46999998093E+01 0.  1.
       -5    1    3    3    0  502 -0.29549962058E+03 -0.16906861480E+01  0.34131630593E+03  0.45148842164E+03  0.46999998093E+01 0. -1.
</event>
<event>
 5   0  0.5072407E-03  0.6998627E+03  0.7818609E-02  0.9717467E-01
        2   -1    0    0  501    0  0.00000000000E+00  0.00000000000E+00  0.10034207314E+04  0.10034207314E+04  0.25500000920E-02 0. -1.
       -2   -1    0    0    0  501  0.00000000000E+00  0.00000000000E+00 -0.12203451190E+03  0.12203451193E+03  0.25500000920E-02 0.  1.
    10030    2    1    2    0    0  0.00000000000E+00  0.00000000000E+00  0.88138621950E+03  0.11254552433E+04  0.69986272713E+03 0.  0.
        1    1    3    3  502    0  0.16977295467E+03  0.14535518559E+02 -0.50814484337E+02  0.17780958714E+03  0.50400001928E-02 0.  1.
       -1    1    3    3    0  502 -0.16977295467E+03 -0.14535518559E+02  0.93220070384E+03  0.94764565619E+03  0.50400001928E-02 0. -1.
</event>
<event>
 5   0  0.2938783E-03  0.6937794E+03  0.7818609E-02  0.9727930E-01
        1   -1    0    0  501    0  0.00000000000E+00  0.00000000000E+00  0.28252640859E+03  0.28252640863E+03  0.50400001928E-02 0. -1.
       -1   -1    0    0    0  501  0.00000000000E+00  0.00000000000E+00 -0.42591586886E+03  0.42591586889E+03  0.50400001928E-02 0.  1.
    10030    2    1    2    0    0  0.00000000000E+00  0.00000000000E+00 -0.14338946027E+03  0.70844227753E+03  0.69377944858E+03 0.  0.
        4    1    3    3  502    0  0.22846588266E+03  0.24419383308E+03 -0.16585852386E+03  0.37327998941E+03  0.12699999809E+01 0.  1.
       -4    1    3    3    0  502 -0.22846588266E+03 -0.24419383308E+03  0.22469063590E+02  0.33516228812E+03  0.12699999809E+01 0. -1.
</event>
<event>
 5   0  0.5072407E-03  0.6999591E+03  0.7818609E-02  0.9717302E-01
        2   -1    0    0  501    0  0.00000000000E+00  0.00000000000E+00  0.92239029949E+03  0.92239029949E+03  0.25500000920E-02 0. -1.
       -2   -1    0    0    0  501  0.00000000000E+00  0.00000000000E+00 -0.13279158545E+03  0.13279158547E+03  0.25500000920E-02 0.  1.
    10030    2    1    2    0    0  0.00000000000E+00  0.00000000000E+00  0.78959871404E+03  0.10551818850E+04  0.69995905675E+03 0.  0.
        1    1    3    3  502    0 -0.27144386672E+03  0.23119868188E+02  0.72599948894E+03  0.77542991885E+03  0.50400001928E-02 0. -1.
       -1    1    3    3    0  502  0.27144386672E+03 -0.23119868188E+02  0.63599225100E+02  0.27975196611E+03  0.50400001928E-02 0.  1.
</event>
<event>
 5   0  0.2938783E-03  0.6996509E+03  0.7818609E-02  0.9717829E-01
        1   -1    0    0  501    0  0.00000000000E+00  0.00000000000E+00  0.26625830316E+03  0.26625830321E+03  0.50400001928E-02 0.  1.
       -1   -1    0    0    0  501  0.00000000000E+00  0.00000000000E+00 -0.45962075988E+03  0.45962075990E+03  0.50400001928E-02 0. -1.
    10030    2    1    2    0    0  0.00000000000E+00  0.00000000000E+00 -0.19336245671E+03  0.72587906311E+03  0.69965089480E+03 0.  0.
        4    1    3    3  502    0 -0.24946125391E+03 -0.63959098328E+02 -0.34231512674E+03  0.42837243417E+03  0.12699999809E+01 0. -1.
       -4    1    3    3    0  502  0.24946125391E+03  0.63959098328E+02  0.14895267002E+03  0.29750662895E+03  0.12699999809E+01 0.  1.
</event>
<event>
 5   0  0.4878235E-03  0.7003819E+03  0.7818609E-02  0.9716579E-01
       -2   -1    0    0    0  501  0.00000000000E+00  0.00000000000E+00  0.10068943978E+03  0.10068943981E+03  0.25500000920E-02 0.  1.
        2   -1    0    0  501    0  0.00000000000E+00  0.00000000000E+00 -0.12179399020E+04  0.12179399020E+04  0.25500000920E-02 0. -1.
    10030    2    1    2    0    0  0.00000000000E+00  0.00000000000E+00 -0.11172504622E+04  0.13186293418E+04  0.70038185709E+03 0.  0.
        4    1    3    3  502    0 -0.55449240942E+02 -0.32892581789E+03 -0.75933918440E+03  0.82937592313E+03  0.12699999809E+01 0. -1.
       -4    1    3    3    0  502  0.55449240942E+02  0.32892581789E+03 -0.35791127779E+03  0.48925341866E+03  0.12699999809E+01 0.  1.
</event>
<event>
 5   0  0.2913582E-03  0.7021410E+03  0.7818609E-02  0.9713578E-01
       -1   -1    0    0    0  501  0.00000000000E+00  0.00000000000E+00  0.12649708210E+03  0.12649708220E+03  0.50400001928E-02 0. -1.
        1   -1    0    0  501    0  0.00000000000E+00  0.00000000000E+00 -0.97433472191E+03  0.97433472192E+03  0.50400001928E-02 0.  1.
    10030    2    1    2    0    0  0.00000000000E+00  0.00000000000E+00 -0.84783763981E+03  0.11008318041E+04  0.70214100969E+03 0.  0.
        1    1    3    3  502    0  0.13207762319E+03  0.93254637011E+01  0.85849951676E+02  0.15780265222E+03  0.50400001928E-02 0. -1.
       -1    1    3    3    0  502 -0.13207762319E+03 -0.93254637011E+01 -0.93368759148E+03  0.94302915190E+03  0.50400001928E-02 0.  1.
</event>
<event>
 5   0  0.5076796E-03  0.6989389E+03  0.7818609E-02  0.9719049E-01
        2   -1    0    0  501    0  0.00000000000E+00  0.00000000000E+00  0.98474054528E+03  0.98474054528E+03  0.25500000920E-02 0.  1.
       -2   -1    0    0    0  501  0.00000000000E+00  0.00000000000E+00 -0.12402138010E+03  0.12402138013E+03  0.25500000920E-02 0. -1.
    10030    2    1    2    0    0  0.00000000000E+00  0.00000000000E+00  0.86071916518E+03  0.11087619254E+04  0.69893885709E+03 0.  0.
        5    1    3    3  502    0 -0.17563669209E+03  0.82544214447E+02 -0.30624659008E+02  0.19652418346E+03  0.46999998093E+01 0. -1.
       -5    1    3    3    0  502  0.17563669209E+03 -0.82544214447E+02  0.89134382418E+03  0.91223774196E+03  0.46999998093E+01 0.  1.
</event>
<event>
 5   0  0.5076796E-03  0.7014189E+03  0.7818609E-02  0.9714809E-01
       -2   -1    0    0    0  501  0.00000000000E+00  0.00000000000E+00  0.13201827740E+03  0.13201827743E+03  0.25500000920E-02 0.  1.
        2   -1    0    0  501    0  0.00000000000E+00  0.00000000000E+00 -0.93166739667E+03  0.93166739667E+03  0.25500000920E-02 0. -1.
    10030    2    1    2    0    0  0.00000000000E+00  0.00000000000E+00 -0.79964911927E+03  0.10636856741E+04  0.70141891857E+03 0.  0.
        5    1    3    3  502    0 -0.26360831722E+03  0.21444581226E+03 -0.53114379562E+03  0.63056496329E+03  0.46999998093E+01 0.  1.
       -5    1    3    3    0  502  0.26360831722E+03 -0.21444581226E+03 -0.26850532365E+03  0.43312071081E+03  0.46999998093E+01 0. -1.
</event>
<event>
 5   0  0.5023894E-03  0.7010209E+03  0.7818609E-02  0.9715488E-01
        2   -1    0    0  501    0  0.00000000000E+00  0.00000000000E+00  0.62917007272E+03  0.62917007272E+03  0.25500000920E-02 0.  1.
       -2   -1    0    0    0  501  0.00000000000E+00  0.00000000000E+00 -0.19526928136E+03  0.19526928137E+03  0.25500000920E-02 0. -1.
    10030    2    1    2    0    0  0.00000000000E+00  0.00000000000E+00  0.43390079136E+03  0.82443935409E+03  0.70102093537E+03 0.  0.
        2    1    3    3  502    0 -0.22432184866E+03 -0.26789459610E+03  0.24957997496E+03  0.42939255968E+03  0.25500000920E-02 0.  1.
       -2    1    3    3    0  502  0.22432184866E+03  0.26789459610E+03  0.18432081641E+03  0.39504679441E+03  0.25500000920E-02 0. -1.
</event>
<event>
 5   0  0.5023894E-03  0.6997465E+03  0.7818609E-02  0.9717666E-01
        2   -1    0    0  501    0  0.00000000000E+00  0.00000000000E+00  0.11612714613E+04  0.11612714613E+04  0.25500000920E-02 0.  1.
       -2   -1    0    0    0  501  0.00000000000E+00  0.00000000000E+00 -0.10541142148E+03  0.10541142151E+03  0.25500000920E-02 0. -1.
    10030    2    1    2    0    0  0.00000000000E+00  0.00000000000E+00  0.10558600398E+04  0.12666828828E+04  0.69974645546E+03 0.  0.
        2    1    3    3  502    0 -0.66144020221E+02  0.25835612278E+03  0.93788540137E+03  0.97506509716E+03  0.25500000920E-02 0.  1.
       -2    1    3    3    0  502  0.66144020221E+02 -0.25835612278E+03  0.11797463847E+03  0.29161778567E+03  0.25500000920E-02 0. -1.
</event>
<event>
 5   0  0.5072407E-03  0.7027125E+03  0.7818609E-02  0.9712605E-01
        2   -1    0    0  501    0  0.00000000000E+00  0.00000000000E+00  0.66946259224E+03  0.66946259225E+03  0.25500000920E-02 0.  1.
       -2   -1    0    0    0  501  0.00000000000E+00  0.00000000000E+00 -0.18440344499E+03  0.18440344501E+03  0.25500000920E-02 0. -1.
    10030    2    1    2    0    0  0.00000000000E+00  0.00000000000E+00  0.48505914725E+03  0.85386603726E+03  0.70271248264E+03 0.  0.
        1    1    3    3  502    0 -0.34313261340E+03 -0.74446982028E+02  0.22673959269E+03  0.41796314004E+03  0.50400001928E-02 0. -1.
       -1    1    3    3    0  502  0.34313261340E+03  0.74446982028E+02  0.25831955456E+03  0.43590289722E+03  0.50400001928E-02 0.  1.
</event>
<event>
 5   0  0.2937617E-03  0.6980801E+03  0.7818609E-02  0.9720521E-01
       -1   -1    0    0    0  501  0.00000000000E+00  0.00000000000E+00  0.64739100751E+03  0.64739100753E+03  0.50400001928E-02 0.  1.
        1   -1    0    0  501    0  0.00000000000E+00  0.00000000000E+00 -0.18818452399E+03  0.18818452406E+03  0.50400001928E-02 0. -1.
    10030    2    1    2    0    0  0.00000000000E+00  0.00000000000E+00  0.45920648352E+03  0.83557553159E+03  0.69808013472E+03 0.  0.
        3    1    3    3  502    0 -0.25220052045E+03 -0.12970324075E+03  0.47315174111E+03  0.55163449266E+03  0.10100000352E+00 0.  1.
       -3    1    3    3    0  502  0.25220052045E+03  0.12970324075E+03 -0.13945257594E+02  0.28394103893E+03  0.10100000352E+00 0. -1.
</event>
<event>
 5   0  0.2937617E-03  0.7031901E+03  0.7818609E-02  0.9711792E-01
        1   -1    0    0  501    0  0.00000000000E+00  0.00000000000E+00  0.16348497995E+03  0.16348498002E+03  0.50400001928E-02 0.  1.
       -1   -1    0    0    0  501  0.00000000000E+00  0.00000000000E+00 -0.75614936252E+03  0.75614936254E+03  0.50400001928E-02 0. -1.
    10030    2    1    2    0    0  0.00000000000E+00  0.00000000000E+00 -0.59266438258E+03  0.91963434257E+03  0.70319005514E+03 0.  0.
        3    1    3    3  502    0 -0.12398917137E+03  0.19312578893E+03 -0.64467997725E+03  0.68431218624E+03  0.10100000352E+00 0. -1.
       -3    1    3    3    0  502  0.12398917137E+03 -0.19312578893E+03  0.52015594675E+02  0.23532215633E+03  0.10100000352E+00 0.  1.
</event>
<event>
 5   0  0.2934483E-03  0.7000359E+03  0.7818609E-02  0.9717171E-01
       -1   -1    0    0    0  501  0.00000000000E+00  0.00000000000E+00  0.11356813920E+03  0.11356813932E+03  0.50400001928E-02 0. -1.
        1   -1    0    0  501    0  0.00000000000E+00  0.00000000000E+00 -0.10787581741E+04  0.10787581741E+04  0.50400001928E-02 0.  1.
    10030    2    1    2    0    0  0.00000000000E+00  0.00000000000E+00 -0.96519003492E+03  0.11923263134E+04  0.70003588068E+03 0.  0.
        5    1    3    3  502    0  0.26005027583E+03  0.21681367576E+03 -0.33162879662E+03  0.47395576239E+03  0.46999998093E+01 0.  1.
       -5    1    3    3    0  502 -0.26005027583E+03 -0.21681367576E+03 -0.63356123830E+03  0.71837055106E+03  0.46999998093E+01 0. -1.
</event>
<event>
 5   0  0.5113683E-03  0.7055289E+03  0.7818609E-02  0.9707824E-01
        2   -1    0    0  501    0  0.00000000000E+00  0.00000000000E+00  0.49558423416E+03  0.49558423417E+03  0.25500000920E-02 0. -1.
       -2   -1    0    0    0  501  0.00000000000E+00  0.00000000000E+00 -0.25110310982E+03  0.25110310983E+03  0.25500000920E-02 0.  1.
    10030    2    1    2    0    0  0.00000000000E+00  0.00000000000E+00  0.24448112434E+03  0.74668734400E+03  0.70552885804E+03 0.  0.
        3    1    3    3  502    0 -0.25137953792E+03  0.52422492815E+02 -0.13374346227E+03  0.28952912417E+03  0.10100000352E+00 0.  1.
       -3    1    3    3    0  502  0.25137953792E+03 -0.52422492815E+02  0.37822458662E+03  0.45715821983E+03  0.10100000352E+00 0. -1.
</event>
<event>
 5   0  0.2913582E-03  0.6974572E+03  0.7818609E-02  0.9721591E-01
       -1   -1    0    0    0  501  0.00000000000E+00  0.00000000000E+00  0.27842769325E+03  0.27842769329E+03  0.50400001928E-02 0.  1.
        1   -1    0    0  501    0  0.00000000000E+00  0.00000000000E+00 -0.43677994258E+03  0.43677994261E+03  0.50400001928E-02 0. -1.
    10030    2    1    2    0    0  0.00000000000E+00  0.00000000000E+00 -0.15835224933E+03  0.71520763590E+03  0.69745718692E+03 0.  0.
        1    1    3    3  502    0  0.45468067629E+02 -0.31437210597E+03 -0.22676426362E+03  0.39028092122E+03  0.50400001928E-02 0. -1.
       -1    1    3    3    0  502 -0.45468067629E+02  0.31437210597E+03  0.68412014292E+02  0.32492671468E+03  0.50400001928E-02 0.  1.
</event>
<event>
 5   0  0.5023894E-03  0.7003781E+03  0.7818609E-02  0.9716586E-01
       -2   -1    0    0    0  501  0.00000000000E+00  0.00000000000E+00  0.62420720335E+02  0.62420720388E+02  0.25500000920E-02 0. -1.
        2   -1    0    0  501    0  0.00000000000E+00  0.00000000000E+00 -0.19646100890E+04  0.19646100890E+04  0.25500000920E-02 0.  1.
    10030    2    1    2    0    0  0.00000000000E+00  0.00000000000E+00 -0.19021893686E+04  0.20270308094E+04  0.70037811784E+03 0.  0.
        2    1    3    3  502    0  0.23251508765E+03 -0.17411284310E+03 -0.15171582937E+04  0.15447161021E+04  0.25500000920E-02 0. -1.
       -2    1    3    3    0  502 -0.23251508765E+03  0.17411284310E+03 -0.38503107496E+03  0.48231470722E+03  0.25500000920E-02 0.  1.
</event>
<event>
 5   0  0.2938783E-03  0.7011810E+03  0.7818609E-02  0.9715215E-01
       -1   -1    0    0    0  501  0.00000000000E+00  0.00000000000E+00  0.75643733219E+03  0.75643733221E+03  0.50400001928E-02 0. -1.
        1   -1    0    0  501    0  0.00000000000E+00  0.00000000000E+00 -0.16249025696E+03  0.16249025704E+03  0.50400001928E-02 0.  1.
    10030    2    1    2    0    0  0.00000000000E+00  0.00000000000E+00  0.59394707524E+03  0.91892758925E+03  0.70118099382E+03 0.  0.
        4    1    3    3  502    0 -0.11019021546E+03 -0.19936460834E+03  0.64623733788E+03  0.68520977839E+03  0.12699999809E+01 0. -1.
       -4    1    3    3    0  502  0.11019021546E+03  0.19936460834E+03 -0.52290262639E+02  0.23371781085E+03  0.12699999809E+01 0.  1.
</event>
<event>
 5   0  0.2913582E-03  0.7004834E+03  0.7818609E-02  0.9716406E-01
        1   -1    0    0  501    0  0.00000000000E+00  0.00000000000E+00  0.80837944935E+03  0.80837944937E+03  0.50400001928E-02 0.  1.
       -1   -1    0    0    0  501  0.00000000000E+00  0.00000000000E+00 -0.15174712654E+03  0.15174712662E+03  0.50400001928E-02 0. -1.
    10030    2    1    2    0    0  0.00000000000E+00  0.00000000000E+00  0.65663232282E+03  0.96012657599E+03  0.70048342918E+03 0.  0.
        1    1    3    3  502    0 -0.36777510962E+02  0.33312313006E+03  0.18890113356E+03  0.38471709525E+03  0.50400001928E-02 0. -1.
       -1    1    3    3    0  502  0.36777510962E+02 -0.33312313006E+03  0.46773118926E+03  0.57540948074E+03  0.50400001928E-02 0.  1.
</event>
<event>
 5   0  0.3013140E-03  0.6987221E+03  0.7818609E-02  0.9719420E-01
       -1   -1    0    0    0  501  0.00000000000E+00  0.00000000000E+00  0.15875447514E+03  0.15875447522E+03  0.50400001928E-02 0.  1.
        1   -1    0    0  501    0  0.00000000000E+00  0.00000000000E+00 -0.76881693377E+03  0.76881693379E+03  0.50400001928E-02 0. -1.
    10030    2    1    2    0    0  0.00000000000E+00  0.00000000000E+00 -0.61006245863E+03  0.92757140901E+03  0.69872205874E+03 0.  0.
        2    1    3    3  502    0 -0.81146540040E+02  0.22281262195E+03  0.35558397578E+02  0.23978036847E+03  0.25500000920E-02 0.  1.
       -2    1    3    3    0  502  0.81146540040E+02 -0.22281262195E+03 -0.64562085621E+03  0.68779104053E+03  0.25500000920E-02 0. -1.
</event>
<event>
 5   0  0.2937617E-03  0.7001264E+03  0.7818609E-02  0.9717016E-01
        1   -1    0    0  501    0  0.00000000000E+00  0.00000000000E+00  0.40833711903E+03  0.40833711906E+03  0.50400001928E-02 0.  1.
       -1   -1    0    0    0  501  0.00000000000E+00  0.00000000000E+00 -0.30010554350E+03  0.30010554354E+03  0.50400001928E-02 0. -1.
    10030    2    1    2    0    0  0.00000000000E+00  0.00000000000E+00  0.10823157553E+03  0.70844266260E+03  0.70012636877E+03 0.  0.
        3    1    3    3  502    0 -0.15676283163E+03  0.10193438915E+03 -0.24533696310E+03  0.30847275525E+03  0.10100000352E+00 0.  1.
       -3    1    3    3    0  502  0.15676283163E+03 -0.10193438915E+03  0.35356853863E+03  0.39996990735E+03  0.10100000352E+00 0. -1.
</event>
<event>
 5   0  0.4878235E-03  0.7009112E+03  0.7818609E-02  0.9715675E-01
        2   -1    0    0  501    0  0.00000000000E+00  0.00000000000E+00  0.80869922823E+03  0.80869922823E+03  0.25500000920E-02 0. -1.
       -2   -1    0    0    0  501  0.00000000000E+00  0.00000000000E+00 -0.15187244672E+03  0.15187244674E+03  0.25500000920E-02 0.  1.
    10030    2    1    2    0    0  0.00000000000E+00  0.00000000000E+00  0.65682678151E+03  0.96057167497E+03  0.70091120825E+03 0.  0.
        4    1    3    3  502    0  0.15060514730E+03 -0.23583967143E+03  0.61756206916E+03  0.67800205249E+03  0.12699999809E+01 0. -1.
       -4    1    3    3    0  502 -0.15060514730E+03  0.23583967143E+03  0.39264712352E+02  0.28256962248E+03  0.12699999809E+01 0.  1.
</event>
<event>
 5   0  0.4878235E-03  0.6999982E+03  0.7818609E-02  0.9717235E-01
       -2   -1    0    0    0  501  0.00000000000E+00  0.00000000000E+00  0.89579175647E+02  0.89579175683E+02  0.25500000920E-02 0.  1.
        2   -1    0    0  501    0  0.00000000000E+00  0.00000000000E+00 -0.13674983714E+04  0.13674983714E+04  0.25500000920E-02 0. -1.
    10030    2    1    2    0    0  0.00000000000E+00  0.00000000000E+00 -0.12779191957E+04  0.14570775471E+04  0.69999821953E+03 0.  0.
        4    1    3    3  502    0  0.10096380878E+02  0.32913625491E+03 -0.39209548696E+03  0.51202841230E+03  0.12699999809E+01 0.  1.
       -4    1    3    3    0  502 -0.10096380878E+02 -0.32913625491E+03 -0.88582370878E+03  0.94504913477E+03  0.12699999809E+01 0. -1.
</event>
<event>
 5   0  0.3013140E-03  0.6999750E+03  0.7818609E-02  0.9717275E-01
       -1   -1    0    0    0  501  0.00000000000E+00  0.00000000000E+00  0.89438090883E+02  0.89438091025E+02  0.50400001928E-02 0.  1.
        1   -1    0    0  501    0  0.00000000000E+00  0.00000000000E+00 -0.13695648138E+04  0.13695648138E+04  0.50400001928E-02 0. -1.
    10030    2    1    2    0    0  0.00000000000E+00  0.00000000000E+00 -0.12801267229E+04  0.14590029048E+04  0.69997503497E+03 0.  0.
        2    1    3    3  502    0  0.22490423317E+03 -0.93324132014E+02 -0.11640642085E+04  0.11892589244E+04  0.25500000920E-02 0. -1.
       -2    1    3    3    0  502 -0.22490423317E+03  0.93324132014E+02 -0.11606251436E+03  0.26974398039E+03  0.25500000920E-02 0.  1.
</event>
<event>
 5   0  0.4878235E-03  0.6997243E+03  0.7818609E-02  0.9717704E-01
        2   -1    0    0  501    0  0.00000000000E+00  0.00000000000E+00  0.18141549781E+04  0.18141549781E+04  0.25500000920E-02 0. -1.
       -2   -1    0    0    0  501  0.00000000000E+00  0.00000000000E+00 -0.67471371799E+02  0.67471371847E+02  0.25500000920E-02 0.  1.
    10030    2    1    2    0    0  0.00000000000E+00  0.00000000000E+00  0.17466836063E+04  0.18816263499E+04  0.69972430306E+03 0.  0.
        4    1    3    3  502    0 -0.11641806499E+03  0.21298728797E+03  0.15508936638E+04  0.15697737162E+04  0.12699999809E+01 0. -1.
       -4    1    3    3    0  502  0.11641806499E+03 -0.21298728797E+03  0.19578994245E+03  0.31185263372E+03  0.12699999809E+01 0.  1.
</event>
<event>
 5   0  0.5072407E-03  0.7008996E+03  0.7818609E-02  0.9715695E-01
       -2   -1    0    0    0  501  0.00000000000E+00  0.00000000000E+00  0.32050533552E+03  0.32050533553E+03  0.25500000920E-02 0.  1.
        2   -1    0    0  501    0  0.00000000000E+00  0.00000000000E+00 -0.38319192246E+03  0.38319192247E+03  0.25500000920E-02 0. -1.
    10030    2    1    2    0    0  0.00000000000E+00  0.00000000000E+00 -0.62686586943E+02  0.70369725800E+03  0.70089958106E+03 0.  0.
        1    1    3    3  502    0 -0.12452329254E+02 -0.30162424635E+03 -0.21005043127E+03  0.36776817452E+03  0.50400001928E-02 0. -1.
       -1    1    3    3    0  502  0.12452329254E+02  0.30162424635E+03  0.14736384432E+03  0.33592908348E+03  0.50400001928E-02 0.  1.
</event>
<event>
 5   0  0.1981750E-03  0.7003689E+03  0.7818609E-02  0.9716602E-01
       -3   -1    0    0    0  501  0.00000000000E+00  0.00000000000E+00  0.82756687845E+03  0.82756688462E+03  0.10100000352E+00 0. -1.
        3   -1    0    0  501    0  0.00000000000E+00  0.00000000000E+00 -0.14818032436E+03  0.14818035878E+03  0.10100000352E+00 0.  1.
    10030    2    1    2    0    0  0.00000000000E+00  0.00000000000E+00  0.67938655409E+03  0.97574724340E+03  0.70036889789E+03 0.  0.
        1    1    3    3  502    0 -0.22594212802E+03 -0.23468037638E+03  0.51867581715E+03  0.61249434903E+03  0.50400001928E-02 0. -1.
       -1    1    3    3    0  502  0.22594212802E+03  0.23468037638E+03  0.16071073694E+03  0.36325289437E+03  0.50400001928E-02 0.  1.
</event>
<event>
 5   0  0.4878235E-03  0.7018488E+03  0.7818609E-02  0.9714076E-01
        2   -1    0    0  501    0  0.00000000000E+00  0.00000000000E+00  0.12967920122E+04  0.12967920122E+04  0.25500000920E-02 0. -1.
       -2   -1    0    0    0  501  0.00000000000E+00  0.00000000000E+00 -0.94963521801E+02  0.94963521835E+02  0.25500000920E-02 0.  1.
    10030    2    1    2    0    0  0.00000000000E+00  0.00000000000E+00  0.12018284904E+04  0.13917555341E+04  0.70184880580E+03 0.  0.
        4    1    3    3  502    0  0.12241452306E+03  0.14826292631E+03  0.18783682252E+02  0.19318812177E+03  0.12699999809E+01 0.  1.
       -4    1    3    3    0  502 -0.12241452306E+03 -0.14826292631E+03  0.11830448082E+04  0.11985674123E+04  0.12699999809E+01 0. -1.
</event>
<event>
 5   0  0.2937617E-03  0.6994319E+03  0.7818609E-02  0.9718204E-01
        1   -1    0    0  501    0  0.00000000000E+00  0.00000000000E+00  0.15762431674E+04  0.15762431675E+04  0.50400001928E-02 0.  1.
       -1   -1    0    0    0  501  0.00000000000E+00  0.00000000000E+00 -0.77590334530E+02  0.77590334694E+02  0.50400001928E-02 0. -1.
    10030    2    1    2    0    0  0.00000000000E+00  0.00000000000E+00  0.14986528329E+04  0.16538335022E+04  0.69943186889E+03 0.  0.
        3    1    3    3  502    0  0.12814867028E+03 -0.32067676669E+03  0.61883572393E+03  0.70867011635E+03  0.10100000352E+00 0. -1.
       -3    1    3    3    0  502 -0.12814867028E+03  0.32067676669E+03  0.87981710899E+03  0.94516338580E+03  0.10100000352E+00 0.  1.
</event>
<event>
 5   0  0.5076796E-03  0.6996000E+03  0.7818609E-02  0.9717917E-01
        2   -1    0    0  501    0  0.00000000000E+00  0.00000000000E+00  0.54189044981E+03  0.54189044982E+03  0.25500000920E-02 0. -1.
       -2   -1    0    0    0  501  0.00000000000E+00  0.00000000000E+00 -0.22580214726E+03  0.22580214728E+03  0.25500000920E-02 0.  1.
    10030    2    1    2    0    0  0.00000000000E+00  0.00000000000E+00  0.31608830255E+03  0.76769259709E+03  0.69959996328E+03 0.  0.
        5    1    3    3  502    0 -0.10472018544E+03  0.21293385432E+03 -0.12393099665E+03  0.26774638276E+03  0.46999998093E+01 0.  1.
       -5    1    3    3    0  502  0.10472018544E+03 -0.21293385432E+03  0.44001929920E+03  0.49994621433E+03  0.46999998093E+01 0. -1.
</event>
<event>
 5   0  0.2937617E-03  0.6976131E+03  0.7818609E-02  0.9721323E-01
       -1   -1    0    0    0  501  0.00000000000E+00  0.00000000000E+00  0.91243880684E+03  0.91243880686E+03  0.50400001928E-02 0.  1.
        1   -1    0    0  501    0  0.00000000000E+00  0.00000000000E+00 -0.13334157236E+03  0.13334157245E+03  0.50400001928E-02 0. -1.
    10030    2    1    2    0    0  0.00000000000E+00  0.00000000000E+00  0.77909723449E+03  0.10457803793E+04  0.69761314563E+03 0.  0.
        3    1    3    3  502    0 -0.33143947542E+01 -0.43053963417E+02  0.90841645914E+03  0.90944219301E+03  0.10100000352E+00 0.  1.
       -3    1    3    3    0  502  0.33143947542E+01  0.43053963417E+02 -0.12931922465E+03  0.13633818630E+03  0.10100000352E+00 0. -1.
</event>
<event>
 5   0  0.2937617E-03  0.6995438E+03  0.7818609E-02  0.9718013E-01
       -1   -1    0    0    0  501  0.00000000000E+00  0.00000000000E+00  0.85401978882E+02  0.85401979030E+02  0.50400001928E-02 0. -1.
        1   -1    0    0  501    0  0.00000000000E+00  0.00000000000E+00 -0.14325239990E+04  0.14325239990E+04  0.50400001928E-02 0.  1.
    10030    2    1    2    0    0  0.00000000000E+00  0.00000000000E+00 -0.13471220201E+04  0.15179259780E+04  0.69954380686E+03 0.  0.
        3    1    3    3  502    0  0.94330067727E+02  0.52157258858E+02  0.48464115607E+02  0.11818342537E+03  0.10100000352E+00 0. -1.
       -3    1    3    3    0  502 -0.94330067727E+02 -0.52157258858E+02 -0.13955861357E+04  0.13997425527E+04  0.10100000352E+00 0.  1.
</event>
<event>
 5   0  0.5113683E-03  0.6995515E+03  0.7818609E-02  0.9718000E-01
       -2   -1    0    0    0  501  0.00000000000E+00  0.00000000000E+00  0.10526614763E+03  0.10526614766E+03  0.25500000920E-02 0.  1.
        2   -1    0    0  501    0  0.00000000000E+00  0.00000000000E+00 -0.11622260974E+04  0.11622260974E+04  0.25500000920E-02 0. -1.
    10030    2    1    2    0    0  0.00000000000E+00  0.00000000000E+00 -0.10569599498E+04  0.12674922451E+04  0.69955146764E+03 0.  0.
        3    1    3    3  502    0 -0.55412756010E+02  0.17334930010E+03  0.12726313006E+02  0.18243498189E+03  0.10100000352E+00 0.  1.
       -3    1    3    3    0  502  0.55412756010E+02 -0.17334930010E+03 -0.10696862628E+04  0.10850572632E+04  0.10100000352E+00 0. -1.
</event>
<event>
 5   0  0.1981750E-03  0.7000055E+03  0.7818609E-02  0.9717223E-01
       -3   -1    0    0    0  501  0.00000000000E+00  0.00000000000E+00  0.36721841142E+03  0.36721842531E+03  0.10100000352E+00 0. -1.
        3   -1    0    0  501    0  0.00000000000E+00  0.00000000000E+00 -0.33359412051E+03  0.33359413580E+03  0.10100000352E+00 0.  1.
    10030    2    1    2    0    0  0.00000000000E+00  0.00000000000E+00  0.33624290915E+02  0.70081256111E+03  0.70000546632E+03 0.  0.
        5    1    3    3  502    0 -0.15973742427E+03  0.14805012001E+03  0.29107131376E+03  0.36356496317E+03  0.46999998093E+01 0. -1.
       -5    1    3    3    0  502  0.15973742427E+03 -0.14805012001E+03 -0.25744702285E+03  0.33724759795E+03  0.46999998093E+01 0.  1.
</event>
<event>
 5   0  0.2913582E-03  0.7004728E+03  0.7818609E-02  0.9716424E-01
        1   -1    0    0  501    0  0.00000000000E+00  0.00000000000E+00  0.23542024624E+03  0.23542024629E+03  0.50400001928E-02 0.  1.
       -1   -1    0    0    0  501  0.00000000000E+00  0.00000000000E+00 -0.52104927585E+03  0.52104927587E+03  0.50400001928E-02 0. -1.
    10030    2    1    2    0    0  0.00000000000E+00  0.00000000000E+00 -0.28562902961E+03  0.75646952217E+03  0.70047283703E+03 0.  0.
        1    1    3    3  502    0 -0.21079875653E+03 -0.14382065533E+03  0.11624773356E+03  0.28041760330E+03  0.50400001928E-02 0.  1.
       -1    1    3    3    0  502  0.21079875653E+03  0.14382065533E+03 -0.40187676317E+03  0.47605191887E+03  0.50400001928E-02 0. -1.
</event>
<event>
 5   0  0.2938783E-03  0.7001258E+03  0.7818609E-02  0.9717017E-01
       -1   -1    0    0    0  501  0.00000000000E+00  0.00000000000E+00  0.37188914556E+03  0.37188914559E+03  0.50400001928E-02 0.  1.
        1   -1    0    0  501    0  0.00000000000E+00  0.00000000000E+00 -0.32951768472E+03  0.32951768476E+03  0.50400001928E-02 0. -1.
    10030    2    1    2    0    0  0.00000000000E+00  0.00000000000E+00  0.42371460840E+02  0.70140683035E+03  0.70012584652E+03 0.  0.
        4    1    3    3  502    0 -0.25432733787E+03  0.44380600857E+02  0.25802979610E+03  0.36501098764E+03  0.12699999809E+01 0.  1.
       -4    1    3    3    0  502  0.25432733787E+03 -0.44380600857E+02 -0.21565833526E+03  0.33639584271E+03  0.12699999809E+01 0. -1.
</event>
<event>
 5   0  0.2934483E-03  0.6978648E+03  0.7818609E-02  0.9720891E-01
        1   -1    0    0  501    0  0.00000000000E+00  0.00000000000E+00  0.57339115659E+03  0.57339115661E+03  0.50400001928E-02 0. -1.
       -1   -1    0    0    0  501  0.00000000000E+00  0.00000000000E+00 -0.21233991824E+03  0.21233991830E+03  0.50400001928E-02 0.  1.
    10030    2    1    2    0    0  0.00000000000E+00  0.00000000000E+00  0.36105123834E+03  0.78573107491E+03  0.69786483317E+03 0.  0.
        5    1    3    3  502    0  0.75350729595E+02 -0.19197081567E+03 -0.13633519738E+03  0.24726484295E+03  0.46999998093E+01 0.  1.
       -5    1    3    3    0  502 -0.75350729595E+02  0.19197081567E+03  0.49738643572E+03  0.53846623196E+03  0.46999998093E+01 0. -1.
</event>
<event>
 5   0  0.1981750E-03  0.7001081E+03  0.7818609E-02  0.9717047E-01
       -3   -1    0    0    0  501  0.00000000000E+00  0.00000000000E+00  0.61961851642E+02  0.61961933959E+02  0.10100000352E+00 0. -1.
        3   -1    0    0  501    0  0.00000000000E+00  0.00000000000E+00 -0.19776324061E+04  0.19776324087E+04  0.10100000352E+00 0.  1.
    10030    2    1    2    0    0  0.00000000000E+00  0.00000000000E+00 -0.19156705545E+04  0.20395943427E+04  0.70010814115E+03 0.  0.
        3    1    3    3  502    0  0.29819707086E+03  0.73383609621E+02 -0.14473246879E+04  0.14795456767E+04  0.10100000352E+00 0.  1.
       -3    1    3    3    0  502 -0.29819707086E+03 -0.73383609621E+02 -0.46834586662E+03  0.56004866593E+03  0.10100000352E+00 0. -1.
</event>
<event>
 5   0  0.2938783E-03  0.7008648E+03  0.7818609E-02  0.9715754E-01
        1   -1    0    0  501    0  0.00000000000E+00  0.00000000000E+00  0.36621380976E+03  0.36621380980E+03  0.50400001928E-02 0.  1.
       -1   -1    0    0    0  501  0.00000000000E+00  0.00000000000E+00 -0.33533107054E+03  0.33533107058E+03  0.50400001928E-02 0. -1.
    10030    2    1    2    0    0  0.00000000000E+00  0.00000000000E+00  0.30882739225E+02  0.70154488038E+03  0.70086480551E+03 0.  0.
        4    1    3    3  502    0  0.16334407866E+03 -0.25244851689E+03  0.19558742881E+03  0.35870265809E+03  0.12699999809E+01 0.  1.
       -4    1    3    3    0  502 -0.16334407866E+03  0.25244851689E+03 -0.16470468959E+03  0.34284222229E+03  0.12699999809E+01 0. -1.
</event>
<event>
 5   0  0.2913582E-03  0.7012225E+03  0.7818609E-02  0.9715144E-01
        1   -1    0    0  501    0  0.00000000000E+00  0.00000000000E+00  0.11966427823E+04  0.11966427824E+04  0.50400001928E-02 0. -1.
       -1   -1    0    0    0  501  0.00000000000E+00  0.00000000000E+00 -0.10272761934E+03  0.10272761946E+03  0.50400001928E-02 0.  1.
    10030    2    1    2    0    0  0.00000000000E+00  0.00000000000E+00  0.10939151630E+04  0.12993704018E+04  0.70122254474E+03 0.  0.
        1    1    3    3  502    0  0.18905853334E+03  0.33853255459E+02  0.34257172316E+01  0.19209608923E+03  0.50400001928E-02 0.  1.
       -1    1    3    3    0  502 -0.18905853334E+03 -0.33853255459E+02  0.10904894458E+04  0.11072743126E+04  0.50400001928E-02 0. -1.
</event>
<event>
 5   0  0.4878235E-03  0.7001497E+03  0.7818609E-02  0.9716976E-01
        2   -1    0    0  501    0  0.00000000000E+00  0.00000000000E+00  0.95891109731E+03  0.95891109732E+03  0.25500000920E-02 0. -1.
       -2   -1    0    0    0  501  0.00000000000E+00  0.00000000000E+00 -0.12780372237E+03  0.12780372240E+03  0.25500000920E-02 0.  1.
    10030    2    1    2    0    0  0.00000000000E+00  0.00000000000E+00  0.83110737494E+03  0.10867148197E+04  0.70014972021E+03 0.  0.
        4    1    3    3  502    0  0.18833530038E+02  0.24168905424E+03  0.23563298909E+02  0.24356753221E+03  0.12699999809E+01 0.  1.
       -4    1    3    3    0  502 -0.18833530038E+02 -0.24168905424E+03  0.80754407603E+03  0.84314728750E+03  0.12699999809E+01 0. -1.
</event>
<event>
 5   0  0.2938783E-03  0.6992295E+03  0.7818609E-02  0.9718551E-01
        1   -1    0    0  501    0  0.00000000000E+00  0.00000000000E+00  0.60793184130E+03  0.60793184132E+03  0.50400001928E-02 0. -1.
       -1   -1    0    0    0  501  0.00000000000E+00  0.00000000000E+00 -0.20105951241E+03  0.20105951248E+03  0.50400001928E-02 0.  1.
    10030    2    1    2    0    0  0.00000000000E+00  0.00000000000E+00  0.40687232889E+03  0.80899135380E+03  0.69922951776E+03 0.  0.
        4    1    3    3  502    0 -0.65288642449E+01 -0.34630384098E+03  0.25843681333E+03  0.43215758206E+03  0.12699999809E+01 0.  1.
       -4    1    3    3    0  502  0.65288642449E+01  0.34630384098E+03  0.14843551556E+03  0.37683377174E+03  0.12699999809E+01 0. -1.
</event>
<event>
 5   0  0.2938783E-03  0.6999255E+03  0.7818609E-02  0.9717360E-01
       -1   -1    0    0    0  501  0.00000000000E+00  0.00000000000E+00  0.11883954580E+04  0.11883954580E+04  0.50400001928E-02 0. -1.
        1   -1    0    0  501    0  0.00000000000E+00  0.00000000000E+00 -0.10305823338E+03  0.10305823350E+03  0.50400001928E-02 0.  1.
    10030    2    1    2    0    0  0.00000000000E+00  0.00000000000E+00  0.10853372247E+04  0.12914536915E+04  0.69992552903E+03 0.  0.
        4    1    3    3  502    0  0.10712458896E+03 -0.97701979672E+02  0.11303678185E+04  0.11396290504E+04  0.12699999809E+01 0. -1.
       -4    1    3    3    0  502 -0.10712458896E+03  0.97701979672E+02 -0.45030593850E+02  0.15182464120E+03  0.12699999809E+01 0.  1.
</event>
<event>
 5   0  0.2937617E-03  0.6986271E+03  0.7818609E-02  0.9719583E-01
        1   -1    0    0  501    0  0.00000000000E+00  0.00000000000E+00  0.28076363184E+03  0.28076363188E+03  0.50400001928E-02 0.  1.
       -1   -1    0    0    0  501  0.00000000000E+00  0.00000000000E+00 -0.43460034229E+03  0.43460034232E+03  0.50400001928E-02 0. -1.
    10030    2    1    2    0    0  0.00000000000E+00  0.00000000000E+00 -0.15383671045E+03  0.71536397420E+03  0.69862714097E+03 0.  0.
        3    1    3    3  502    0 -0.41319874172E+02 -0.23675188678E+03  0.18265250367E+03  0.30186211288E+03  0.10100000352E+00 0.  1.
       -3    1    3    3    0  502  0.41319874172E+02  0.23675188678E+03 -0.33648921412E+03  0.41350186132E+03  0.10100000352E+00 0. -1.
</event>
<event>
 5   0  0.2937617E-03  0.7001900E+03  0.7818609E-02  0.9716907E-01
        1   -1    0    0  501    0  0.00000000000E+00  0.00000000000E+00  0.72714311514E+02  0.72714311688E+02  0.50400001928E-02 0.  1.
       -1   -1    0    0    0  501  0.00000000000E+00  0.00000000000E+00 -0.16855896677E+04  0.16855896677E+04  0.50400001928E-02 0. -1.
    10030    2    1    2    0    0  0.00000000000E+00  0.00000000000E+00 -0.16128753562E+04  0.17583039794E+04  0.70018995235E+03 0.  0.
        3    1    3    3  502    0 -0.32486589823E+03  0.30393420469E+02 -0.48775628982E+03  0.58682861238E+03  0.10100000352E+00 0.  1.
       -3    1    3    3    0  502  0.32486589823E+03 -0.30393420469E+02 -0.11251190664E+04  0.11714753670E+04  0.10100000352E+00 0. -1.
</event>
<event>
 5   0  0.1981750E-03  0.7001547E+03  0.7818609E-02  0.9716968E-01
       -3   -1    0    0    0  501  0.00000000000E+00  0.00000000000E+00  0.31580506104E+03  0.31580507719E+03  0.10100000352E+00 0. -1.
        3   -1    0    0  501    0  0.00000000000E+00  0.00000000000E+00 -0.38806894409E+03  0.38806895723E+03  0.10100000352E+00 0.  1.
    10030    2    1    2    0    0  0.00000000000E+00  0.00000000000E+00 -0.72263883051E+02  0.70387403442E+03  0.70015468829E+03 0.  0.
        3    1    3    3  502    0  0.31640787203E+03 -0.68137195753E+02 -0.17024796272E+03  0.36570616339E+03  0.10100000352E+00 0.  1.
       -3    1    3    3    0  502 -0.31640787203E+03  0.68137195753E+02  0.97984079671E+02  0.33816787103E+03  0.10100000352E+00 0. -1.
</event>
<event>
 5   0  0.4878235E-03  0.6981640E+03  0.7818609E-02  0.9720377E-01
        2   -1    0    0  501    0  0.00000000000E+00  0.00000000000E+00  0.70569048245E+03  0.70569048246E+03  0.25500000920E-02 0.  1.
       -2   -1    0    0    0  501  0.00000000000E+00  0.00000000000E+00 -0.17267943272E+03  0.17267943274E+03  0.25500000920E-02 0. -1.
    10030    2    1    2    0    0  0.00000000000E+00  0.00000000000E+00  0.53301104973E+03  0.87836991520E+03  0.69816396985E+03 0.  0.
        4    1    3    3  502    0  0.13424347277E+03  0.12075731726E+03 -0.10935903819E+03  0.21110341491E+03  0.12699999809E+01 0. -1.
       -4    1    3    3    0  502 -0.13424347277E+03 -0.12075731726E+03  0.64237008793E+03  0.66726650029E+03  0.12699999809E+01 0.  1.
</event>
<event>
 5   0  0.3013140E-03  0.7029190E+03  0.7818609E-02  0.9712253E-01
        1   -1    0    0  501    0  0.00000000000E+00  0.00000000000E+00  0.32412457731E+03  0.32412457735E+03  0.50400001928E-02 0. -1.
       -1   -1    0    0    0  501  0.00000000000E+00  0.00000000000E+00 -0.38109974003E+03  0.38109974007E+03  0.50400001928E-02 0.  1.
    10030    2    1    2    0    0  0.00000000000E+00  0.00000000000E+00 -0.56975162720E+02  0.70522431742E+03  0.70291903425E+03 0.  0.
        2    1    3    3  502    0  0.14837392546E+03 -0.18933313045E+03  0.22859864980E+03  0.33184212924E+03  0.25500000920E-02 0. -1.
       -2    1    3    3    0  502 -0.14837392546E+03  0.18933313045E+03 -0.28557381252E+03  0.37338218818E+03  0.25500000920E-02 0.  1.
</event>
<event>
 5   0  0.2938783E-03  0.7023536E+03  0.7818609E-02  0.9713216E-01
       -1   -1    0    0    0  501  0.00000000000E+00  0.00000000000E+00  0.21392209023E+03  0.21392209029E+03  0.50400001928E-02 0. -1.
        1   -1    0    0  501    0  0.00000000000E+00  0.00000000000E+00 -0.57649568358E+03  0.57649568360E+03  0.50400001928E-02 0.  1.
    10030    2    1    2    0    0  0.00000000000E+00  0.00000000000E+00 -0.36257359335E+03  0.79041777390E+03  0.70235364789E+03 0.  0.
        4    1    3    3  502    0  0.10051334353E+03  0.32601801973E+03 -0.27499061770E+03  0.43819189191E+03  0.12699999809E+01 0.  1.
       -4    1    3    3    0  502 -0.10051334353E+03 -0.32601801973E+03 -0.87582975651E+02  0.35222588199E+03  0.12699999809E+01 0. -1.
</event>
<event>
 5   0  0.4878235E-03  0.6997334E+03  0.7818609E-02  0.9717688E-01
       -2   -1    0    0    0  501  0.00000000000E+00  0.00000000000E+00  0.17891246693E+03  0.17891246695E+03  0.25500000920E-02 0. -1.
        2   -1    0    0  501    0  0.00000000000E+00  0.00000000000E+00 -0.68417089521E+03  0.68417089522E+03  0.25500000920E-02 0.  1.
    10030    2    1    2    0    0  0.00000000000E+00  0.00000000000E+00 -0.50525842828E+03  0.86308336216E+03  0.69973338543E+03 0.  0.
        4    1    3    3  502    0  0.25241104037E+02  0.23916457314E+03 -0.56605142489E+03  0.61502246699E+03  0.12699999809E+01 0.  1.
       -4    1    3    3    0  502 -0.25241104037E+02 -0.23916457314E+03  0.60792996608E+02  0.24806089517E+03  0.12699999809E+01 0. -1.
</event>
<event>
 5   0  0.5076796E-03  0.7030133E+03  0.7818609E-02  0.9712093E-01
       -2   -1    0    0    0  501  0.00000000000E+00  0.00000000000E+00  0.14663711541E+03  0.14663711543E+03  0.25500000920E-02 0. -1.
        2   -1    0    0  501    0  0.00000000000E+00  0.00000000000E+00 -0.84260329070E+03  0.84260329070E+03  0.25500000920E-02 0.  1.
    10030    2    1    2    0    0  0.00000000000E+00  0.00000000000E+00 -0.69596617529E+03  0.98924040614E+03  0.70301327440E+03 0.  0.
        5    1    3    3  502    0  0.30715850715E+03  0.94695578177E+02 -0.54808076699E+03  0.63539611125E+03  0.46999998093E+01 0.  1.
       -5    1    3    3    0  502 -0.30715850715E+03 -0.94695578177E+02 -0.14788540829E+03  0.35384429489E+03  0.46999998093E+01 0. -1.
</event>
<event>
 5   0  0.2938783E-03  0.7051749E+03  0.7818609E-02  0.9708423E-01
       -1   -1    0    0    0  501  0.00000000000E+00  0.00000000000E+00  0.64522122446E+03  0.64522122448E+03  0.50400001928E-02 0.  1.
        1   -1    0    0  501    0  0.00000000000E+00  0.00000000000E+00 -0.19267488198E+03  0.19267488205E+03  0.50400001928E-02 0. -1.
    10030    2    1    2    0    0  0.00000000000E+00  0.00000000000E+00  0.45254634248E+03  0.83789610653E+03  0.70517493804E+03 0.  0.
        4    1    3    3  502    0 -0.55112073551E+02 -0.37785883245E+02 -0.18507966007E+03  0.19677704921E+03  0.12699999809E+01 0. -1.
       -4    1    3    3    0  502  0.55112073551E+02  0.37785883245E+02  0.63762600255E+03  0.64111905732E+03  0.12699999809E+01 0.  1.
</event>
<event>
 5   0  0.4878235E-03  0.7012419E+03  0.7818609E-02  0.9715111E-01
        2   -1    0    0  501    0  0.00000000000E+00  0.00000000000E+00  0.46028283252E+03  0.46028283253E+03  0.25500000920E-02 0. -1.
       -2   -1    0    0    0  501  0.00000000000E+00  0.00000000000E+00 -0.26708591104E+03  0.26708591105E+03  0.25500000920E-02 0.  1.
    10030    2    1    2    0    0  0.00000000000E+00  0.00000000000E+00  0.19319692148E+03  0.72736874358E+03  0.70124192592E+03 0.  0.
        4    1    3    3  502    0 -0.53413239476E+02 -0.10228761625E+02  0.45587897990E+03  0.45911312215E+03  0.12699999809E+01 0. -1.
       -4    1    3    3    0  502  0.53413239476E+02  0.10228761625E+02 -0.26268205842E+03  0.26825562143E+03  0.12699999809E+01 0.  1.
</event>
<event>
 5   0  0.5113683E-03  0.7022925E+03  0.7818609E-02  0.9713320E-01
        2   -1    0    0  501    0  0.00000000000E+00  0.00000000000E+00  0.93955845163E+03  0.93955845164E+03  0.25500000920E-02 0.  1.
       -2   -1    0    0    0  501  0.00000000000E+00  0.00000000000E+00 -0.13123578105E+03  0.13123578107E+03  0.25500000920E-02 0. -1.
    10030    2    1    2    0    0  0.00000000000E+00  0.00000000000E+00  0.80832267058E+03  0.10707942327E+04  0.70229249535E+03 0.  0.
        3    1    3    3  502    0 -0.11928104061E+03 -0.58695325656E+02  0.89970600123E+03  0.90947457730E+03  0.10100000352E+00 0.  1.
       -3    1    3    3    0  502  0.11928104061E+03  0.58695325656E+02 -0.91383330645E+02  0.16131965541E+03  0.10100000352E+00 0. -1.
</event>
<event>
 5   0  0.2934483E-03  0.7015964E+03  0.7818609E-02  0.9714506E-01
        1   -1    0    0  501    0  0.00000000000E+00  0.00000000000E+00  0.43914243851E+03  0.43914243854E+03  0.50400001928E-02 0. -1.
       -1   -1    0    0    0  501  0.00000000000E+00  0.00000000000E+00 -0.28022657866E+03  0.28022657871E+03  0.50400001928E-02 0.  1.
    10030    2    1    2    0    0  0.00000000000E+00  0.00000000000E+00  0.15891585985E+03  0.71936901725E+03  0.70159641708E+03 0.  0.
        5    1    3    3  502    0 -0.30354100859E+03  0.32287404358E+02 -0.97712950528E+02  0.32054567705E+03  0.46999998093E+01 0. -1.
       -5    1    3    3    0  502  0.30354100859E+03 -0.32287404358E+02  0.25662881038E+03  0.39882334020E+03  0.46999998093E+01 0.  1.
</event>
<event>
 5   0  0.5023894E-03  0.7013763E+03  0.7818609E-02  0.9714881E-01
        2   -1    0    0  501    0  0.00000000000E+00  0.00000000000E+00  0.52114106835E+03  0.52114106835E+03  0.25500000920E-02 0.  1.
       -2   -1    0    0    0  501  0.00000000000E+00  0.00000000000E+00 -0.23598632696E+03  0.23598632698E+03  0.25500000920E-02 0. -1.
    10030    2    1    2    0    0  0.00000000000E+00  0.00000000000E+00  0.28515474138E+03  0.75712739533E+03  0.70137626580E+03 0.  0.
        2    1    3    3  502    0 -0.19876171670E+03 -0.98743302651E+02  0.43568516496E+03  0.48895605407E+03  0.25500000920E-02 0.  1.
       -2    1    3    3    0  502  0.19876171670E+03  0.98743302651E+02 -0.15053042357E+03  0.26817134126E+03  0.25500000920E-02 0. -1.
</event>
<event>
 5   0  0.2934483E-03  0.6997269E+03  0.7818609E-02  0.9717699E-01
       -1   -1    0    0    0  501  0.00000000000E+00  0.00000000000E+00  0.82536755368E+02  0.82536755522E+02  0.50400001928E-02 0. -1.
        1   -1    0    0  501    0  0.00000000000E+00  0.00000000000E+00 -0.14830291743E+04  0.14830291743E+04  0.50400001928E-02 0.  1.
    10030    2    1    2    0    0  0.00000000000E+00  0.00000000000E+00 -0.14004924189E+04  0.15655659298E+04  0.69972685040E+03 0.  0.
        5    1    3    3  502    0  0.97759347134E+02  0.16915745261E+03 -0.13495197896E+04  0.13635970395E+04  0.46999998093E+01 0.  1.
       -5    1    3    3    0  502 -0.97759347134E+02 -0.16915745261E+03 -0.50972629396E+02  0.20196889035E+03  0.46999998093E+01 0. -1.
</event>
<event>
 5   0  0.5023894E-03  0.6997734E+03  0.7818609E-02  0.9717620E-01
        2   -1    0    0  501    0  0.00000000000E+00  0.00000000000E+00  0.48736241584E+03  0.48736241585E+03  0.25500000920E-02 0.  1.
       -2   -1    0    0    0  501  0.00000000000E+00  0.00000000000E+00 -0.25119029930E+03  0.25119029931E+03  0.25500000920E-02 0. -1.
    10030    2    1    2    0    0  0.00000000000E+00  0.00000000000E+00  0.23617211655E+03  0.73855271516E+03  0.69977342364E+03 0.  0.
        2    1    3    3  502    0 -0.20028312284E+03 -0.17988417068E+03 -0.11779210885E+03  0.29384796251E+03  0.25500000920E-02 0. -1.
       -2    1    3    3    0  502  0.20028312284E+03  0.17988417068E+03  0.35396422540E+03  0.44470475265E+03  0.25500000920E-02 0.  1.
</event>
<event>
 5   0  0.2937617E-03  0.6997391E+03  0.7818609E-02  0.9717679E-01
        1   -1    0    0  501    0  0.00000000000E+00  0.00000000000E+00  0.65887243840E+03  0.65887243842E+03  0.50400001928E-02 0. -1.
       -1   -1    0    0    0  501  0.00000000000E+00  0.00000000000E+00 -0.18578512127E+03  0.18578512134E+03  0.50400001928E-02 0.  1.
    10030    2    1    2    0    0  0.00000000000E+00  0.00000000000E+00  0.47308731713E+03  0.84465755977E+03  0.69973908254E+03 0.  0.
        3    1    3    3  502    0 -0.16225670058E+03 -0.30880694216E+03  0.20415993976E+03  0.40419086532E+03  0.10100000352E+00 0.  1.
       -3    1    3    3    0  502  0.16225670058E+03  0.30880694216E+03  0.26892737737E+03  0.44046669444E+03  0.10100000352E+00 0. -1.
</event>
<event>
 5   0  0.5113683E-03  0.6999823E+03  0.7818609E-02  0.9717262E-01
       -2   -1    0    0    0  501  0.00000000000E+00  0.00000000000E+00  0.13533557090E+03  0.13533557092E+03  0.25500000920E-02 0.  1.
        2   -1    0    0  501    0  0.00000000000E+00  0.00000000000E+00 -0.90511164521E+03  0.90511164521E+03  0.25500000920E-02 0. -1.
    10030    2    1    2    0    0  0.00000000000E+00  0.00000000000E+00 -0.76977607431E+03  0.10404472161E+04  0.69998228904E+03 0.  0.
        3    1    3    3  502    0  0.69674253543E+02  0.34298475078E+03 -0.38617543269E+03  0.52117608914E+03  0.10100000352E+00 0.  1.
       -3    1    3    3    0  502 -0.69674253543E+02 -0.34298475078E+03 -0.38360064162E+03  0.51927112699E+03  0.10100000352E+00 0. -1.
</event>
<event>
 5   0  0.3013140E-03  0.6989281E+03  0.7818609E-02  0.9719067E-01
        1   -1    0    0  501    0  0.00000000000E+00  0.00000000000E+00  0.24109071674E+03  0.24109071679E+03  0.50400001928E-02 0.  1.
       -1   -1    0    0    0  501  0.00000000000E+00  0.00000000000E+00 -0.50655250280E+03  0.50655250283E+03  0.50400001928E-02 0. -1.
    10030    2    1    2    0    0  0.00000000000E+00  0.00000000000E+00 -0.26546178606E+03  0.74764321962E+03  0.69892805351E+03 0.  0.
        2    1    3    3  502    0 -0.11152586302E+03  0.30863025715E+03 -0.26124833731E+03  0.41945362974E+03  0.25500000920E-02 0.  1.
       -2    1    3    3    0  502  0.11152586302E+03 -0.30863025715E+03 -0.42134487492E+01  0.32818958988E+03  0.25500000920E-02 0. -1.
</event>
<event>
 5   0  0.2913582E-03  0.6976431E+03  0.7818609E-02  0.9721271E-01
        1   -1    0    0  501    0  0.00000000000E+00  0.00000000000E+00  0.13791623139E+04  0.13791623139E+04  0.50400001928E-02 0.  1.
       -1   -1    0    0    0  501  0.00000000000E+00  0.00000000000E+00 -0.88224902984E+02  0.88224903128E+02  0.50400001928E-02 0. -1.
    10030    2    1    2    0    0  0.00000000000E+00  0.00000000000E+00  0.12909374109E+04  0.14673872171E+04  0.69764306478E+03 0.  0.
        1    1    3    3  502    0 -0.27064438690E+03 -0.21043127009E+03  0.78091458174E+03  0.85285244187E+03  0.50400001928E-02 0.  1.
       -1    1    3    3    0  502  0.27064438690E+03  0.21043127009E+03  0.51002282920E+03  0.61453477520E+03  0.50400001928E-02 0. -1.
</event>
<event>
 5   0  0.5023894E-03  0.6987956E+03  0.7818609E-02  0.9719294E-01
       -2   -1    0    0    0  501  0.00000000000E+00  0.00000000000E+00  0.12923985752E+03  0.12923985755E+03  0.25500000920E-02 0. -1.
        2   -1    0    0  501    0  0.00000000000E+00  0.00000000000E+00 -0.94459119757E+03  0.94459119757E+03  0.25500000920E-02 0.  1.
    10030    2    1    2    0    0  0.00000000000E+00  0.00000000000E+00 -0.81535134004E+03  0.10738310551E+04  0.69879562623E+03 0.  0.
        2    1    3    3  502    0 -0.52012577534E+02  0.88921342573E+02 -0.92072367094E+03  0.92646877531E+03  0.25500000920E-02 0.  1.
       -2    1    3    3    0  502  0.52012577534E+02 -0.88921342573E+02  0.10537233090E+03  0.14736227981E+03  0.25500000920E-02 0. -1.
</event>
<event>
 5   0  0.2937617E-03  0.7008643E+03  0.7818609E-02  0.9715755E-01
        1   -1    0    0  501    0  0.00000000000E+00  0.00000000000E+00  0.12746522562E+04  0.12746522562E+04  0.50400001928E-02 0.  1.
       -1   -1    0    0    0  501  0.00000000000E+00  0.00000000000E+00 -0.96342099759E+02  0.96342099890E+02  0.50400001928E-02 0. -1.
    10030    2    1    2    0    0  0.00000000000E+00  0.00000000000E+00  0.11783101564E+04  0.13709943561E+04  0.70086425197E+03 0.  0.
        3    1    3    3  502    0  0.93530889176E+02 -0.14357720892E+03  0.11871103374E+04  0.11994137758E+04  0.10100000352E+00 0.  1.
       -3    1    3    3    0  502 -0.93530889176E+02  0.14357720892E+03 -0.88001809820E+01  0.17158058030E+03  0.10100000352E+00 0. -1.
</event>
<event>
 5   0  0.4878235E-03  0.6990688E+03  0.7818609E-02  0.9718826E-01
       -2   -1    0    0    0  501  0.00000000000E+00  0.00000000000E+00  0.10502408409E+03  0.10502408412E+03  0.25500000920E-02 0. -1.
        2   -1    0    0  501    0  0.00000000000E+00  0.00000000000E+00 -0.11632979120E+04  0.11632979120E+04  0.25500000920E-02 0.  1.
    10030    2    1    2    0    0  0.00000000000E+00  0.00000000000E+00 -0.10582738279E+04  0.12683219961E+04  0.69906880277E+03 0.  0.
        4    1    3    3  502    0  0.30087260248E+03 -0.19238590356E+02 -0.85000812018E+03  0.90189237914E+03  0.12699999809E+01 0.  1.
       -4    1    3    3    0  502 -0.30087260248E+03  0.19238590356E+02 -0.20826570774E+03  0.36642961698E+03  0.12699999809E+01 0. -1.
</event>
<event>
 5   0  0.5113683E-03  0.6913999E+03  0.7818609E-02  0.9732054E-01
       -2   -1    0    0    0  501  0.00000000000E+00  0.00000000000E+00  0.94380519321E+02  0.94380519355E+02  0.25500000920E-02 0. -1.
        2   -1    0    0  501    0  0.00000000000E+00  0.00000000000E+00 -0.12662405622E+04  0.12662405622E+04  0.25500000920E-02 0.  1.
    10030    2    1    2    0    0  0.00000000000E+00  0.00000000000E+00 -0.11718600429E+04  0.13606210816E+04  0.69139986078E+03 0.  0.
        3    1    3    3  502    0 -0.16521154102E+03 -0.57070855882E+02 -0.11728741212E+04  0.11858269900E+04  0.10100000352E+00 0. -1.
       -3    1    3    3    0  502  0.16521154102E+03  0.57070855882E+02  0.10140783336E+01  0.17479409153E+03  0.10100000352E+00 0.  1.
</event>
<event>
 5   0  0.5076796E-03  0.6986858E+03  0.7818609E-02  0.9719482E-01
       -2   -1    0    0    0  501  0.00000000000E+00  0.00000000000E+00  0.28721646160E+03  0.28721646162E+03  0.25500000920E-02 0. -1.
        2   -1    0    0  501    0  0.00000000000E+00  0.00000000000E+00 -0.42490760400E+03  0.42490760401E+03  0.25500000920E-02 0.  1.
    10030    2    1    2    0    0  0.00000000000E+00  0.00000000000E+00 -0.13769114239E+03  0.71212406562E+03  0.69868579071E+03 0.  0.
        5    1    3    3  502    0  0.15962493462E+03 -0.12881624280E+03 -0.35702858890E+03  0.41178301015E+03  0.46999998093E+01 0.  1.
       -5    1    3    3    0  502 -0.15962493462E+03  0.12881624280E+03  0.21933744651E+03  0.30034105547E+03  0.46999998093E+01 0. -1.
</event>
<event>
 5   0  0.2938783E-03  0.7014076E+03  0.7818609E-02  0.9714828E-01
       -1   -1    0    0    0  501  0.00000000000E+00  0.00000000000E+00  0.11431040470E+03  0.11431040481E+03  0.50400001928E-02 0. -1.
        1   -1    0    0  501    0  0.00000000000E+00  0.00000000000E+00 -0.10759577104E+04  0.10759577104E+04  0.50400001928E-02 0.  1.
    10030    2    1    2    0    0  0.00000000000E+00  0.00000000000E+00 -0.96164730568E+03  0.11902681152E+04  0.70140761726E+03 0.  0.
        4    1    3    3  502    0  0.20712966942E+03 -0.15208211758E+02 -0.96037193209E+03  0.98257307642E+03  0.12699999809E+01 0.  1.
       -4    1    3    3    0  502 -0.20712966942E+03  0.15208211758E+02 -0.12753735924E+01  0.20769503879E+03  0.12699999809E+01 0. -1.
</event>
<event>
 5   0  0.2913582E-03  0.6986850E+03  0.7818609E-02  0.9719484E-01
       -1   -1    0    0    0  501  0.00000000000E+00  0.00000000000E+00  0.84287345826E+02  0.84287345976E+02  0.50400001928E-02 0.  1.
        1   -1    0    0  501    0  0.00000000000E+00  0.00000000000E+00 -0.14479062734E+04  0.14479062734E+04  0.50400001928E-02 0. -1.
    10030    2    1    2    0    0  0.00000000000E+00  0.00000000000E+00 -0.13636189276E+04  0.15321936194E+04  0.69868498456E+03 0.  0.
        1    1    3    3  502    0 -0.58743574358E+02  0.65227911780E+02  0.59707766000E+02  0.10616263632E+03  0.50400001928E-02 0.  1.
       -1    1    3    3    0  502  0.58743574358E+02 -0.65227911780E+02 -0.14233266936E+04  0.14260309831E+04  0.50400001928E-02 0. -1.
</event>
<event>
 5   0  0.2934483E-03  0.6968602E+03  0.7818609E-02  0.9722617E-01
       -1   -1    0    0    0  501  0.00000000000E+00  0.00000000000E+00  0.23771595189E+03  0.23771595194E+03  0.50400001928E-02 0.  1.
        1   -1    0    0  501    0  0.00000000000E+00  0.00000000000E+00 -0.51070844547E+03  0.51070844549E+03  0.50400001928E-02 0. -1.
    10030    2    1    2    0    0  0.00000000000E+00  0.00000000000E+00 -0.27299249358E+03  0.74842439743E+03  0.69686022782E+03 0.  0.
        5    1    3    3  502    0 -0.14654123525E+03 -0.30927856065E+03 -0.20654421086E+03  0.39976263300E+03  0.46999998093E+01 0. -1.
       -5    1    3    3    0  502  0.14654123525E+03  0.30927856065E+03 -0.66448282725E+02  0.34866176444E+03  0.46999998093E+01 0.  1.
</event>
<event>
 5   0  0.4878235E-03  0.7022508E+03  0.7818609E-02  0.9713391E-01
       -2   -1    0    0    0  501  0.00000000000E+00  0.00000000000E+00  0.36750707574E+03  0.36750707575E+03  0.25500000920E-02 0. -1.
        2   -1    0    0  501    0  0.00000000000E+00  0.00000000000E+00 -0.33547396672E+03  0.33547396673E+03  0.25500000920E-02 0.  1.
    10030    2    1    2    0    0  0.00000000000E+00  0.00000000000E+00  0.32033109020E+02  0.70298104248E+03  0.70225082841E+03 0.  0.
        4    1    3    3  502    0 -0.18004958391E+03  0.30088920773E+03 -0.23130178248E+01  0.35065528792E+03  0.12699999809E+01 0. -1.
       -4    1    3    3    0  502  0.18004958391E+03 -0.30088920773E+03  0.34346126845E+02  0.35232575456E+03  0.12699999809E+01 0.  1.
</event>
<event>
 5   0  0.5072407E-03  0.7004682E+03  0.7818609E-02  0.9716432E-01
        2   -1    0    0  501    0  0.00000000000E+00  0.00000000000E+00  0.88898043870E+03  0.88898043870E+03  0.25500000920E-02 0.  1.
       -2   -1    0    0    0  501  0.00000000000E+00  0.00000000000E+00 -0.13798270331E+03  0.13798270333E+03  0.25500000920E-02 0. -1.
    10030    2    1    2    0    0  0.00000000000E+00  0.00000000000E+00  0.75099773539E+03  0.10269631420E+04  0.70046819809E+03 0.  0.
        1    1    3    3  502    0 -0.28060859367E+03  0.17590792539E+02  0.68167824465E+03  0.73738446422E+03  0.50400001928E-02 0.  1.
       -1    1    3    3    0  502  0.28060859367E+03 -0.17590792539E+02  0.69319490742E+02  0.28957867781E+03  0.50400001928E-02 0. -1.
</event>
<event>
 5   0  0.5076796E-03  0.7004537E+03  0.7818609E-02  0.9716457E-01
        2   -1    0    0  501    0  0.00000000000E+00  0.00000000000E+00  0.82408026849E+03  0.82408026849E+03  0.25500000920E-02 0.  1.
       -2   -1    0    0    0  501  0.00000000000E+00  0.00000000000E+00 -0.14884334500E+03  0.14884334503E+03  0.25500000920E-02 0. -1.
    10030    2    1    2    0    0  0.00000000000E+00  0.00000000000E+00  0.67523692349E+03  0.97292361352E+03  0.70045374930E+03 0.  0.
        5    1    3    3  502    0  0.15324438794E+03  0.31488284793E+03  0.33579503384E+03  0.48519629544E+03  0.46999998093E+01 0.  1.
       -5    1    3    3    0  502 -0.15324438794E+03 -0.31488284793E+03  0.33944188964E+03  0.48772731808E+03  0.46999998093E+01 0. -1.
</event>
<event>
 5   0  0.4878235E-03  0.7002481E+03  0.7818609E-02  0.9716808E-01
       -2   -1    0    0    0  501  0.00000000000E+00  0.00000000000E+00  0.24626043354E+03  0.24626043356E+03  0.25500000920E-02 0.  1.
        2   -1    0    0  501    0  0.00000000000E+00  0.00000000000E+00 -0.49779347797E+03  0.49779347797E+03  0.25500000920E-02 0. -1.
    10030    2    1    2    0    0  0.00000000000E+00  0.00000000000E+00 -0.25153304442E+03  0.74405391153E+03  0.70024806378E+03 0.  0.
        4    1    3    3  502    0 -0.87538884671E+02 -0.10139647763E+03 -0.46948530721E+03  0.48822368705E+03  0.12699999809E+01 0. -1.
       -4    1    3    3    0  502  0.87538884671E+02  0.10139647763E+03  0.21795226279E+03  0.25583022448E+03  0.12699999809E+01 0.  1.
</event>
<event>
 5   0  0.5023894E-03  0.6987692E+03  0.7818609E-02  0.9719339E-01
       -2   -1    0    0    0  501  0.00000000000E+00  0.00000000000E+00  0.10817064053E+04  0.10817064053E+04  0.25500000920E-02 0.  1.
        2   -1    0    0  501    0  0.00000000000E+00  0.00000000000E+00 -0.11284908956E+03  0.11284908959E+03  0.25500000920E-02 0. -1.
    10030    2    1    2    0    0  0.00000000000E+00  0.00000000000E+00  0.96885731578E+03  0.11945554949E+04  0.69876915510E+03 0.  0.
        2    1    3    3  502    0 -0.13120306606E+03 -0.10140008569E+02 -0.68863915893E+02  0.14852374637E+03  0.25500000920E-02 0. -1.
       -2    1    3    3    0  502  0.13120306606E+03  0.10140008569E+02  0.10377212317E+04  0.10460317486E+04  0.25500000920E-02 0.  1.
</event>
<event>
 5   0  0.5076796E-03  0.6956158E+03  0.7818609E-02  0.9724759E-01
        2   -1    0    0  501    0  0.00000000000E+00  0.00000000000E+00  0.11506328008E+04  0.11506328008E+04  0.25500000920E-02 0.  1.
       -2   -1    0    0    0  501  0.00000000000E+00  0.00000000000E+00 -0.10513374802E+03  0.10513374805E+03  0.25500000920E-02 0. -1.
    10030    2    1    2    0    0  0.00000000000E+00  0.00000000000E+00  0.10454990528E+04  0.12557665489E+04  0.69561581055E+03 0.  0.
        5    1    3    3  502    0  0.27484695646E+03 -0.15134528532E+03  0.79355040280E+03  0.85334083264E+03  0.46999998093E+01 0.  1.
       -5    1    3    3    0  502 -0.27484695646E+03  0.15134528532E+03  0.25194865003E+03  0.40242571627E+03  0.46999998093E+01 0. -1.
</event>
<event>
 5   0  0.5076796E-03  0.6927040E+03  0.7818609E-02  0.9729791E-01
       -2   -1    0    0    0  501  0.00000000000E+00  0.00000000000E+00  0.23719849286E+03  0.23719849287E+03  0.25500000920E-02 0. -1.
        2   -1    0    0  501    0  0.00000000000E+00  0.00000000000E+00 -0.50573550810E+03  0.50573550811E+03  0.25500000920E-02 0.  1.
    10030    2    1    2    0    0  0.00000000000E+00  0.00000000000E+00 -0.26853701524E+03  0.74293400098E+03  0.69270397809E+03 0.  0.
        5    1    3    3  502    0 -0.91519852520E+02 -0.31872562933E+03 -0.27147599539E+02  0.33274764064E+03  0.46999998093E+01 0. -1.
       -5    1    3    3    0  502  0.91519852520E+02  0.31872562933E+03 -0.24138941570E+03  0.41018636034E+03  0.46999998093E+01 0.  1.
</event>
<event>
 5   0  0.3013140E-03  0.7007448E+03  0.7818609E-02  0.9715959E-01
        1   -1    0    0  501    0  0.00000000000E+00  0.00000000000E+00  0.19420538710E+04  0.19420538710E+04  0.50400001928E-02 0.  1.
       -1   -1    0    0    0  501  0.00000000000E+00  0.00000000000E+00 -0.63211842663E+02  0.63211842864E+02  0.50400001928E-02 0. -1.
    10030    2    1    2    0    0  0.00000000000E+00  0.00000000000E+00  0.18788420283E+04  0.20052657139E+04  0.70074475794E+03 0.  0.
        2    1    3    3  502    0  0.17517871153E+03 -0.30248090326E+03  0.10082503470E+04  0.10671227858E+04  0.25500000920E-02 0.  1.
       -2    1    3    3    0  502 -0.17517871153E+03  0.30248090326E+03  0.87059168138E+03  0.93814292808E+03  0.25500000920E-02 0. -1.
</event>
<event>
 5   0  0.3013140E-03  0.6996652E+03  0.7818609E-02  0.9717805E-01
       -1   -1    0    0    0  501  0.00000000000E+00  0.00000000000E+00  0.10794972639E+03  0.10794972651E+03  0.50400001928E-02 0. -1.
        1   -1    0    0  501    0  0.00000000000E+00  0.00000000000E+00 -0.11337023320E+04  0.11337023320E+04  0.50400001928E-02 0.  1.
    10030    2    1    2    0    0  0.00000000000E+00  0.00000000000E+00 -0.10257526056E+04  0.12416520585E+04  0.69966522460E+03 0.  0.
        2    1    3    3  502    0 -0.23761774303E+03  0.95654716257E+01 -0.57554126988E+02  0.24467563750E+03  0.25500000920E-02 0. -1.
       -2    1    3    3    0  502  0.23761774303E+03 -0.95654716257E+01 -0.96819847865E+03  0.99697642104E+03  0.25500000920E-02 0.  1.
</event>
<event>
 5   0  0.1981750E-03  0.6973088E+03  0.7818609E-02  0.9721846E-01
        4   -1    0    0  501    0  0.00000000000E+00  0.00000000000E+00  0.81694767217E+03  0.81694865932E+03  0.12699999809E+01 0. -1.
       -4   -1    0    0    0  501  0.00000000000E+00  0.00000000000E+00 -0.14879385470E+03  0.14879927451E+03  0.12699999809E+01 0.  1.
    10030    2    1    2    0    0  0.00000000000E+00  0.00000000000E+00  0.66815381747E+03  0.96574793383E+03  0.69730878948E+03 0.  0.
        1    1    3    3  502    0  0.31175468784E+03  0.80580713606E+02  0.14890735861E+03  0.35476420094E+03  0.50400001928E-02 0.  1.
       -1    1    3    3    0  502 -0.31175468784E+03 -0.80580713606E+02  0.51924645886E+03  0.61098373289E+03  0.50400001928E-02 0. -1.
</event>
<event>
 5   0  0.2937617E-03  0.7010454E+03  0.7818609E-02  0.9715446E-01
       -1   -1    0    0    0  501  0.00000000000E+00  0.00000000000E+00  0.13516198314E+03  0.13516198324E+03  0.50400001928E-02 0.  1.
        1   -1    0    0  501    0  0.00000000000E+00  0.00000000000E+00 -0.90902897303E+03  0.90902897304E+03  0.50400001928E-02 0. -1.
    10030    2    1    2    0    0  0.00000000000E+00  0.00000000000E+00 -0.77386698988E+03  0.10441909563E+04  0.70104538736E+03 0.  0.
        3    1    3    3  502    0 -0.20681526461E+03  0.14037741802E+03 -0.75295643652E+03  0.79336106450E+03  0.10100000352E+00 0. -1.
       -3    1    3    3    0  502  0.20681526461E+03 -0.14037741802E+03 -0.20910553368E+02  0.25082989178E+03  0.10100000352E+00 0.  1.
</event>
<event>
 5   0  0.5113683E-03  0.6998281E+03  0.7818609E-02  0.9717526E-01
       -2   -1    0    0    0  501  0.00000000000E+00  0.00000000000E+00  0.90640371583E+02  0.90640371619E+02  0.25500000920E-02 0. -1.
        2   -1    0    0  501    0  0.00000000000E+00  0.00000000000E+00 -0.13508312192E+04  0.13508312192E+04  0.25500000920E-02 0.  1.
    10030    2    1    2    0    0  0.00000000000E+00  0.00000000000E+00 -0.12601908476E+04  0.14414715908E+04  0.69982810370E+03 0.  0.
        3    1    3    3  502    0 -0.16213100722E+03 -0.31004713502E+03 -0.64021633868E+03  0.72958389507E+03  0.10100000352E+00 0.  1.
       -3    1    3    3    0  502  0.16213100722E+03  0.31004713502E+03 -0.61997450896E+03  0.71188769577E+03  0.10100000352E+00 0. -1.
</event>
<event>
 5   0  0.2913582E-03  0.7030898E+03  0.7818609E-02  0.9711963E-01
       -1   -1    0    0    0  501  0.00000000000E+00  0.00000000000E+00  0.28277079934E+03  0.28277079939E+03  0.50400001928E-02 0.  1.
        1   -1    0    0  501    0  0.00000000000E+00  0.00000000000E+00 -0.43704587985E+03  0.43704587988E+03  0.50400001928E-02 0. -1.
    10030    2    1    2    0    0  0.00000000000E+00  0.00000000000E+00 -0.15427508051E+03  0.71981667927E+03  0.70308978892E+03 0.  0.
        1    1    3    3  502    0 -0.24019896625E+02  0.22077042033E+03 -0.35614118131E+03  0.41970593870E+03  0.50400001928E-02 0. -1.
       -1    1    3    3    0  502  0.24019896625E+02 -0.22077042033E+03  0.20186610080E+03  0.30011074057E+03  0.50400001928E-02 0.  1.
</event>
<event>
 5   0  0.3013140E-03  0.6951254E+03  0.7818609E-02  0.9725605E-01
        1   -1    0    0  501    0  0.00000000000E+00  0.00000000000E+00  0.94727645599E+03  0.94727645600E+03  0.50400001928E-02 0. -1.
       -1   -1    0    0    0  501  0.00000000000E+00  0.00000000000E+00 -0.12752331276E+03  0.12752331286E+03  0.50400001928E-02 0.  1.
    10030    2    1    2    0    0  0.00000000000E+00  0.00000000000E+00  0.81975314323E+03  0.10747997689E+04  0.69512540401E+03 0.  0.
        2    1    3    3  502    0  0.16208292121E+03 -0.30094133404E+03  0.31253657207E+03  0.46315836252E+03  0.25500000920E-02 0. -1.
       -2    1    3    3    0  502 -0.16208292121E+03  0.30094133404E+03  0.50721657117E+03  0.61164140634E+03  0.25500000920E-02 0.  1.
</event>
<event>
 5   0  0.2934483E-03  0.6973418E+03  0.7818609E-02  0.9721789E-01
        1   -1    0    0  501    0  0.00000000000E+00  0.00000000000E+00  0.68928729252E+03  0.68928729254E+03  0.50400001928E-02 0. -1.
       -1   -1    0    0    0  501  0.00000000000E+00  0.00000000000E+00 -0.17637262056E+03  0.17637262063E+03  0.50400001928E-02 0.  1.
    10030    2    1    2    0    0  0.00000000000E+00  0.00000000000E+00  0.51291467196E+03  0.86565991317E+03  0.69734182762E+03 0.  0.
        5    1    3    3  502    0  0.27959782593E+03  0.86917191588E+02  0.49140060641E+03  0.57203687682E+03  0.46999998093E+01 0. -1.
       -5    1    3    3    0  502 -0.27959782593E+03 -0.86917191588E+02  0.21514065555E+02  0.29362303635E+03  0.46999998093E+01 0.  1.
</event>
<event>
 5   0  0.5023894E-03  0.7044731E+03  0.7818609E-02  0.9709613E-01
        2   -1    0    0  501    0  0.00000000000E+00  0.00000000000E+00  0.31119294063E+03  0.31119294064E+03  0.25500000920E-02 0.  1.
       -2   -1    0    0    0  501  0.00000000000E+00  0.00000000000E+00 -0.39869341811E+03  0.39869341812E+03  0.25500000920E-02 0. -1.
    10030    2    1    2    0    0  0.00000000000E+00  0.00000000000E+00 -0.87500477476E+02  0.70988635876E+03  0.70447307173E+03 0.  0.
        2    1    3    3  502    0 -0.10590612527E+03 -0.11044975926E+03 -0.36345036062E+03  0.39434936457E+03  0.25500000920E-02 0. -1.
       -2    1    3    3    0  502  0.10590612527E+03  0.11044975926E+03  0.27594988315E+03  0.31553699419E+03  0.25500000920E-02 0.  1.
</event>
<event>
 5   0  0.4878235E-03  0.6992588E+03  0.7818609E-02  0.9718501E-01
       -2   -1    0    0    0  501  0.00000000000E+00  0.00000000000E+00  0.66343802159E+02  0.66343802208E+02  0.25500000920E-02 0. -1.
        2   -1    0    0  501    0  0.00000000000E+00  0.00000000000E+00 -0.18425341759E+04  0.18425341759E+04  0.25500000920E-02 0.  1.
    10030    2    1    2    0    0  0.00000000000E+00  0.00000000000E+00 -0.17761903737E+04  0.19088779781E+04  0.69925881584E+03 0.  0.
        4    1    3    3  502    0 -0.29115387321E+03 -0.19286943293E+03 -0.84324617526E+03  0.91270746739E+03  0.12699999809E+01 0.  1.
       -4    1    3    3    0  502  0.29115387321E+03  0.19286943293E+03 -0.93294419844E+03  0.99617051068E+03  0.12699999809E+01 0. -1.
</event>
<event>
 5   0  0.2937617E-03  0.6997462E+03  0.7818609E-02  0.9717666E-01
       -1   -1    0    0    0  501  0.00000000000E+00  0.00000000000E+00  0.28127351755E+03  0.28127351759E+03  0.50400001928E-02 0.  1.
        1   -1    0    0  501    0  0.00000000000E+00  0.00000000000E+00 -0.43520335704E+03  0.43520335707E+03  0.50400001928E-02 0. -1.
    10030    2    1    2    0    0  0.00000000000E+00  0.00000000000E+00 -0.15392983949E+03  0.71647687467E+03  0.69974618001E+03 0.  0.
        3    1    3    3  502    0 -0.90341171418E+02  0.31364885996E+03 -0.20596955003E+03  0.38595414280E+03  0.10100000352E+00 0. -1.
       -3    1    3    3    0  502  0.90341171418E+02 -0.31364885996E+03  0.52039710533E+02  0.33052273186E+03  0.10100000352E+00 0.  1.
</event>
<event>
 5   0  0.5023894E-03  0.7006219E+03  0.7818609E-02  0.9716169E-01
        2   -1    0    0  501    0  0.00000000000E+00  0.00000000000E+00  0.11859521641E+04  0.11859521642E+04  0.25500000920E-02 0.  1.
       -2   -1    0    0    0  501  0.00000000000E+00  0.00000000000E+00 -0.10347615241E+03  0.10347615244E+03  0.25500000920E-02 0. -1.
    10030    2    1    2    0    0  0.00000000000E+00  0.00000000000E+00  0.10824760117E+04  0.12894283166E+04  0.70062191491E+03 0.  0.
        2    1    3    3  502    0 -0.29758125267E+03  0.46590252769E+02  0.21205480380E+03  0.36836462020E+03  0.25500000920E-02 0. -1.
       -2    1    3    3    0  502  0.29758125267E+03 -0.46590252769E+02  0.87042120793E+03  0.92106369640E+03  0.25500000920E-02 0.  1.
</event>
<event>
 5   0  0.2934483E-03  0.6995916E+03  0.7818609E-02  0.9717931E-01
       -1   -1    0    0    0  501  0.00000000000E+00  0.00000000000E+00  0.46434041641E+03  0.46434041644E+03  0.50400001928E-02 0.  1.
        1   -1    0    0  501    0  0.00000000000E+00  0.00000000000E+00 -0.26350730212E+03  0.26350730217E+03  0.50400001928E-02 0. -1.
    10030    2    1    2    0    0  0.00000000000E+00  0.00000000000E+00  0.20083311428E+03  0.72784771861E+03  0.69959156777E+03 0.  0.
        5    1    3    3  502    0 -0.10927440467E+03  0.17989406501E+03 -0.19020844188E+03  0.28373246466E+03  0.46999998093E+01 0. -1.
       -5    1    3    3    0  502  0.10927440467E+03 -0.17989406501E+03  0.39104155617E+03  0.44411525395E+03  0.46999998093E+01 0.  1.
</event>
<event>
 5   0  0.1981750E-03  0.7021436E+03  0.7818609E-02  0.9713573E-01
       -3   -1    0    0    0  501  0.00000000000E+00  0.00000000000E+00  0.12535255209E+04  0.12535255250E+04  0.10100000352E+00 0.  1.
        3   -1    0    0  501    0  0.00000000000E+00  0.00000000000E+00 -0.98323789815E+02  0.98323841689E+02  0.10100000352E+00 0. -1.
    10030    2    1    2    0    0  0.00000000000E+00  0.00000000000E+00  0.11552017311E+04  0.13518493667E+04  0.70214362537E+03 0.  0.
        2    1    3    3  502    0  0.30088203738E+03 -0.20437568353E+02  0.92364272230E+03  0.97162933935E+03  0.25500000920E-02 0.  1.
       -2    1    3    3    0  502 -0.30088203738E+03  0.20437568353E+02  0.23155900882E+03  0.38022002734E+03  0.25500000920E-02 0. -1.
</event>
<event>
 5   0  0.2938783E-03  0.7001656E+03  0.7818609E-02  0.9716949E-01
       -1   -1    0    0    0  501  0.00000000000E+00  0.00000000000E+00  0.19728382519E+03  0.19728382525E+03  0.50400001928E-02 0.  1.
        1   -1    0    0  501    0  0.00000000000E+00  0.00000000000E+00 -0.62122662751E+03  0.62122662753E+03  0.50400001928E-02 0. -1.
    10030    2    1    2    0    0  0.00000000000E+00  0.00000000000E+00 -0.42394280232E+03  0.81851045278E+03  0.70016559589E+03 0.  0.
        4    1    3    3  502    0 -0.10444799797E+03  0.11513247310E+03  0.15472125617E+03  0.21932886417E+03  0.12699999809E+01 0.  1.
       -4    1    3    3    0  502  0.10444799797E+03 -0.11513247310E+03 -0.57866405850E+03  0.59918158862E+03  0.12699999809E+01 0. -1.
</event>
<event>
 5   0  0.3013140E-03  0.7005189E+03  0.7818609E-02  0.9716345E-01
       -1   -1    0    0    0  501  0.00000000000E+00  0.00000000000E+00  0.12781303711E+03  0.12781303721E+03  0.50400001928E-02 0.  1.
        1   -1    0    0  501    0  0.00000000000E+00  0.00000000000E+00 -0.95985251559E+03  0.95985251561E+03  0.50400001928E-02 0. -1.
    10030    2    1    2    0    0  0.00000000000E+00  0.00000000000E+00 -0.83203947848E+03  0.10876655528E+04  0.70051885130E+03 0.  0.
        2    1    3    3  502    0  0.29690517798E+03  0.88708564240E+02 -0.66953479492E+03  0.73776604401E+03  0.25500000920E-02 0. -1.
       -2    1    3    3    0  502 -0.29690517798E+03 -0.88708564240E+02 -0.16250468357E+03  0.34989950881E+03  0.25500000920E-02 0.  1.
</event>
<event>
 5   0  0.2934483E-03  0.7013495E+03  0.7818609E-02  0.9714927E-01
        1   -1    0    0  501    0  0.00000000000E+00  0.00000000000E+00  0.53116518700E+03  0.53116518702E+03  0.50400001928E-02 0.  1.
       -1   -1    0    0    0  501  0.00000000000E+00  0.00000000000E+00 -0.23151511587E+03  0.23151511593E+03  0.50400001928E-02 0. -1.
    10030    2    1    2    0    0  0.00000000000E+00  0.00000000000E+00  0.29965007113E+03  0.76268030295E+03  0.70134947022E+03 0.  0.
        5    1    3    3  502    0 -0.51155209296E+02 -0.28773382909E+03 -0.60879040541E+02  0.29855645935E+03  0.46999998093E+01 0. -1.
       -5    1    3    3    0  502  0.51155209296E+02  0.28773382909E+03  0.36052911167E+03  0.46412384360E+03  0.46999998093E+01 0.  1.
</event>
<event>
 5   0  0.2913582E-03  0.7002492E+03  0.7818609E-02  0.9716806E-01
        1   -1    0    0  501    0  0.00000000000E+00  0.00000000000E+00  0.14877887557E+04  0.14877887557E+04  0.50400001928E-02 0. -1.
       -1   -1    0    0    0  501  0.00000000000E+00  0.00000000000E+00 -0.82395596253E+02  0.82395596407E+02  0.50400001928E-02 0.  1.
    10030    2    1    2    0    0  0.00000000000E+00  0.00000000000E+00  0.14053931595E+04  0.15701843521E+04  0.70024921779E+03 0.  0.
        1    1    3    3  502    0  0.58816120669E+02  0.24920131980E+03  0.12381685993E+04  0.12643662896E+04  0.50400001928E-02 0. -1.
       -1    1    3    3    0  502 -0.58816120669E+02 -0.24920131980E+03  0.16722456011E+03  0.30581806253E+03  0.50400001928E-02 0.  1.
</event>
<event>
 5   0  0.5113683E-03  0.6998204E+03  0.7818609E-02  0.9717539E-01
       -2   -1    0    0    0  501  0.00000000000E+00  0.00000000000E+00  0.32889029650E+03  0.32889029651E+03  0.25500000920E-02 0. -1.
        2   -1    0    0  501    0  0.00000000000E+00  0.00000000000E+00 -0.37227348244E+03  0.37227348245E+03  0.25500000920E-02 0.  1.
    10030    2    1    2    0    0  0.00000000000E+00  0.00000000000E+00 -0.43383185947E+02  0.70116377896E+03  0.69982036559E+03 0.  0.
        3    1    3    3  502    0 -0.33145110705E+03 -0.10656507049E+03 -0.56703993309E+02  0.35274821569E+03  0.10100000352E+00 0.  1.
       -3    1    3    3    0  502  0.33145110705E+03  0.10656507049E+03  0.13320807362E+02  0.34841556326E+03  0.10100000352E+00 0. -1.
</event>
<event>
 5   0  0.5113683E-03  0.7000010E+03  0.7818609E-02  0.9717230E-01
       -2   -1    0    0    0  501  0.00000000000E+00  0.00000000000E+00  0.58581549863E+03  0.58581549864E+03  0.25500000920E-02 0.  1.
        2   -1    0    0  501    0  0.00000000000E+00  0.00000000000E+00 -0.20911082968E+03  0.20911082969E+03  0.25500000920E-02 0. -1.
    10030    2    1    2    0    0  0.00000000000E+00  0.00000000000E+00  0.37670466896E+03  0.79492632833E+03  0.70000104276E+03 0.  0.
        3    1    3    3  502    0  0.14357120709E+03  0.11603247948E+03 -0.14933407673E+03  0.23743821190E+03  0.10100000352E+00 0. -1.
       -3    1    3    3    0  502 -0.14357120709E+03 -0.11603247948E+03  0.52603874568E+03  0.55748811643E+03  0.10100000352E+00 0.  1.
</event>
<event>
 5   0  0.2934483E-03  0.6991076E+03  0.7818609E-02  0.9718759E-01
        1   -1    0    0  501    0  0.00000000000E+00  0.00000000000E+00  0.65726322699E+03  0.65726322701E+03  0.50400001928E-02 0. -1.
       -1   -1    0    0    0  501  0.00000000000E+00  0.00000000000E+00 -0.18590401220E+03  0.18590401227E+03  0.50400001928E-02 0.  1.
    10030    2    1    2    0    0  0.00000000000E+00  0.00000000000E+00  0.47135921479E+03  0.84316723928E+03  0.69910763408E+03 0.  0.
        5    1    3    3  502    0  0.29434855127E+03 -0.80217763842E+02  0.44138241027E+03  0.53657849507E+03  0.46999998093E+01 0. -1.
       -5    1    3    3    0  502 -0.29434855127E+03  0.80217763842E+02  0.29976804523E+02  0.30658874422E+03  0.46999998093E+01 0.  1.
</event>
<event>
 5   0  0.2937617E-03  0.7045337E+03  0.7818609E-02  0.9709510E-01
        1   -1    0    0  501    0  0.00000000000E+00  0.00000000000E+00  0.16828678791E+04  0.16828678791E+04  0.50400001928E-02 0. -1.
       -1   -1    0    0    0  501  0.00000000000E+00  0.00000000000E+00 -0.73738359658E+02  0.73738359831E+02  0.50400001928E-02 0.  1.
    10030    2    1    2    0    0  0.00000000000E+00  0.00000000000E+00  0.16091295194E+04  0.17566062389E+04  0.70453365308E+03 0.  0.
        3    1    3    3  502    0 -0.32396958381E+03 -0.33057924742E+02  0.11394719845E+04  0.11850930476E+04  0.10100000352E+00 0. -1.
       -3    1    3    3    0  502  0.32396958381E+03  0.33057924742E+02  0.46965753485E+03  0.57151319133E+03  0.10100000352E+00 0.  1.
</event>
<event>
 5   0  0.2937617E-03  0.7007235E+03  0.7818609E-02  0.9715996E-01
        1   -1    0    0  501    0  0.00000000000E+00  0.00000000000E+00  0.35384618795E+03  0.35384618799E+03  0.50400001928E-02 0.  1.
       -1   -1    0    0    0  501  0.00000000000E+00  0.00000000000E+00 -0.34691161779E+03  0.34691161783E+03  0.50400001928E-02 0. -1.
    10030    2    1    2    0    0  0.00000000000E+00  0.00000000000E+00  0.69345701589E+01  0.70075780582E+03  0.70072349336E+03 0.  0.
        3    1    3    3  502    0 -0.20667803384E+03 -0.10520056905E+03 -0.25916768721E+03  0.34777991560E+03  0.10100000352E+00 0. -1.
       -3    1    3    3    0  502  0.20667803384E+03  0.10520056905E+03  0.26610225737E+03  0.35297789021E+03  0.10100000352E+00 0.  1.
</event>
<event>
 5   0  0.5023894E-03  0.7040201E+03  0.7818609E-02  0.9710382E-01
       -2   -1    0    0    0  501  0.00000000000E+00  0.00000000000E+00  0.48428466948E+02  0.48428467015E+02  0.25500000920E-02 0. -1.
        2   -1    0    0  501    0  0.00000000000E+00  0.00000000000E+00 -0.25586411399E+04  0.25586411399E+04  0.25500000920E-02 0.  1.
    10030    2    1    2    0    0  0.00000000000E+00  0.00000000000E+00 -0.25102126730E+04  0.26070696069E+04  0.70402007916E+03 0.  0.
        2    1    3    3  502    0 -0.33990419756E+03 -0.88853359061E+02 -0.11738665536E+04  0.12253132124E+04  0.25500000920E-02 0.  1.
       -2    1    3    3    0  502  0.33990419756E+03  0.88853359061E+02 -0.13363461194E+04  0.13817563945E+04  0.25500000920E-02 0. -1.
</event>
<event>
 5   0  0.5023894E-03  0.7004461E+03  0.7818609E-02  0.9716470E-01
        2   -1    0    0  501    0  0.00000000000E+00  0.00000000000E+00  0.25742829664E+03  0.25742829665E+03  0.25500000920E-02 0.  1.
       -2   -1    0    0    0  501  0.00000000000E+00  0.00000000000E+00 -0.47646732201E+03  0.47646732202E+03  0.25500000920E-02 0. -1.
    10030    2    1    2    0    0  0.00000000000E+00  0.00000000000E+00 -0.21903902538E+03  0.73389561867E+03  0.70044606107E+03 0.  0.
        2    1    3    3  502    0  0.11435570583E+03 -0.30461755148E+03 -0.24527185123E+03  0.40746455200E+03  0.25500000920E-02 0. -1.
       -2    1    3    3    0  502 -0.11435570583E+03  0.30461755148E+03  0.26232825848E+02  0.32643106667E+03  0.25500000920E-02 0.  1.
</event>
<event>
 5   0  0.2938783E-03  0.6977132E+03  0.7818609E-02  0.9721151E-01
        1   -1    0    0  501    0  0.00000000000E+00  0.00000000000E+00  0.26280483385E+03  0.26280483390E+03  0.50400001928E-02 0. -1.
       -1   -1    0    0    0  501  0.00000000000E+00  0.00000000000E+00 -0.46308485972E+03  0.46308485974E+03  0.50400001928E-02 0.  1.
    10030    2    1    2    0    0  0.00000000000E+00  0.00000000000E+00 -0.20028002587E+03  0.72588969364E+03  0.69771323520E+03 0.  0.
        4    1    3    3  502    0 -0.30587898975E+03  0.10364933404E+03 -0.23735315924E+03  0.40080328831E+03  0.12699999809E+01 0.  1.
       -4    1    3    3    0  502  0.30587898975E+03 -0.10364933404E+03  0.37073133374E+02  0.32508640534E+03  0.12699999809E+01 0. -1.
</event>
<event>
 5   0  0.5072407E-03  0.7002618E+03  0.7818609E-02  0.9716785E-01
        2   -1    0    0  501    0  0.00000000000E+00  0.00000000000E+00  0.10864292255E+04  0.10864292255E+04  0.25500000920E-02 0. -1.
       -2   -1    0    0    0  501  0.00000000000E+00  0.00000000000E+00 -0.11283904906E+03  0.11283904909E+03  0.25500000920E-02 0.  1.
    10030    2    1    2    0    0  0.00000000000E+00  0.00000000000E+00  0.97359017641E+03  0.11992682746E+04  0.70026178160E+03 0.  0.
        1    1    3    3  502    0  0.39611944140E+02 -0.19706170856E+02 -0.10803256080E+03  0.11674105322E+03  0.50400001928E-02 0.  1.
       -1    1    3    3    0  502 -0.39611944140E+02  0.19706170856E+02  0.10816227372E+04  0.10825272213E+04  0.50400001928E-02 0. -1.
</event>
<event>
 5   0  0.2934483E-03  0.7000224E+03  0.7818609E-02  0.9717194E-01
       -1   -1    0    0    0  501  0.00000000000E+00  0.00000000000E+00  0.35800022462E+03  0.35800022465E+03  0.50400001928E-02 0.  1.
        1   -1    0    0  501    0  0.00000000000E+00  0.00000000000E+00 -0.34220046155E+03  0.34220046159E+03  0.50400001928E-02 0. -1.
    10030    2    1    2    0    0  0.00000000000E+00  0.00000000000E+00  0.15799763063E+02  0.70020068624E+03  0.70002240571E+03 0.  0.
        5    1    3    3  502    0  0.11865633664E+02  0.10297232868E+03 -0.32646306796E+03  0.34255556991E+03  0.46999998093E+01 0. -1.
       -5    1    3    3    0  502 -0.11865633664E+02 -0.10297232868E+03  0.34226283103E+03  0.35764511633E+03  0.46999998093E+01 0.  1.
</event>
<event>
 5   0  0.5076796E-03  0.7005219E+03  0.7818609E-02  0.9716340E-01
       -2   -1    0    0    0  501  0.00000000000E+00  0.00000000000E+00  0.23346622703E+03  0.23346622704E+03  0.25500000920E-02 0.  1.
        2   -1    0    0  501    0  0.00000000000E+00  0.00000000000E+00 -0.52548391459E+03  0.52548391459E+03  0.25500000920E-02 0. -1.
    10030    2    1    2    0    0  0.00000000000E+00  0.00000000000E+00 -0.29201768756E+03  0.75895014163E+03  0.70052193944E+03 0.  0.
        5    1    3    3  502    0 -0.27663172392E+03 -0.15669072422E+03 -0.30517586051E+03  0.44071701757E+03  0.46999998093E+01 0. -1.
       -5    1    3    3    0  502  0.27663172392E+03  0.15669072422E+03  0.13158172950E+02  0.31823312406E+03  0.46999998093E+01 0.  1.
</event>
<event>
 5   0  0.5076796E-03  0.7005042E+03  0.7818609E-02  0.9716370E-01
       -2   -1    0    0    0  501  0.00000000000E+00  0.00000000000E+00  0.15664784671E+03  0.15664784673E+03  0.25500000920E-02 0. -1.
        2   -1    0    0  501    0  0.00000000000E+00  0.00000000000E+00 -0.78313582152E+03  0.78313582153E+03  0.25500000920E-02 0.  1.
    10030    2    1    2    0    0  0.00000000000E+00  0.00000000000E+00 -0.62648797481E+03  0.93978366826E+03  0.70050421879E+03 0.  0.
        5    1    3    3  502    0  0.34971293270E+03  0.11202539284E+02 -0.29290594662E+03  0.45633388626E+03  0.46999998093E+01 0.  1.
       -5    1    3    3    0  502 -0.34971293270E+03 -0.11202539284E+02 -0.33358202819E+03  0.48344978200E+03  0.46999998093E+01 0. -1.
</event>
<event>
 5   0  0.1981750E-03  0.6811269E+03  0.7818609E-02  0.9750063E-01
        3   -1    0    0  501    0  0.00000000000E+00  0.00000000000E+00  0.16689567836E+04  0.16689567867E+04  0.10100000352E+00 0. -1.
       -3   -1    0    0    0  501  0.00000000000E+00  0.00000000000E+00 -0.69494538818E+02  0.69494612212E+02  0.10100000352E+00 0.  1.
    10030    2    1    2    0    0  0.00000000000E+00  0.00000000000E+00  0.15994622448E+04  0.17384513989E+04  0.68112685585E+03 0.  0.
        1    1    3    3  502    0  0.52414471160E+02 -0.55405677094E+02 -0.47416495855E+02  0.89807516088E+02  0.50400001928E-02 0.  1.
       -1    1    3    3    0  502 -0.52414471160E+02  0.55405677094E+02  0.16468787407E+04  0.16486438828E+04  0.50400001928E-02 0. -1.
</event>
<event>
 5   0  0.5023894E-03  0.6996671E+03  0.7818609E-02  0.9717802E-01
        2   -1    0    0  501    0  0.00000000000E+00  0.00000000000E+00  0.32569058193E+03  0.32569058194E+03  0.25500000920E-02 0. -1.
       -2   -1    0    0    0  501  0.00000000000E+00  0.00000000000E+00 -0.37576622132E+03  0.37576622133E+03  0.25500000920E-02 0.  1.
    10030    2    1    2    0    0  0.00000000000E+00  0.00000000000E+00 -0.50075639390E+02  0.70145680326E+03  0.69966711884E+03 0.  0.
        2    1    3    3  502    0 -0.24356678304E+03 -0.12382316020E+03 -0.24406073888E+03  0.36636402262E+03  0.25500000920E-02 0.  1.
       -2    1    3    3    0  502  0.24356678304E+03  0.12382316020E+03  0.19398509949E+03  0.33509278064E+03  0.25500000920E-02 0. -1.
</event>
<event>
 5   0  0.2934483E-03  0.7003646E+03  0.7818609E-02  0.9716609E-01
        1   -1    0    0  501    0  0.00000000000E+00  0.00000000000E+00  0.90523781620E+03  0.90523781621E+03  0.50400001928E-02 0.  1.
       -1   -1    0    0    0  501  0.00000000000E+00  0.00000000000E+00 -0.13546455982E+03  0.13546455992E+03  0.50400001928E-02 0. -1.
    10030    2    1    2    0    0  0.00000000000E+00  0.00000000000E+00  0.76977325637E+03  0.10407023761E+04  0.70036459751E+03 0.  0.
        5    1    3    3  502    0  0.26722843148E+03  0.16489477692E+03  0.61510832671E+03  0.69063859263E+03  0.46999998093E+01 0.  1.
       -5    1    3    3    0  502 -0.26722843148E+03 -0.16489477692E+03  0.15466492967E+03  0.35006378349E+03  0.46999998093E+01 0. -1.
</event>
<event>
 5   0  0.5113683E-03  0.6998429E+03  0.7818609E-02  0.9717501E-01
        2   -1    0    0  501    0  0.00000000000E+00  0.00000000000E+00  0.20230373891E+04  0.20230373891E+04  0.25500000920E-02 0.  1.
       -2   -1    0    0    0  501  0.00000000000E+00  0.00000000000E+00 -0.60525342457E+02  0.60525342511E+02  0.25500000920E-02 0. -1.
    10030    2    1    2    0    0  0.00000000000E+00  0.00000000000E+00  0.19625120466E+04  0.20835627316E+04  0.69984292762E+03 0.  0.
        3    1    3    3  502    0 -0.30199696873E+03  0.15037768321E+03  0.12578205029E+04  0.13022780211E+04  0.10100000352E+00 0.  1.
       -3    1    3    3    0  502  0.30199696873E+03 -0.15037768321E+03  0.70469154374E+03  0.78128471043E+03  0.10100000352E+00 0. -1.
</event>
<event>
 5   0  0.2937617E-03  0.6998426E+03  0.7818609E-02  0.9717501E-01
       -1   -1    0    0    0  501  0.00000000000E+00  0.00000000000E+00  0.92769905960E+02  0.92769906097E+02  0.50400001928E-02 0. -1.
        1   -1    0    0  501    0  0.00000000000E+00  0.00000000000E+00 -0.13198776345E+04  0.13198776345E+04  0.50400001928E-02 0.  1.
    10030    2    1    2    0    0  0.00000000000E+00  0.00000000000E+00 -0.12271077286E+04  0.14126475406E+04  0.69984262270E+03 0.  0.
        3    1    3    3  502    0 -0.16189027545E+03 -0.47549258813E+02 -0.12323403199E+04  0.12438376372E+04  0.10100000352E+00 0.  1.
       -3    1    3    3    0  502  0.16189027545E+03  0.47549258813E+02  0.52325913554E+01  0.16880990348E+03  0.10100000352E+00 0. -1.
</event>
<event>
 5   0  0.4878235E-03  0.6997503E+03  0.7818609E-02  0.9717659E-01
       -2   -1    0    0    0  501  0.00000000000E+00  0.00000000000E+00  0.21698139796E+03  0.21698139797E+03  0.25500000920E-02 0. -1.
        2   -1    0    0  501    0  0.00000000000E+00  0.00000000000E+00 -0.56416187694E+03  0.56416187694E+03  0.25500000920E-02 0.  1.
    10030    2    1    2    0    0  0.00000000000E+00  0.00000000000E+00 -0.34718047898E+03  0.78114327491E+03  0.69975033473E+03 0.  0.
        4    1    3    3  502    0 -0.20322147366E+03  0.47057635760E+02 -0.48714945264E+03  0.52993357182E+03  0.12699999809E+01 0.  1.
       -4    1    3    3    0  502  0.20322147366E+03 -0.47057635760E+02  0.13996897366E+03  0.25120970309E+03  0.12699999809E+01 0. -1.
</event>
<event>
 5   0  0.3013140E-03  0.7005169E+03  0.7818609E-02  0.9716349E-01
        1   -1    0    0  501    0  0.00000000000E+00  0.00000000000E+00  0.49559215062E+03  0.49559215064E+03  0.50400001928E-02 0.  1.
       -1   -1    0    0    0  501  0.00000000000E+00  0.00000000000E+00 -0.24754425715E+03  0.24754425720E+03  0.50400001928E-02 0. -1.
    10030    2    1    2    0    0  0.00000000000E+00  0.00000000000E+00  0.24804789347E+03  0.74313640785E+03  0.70051692571E+03 0.  0.
        2    1    3    3  502    0  0.11685288545E+03 -0.36889685422E+02 -0.22406343276E+03  0.25538180757E+03  0.25500000920E-02 0. -1.
       -2    1    3    3    0  502 -0.11685288545E+03  0.36889685422E+02  0.47211132623E+03  0.48775460028E+03  0.25500000920E-02 0.  1.
</event>
<event>
 5   0  0.2913582E-03  0.7003458E+03  0.7818609E-02  0.9716641E-01
        1   -1    0    0  501    0  0.00000000000E+00  0.00000000000E+00  0.43468154979E+03  0.43468154982E+03  0.50400001928E-02 0. -1.
       -1   -1    0    0    0  501  0.00000000000E+00  0.00000000000E+00 -0.28209397619E+03  0.28209397623E+03  0.50400001928E-02 0.  1.
    10030    2    1    2    0    0  0.00000000000E+00  0.00000000000E+00  0.15258757360E+03  0.71677552605E+03  0.70034576256E+03 0.  0.
        1    1    3    3  502    0 -0.27429642500E+03  0.11275615031E+02 -0.14618893342E+03  0.31102551751E+03  0.50400001928E-02 0.  1.
       -1    1    3    3    0  502  0.27429642500E+03 -0.11275615031E+02  0.29877650702E+03  0.40575000855E+03  0.50400001928E-02 0. -1.
</event>
<event>
 5   0  0.5076796E-03  0.6998415E+03  0.7818609E-02  0.9717503E-01
        2   -1    0    0  501    0  0.00000000000E+00  0.00000000000E+00  0.92052119848E+03  0.92052119848E+03  0.25500000920E-02 0. -1.
       -2   -1    0    0    0  501  0.00000000000E+00  0.00000000000E+00 -0.13301653160E+03  0.13301653162E+03  0.25500000920E-02 0.  1.
    10030    2    1    2    0    0  0.00000000000E+00  0.00000000000E+00  0.78750466688E+03  0.10535377301E+04  0.69984151663E+03 0.  0.
        5    1    3    3  502    0 -0.80479895894E+02  0.33920372112E+03  0.43856834257E+03  0.56026820288E+03  0.46999998093E+01 0. -1.
       -5    1    3    3    0  502  0.80479895894E+02 -0.33920372112E+03  0.34893632431E+03  0.49326952722E+03  0.46999998093E+01 0.  1.
</event>
<event>
 5   0  0.2934483E-03  0.7009442E+03  0.7818609E-02  0.9715619E-01
       -1   -1    0    0    0  501  0.00000000000E+00  0.00000000000E+00  0.16544716392E+03  0.16544716400E+03  0.50400001928E-02 0. -1.
        1   -1    0    0  501    0  0.00000000000E+00  0.00000000000E+00 -0.74241634354E+03  0.74241634356E+03  0.50400001928E-02 0.  1.
    10030    2    1    2    0    0  0.00000000000E+00  0.00000000000E+00 -0.57696917962E+03  0.90786350755E+03  0.70094415906E+03 0.  0.
        5    1    3    3  502    0  0.74911554671E+02 -0.33424304993E+03 -0.19261845013E+03  0.39300650730E+03  0.46999998093E+01 0. -1.
       -5    1    3    3    0  502 -0.74911554671E+02  0.33424304993E+03 -0.38435072949E+03  0.51485700025E+03  0.46999998093E+01 0.  1.
</event>
<event>
 5   0  0.5113683E-03  0.6995524E+03  0.7818609E-02  0.9717998E-01
        2   -1    0    0  501    0  0.00000000000E+00  0.00000000000E+00  0.10252510961E+04  0.10252510961E+04  0.25500000920E-02 0.  1.
       -2   -1    0    0    0  501  0.00000000000E+00  0.00000000000E+00 -0.11933017947E+03  0.11933017950E+03  0.25500000920E-02 0. -1.
    10030    2    1    2    0    0  0.00000000000E+00  0.00000000000E+00  0.90592091659E+03  0.11445812756E+04  0.69955242066E+03 0.  0.
        3    1    3    3  502    0  0.10260559995E+03 -0.33161169951E+02 -0.91455946732E+02  0.14139226544E+03  0.10100000352E+00 0. -1.
       -3    1    3    3    0  502 -0.10260559995E+03  0.33161169951E+02  0.99737686333E+03  0.10031890101E+04  0.10100000352E+00 0.  1.
</event>
<event>
 5   0  0.5072407E-03  0.7012469E+03  0.7818609E-02  0.9715102E-01
       -2   -1    0    0    0  501  0.00000000000E+00  0.00000000000E+00  0.94230686942E+02  0.94230686976E+02  0.25500000920E-02 0. -1.
        2   -1    0    0  501    0  0.00000000000E+00  0.00000000000E+00 -0.13046366325E+04  0.13046366325E+04  0.25500000920E-02 0.  1.
    10030    2    1    2    0    0  0.00000000000E+00  0.00000000000E+00 -0.12104059455E+04  0.13988673194E+04  0.70124690691E+03 0.  0.
        1    1    3    3  502    0 -0.30731482760E+03  0.56472823604E+01 -0.26865872535E+03  0.40823008928E+03  0.50400001928E-02 0. -1.
       -1    1    3    3    0  502  0.30731482760E+03 -0.56472823604E+01 -0.94174722018E+03  0.99063723017E+03  0.50400001928E-02 0.  1.
</event>
<event>
 5   0  0.3013140E-03  0.7004973E+03  0.7818609E-02  0.9716382E-01
        1   -1    0    0  501    0  0.00000000000E+00  0.00000000000E+00  0.95598548212E+03  0.95598548214E+03  0.50400001928E-02 0. -1.
       -1   -1    0    0    0  501  0.00000000000E+00  0.00000000000E+00 -0.12832215939E+03  0.12832215949E+03  0.50400001928E-02 0.  1.
    10030    2    1    2    0    0  0.00000000000E+00  0.00000000000E+00  0.82766332273E+03  0.10843076416E+04  0.70049731327E+03 0.  0.
        2    1    3    3  502    0  0.20004651170E+03  0.25231588393E+03  0.62715274879E+03  0.70498402993E+03  0.25500000920E-02 0. -1.
       -2    1    3    3    0  502 -0.20004651170E+03 -0.25231588393E+03  0.20051057394E+03  0.37932361170E+03  0.25500000920E-02 0.  1.
</event>
<event>
 5   0  0.3013140E-03  0.6972688E+03  0.7818609E-02  0.9721914E-01
       -1   -1    0    0    0  501  0.00000000000E+00  0.00000000000E+00  0.22336233816E+03  0.22336233821E+03  0.50400001928E-02 0. -1.
        1   -1    0    0  501    0  0.00000000000E+00  0.00000000000E+00 -0.54416487723E+03  0.54416487726E+03  0.50400001928E-02 0.  1.
    10030    2    1    2    0    0  0.00000000000E+00  0.00000000000E+00 -0.32080253908E+03  0.76752721547E+03  0.69726878419E+03 0.  0.
        2    1    3    3  502    0  0.14774964316E+03  0.12283367387E+03  0.15982006887E+03  0.24992103335E+03  0.25500000920E-02 0. -1.
       -2    1    3    3    0  502 -0.14774964316E+03 -0.12283367387E+03 -0.48062260795E+03  0.51760618212E+03  0.25500000920E-02 0.  1.
</event>
<event>
 5   0  0.5113683E-03  0.7070373E+03  0.7818609E-02  0.9705273E-01
       -2   -1    0    0    0  501  0.00000000000E+00  0.00000000000E+00  0.63701791673E+02  0.63701791724E+02  0.25500000920E-02 0. -1.
        2   -1    0    0  501    0  0.00000000000E+00  0.00000000000E+00 -0.19618823735E+04  0.19618823735E+04  0.25500000920E-02 0.  1.
    10030    2    1    2    0    0  0.00000000000E+00  0.00000000000E+00 -0.18981805819E+04  0.20255841653E+04  0.70703726154E+03 0.  0.
        3    1    3    3  502    0  0.16592804391E+03  0.27002086158E+03 -0.50037100021E+03  0.59229598133E+03  0.10100000352E+00 0. -1.
       -3    1    3    3    0  502 -0.16592804391E+03 -0.27002086158E+03 -0.13978095816E+04  0.14332881839E+04  0.10100000352E+00 0.  1.
</event>
<event>
 5   0  0.5076796E-03  0.6983281E+03  0.7818609E-02  0.9720096E-01
        2   -1    0    0  501    0  0.00000000000E+00  0.00000000000E+00  0.34510412015E+03  0.34510412016E+03  0.25500000920E-02 0.  1.
       -2   -1    0    0    0  501  0.00000000000E+00  0.00000000000E+00 -0.35327170419E+03  0.35327170420E+03  0.25500000920E-02 0. -1.
    10030    2    1    2    0    0  0.00000000000E+00  0.00000000000E+00 -0.81675840437E+01  0.69837582436E+03  0.69832806232E+03 0.  0.
        5    1    3    3  502    0 -0.32566544098E+03  0.12475691527E+03 -0.20551955131E+02  0.34938050920E+03  0.46999998093E+01 0. -1.
       -5    1    3    3    0  502  0.32566544098E+03 -0.12475691527E+03  0.12384371087E+02  0.34899531515E+03  0.46999998093E+01 0.  1.
</event>
<event>
 5   0  0.2938783E-03  0.7007246E+03  0.7818609E-02  0.9715994E-01
        1   -1    0    0  501    0  0.00000000000E+00  0.00000000000E+00  0.28105702978E+03  0.28105702982E+03  0.50400001928E-02 0.  1.
       -1   -1    0    0    0  501  0.00000000000E+00  0.00000000000E+00 -0.43675739058E+03  0.43675739061E+03  0.50400001928E-02 0. -1.
    10030    2    1    2    0    0  0.00000000000E+00  0.00000000000E+00 -0.15570036080E+03  0.71781442043E+03  0.70072458200E+03 0.  0.
        4    1    3    3  502    0 -0.96914696601E+02 -0.28445434831E+03 -0.26236927180E+03  0.39893104965E+03  0.12699999809E+01 0. -1.
       -4    1    3    3    0  502  0.96914696601E+02  0.28445434831E+03  0.10666891100E+03  0.31888337078E+03  0.12699999809E+01 0.  1.
</event>
<event>
 5   0  0.2938783E-03  0.6988554E+03  0.7818609E-02  0.9719192E-01
        1   -1    0    0  501    0  0.00000000000E+00  0.00000000000E+00  0.30862373696E+03  0.30862373701E+03  0.50400001928E-02 0. -1.
       -1   -1    0    0    0  501  0.00000000000E+00  0.00000000000E+00 -0.39562647769E+03  0.39562647772E+03  0.50400001928E-02 0.  1.
    10030    2    1    2    0    0  0.00000000000E+00  0.00000000000E+00 -0.87002740722E+02  0.70425021472E+03  0.69885541283E+03 0.  0.
        4    1    3    3  502    0 -0.56559445639E+02 -0.33476755594E+03  0.39779324131E+02  0.34183664948E+03  0.12699999809E+01 0. -1.
       -4    1    3    3    0  502  0.56559445639E+02  0.33476755594E+03 -0.12678206485E+03  0.36241356524E+03  0.12699999809E+01 0.  1.
</event>
<event>
 5   0  0.2913582E-03  0.6999466E+03  0.7818609E-02  0.9717323E-01
        1   -1    0    0  501    0  0.00000000000E+00  0.00000000000E+00  0.60014226769E+03  0.60014226771E+03  0.50400001928E-02 0. -1.
       -1   -1    0    0    0  501  0.00000000000E+00  0.00000000000E+00 -0.20408713466E+03  0.20408713472E+03  0.50400001928E-02 0.  1.
    10030    2    1    2    0    0  0.00000000000E+00  0.00000000000E+00  0.39605513303E+03  0.80422940244E+03  0.69994661464E+03 0.  0.
        1    1    3    3  502    0  0.10301540905E+03 -0.14396124830E+03  0.54490798704E+03  0.57294129707E+03  0.50400001928E-02 0. -1.
       -1    1    3    3    0  502 -0.10301540905E+03  0.14396124830E+03 -0.14885285401E+03  0.23128810537E+03  0.50400001928E-02 0.  1.
</event>
<event>
 5   0  0.2913582E-03  0.6998049E+03  0.7818609E-02  0.9717566E-01
       -1   -1    0    0    0  501  0.00000000000E+00  0.00000000000E+00  0.28663070141E+03  0.28663070146E+03  0.50400001928E-02 0.  1.
        1   -1    0    0  501    0  0.00000000000E+00  0.00000000000E+00 -0.42714098410E+03  0.42714098413E+03  0.50400001928E-02 0. -1.
    10030    2    1    2    0    0  0.00000000000E+00  0.00000000000E+00 -0.14051028269E+03  0.71377168559E+03  0.69980488682E+03 0.  0.
        1    1    3    3  502    0  0.11710783367E+03  0.32907665023E+03 -0.91307666266E+02  0.36103015993E+03  0.50400001928E-02 0.  1.
       -1    1    3    3    0  502 -0.11710783367E+03 -0.32907665023E+03 -0.49202616424E+02  0.35274152566E+03  0.50400001928E-02 0. -1.
</event>
<event>
 5   0  0.3013140E-03  0.7005220E+03  0.7818609E-02  0.9716340E-01
       -1   -1    0    0    0  501  0.00000000000E+00  0.00000000000E+00  0.30917932031E+03  0.30917932035E+03  0.50400001928E-02 0. -1.
        1   -1    0    0  501    0  0.00000000000E+00  0.00000000000E+00 -0.39680132382E+03  0.39680132385E+03  0.50400001928E-02 0.  1.
    10030    2    1    2    0    0  0.00000000000E+00  0.00000000000E+00 -0.87622003504E+02  0.70598064420E+03  0.70052198715E+03 0.  0.
        2    1    3    3  502    0 -0.25117461756E+03 -0.18217353339E+03  0.11995719221E+03  0.33266441461E+03  0.25500000920E-02 0.  1.
       -2    1    3    3    0  502  0.25117461756E+03  0.18217353339E+03 -0.20757919571E+03  0.37331622959E+03  0.25500000920E-02 0. -1.
</event>
<event>
 5   0  0.2934483E-03  0.6996689E+03  0.7818609E-02  0.9717799E-01
        1   -1    0    0  501    0  0.00000000000E+00  0.00000000000E+00  0.83877195884E+03  0.83877195885E+03  0.50400001928E-02 0.  1.
       -1   -1    0    0    0  501  0.00000000000E+00  0.00000000000E+00 -0.14590872984E+03  0.14590872993E+03  0.50400001928E-02 0. -1.
    10030    2    1    2    0    0  0.00000000000E+00  0.00000000000E+00  0.69286322899E+03  0.98468068879E+03  0.69966892512E+03 0.  0.
        5    1    3    3  502    0 -0.27964796794E+03 -0.20014828926E+03  0.43654324788E+03  0.55574672373E+03  0.46999998093E+01 0.  1.
       -5    1    3    3    0  502  0.27964796794E+03  0.20014828926E+03  0.25631998111E+03  0.42893396506E+03  0.46999998093E+01 0. -1.
</event>
<event>
 5   0  0.1981750E-03  0.6989764E+03  0.7818609E-02  0.9718984E-01
       -3   -1    0    0    0  501  0.00000000000E+00  0.00000000000E+00  0.30672036719E+03  0.30672038382E+03  0.10100000352E+00 0.  1.
        3   -1    0    0  501    0  0.00000000000E+00  0.00000000000E+00 -0.39821935608E+03  0.39821936889E+03  0.10100000352E+00 0. -1.
    10030    2    1    2    0    0  0.00000000000E+00  0.00000000000E+00 -0.91498988892E+02  0.70493975271E+03  0.69897638729E+03 0.  0.
        1    1    3    3  502    0 -0.26126978015E+03 -0.18525362947E+03 -0.18680406319E+03  0.37077832097E+03  0.50400001928E-02 0.  1.
       -1    1    3    3    0  502  0.26126978015E+03  0.18525362947E+03  0.95305074300E+02  0.33416143174E+03  0.50400001928E-02 0. -1.
</event>
<event>
 5   0  0.3013140E-03  0.7011359E+03  0.7818609E-02  0.9715292E-01
        1   -1    0    0  501    0  0.00000000000E+00  0.00000000000E+00  0.81954927722E+03  0.81954927724E+03  0.50400001928E-02 0.  1.
       -1   -1    0    0    0  501  0.00000000000E+00  0.00000000000E+00 -0.14995790325E+03  0.14995790333E+03  0.50400001928E-02 0. -1.
    10030    2    1    2    0    0  0.00000000000E+00  0.00000000000E+00  0.66959137397E+03  0.96950718057E+03  0.70113591056E+03 0.  0.
        2    1    3    3  502    0  0.47710137985E+02 -0.65773207864E+02 -0.13675709305E+03  0.15907505978E+03  0.25500000920E-02 0. -1.
       -2    1    3    3    0  502 -0.47710137985E+02  0.65773207864E+02  0.80634846702E+03  0.81043212079E+03  0.25500000920E-02 0.  1.
</event>
<event>
 5   0  0.5072407E-03  0.7012577E+03  0.7818609E-02  0.9715084E-01
        2   -1    0    0  501    0  0.00000000000E+00  0.00000000000E+00  0.64702413041E+03  0.64702413042E+03  0.25500000920E-02 0.  1.
       -2   -1    0    0    0  501  0.00000000000E+00  0.00000000000E+00 -0.19000927774E+03  0.19000927775E+03  0.25500000920E-02 0. -1.
    10030    2    1    2    0    0  0.00000000000E+00  0.00000000000E+00  0.45701485267E+03  0.83703340817E+03  0.70125769217E+03 0.  0.
        1    1    3    3  502    0 -0.20508905162E+03 -0.28438350182E+03  0.23120100582E+03  0.41998738114E+03  0.50400001928E-02 0.  1.
       -1    1    3    3    0  502  0.20508905162E+03  0.28438350182E+03  0.22581384686E+03  0.41704602703E+03  0.50400001928E-02 0. -1.
</event>
<event>
 5   0  0.5072407E-03  0.6992763E+03  0.7818609E-02  0.9718471E-01
        2   -1    0    0  501    0  0.00000000000E+00  0.00000000000E+00  0.72406844712E+03  0.72406844712E+03  0.25500000920E-02 0. -1.
       -2   -1    0    0    0  501  0.00000000000E+00  0.00000000000E+00 -0.16883325366E+03  0.16883325368E+03  0.25500000920E-02 0.  1.
    10030    2    1    2    0    0  0.00000000000E+00  0.00000000000E+00  0.55523519346E+03  0.89290170080E+03  0.69927628819E+03 0.  0.
        1    1    3    3  502    0 -0.19249300244E+03 -0.17443372694E+03 -0.21203294579E+02  0.26063434311E+03  0.50400001928E-02 0.  1.
       -1    1    3    3    0  502  0.19249300244E+03  0.17443372694E+03  0.57643848804E+03  0.63226735769E+03  0.50400001928E-02 0. -1.
</event>
<event>
 5   0  0.5023894E-03  0.6990230E+03  0.7818609E-02  0.9718904E-01
       -2   -1    0    0    0  501  0.00000000000E+00  0.00000000000E+00  0.53630062502E+03  0.53630062503E+03  0.25500000920E-02 0. -1.
        2   -1    0    0  501    0  0.00000000000E+00  0.00000000000E+00 -0.22777952505E+03  0.22777952506E+03  0.25500000920E-02 0.  1.
    10030    2    1    2    0    0  0.00000000000E+00  0.00000000000E+00  0.30852109997E+03  0.76408015009E+03  0.69902303727E+03 0.  0.
        2    1    3    3  502    0 -0.45971746235E+02  0.32962303862E+03  0.37585764865E+02  0.33492900556E+03  0.25500000920E-02 0.  1.
       -2    1    3    3    0  502  0.45971746235E+02 -0.32962303862E+03  0.27093533511E+03  0.42915114453E+03  0.25500000920E-02 0. -1.
</event>
<event>
 5   0  0.2938783E-03  0.6976432E+03  0.7818609E-02  0.9721271E-01
       -1   -1    0    0    0  501  0.00000000000E+00  0.00000000000E+00  0.61161200425E+02  0.61161200633E+02  0.50400001928E-02 0.  1.
        1   -1    0    0  501    0  0.00000000000E+00  0.00000000000E+00 -0.19894393689E+04  0.19894393689E+04  0.50400001928E-02 0. -1.
    10030    2    1    2    0    0  0.00000000000E+00  0.00000000000E+00 -0.19282781685E+04  0.20506005695E+04  0.69764317583E+03 0.  0.
        4    1    3    3  502    0  0.20826228059E+03 -0.11303219050E+03 -0.17165458208E+04  0.17328244635E+04  0.12699999809E+01 0. -1.
       -4    1    3    3    0  502 -0.20826228059E+03  0.11303219050E+03 -0.21173234771E+03  0.31777610604E+03  0.12699999809E+01 0.  1.
</event>
<event>
 5   0  0.2938783E-03  0.6948222E+03  0.7818609E-02  0.9726128E-01
        1   -1    0    0  501    0  0.00000000000E+00  0.00000000000E+00  0.63620346700E+03  0.63620346702E+03  0.50400001928E-02 0.  1.
       -1   -1    0    0    0  501  0.00000000000E+00  0.00000000000E+00 -0.18971050694E+03  0.18971050701E+03  0.50400001928E-02 0. -1.
    10030    2    1    2    0    0  0.00000000000E+00  0.00000000000E+00  0.44649296005E+03  0.82591397403E+03  0.69482222843E+03 0.  0.
        4    1    3    3  502    0  0.31175279605E+02 -0.33756655498E+03  0.31353680155E+03  0.46176835743E+03  0.12699999809E+01 0. -1.
       -4    1    3    3    0  502 -0.31175279605E+02  0.33756655498E+03  0.13295615850E+03  0.36414561659E+03  0.12699999809E+01 0.  1.
</event>
<event>
 5   0  0.2913582E-03  0.6995936E+03  0.7818609E-02  0.9717927E-01
       -1   -1    0    0    0  501  0.00000000000E+00  0.00000000000E+00  0.12555925339E+03  0.12555925349E+03  0.50400001928E-02 0. -1.
        1   -1    0    0  501    0  0.00000000000E+00  0.00000000000E+00 -0.97450245094E+03  0.97450245095E+03  0.50400001928E-02 0.  1.
    10030    2    1    2    0    0  0.00000000000E+00  0.00000000000E+00 -0.84894319755E+03  0.11000617044E+04  0.69959359696E+03 0.  0.
        1    1    3    3  502    0  0.14330898360E+03  0.58067680643E+02 -0.91784499494E+03  0.93077857468E+03  0.50400001928E-02 0.  1.
       -1    1    3    3    0  502 -0.14330898360E+03 -0.58067680643E+02  0.68901797386E+02  0.16928312977E+03  0.50400001928E-02 0. -1.
</event>
<event>
 5   0  0.3013140E-03  0.7005672E+03  0.7818609E-02  0.9716263E-01
       -1   -1    0    0    0  501  0.00000000000E+00  0.00000000000E+00  0.15735629134E+03  0.15735629142E+03  0.50400001928E-02 0.  1.
        1   -1    0    0  501    0  0.00000000000E+00  0.00000000000E+00 -0.77975016766E+03  0.77975016768E+03  0.50400001928E-02 0. -1.
    10030    2    1    2    0    0  0.00000000000E+00  0.00000000000E+00 -0.62239387632E+03  0.93710645910E+03  0.70056718336E+03 0.  0.
        2    1    3    3  502    0 -0.96579988138E+02 -0.21651628991E+03  0.33726353877E+02  0.23946704337E+03  0.25500000920E-02 0.  1.
       -2    1    3    3    0  502  0.96579988138E+02  0.21651628991E+03 -0.65612023020E+03  0.69763941573E+03  0.25500000920E-02 0. -1.
</event>
<event>
 5   0  0.1981750E-03  0.7003101E+03  0.7818609E-02  0.9716702E-01
       -4   -1    0    0    0  501  0.00000000000E+00  0.00000000000E+00  0.78635680065E+03  0.78635782620E+03  0.12699999809E+01 0. -1.
        4   -1    0    0  501    0  0.00000000000E+00  0.00000000000E+00 -0.15591603505E+03  0.15592120730E+03  0.12699999809E+01 0.  1.
    10030    2    1    2    0    0  0.00000000000E+00  0.00000000000E+00  0.63044076560E+03  0.94227903350E+03  0.70031008707E+03 0.  0.
        5    1    3    3  502    0 -0.33015018118E+03 -0.86539221960E+02  0.21014692601E+03  0.40083911932E+03  0.46999998093E+01 0. -1.
       -5    1    3    3    0  502  0.33015018118E+03  0.86539221960E+02  0.42029383959E+03  0.54143991418E+03  0.46999998093E+01 0.  1.
</event>
<event>
 5   0  0.5113683E-03  0.6994789E+03  0.7818609E-02  0.9718124E-01
       -2   -1    0    0    0  501  0.00000000000E+00  0.00000000000E+00  0.45406249471E+03  0.45406249472E+03  0.25500000920E-02 0.  1.
        2   -1    0    0  501    0  0.00000000000E+00  0.00000000000E+00 -0.26938515781E+03  0.26938515782E+03  0.25500000920E-02 0. -1.
    10030    2    1    2    0    0  0.00000000000E+00  0.00000000000E+00  0.18467733690E+03  0.72344765254E+03  0.69947893978E+03 0.  0.
        3    1    3    3  502    0 -0.15483159977E+03 -0.71069973641E+02  0.40824559051E+03  0.44236663279E+03  0.10100000352E+00 0.  1.
       -3    1    3    3    0  502  0.15483159977E+03  0.71069973641E+02 -0.22356825360E+03  0.28108101975E+03  0.10100000352E+00 0. -1.
</event>
<event>
 5   0  0.5072407E-03  0.7005973E+03  0.7818609E-02  0.9716211E-01
        2   -1    0    0  501    0  0.00000000000E+00  0.00000000000E+00  0.49154033603E+03  0.49154033604E+03  0.25500000920E-02 0. -1.
       -2   -1    0    0    0  501  0.00000000000E+00  0.00000000000E+00 -0.24964203698E+03  0.24964203700E+03  0.25500000920E-02 0.  1.
    10030    2    1    2    0    0  0.00000000000E+00  0.00000000000E+00  0.24189829905E+03  0.74118237303E+03  0.70059726164E+03 0.  0.
        1    1    3    3  502    0  0.34597591670E+03 -0.54861088344E+02  0.12120123541E+03  0.37067345932E+03  0.50400001928E-02 0. -1.
       -1    1    3    3    0  502 -0.34597591670E+03  0.54861088344E+02  0.12069706363E+03  0.37050891372E+03  0.50400001928E-02 0.  1.
</event>
<event>
 5   0  0.5113683E-03  0.7002879E+03  0.7818609E-02  0.9716740E-01
       -2   -1    0    0    0  501  0.00000000000E+00  0.00000000000E+00  0.10610580109E+04  0.10610580109E+04  0.25500000920E-02 0. -1.
        2   -1    0    0  501    0  0.00000000000E+00  0.00000000000E+00 -0.11554578263E+03  0.11554578266E+03  0.25500000920E-02 0.  1.
    10030    2    1    2    0    0  0.00000000000E+00  0.00000000000E+00  0.94551222831E+03  0.11766037936E+04  0.70028787883E+03 0.  0.
        3    1    3    3  502    0  0.84026674203E+01  0.31599402447E+03  0.21973577475E+03  0.38497616709E+03  0.10100000352E+00 0.  1.
       -3    1    3    3    0  502 -0.84026674203E+01 -0.31599402447E+03  0.72577645356E+03  0.79162762652E+03  0.10100000352E+00 0. -1.
</event>
<event>
 5   0  0.2938783E-03  0.6999627E+03  0.7818609E-02  0.9717296E-01
       -1   -1    0    0    0  501  0.00000000000E+00  0.00000000000E+00  0.16211961462E+03  0.16211961470E+03  0.50400001928E-02 0.  1.
        1   -1    0    0  501    0  0.00000000000E+00  0.00000000000E+00 -0.75553442309E+03  0.75553442310E+03  0.50400001928E-02 0. -1.
    10030    2    1    2    0    0  0.00000000000E+00  0.00000000000E+00 -0.59341480846E+03  0.91765403780E+03  0.69996271200E+03 0.  0.
        4    1    3    3  502    0 -0.61848420761E+02  0.15987194500E+03 -0.69672713438E+03  0.71750580390E+03  0.12699999809E+01 0. -1.
       -4    1    3    3    0  502  0.61848420761E+02 -0.15987194500E+03  0.10331232591E+03  0.20014823391E+03  0.12699999809E+01 0.  1.
</event>
<event>
 5   0  0.5023894E-03  0.6978553E+03  0.7818609E-02  0.9720907E-01
        2   -1    0    0  501    0  0.00000000000E+00  0.00000000000E+00  0.18846413913E+04  0.18846413913E+04  0.25500000920E-02 0. -1.
       -2   -1    0    0    0  501  0.00000000000E+00  0.00000000000E+00 -0.64601424183E+02  0.64601424234E+02  0.25500000920E-02 0.  1.
    10030    2    1    2    0    0  0.00000000000E+00  0.00000000000E+00  0.18200399671E+04  0.19492428155E+04  0.69785533745E+03 0.  0.
        2    1    3    3  502    0  0.17071153882E+03 -0.78408862602E+02  0.17313326144E+04  0.17414944734E+04  0.25500000920E-02 0. -1.
       -2    1    3    3    0  502 -0.17071153882E+03  0.78408862602E+02  0.88707352696E+02  0.20774834211E+03  0.25500000920E-02 0.  1.
</event>
<event>
 5   0  0.5023894E-03  0.7027220E+03  0.7818609E-02  0.9712588E-01
        2   -1    0    0  501    0  0.00000000000E+00  0.00000000000E+00  0.17249237443E+03  0.17249237444E+03  0.25500000920E-02 0. -1.
       -2   -1    0    0    0  501  0.00000000000E+00  0.00000000000E+00 -0.71571028886E+03  0.71571028886E+03  0.25500000920E-02 0.  1.
    10030    2    1    2    0    0  0.00000000000E+00  0.00000000000E+00 -0.54321791444E+03  0.88820266331E+03  0.70272204217E+03 0.  0.
        2    1    3    3  502    0 -0.95505150007E+02 -0.31015309723E+03 -0.10138218690E+03  0.33999194877E+03  0.25500000920E-02 0. -1.
       -2    1    3    3    0  502  0.95505150007E+02  0.31015309723E+03 -0.44183572754E+03  0.54821071454E+03  0.25500000920E-02 0.  1.
</event>
<event>
 5   0  0.2938783E-03  0.7005952E+03  0.7818609E-02  0.9716215E-01
        1   -1    0    0  501    0  0.00000000000E+00  0.00000000000E+00  0.68487994116E+03  0.68487994118E+03  0.50400001928E-02 0. -1.
       -1   -1    0    0    0  501  0.00000000000E+00  0.00000000000E+00 -0.17916775050E+03  0.17916775057E+03  0.50400001928E-02 0.  1.
    10030    2    1    2    0    0  0.00000000000E+00  0.00000000000E+00  0.50571219066E+03  0.86404769175E+03  0.70059517115E+03 0.  0.
        4    1    3    3  502    0  0.31747075849E+03 -0.11946442844E+03  0.36070758671E+03  0.49514746103E+03  0.12699999809E+01 0. -1.
       -4    1    3    3    0  502 -0.31747075849E+03  0.11946442844E+03  0.14500460395E+03  0.36890023072E+03  0.12699999809E+01 0.  1.
</event>
<event>
 5   0  0.3013140E-03  0.6979303E+03  0.7818609E-02  0.9720778E-01
        1   -1    0    0  501    0  0.00000000000E+00  0.00000000000E+00  0.41642612469E+03  0.41642612473E+03  0.50400001928E-02 0.  1.
       -1   -1    0    0    0  501  0.00000000000E+00  0.00000000000E+00 -0.29243285958E+03  0.29243285962E+03  0.50400001928E-02 0. -1.
    10030    2    1    2    0    0  0.00000000000E+00  0.00000000000E+00  0.12399326511E+03  0.70885898435E+03  0.69793031880E+03 0.  0.
        2    1    3    3  502    0  0.35517672554E+02 -0.23424926318E+03  0.32221635402E+03  0.39994699795E+03  0.25500000920E-02 0.  1.
       -2    1    3    3    0  502 -0.35517672554E+02  0.23424926318E+03 -0.19822308890E+03  0.30891198640E+03  0.25500000920E-02 0. -1.
</event>
<event>
 5   0  0.2934483E-03  0.7008627E+03  0.7818609E-02  0.9715758E-01
       -1   -1    0    0    0  501  0.00000000000E+00  0.00000000000E+00  0.15104946919E+03  0.15104946928E+03  0.50400001928E-02 0.  1.
        1   -1    0    0  501    0  0.00000000000E+00  0.00000000000E+00 -0.81299286471E+03  0.81299286472E+03  0.50400001928E-02 0. -1.
    10030    2    1    2    0    0  0.00000000000E+00  0.00000000000E+00 -0.66194339552E+03  0.96404233400E+03  0.70086272756E+03 0.  0.
        5    1    3    3  502    0 -0.11152869175E+03 -0.20811227950E+03  0.25151247161E+02  0.23749535826E+03  0.46999998093E+01 0.  1.
       -5    1    3    3    0  502  0.11152869175E+03  0.20811227950E+03 -0.68709464268E+03  0.72654697574E+03  0.46999998093E+01 0. -1.
</event>
<event>
 5   0  0.4878235E-03  0.6997540E+03  0.7818609E-02  0.9717653E-01
       -2   -1    0    0    0  501  0.00000000000E+00  0.00000000000E+00  0.20932551574E+03  0.20932551576E+03  0.25500000920E-02 0.  1.
        2   -1    0    0  501    0  0.00000000000E+00  0.00000000000E+00 -0.58480161886E+03  0.58480161886E+03  0.25500000920E-02 0. -1.
    10030    2    1    2    0    0  0.00000000000E+00  0.00000000000E+00 -0.37547610312E+03  0.79412713462E+03  0.69975395814E+03 0.  0.
        4    1    3    3  502    0  0.20311379140E+03  0.17068129658E+02 -0.51045887790E+03  0.54965117323E+03  0.12699999809E+01 0. -1.
       -4    1    3    3    0  502 -0.20311379140E+03 -0.17068129658E+02  0.13498277478E+03  0.24447596139E+03  0.12699999809E+01 0.  1.
</event>
<event>
 5   0  0.2934483E-03  0.7003359E+03  0.7818609E-02  0.9716658E-01
       -1   -1    0    0    0  501  0.00000000000E+00  0.00000000000E+00  0.28827980131E+03  0.28827980136E+03  0.50400001928E-02 0. -1.
        1   -1    0    0  501    0  0.00000000000E+00  0.00000000000E+00 -0.42534229264E+03  0.42534229267E+03  0.50400001928E-02 0.  1.
    10030    2    1    2    0    0  0.00000000000E+00  0.00000000000E+00 -0.13706249133E+03  0.71362209403E+03  0.70033589552E+03 0.  0.
        5    1    3    3  502    0 -0.11944039772E+03  0.31803544275E+03  0.17828892467E+02  0.34022420675E+03  0.46999998093E+01 0. -1.
       -5    1    3    3    0  502  0.11944039772E+03 -0.31803544275E+03 -0.15489138379E+03  0.37339788728E+03  0.46999998093E+01 0.  1.
</event>
<event>
 5   0  0.5072407E-03  0.6985266E+03  0.7818609E-02  0.9719755E-01
        2   -1    0    0  501    0  0.00000000000E+00  0.00000000000E+00  0.19405783566E+03  0.19405783567E+03  0.25500000920E-02 0.  1.
       -2   -1    0    0    0  501  0.00000000000E+00  0.00000000000E+00 -0.62860051078E+03  0.62860051078E+03  0.25500000920E-02 0. -1.
    10030    2    1    2    0    0  0.00000000000E+00  0.00000000000E+00 -0.43454267512E+03  0.82265834646E+03  0.69852660543E+03 0.  0.
        1    1    3    3  502    0 -0.25871140514E+01  0.83191413945E+02  0.18220746543E+03  0.20031741062E+03  0.50400001928E-02 0.  1.
       -1    1    3    3    0  502  0.25871140514E+01 -0.83191413945E+02 -0.61675014056E+03  0.62234093583E+03  0.50400001928E-02 0. -1.
</event>
<event>
 5   0  0.2934483E-03  0.6997022E+03  0.7818609E-02  0.9717742E-01
       -1   -1    0    0    0  501  0.00000000000E+00  0.00000000000E+00  0.16664679225E+03  0.16664679232E+03  0.50400001928E-02 0.  1.
        1   -1    0    0  501    0  0.00000000000E+00  0.00000000000E+00 -0.73446241810E+03  0.73446241812E+03  0.50400001928E-02 0. -1.
    10030    2    1    2    0    0  0.00000000000E+00  0.00000000000E+00 -0.56781562585E+03  0.90110921044E+03  0.69970223966E+03 0.  0.
        5    1    3    3  502    0  0.10825388115E+03  0.27085001096E+03 -0.53261593273E+03  0.60727296418E+03  0.46999998093E+01 0. -1.
       -5    1    3    3    0  502 -0.10825388115E+03 -0.27085001096E+03 -0.35199693122E+02  0.29383624626E+03  0.46999998093E+01 0.  1.
</event>
<event>
 5   0  0.2913582E-03  0.6997541E+03  0.7818609E-02  0.9717653E-01
        1   -1    0    0  501    0  0.00000000000E+00  0.00000000000E+00  0.11018433314E+04  0.11018433314E+04  0.50400001928E-02 0. -1.
       -1   -1    0    0    0  501  0.00000000000E+00  0.00000000000E+00 -0.11109923541E+03  0.11109923552E+03  0.50400001928E-02 0.  1.
    10030    2    1    2    0    0  0.00000000000E+00  0.00000000000E+00  0.99074409597E+03  0.12129425669E+04  0.69975410461E+03 0.  0.
        1    1    3    3  502    0  0.99905312487E+02 -0.10186052324E+03  0.10491260144E+04  0.10587832789E+04  0.50400001928E-02 0. -1.
       -1    1    3    3    0  502 -0.99905312487E+02  0.10186052324E+03 -0.58381918387E+02  0.15415928800E+03  0.50400001928E-02 0.  1.
</event>
<event>
 5   0  0.2937617E-03  0.6996047E+03  0.7818609E-02  0.9717908E-01
       -1   -1    0    0    0  501  0.00000000000E+00  0.00000000000E+00  0.44318813550E+03  0.44318813553E+03  0.50400001928E-02 0. -1.
        1   -1    0    0  501    0  0.00000000000E+00  0.00000000000E+00 -0.27609422743E+03  0.27609422747E+03  0.50400001928E-02 0.  1.
    10030    2    1    2    0    0  0.00000000000E+00  0.00000000000E+00  0.16709390808E+03  0.71928236301E+03  0.69960470525E+03 0.  0.
        3    1    3    3  502    0 -0.18138784083E+03 -0.23498970718E+03  0.27379199371E+03  0.40383632489E+03  0.10100000352E+00 0. -1.
       -3    1    3    3    0  502  0.18138784083E+03  0.23498970718E+03 -0.10669808563E+03  0.31544603811E+03  0.10100000352E+00 0.  1.
</event>
<event>
 5   0  0.2934483E-03  0.7015523E+03  0.7818609E-02  0.9714581E-01
       -1   -1    0    0    0  501  0.00000000000E+00  0.00000000000E+00  0.80707153554E+02  0.80707153711E+02  0.50400001928E-02 0. -1.
        1   -1    0    0  501    0  0.00000000000E+00  0.00000000000E+00 -0.15245726425E+04  0.15245726425E+04  0.50400001928E-02 0.  1.
    10030    2    1    2    0    0  0.00000000000E+00  0.00000000000E+00 -0.14438654889E+04  0.16052797962E+04  0.70155233160E+03 0.  0.
        5    1    3    3  502    0  0.14275529329E+03  0.21254367440E+03 -0.17339882653E+03  0.30926223554E+03  0.46999998093E+01 0. -1.
       -5    1    3    3    0  502 -0.14275529329E+03 -0.21254367440E+03 -0.12704666624E+04  0.12960175607E+04  0.46999998093E+01 0.  1.
</event>
<event>
 5   0  0.4878235E-03  0.6982078E+03  0.7818609E-02  0.9720302E-01
       -2   -1    0    0    0  501  0.00000000000E+00  0.00000000000E+00  0.52055509425E+02  0.52055509487E+02  0.25500000920E-02 0. -1.
        2   -1    0    0  501    0  0.00000000000E+00  0.00000000000E+00 -0.23412226727E+04  0.23412226727E+04  0.25500000920E-02 0.  1.
    10030    2    1    2    0    0  0.00000000000E+00  0.00000000000E+00 -0.22891671633E+04  0.23932781822E+04  0.69820781715E+03 0.  0.
        4    1    3    3  502    0 -0.65781245707E+02 -0.26318117161E+03 -0.39141184277E+03  0.47623139852E+03  0.12699999809E+01 0. -1.
       -4    1    3    3    0  502  0.65781245707E+02  0.26318117161E+03 -0.18977553205E+04  0.19170467837E+04  0.12699999809E+01 0.  1.
</event>
<event>
 5   0  0.5113683E-03  0.7030624E+03  0.7818609E-02  0.9712009E-01
       -2   -1    0    0    0  501  0.00000000000E+00  0.00000000000E+00  0.58216329435E+02  0.58216329490E+02  0.25500000920E-02 0. -1.
        2   -1    0    0  501    0  0.00000000000E+00  0.00000000000E+00 -0.21226721908E+04  0.21226721908E+04  0.25500000920E-02 0.  1.
    10030    2    1    2    0    0  0.00000000000E+00  0.00000000000E+00 -0.20644558613E+04  0.21808885203E+04  0.70306239724E+03 0.  0.
        3    1    3    3  502    0 -0.15914221829E+02  0.35037274194E+03 -0.11056246188E+04  0.11599224666E+04  0.10100000352E+00 0. -1.
       -3    1    3    3    0  502  0.15914221829E+02 -0.35037274194E+03 -0.95883124255E+03  0.10209660536E+04  0.10100000352E+00 0.  1.
</event>
<event>
 5   0  0.5023894E-03  0.6989120E+03  0.7818609E-02  0.9719095E-01
       -2   -1    0    0    0  501  0.00000000000E+00  0.00000000000E+00  0.21684156575E+03  0.21684156577E+03  0.25500000920E-02 0.  1.
        2   -1    0    0  501    0  0.00000000000E+00  0.00000000000E+00 -0.56317379799E+03  0.56317379799E+03  0.25500000920E-02 0. -1.
    10030    2    1    2    0    0  0.00000000000E+00  0.00000000000E+00 -0.34633223223E+03  0.78001536376E+03  0.69891197774E+03 0.  0.
        2    1    3    3  502    0  0.87155896892E+02  0.33839153572E+03 -0.16891542434E+03  0.38812034525E+03  0.25500000920E-02 0. -1.
       -2    1    3    3    0  502 -0.87155896892E+02 -0.33839153572E+03 -0.17741680789E+03  0.39189501852E+03  0.25500000920E-02 0.  1.
</event>
<event>
 5   0  0.5072407E-03  0.7005297E+03  0.7818609E-02  0.9716327E-01
        2   -1    0    0  501    0  0.00000000000E+00  0.00000000000E+00  0.89511668566E+03  0.89511668567E+03  0.25500000920E-02 0. -1.
       -2   -1    0    0    0  501  0.00000000000E+00  0.00000000000E+00 -0.13706086056E+03  0.13706086058E+03  0.25500000920E-02 0.  1.
    10030    2    1    2    0    0  0.00000000000E+00  0.00000000000E+00  0.75805582510E+03  0.10321775462E+04  0.70052969459E+03 0.  0.
        1    1    3    3  502    0 -0.30908645886E+03  0.89193889736E+01  0.13659936089E+03  0.33804345870E+03  0.50400001928E-02 0.  1.
       -1    1    3    3    0  502  0.30908645886E+03 -0.89193889736E+01  0.62145646421E+03  0.69413408754E+03  0.50400001928E-02 0. -1.
</event>
<event>
 5   0  0.5076796E-03  0.7019172E+03  0.7818609E-02  0.9713959E-01
       -2   -1    0    0    0  501  0.00000000000E+00  0.00000000000E+00  0.29668626024E+03  0.29668626025E+03  0.25500000920E-02 0. -1.
        2   -1    0    0  501    0  0.00000000000E+00  0.00000000000E+00 -0.41515883298E+03  0.41515883299E+03  0.25500000920E-02 0.  1.
    10030    2    1    2    0    0  0.00000000000E+00  0.00000000000E+00 -0.11847257274E+03  0.71184509324E+03  0.70191715058E+03 0.  0.
        5    1    3    3  502    0  0.36259954916E+02  0.27157961060E+03 -0.28160818013E+03  0.39293196147E+03  0.46999998093E+01 0.  1.
       -5    1    3    3    0  502 -0.36259954916E+02 -0.27157961060E+03  0.16313560739E+03  0.31891313178E+03  0.46999998093E+01 0. -1.
</event>
<event>
 5   0  0.5113683E-03  0.6998700E+03  0.7818609E-02  0.9717455E-01
        2   -1    0    0  501    0  0.00000000000E+00  0.00000000000E+00  0.38407462105E+03  0.38407462106E+03  0.25500000920E-02 0. -1.
       -2   -1    0    0    0  501  0.00000000000E+00  0.00000000000E+00 -0.31882996731E+03  0.31882996732E+03  0.25500000920E-02 0.  1.
    10030    2    1    2    0    0  0.00000000000E+00  0.00000000000E+00  0.65244653741E+02  0.70290458837E+03  0.69986998472E+03 0.  0.
        3    1    3    3  502    0  0.58256876056E+02  0.26253521879E+03 -0.19225897573E+03  0.33057847580E+03  0.10100000352E+00 0.  1.
       -3    1    3    3    0  502 -0.58256876056E+02 -0.26253521879E+03  0.25750362947E+03  0.37232611257E+03  0.10100000352E+00 0. -1.
</event>
<event>
 5   0  0.2913582E-03  0.6990862E+03  0.7818609E-02  0.9718796E-01
       -1   -1    0    0    0  501  0.00000000000E+00  0.00000000000E+00  0.59069778899E+03  0.59069778901E+03  0.50400001928E-02 0. -1.
        1   -1    0    0  501    0  0.00000000000E+00  0.00000000000E+00 -0.20684077648E+03  0.20684077654E+03  0.50400001928E-02 0.  1.
    10030    2    1    2    0    0  0.00000000000E+00  0.00000000000E+00  0.38385701251E+03  0.79753856555E+03  0.69908623036E+03 0.  0.
        1    1    3    3  502    0  0.16975795203E+03  0.75404843622E+02 -0.14587420671E+03  0.23618411659E+03  0.50400001928E-02 0. -1.
       -1    1    3    3    0  502 -0.16975795203E+03 -0.75404843622E+02  0.52973121923E+03  0.56135444896E+03  0.50400001928E-02 0.  1.
</event>
<event>
 5   0  0.2937617E-03  0.7053237E+03  0.7818609E-02  0.9708171E-01
        1   -1    0    0  501    0  0.00000000000E+00  0.00000000000E+00  0.29120768789E+03  0.29120768793E+03  0.50400001928E-02 0. -1.
       -1   -1    0    0    0  501  0.00000000000E+00  0.00000000000E+00 -0.42708484797E+03  0.42708484800E+03  0.50400001928E-02 0.  1.
    10030    2    1    2    0    0  0.00000000000E+00  0.00000000000E+00 -0.13587716009E+03  0.71829253593E+03  0.70532373031E+03 0.  0.
        3    1    3    3  502    0 -0.23882445243E+03 -0.22100123645E+03 -0.20642317257E+03  0.38534296667E+03  0.10100000352E+00 0.  1.
       -3    1    3    3    0  502  0.23882445243E+03  0.22100123645E+03  0.70546012486E+02  0.33294956926E+03  0.10100000352E+00 0. -1.
</event>
<event>
 5   0  0.2934483E-03  0.7001628E+03  0.7818609E-02  0.9716954E-01
        1   -1    0    0  501    0  0.00000000000E+00  0.00000000000E+00  0.24180121118E+03  0.24180121123E+03  0.50400001928E-02 0.  1.
       -1   -1    0    0    0  501  0.00000000000E+00  0.00000000000E+00 -0.50685022091E+03  0.50685022094E+03  0.50400001928E-02 0. -1.
    10030    2    1    2    0    0  0.00000000000E+00  0.00000000000E+00 -0.26504900973E+03  0.74865143217E+03  0.70016283059E+03 0.  0.
        5    1    3    3  502    0  0.10949757371E+03 -0.28319754258E+03 -0.31878444540E+03  0.44026830388E+03  0.46999998093E+01 0. -1.
       -5    1    3    3    0  502 -0.10949757371E+03  0.28319754258E+03  0.53735435673E+02  0.30838312829E+03  0.46999998093E+01 0.  1.
</event>
<event>
 5   0  0.2937617E-03  0.7023171E+03  0.7818609E-02  0.9713278E-01
        1   -1    0    0  501    0  0.00000000000E+00  0.00000000000E+00  0.10618056570E+04  0.10618056570E+04  0.50400001928E-02 0.  1.
       -1   -1    0    0    0  501  0.00000000000E+00  0.00000000000E+00 -0.11613454948E+03  0.11613454959E+03  0.50400001928E-02 0. -1.
    10030    2    1    2    0    0  0.00000000000E+00  0.00000000000E+00  0.94567110750E+03  0.11779402066E+04  0.70231708419E+03 0.  0.
        3    1    3    3  502    0 -0.58446318445E+02 -0.33021900636E+03  0.29811666996E+03  0.44870271161E+03  0.10100000352E+00 0. -1.
       -3    1    3    3    0  502  0.58446318445E+02  0.33021900636E+03  0.64755443754E+03  0.72923749498E+03  0.10100000352E+00 0.  1.
</event>
<event>
 5   0  0.5023894E-03  0.7006862E+03  0.7818609E-02  0.9716059E-01
       -2   -1    0    0    0  501  0.00000000000E+00  0.00000000000E+00  0.17050680307E+03  0.17050680309E+03  0.25500000920E-02 0. -1.
        2   -1    0    0  501    0  0.00000000000E+00  0.00000000000E+00 -0.71985562199E+03  0.71985562199E+03  0.25500000920E-02 0.  1.
    10030    2    1    2    0    0  0.00000000000E+00  0.00000000000E+00 -0.54934881892E+03  0.89036242508E+03  0.70068618021E+03 0.  0.
        2    1    3    3  502    0 -0.14411694832E+03 -0.87351929953E+02 -0.66496827805E+03  0.68599042652E+03  0.25500000920E-02 0.  1.
       -2    1    3    3    0  502  0.14411694832E+03  0.87351929953E+02  0.11561945913E+03  0.20437199856E+03  0.25500000920E-02 0. -1.
</event>
<event>
 5   0  0.5113683E-03  0.7044101E+03  0.7818609E-02  0.9709720E-01
       -2   -1    0    0    0  501  0.00000000000E+00  0.00000000000E+00  0.46675980604E+02  0.46675980673E+02  0.25500000920E-02 0.  1.
        2   -1    0    0  501    0  0.00000000000E+00  0.00000000000E+00 -0.26576496146E+04  0.26576496146E+04  0.25500000920E-02 0. -1.
    10030    2    1    2    0    0  0.00000000000E+00  0.00000000000E+00 -0.26109736340E+04  0.27043255953E+04  0.70441011338E+03 0.  0.
        3    1    3    3  502    0  0.14651208836E+03 -0.30267986414E+03 -0.90343020479E+03  0.96398497774E+03  0.10100000352E+00 0.  1.
       -3    1    3    3    0  502 -0.14651208836E+03  0.30267986414E+03 -0.17075434292E+04  0.17403406176E+04  0.10100000352E+00 0. -1.
</event>
<event>
 5   0  0.2937617E-03  0.7001816E+03  0.7818609E-02  0.9716922E-01
       -1   -1    0    0    0  501  0.00000000000E+00  0.00000000000E+00  0.43652046696E+03  0.43652046699E+03  0.50400001928E-02 0.  1.
        1   -1    0    0  501    0  0.00000000000E+00  0.00000000000E+00 -0.28077389958E+03  0.28077389962E+03  0.50400001928E-02 0. -1.
    10030    2    1    2    0    0  0.00000000000E+00  0.00000000000E+00  0.15574656739E+03  0.71729436661E+03  0.70018155869E+03 0.  0.
        3    1    3    3  502    0  0.14343369319E+03  0.30553930853E+03 -0.17328334521E+02  0.33797599734E+03  0.10100000352E+00 0. -1.
       -3    1    3    3    0  502 -0.14343369319E+03 -0.30553930853E+03  0.17307490191E+03  0.37931836928E+03  0.10100000352E+00 0.  1.
</event>
<event>
 5   0  0.3013140E-03  0.6997870E+03  0.7818609E-02  0.9717597E-01
       -1   -1    0    0    0  501  0.00000000000E+00  0.00000000000E+00  0.10399059954E+03  0.10399059966E+03  0.50400001928E-02 0. -1.
        1   -1    0    0  501    0  0.00000000000E+00  0.00000000000E+00 -0.11772742450E+04  0.11772742450E+04  0.50400001928E-02 0.  1.
    10030    2    1    2    0    0  0.00000000000E+00  0.00000000000E+00 -0.10732836455E+04  0.12812648447E+04  0.69978698085E+03 0.  0.
        2    1    3    3  502    0  0.12959245366E+03 -0.24995366154E+03 -0.91699380325E+03  0.95924380226E+03  0.25500000920E-02 0. -1.
       -2    1    3    3    0  502 -0.12959245366E+03  0.24995366154E+03 -0.15628984220E+03  0.32202104240E+03  0.25500000920E-02 0.  1.
</event>
<event>
 5   0  0.5023894E-03  0.6994520E+03  0.7818609E-02  0.9718170E-01
       -2   -1    0    0    0  501  0.00000000000E+00  0.00000000000E+00  0.24642802865E+03  0.24642802866E+03  0.25500000920E-02 0.  1.
        2   -1    0    0  501    0  0.00000000000E+00  0.00000000000E+00 -0.49632447386E+03  0.49632447387E+03  0.25500000920E-02 0. -1.
    10030    2    1    2    0    0  0.00000000000E+00  0.00000000000E+00 -0.24989644521E+03  0.74275250253E+03  0.69945196168E+03 0.  0.
        2    1    3    3  502    0  0.58121991444E+02  0.63923277967E+02  0.23491728043E+03  0.25030077908E+03  0.25500000920E-02 0.  1.
       -2    1    3    3    0  502 -0.58121991444E+02 -0.63923277967E+02 -0.48481372564E+03  0.49245172346E+03  0.25500000920E-02 0. -1.
</event>
<event>
 5   0  0.3013140E-03  0.6998330E+03  0.7818609E-02  0.9717518E-01
        1   -1    0    0  501    0  0.00000000000E+00  0.00000000000E+00  0.49713549177E+03  0.49713549179E+03  0.50400001928E-02 0. -1.
       -1   -1    0    0    0  501  0.00000000000E+00  0.00000000000E+00 -0.24629411114E+03  0.24629411119E+03  0.50400001928E-02 0.  1.
    10030    2    1    2    0    0  0.00000000000E+00  0.00000000000E+00  0.25084138063E+03  0.74342960299E+03  0.69983296318E+03 0.  0.
        2    1    3    3  502    0 -0.32896366062E+03  0.39144025509E+02  0.24509857328E+03  0.41209544449E+03  0.25500000920E-02 0. -1.
       -2    1    3    3    0  502  0.32896366062E+03 -0.39144025509E+02  0.57428073465E+01  0.33133415849E+03  0.25500000920E-02 0.  1.
</event>
<event>
 5   0  0.1981750E-03  0.7011966E+03  0.7818609E-02  0.9715188E-01
       -3   -1    0    0    0  501  0.00000000000E+00  0.00000000000E+00  0.24755426080E+03  0.24755428141E+03  0.10100000352E+00 0.  1.
        3   -1    0    0  501    0  0.00000000000E+00  0.00000000000E+00 -0.49653426162E+03  0.49653427190E+03  0.10100000352E+00 0. -1.
    10030    2    1    2    0    0  0.00000000000E+00  0.00000000000E+00 -0.24898000082E+03  0.74408855330E+03  0.70119664456E+03 0.  0.
        2    1    3    3  502    0 -0.17429035278E+03  0.15270799680E+03  0.15470515812E+03  0.27862258579E+03  0.25500000920E-02 0.  1.
       -2    1    3    3    0  502  0.17429035278E+03 -0.15270799680E+03 -0.40368515894E+03  0.46546596751E+03  0.25500000920E-02 0. -1.
</event>
<event>
 5   0  0.5072407E-03  0.7000944E+03  0.7818609E-02  0.9717071E-01
       -2   -1    0    0    0  501  0.00000000000E+00  0.00000000000E+00  0.17164879980E+03  0.17164879982E+03  0.25500000920E-02 0.  1.
        2   -1    0    0  501    0  0.00000000000E+00  0.00000000000E+00 -0.71385898250E+03  0.71385898251E+03  0.25500000920E-02 0. -1.
    10030    2    1    2    0    0  0.00000000000E+00  0.00000000000E+00 -0.54221018270E+03  0.88550778233E+03  0.70009438674E+03 0.  0.
        1    1    3    3  502    0 -0.18986449323E+03  0.21141249135E+03 -0.12541018207E+02  0.28443108911E+03  0.50400001928E-02 0.  1.
       -1    1    3    3    0  502  0.18986449323E+03 -0.21141249135E+03 -0.52966916449E+03  0.60107669322E+03  0.50400001928E-02 0. -1.
</event>
<event>
 5   0  0.2938783E-03  0.7014123E+03  0.7818609E-02  0.9714820E-01
       -1   -1    0    0    0  501  0.00000000000E+00  0.00000000000E+00  0.23921421750E+03  0.23921421755E+03  0.50400001928E-02 0. -1.
        1   -1    0    0  501    0  0.00000000000E+00  0.00000000000E+00 -0.51416171253E+03  0.51416171255E+03  0.50400001928E-02 0.  1.
    10030    2    1    2    0    0  0.00000000000E+00  0.00000000000E+00 -0.27494749503E+03  0.75337593010E+03  0.70141226610E+03 0.  0.
        4    1    3    3  502    0  0.54514484071E+02  0.14506648885E+03  0.20043984929E+03  0.25336507502E+03  0.12699999809E+01 0. -1.
       -4    1    3    3    0  502 -0.54514484071E+02 -0.14506648885E+03 -0.47538734432E+03  0.50001085508E+03  0.12699999809E+01 0.  1.
</event>
<event>
 5   0  0.2913582E-03  0.6994319E+03  0.7818609E-02  0.9718204E-01
        1   -1    0    0  501    0  0.00000000000E+00  0.00000000000E+00  0.61383833095E+03  0.61383833097E+03  0.50400001928E-02 0. -1.
       -1   -1    0    0    0  501  0.00000000000E+00  0.00000000000E+00 -0.19924013192E+03  0.19924013198E+03  0.50400001928E-02 0.  1.
    10030    2    1    2    0    0  0.00000000000E+00  0.00000000000E+00  0.41459819903E+03  0.81307846296E+03  0.69943185535E+03 0.  0.
        1    1    3    3  502    0  0.87054750904E+02 -0.30761736219E+03  0.37208613686E+03  0.49056606532E+03  0.50400001928E-02 0. -1.
       -1    1    3    3    0  502 -0.87054750904E+02  0.30761736219E+03  0.42512062171E+02  0.32251239764E+03  0.50400001928E-02 0.  1.
</event>
<event>
 5   0  0.3013140E-03  0.7096388E+03  0.7818609E-02  0.9700889E-01
       -1   -1    0    0    0  501  0.00000000000E+00  0.00000000000E+00  0.15352706437E+04  0.15352706437E+04  0.50400001928E-02 0. -1.
        1   -1    0    0  501    0  0.00000000000E+00  0.00000000000E+00 -0.82003003584E+02  0.82003003739E+02  0.50400001928E-02 0.  1.
    10030    2    1    2    0    0  0.00000000000E+00  0.00000000000E+00  0.14532676401E+04  0.16172736475E+04  0.70963879328E+03 0.  0.
        2    1    3    3  502    0 -0.14647375094E+03  0.27225764938E+03  0.32981107562E+03  0.45205545342E+03  0.25500000920E-02 0.  1.
       -2    1    3    3    0  502  0.14647375094E+03 -0.27225764938E+03  0.11234565645E+04  0.11652181940E+04  0.25500000920E-02 0. -1.
</event>
<event>
 5   0  0.5072407E-03  0.7015151E+03  0.7818609E-02  0.9714645E-01
       -2   -1    0    0    0  501  0.00000000000E+00  0.00000000000E+00  0.14845151506E+03  0.14845151508E+03  0.25500000920E-02 0.  1.
        2   -1    0    0  501    0  0.00000000000E+00  0.00000000000E+00 -0.82876127396E+03  0.82876127396E+03  0.25500000920E-02 0. -1.
    10030    2    1    2    0    0  0.00000000000E+00  0.00000000000E+00 -0.68030975890E+03  0.97721278905E+03  0.70151512245E+03 0.  0.
        1    1    3    3  502    0 -0.42793870924E+02 -0.10643945934E+03 -0.80188908439E+03  0.81005356464E+03  0.50400001928E-02 0. -1.
       -1    1    3    3    0  502  0.42793870924E+02  0.10643945934E+03  0.12157932549E+03  0.16715922441E+03  0.50400001928E-02 0.  1.
</event>
<event>
 5   0  0.5076796E-03  0.6968993E+03  0.7818609E-02  0.9722550E-01
       -2   -1    0    0    0  501  0.00000000000E+00  0.00000000000E+00  0.91339968773E+02  0.91339968809E+02  0.25500000920E-02 0. -1.
        2   -1    0    0  501    0  0.00000000000E+00  0.00000000000E+00 -0.13292882013E+04  0.13292882013E+04  0.25500000920E-02 0.  1.
    10030    2    1    2    0    0  0.00000000000E+00  0.00000000000E+00 -0.12379482326E+04  0.14206281702E+04  0.69689925478E+03 0.  0.
        5    1    3    3  502    0 -0.19313757655E+03  0.91887207596E+02 -0.58295565298E+02  0.22173372618E+03  0.46999998093E+01 0. -1.
       -5    1    3    3    0  502  0.19313757655E+03 -0.91887207596E+02 -0.11796526673E+04  0.11988944440E+04  0.46999998093E+01 0.  1.
</event>
<event>
 5   0  0.2937617E-03  0.7000926E+03  0.7818609E-02  0.9717074E-01
        1   -1    0    0  501    0  0.00000000000E+00  0.00000000000E+00  0.51507372808E+03  0.51507372810E+03  0.50400001928E-02 0. -1.
       -1   -1    0    0    0  501  0.00000000000E+00  0.00000000000E+00 -0.23789296322E+03  0.23789296328E+03  0.50400001928E-02 0.  1.
    10030    2    1    2    0    0  0.00000000000E+00  0.00000000000E+00  0.27718076485E+03  0.75296669138E+03  0.70009260953E+03 0.  0.
        3    1    3    3  502    0  0.13565823551E+03 -0.16714237336E+03  0.43546760870E+03  0.48576926443E+03  0.10100000352E+00 0. -1.
       -3    1    3    3    0  502 -0.13565823551E+03  0.16714237336E+03 -0.15828684385E+03  0.26719742695E+03  0.10100000352E+00 0.  1.
</event>
<event>
 5   0  0.4878235E-03  0.7010632E+03  0.7818609E-02  0.9715416E-01
        2   -1    0    0  501    0  0.00000000000E+00  0.00000000000E+00  0.96727227680E+03  0.96727227681E+03  0.25500000920E-02 0. -1.
       -2   -1    0    0    0  501  0.00000000000E+00  0.00000000000E+00 -0.12702979514E+03  0.12702979516E+03  0.25500000920E-02 0.  1.
    10030    2    1    2    0    0  0.00000000000E+00  0.00000000000E+00  0.84024248166E+03  0.10943020720E+04  0.70106319025E+03 0.  0.
        4    1    3    3  502    0  0.25738363789E+03  0.22965011859E+03  0.51741629974E+03  0.62185750310E+03  0.12699999809E+01 0. -1.
       -4    1    3    3    0  502 -0.25738363789E+03 -0.22965011859E+03  0.32282618192E+03  0.47244456887E+03  0.12699999809E+01 0.  1.
</event>
<event>
 5   0  0.2938783E-03  0.7001014E+03  0.7818609E-02  0.9717059E-01
       -1   -1    0    0    0  501  0.00000000000E+00  0.00000000000E+00  0.12419484583E+03  0.12419484593E+03  0.50400001928E-02 0.  1.
        1   -1    0    0  501    0  0.00000000000E+00  0.00000000000E+00 -0.98663914693E+03  0.98663914694E+03  0.50400001928E-02 0. -1.
    10030    2    1    2    0    0  0.00000000000E+00  0.00000000000E+00 -0.86244430110E+03  0.11108339929E+04  0.70010141210E+03 0.  0.
        4    1    3    3  502    0 -0.29554921048E+02  0.16685960970E+03 -0.91721725821E+03  0.93274044319E+03  0.12699999809E+01 0. -1.
       -4    1    3    3    0  502  0.29554921048E+02 -0.16685960970E+03  0.54772957111E+02  0.17809354968E+03  0.12699999809E+01 0.  1.
</event>
<event>
 5   0  0.2934483E-03  0.7005687E+03  0.7818609E-02  0.9716260E-01
        1   -1    0    0  501    0  0.00000000000E+00  0.00000000000E+00  0.29145747960E+03  0.29145747965E+03  0.50400001928E-02 0. -1.
       -1   -1    0    0    0  501  0.00000000000E+00  0.00000000000E+00 -0.42098459879E+03  0.42098459882E+03  0.50400001928E-02 0.  1.
    10030    2    1    2    0    0  0.00000000000E+00  0.00000000000E+00 -0.12952711919E+03  0.71244207847E+03  0.70056865514E+03 0.  0.
        5    1    3    3  502    0 -0.10801378311E+03 -0.30100691417E+03  0.80503078846E+02  0.32981051442E+03  0.46999998093E+01 0.  1.
       -5    1    3    3    0  502  0.10801378311E+03  0.30100691417E+03 -0.21003019803E+03  0.38263156405E+03  0.46999998093E+01 0. -1.
</event>
<event>
 5   0  0.3013140E-03  0.7006000E+03  0.7818609E-02  0.9716207E-01
        1   -1    0    0  501    0  0.00000000000E+00  0.00000000000E+00  0.16072966596E+04  0.16072966596E+04  0.50400001928E-02 0.  1.
       -1   -1    0    0    0  501  0.00000000000E+00  0.00000000000E+00 -0.76345646526E+02  0.76345646692E+02  0.50400001928E-02 0. -1.
    10030    2    1    2    0    0  0.00000000000E+00  0.00000000000E+00  0.15309510131E+04  0.16836423063E+04  0.70060003650E+03 0.  0.
        2    1    3    3  502    0  0.16097918152E+02 -0.98819241261E+02 -0.41228309591E+02  0.10827815537E+03  0.25500000920E-02 0. -1.
       -2    1    3    3    0  502 -0.16097918152E+02  0.98819241261E+02  0.15721793227E+04  0.15753641510E+04  0.25500000920E-02 0.  1.
</event>
<event>
 5   0  0.3013140E-03  0.7002182E+03  0.7818609E-02  0.9716859E-01
       -1   -1    0    0    0  501  0.00000000000E+00  0.00000000000E+00  0.24744655822E+03  0.24744655827E+03  0.50400001928E-02 0.  1.
        1   -1    0    0  501    0  0.00000000000E+00  0.00000000000E+00 -0.49536503596E+03  0.49536503599E+03  0.50400001928E-02 0. -1.
    10030    2    1    2    0    0  0.00000000000E+00  0.00000000000E+00 -0.24791847774E+03  0.74281159426E+03  0.70021817525E+03 0.  0.
        2    1    3    3  502    0  0.23431413068E+03 -0.33460234257E+01 -0.39990131035E+03  0.46350336108E+03  0.25500000920E-02 0. -1.
       -2    1    3    3    0  502 -0.23431413068E+03  0.33460234257E+01  0.15198283260E+03  0.27930823318E+03  0.25500000920E-02 0.  1.
</event>
<event>
 5   0  0.2934483E-03  0.7006670E+03  0.7818609E-02  0.9716092E-01
       -1   -1    0    0    0  501  0.00000000000E+00  0.00000000000E+00  0.82413127540E+02  0.82413127694E+02  0.50400001928E-02 0.  1.
        1   -1    0    0  501    0  0.00000000000E+00  0.00000000000E+00 -0.14892475291E+04  0.14892475291E+04  0.50400001928E-02 0. -1.
    10030    2    1    2    0    0  0.00000000000E+00  0.00000000000E+00 -0.14068344016E+04  0.15716606568E+04  0.70066695850E+03 0.  0.
        5    1    3    3  502    0  0.12373055860E+03  0.22210865395E+03 -0.12439510246E+04  0.12696762370E+04  0.46999998093E+01 0. -1.
       -5    1    3    3    0  502 -0.12373055860E+03 -0.22210865395E+03 -0.16288337695E+03  0.30198441976E+03  0.46999998093E+01 0.  1.
</event>
<event>
 5   0  0.2934483E-03  0.6998382E+03  0.7818609E-02  0.9717509E-01
        1   -1    0    0  501    0  0.00000000000E+00  0.00000000000E+00  0.25222193756E+03  0.25222193761E+03  0.50400001928E-02 0.  1.
       -1   -1    0    0    0  501  0.00000000000E+00  0.00000000000E+00 -0.48545886308E+03  0.48545886311E+03  0.50400001928E-02 0. -1.
    10030    2    1    2    0    0  0.00000000000E+00  0.00000000000E+00 -0.23323692553E+03  0.73768080071E+03  0.69983819581E+03 0.  0.
        5    1    3    3  502    0 -0.27698804497E+03  0.18593210720E+03 -0.54241665809E+01  0.33368343849E+03  0.46999998093E+01 0. -1.
       -5    1    3    3    0  502  0.27698804497E+03 -0.18593210720E+03 -0.22781275894E+03  0.40399736222E+03  0.46999998093E+01 0.  1.
</event>
<event>
 5   0  0.3013140E-03  0.7036418E+03  0.7818609E-02  0.9711024E-01
       -1   -1    0    0    0  501  0.00000000000E+00  0.00000000000E+00  0.21326606131E+03  0.21326606137E+03  0.50400001928E-02 0. -1.
        1   -1    0    0  501    0  0.00000000000E+00  0.00000000000E+00 -0.58039209548E+03  0.58039209550E+03  0.50400001928E-02 0.  1.
    10030    2    1    2    0    0  0.00000000000E+00  0.00000000000E+00 -0.36712603417E+03  0.79365815687E+03  0.70364177320E+03 0.  0.
        2    1    3    3  502    0 -0.30249127191E+03 -0.15022249892E+03 -0.72416660721E+02  0.34541560694E+03  0.25500000920E-02 0. -1.
       -2    1    3    3    0  502  0.30249127191E+03  0.15022249892E+03 -0.29470937345E+03  0.44824254993E+03  0.25500000920E-02 0.  1.
</event>
<event>
 5   0  0.3013140E-03  0.6959855E+03  0.7818609E-02  0.9724122E-01
        1   -1    0    0  501    0  0.00000000000E+00  0.00000000000E+00  0.50073413106E+03  0.50073413108E+03  0.50400001928E-02 0.  1.
       -1   -1    0    0    0  501  0.00000000000E+00  0.00000000000E+00 -0.24184281507E+03  0.24184281513E+03  0.50400001928E-02 0. -1.
    10030    2    1    2    0    0  0.00000000000E+00  0.00000000000E+00  0.25889131599E+03  0.74257694621E+03  0.69598549378E+03 0.  0.
        2    1    3    3  502    0 -0.19896568190E+03  0.20284775622E+03  0.34380405928E+03  0.44602218102E+03  0.25500000920E-02 0.  1.
       -2    1    3    3    0  502  0.19896568190E+03 -0.20284775622E+03 -0.84912743292E+02  0.29655476519E+03  0.25500000920E-02 0. -1.
</event>
<event>
 5   0  0.1981750E-03  0.7019299E+03  0.7818609E-02  0.9713937E-01
       -3   -1    0    0    0  501  0.00000000000E+00  0.00000000000E+00  0.10459516397E+04  0.10459516446E+04  0.10100000352E+00 0.  1.
        3   -1    0    0  501    0  0.00000000000E+00  0.00000000000E+00 -0.11776488603E+03  0.11776492935E+03  0.10100000352E+00 0. -1.
    10030    2    1    2    0    0  0.00000000000E+00  0.00000000000E+00  0.92818675367E+03  0.11637165739E+04  0.70192992153E+03 0.  0.
        5    1    3    3  502    0 -0.66615111617E+02 -0.17491721966E+03  0.95623766617E+03  0.97439528480E+03  0.46999998093E+01 0.  1.
       -5    1    3    3    0  502  0.66615111617E+02  0.17491721966E+03 -0.28050912499E+02  0.18932128913E+03  0.46999998093E+01 0. -1.
</event>
<event>
 5   0  0.1981750E-03  0.7053365E+03  0.7818609E-02  0.9708149E-01
        4   -1    0    0  501    0  0.00000000000E+00  0.00000000000E+00  0.25259356299E+03  0.25259675565E+03  0.12699999809E+01 0. -1.
       -4   -1    0    0    0  501  0.00000000000E+00  0.00000000000E+00 -0.49238422624E+03  0.49238586408E+03  0.12699999809E+01 0.  1.
    10030    2    1    2    0    0  0.00000000000E+00  0.00000000000E+00 -0.23979066325E+03  0.74498261973E+03  0.70533647398E+03 0.  0.
        1    1    3    3  502    0 -0.55580243418E+02 -0.14660309930E+03  0.21376178213E+03  0.26509570292E+03  0.50400001928E-02 0. -1.
       -1    1    3    3    0  502  0.55580243418E+02  0.14660309930E+03 -0.45355244539E+03  0.47988691681E+03  0.50400001928E-02 0.  1.
</event>
<event>
 5   0  0.5072407E-03  0.6972246E+03  0.7818609E-02  0.9721990E-01
        2   -1    0    0  501    0  0.00000000000E+00  0.00000000000E+00  0.47995762303E+03  0.47995762304E+03  0.25500000920E-02 0. -1.
       -2   -1    0    0    0  501  0.00000000000E+00  0.00000000000E+00 -0.25321096264E+03  0.25321096265E+03  0.25500000920E-02 0.  1.
    10030    2    1    2    0    0  0.00000000000E+00  0.00000000000E+00  0.22674666040E+03  0.73316858569E+03  0.69722458867E+03 0.  0.
        1    1    3    3  502    0 -0.24230745580E+03  0.24848304157E+03  0.14783165800E+03  0.37724120165E+03  0.50400001928E-02 0. -1.
       -1    1    3    3    0  502  0.24230745580E+03 -0.24848304157E+03  0.78915002396E+02  0.35592738405E+03  0.50400001928E-02 0.  1.
</event>
<event>
 5   0  0.2934483E-03  0.6986052E+03  0.7818609E-02  0.9719620E-01
       -1   -1    0    0    0  501  0.00000000000E+00  0.00000000000E+00  0.64935687100E+03  0.64935687101E+03  0.50400001928E-02 0.  1.
        1   -1    0    0  501    0  0.00000000000E+00  0.00000000000E+00 -0.18789717180E+03  0.18789717187E+03  0.50400001928E-02 0. -1.
    10030    2    1    2    0    0  0.00000000000E+00  0.00000000000E+00  0.46145969920E+03  0.83725404288E+03  0.69860523784E+03 0.  0.
        5    1    3    3  502    0  0.16569498819E+03  0.19437744068E+03 -0.54778691319E+02  0.26126655656E+03  0.46999998093E+01 0. -1.
       -5    1    3    3    0  502 -0.16569498819E+03 -0.19437744068E+03  0.51623839052E+03  0.57598748632E+03  0.46999998093E+01 0.  1.
</event>
<event>
 5   0  0.3013140E-03  0.6995824E+03  0.7818609E-02  0.9717947E-01
       -1   -1    0    0    0  501  0.00000000000E+00  0.00000000000E+00  0.53698512540E+02  0.53698512777E+02  0.50400001928E-02 0. -1.
        1   -1    0    0  501    0  0.00000000000E+00  0.00000000000E+00 -0.22785341688E+04  0.22785341688E+04  0.50400001928E-02 0.  1.
    10030    2    1    2    0    0  0.00000000000E+00  0.00000000000E+00 -0.22248356562E+04  0.23322326815E+04  0.69958243522E+03 0.  0.
        2    1    3    3  502    0  0.21237455959E+03  0.14954593679E+03 -0.18934475288E+04  0.19111803905E+04  0.25500000920E-02 0.  1.
       -2    1    3    3    0  502 -0.21237455959E+03 -0.14954593679E+03 -0.33138812739E+03  0.42105229099E+03  0.25500000920E-02 0. -1.
</event>
<event>
 5   0  0.2913582E-03  0.6993245E+03  0.7818609E-02  0.9718388E-01
        1   -1    0    0  501    0  0.00000000000E+00  0.00000000000E+00  0.68485305594E+03  0.68485305596E+03  0.50400001928E-02 0. -1.
       -1   -1    0    0    0  501  0.00000000000E+00  0.00000000000E+00 -0.17852542243E+03  0.17852542250E+03  0.50400001928E-02 0.  1.
    10030    2    1    2    0    0  0.00000000000E+00  0.00000000000E+00  0.50632763352E+03  0.86337847846E+03  0.69932447734E+03 0.  0.
        1    1    3    3  502    0 -0.11945996457E+03 -0.17845169469E+03  0.59384779761E+03  0.63148309338E+03  0.50400001928E-02 0. -1.
       -1    1    3    3    0  502  0.11945996457E+03  0.17845169469E+03 -0.87520164095E+02  0.23189538508E+03  0.50400001928E-02 0.  1.
</event>
<event>
 5   0  0.5076796E-03  0.6990784E+03  0.7818609E-02  0.9718810E-01
       -2   -1    0    0    0  501  0.00000000000E+00  0.00000000000E+00  0.17607982085E+04  0.17607982085E+04  0.25500000920E-02 0.  1.
        2   -1    0    0  501    0  0.00000000000E+00  0.00000000000E+00 -0.69387643220E+02  0.69387643267E+02  0.25500000920E-02 0. -1.
    10030    2    1    2    0    0  0.00000000000E+00  0.00000000000E+00  0.16914105652E+04  0.18301858517E+04  0.69907835875E+03 0.  0.
        5    1    3    3  502    0 -0.21293907444E+03  0.21855950151E+03  0.39953631035E+03  0.50275506801E+03  0.46999998093E+01 0. -1.
       -5    1    3    3    0  502  0.21293907444E+03 -0.21855950151E+03  0.12918742549E+04  0.13274307837E+04  0.46999998093E+01 0.  1.
</event>
<event>
 5   0  0.5076796E-03  0.6996124E+03  0.7818609E-02  0.9717895E-01
        2   -1    0    0  501    0  0.00000000000E+00  0.00000000000E+00  0.17469616626E+04  0.17469616626E+04  0.25500000920E-02 0.  1.
       -2   -1    0    0    0  501  0.00000000000E+00  0.00000000000E+00 -0.70044116244E+02  0.70044116291E+02  0.25500000920E-02 0. -1.
    10030    2    1    2    0    0  0.00000000000E+00  0.00000000000E+00  0.16769175463E+04  0.18170057789E+04  0.69961242359E+03 0.  0.
        5    1    3    3  502    0 -0.30569798546E+03  0.16972600515E+03  0.81463831204E+03  0.88651894768E+03  0.46999998093E+01 0. -1.
       -5    1    3    3    0  502  0.30569798546E+03 -0.16972600515E+03  0.86227923429E+03  0.93048683119E+03  0.46999998093E+01 0.  1.
</event>
<event>
 5   0  0.4878235E-03  0.7028535E+03  0.7818609E-02  0.9712365E-01
       -2   -1    0    0    0  501  0.00000000000E+00  0.00000000000E+00  0.11877765599E+03  0.11877765602E+03  0.25500000920E-02 0. -1.
        2   -1    0    0  501    0  0.00000000000E+00  0.00000000000E+00 -0.10397642692E+04  0.10397642692E+04  0.25500000920E-02 0.  1.
    10030    2    1    2    0    0  0.00000000000E+00  0.00000000000E+00 -0.92098661320E+03  0.11585419252E+04  0.70285350591E+03 0.  0.
        4    1    3    3  502    0 -0.17389277713E+02 -0.24090930774E+03 -0.39732087346E+02  0.24478548404E+03  0.12699999809E+01 0. -1.
       -4    1    3    3    0  502  0.17389277713E+02  0.24090930774E+03 -0.88125452585E+03  0.91375644117E+03  0.12699999809E+01 0.  1.
</event>
<event>
 5   0  0.2934483E-03  0.6980108E+03  0.7818609E-02  0.9720640E-01
        1   -1    0    0  501    0  0.00000000000E+00  0.00000000000E+00  0.20900885010E+03  0.20900885016E+03  0.50400001928E-02 0.  1.
       -1   -1    0    0    0  501  0.00000000000E+00  0.00000000000E+00 -0.58277323035E+03  0.58277323037E+03  0.50400001928E-02 0. -1.
    10030    2    1    2    0    0  0.00000000000E+00  0.00000000000E+00 -0.37376438025E+03  0.79178208053E+03  0.69801078151E+03 0.  0.
        5    1    3    3  502    0 -0.12989082730E+03  0.12604333087E+03 -0.52533443072E+03  0.55565898028E+03  0.46999998093E+01 0. -1.
       -5    1    3    3    0  502  0.12989082730E+03 -0.12604333087E+03  0.15157005047E+03  0.23612310025E+03  0.46999998093E+01 0.  1.
</event>
<event>
 5   0  0.5023894E-03  0.7058454E+03  0.7818609E-02  0.9707288E-01
        2   -1    0    0  501    0  0.00000000000E+00  0.00000000000E+00  0.10252690086E+04  0.10252690086E+04  0.25500000920E-02 0. -1.
       -2   -1    0    0    0  501  0.00000000000E+00  0.00000000000E+00 -0.12148462978E+03  0.12148462981E+03  0.25500000920E-02 0.  1.
    10030    2    1    2    0    0  0.00000000000E+00  0.00000000000E+00  0.90378437880E+03  0.11467536384E+04  0.70584538237E+03 0.  0.
        2    1    3    3  502    0 -0.45593243439E+02  0.32016979434E+03  0.68146306650E+03  0.75430720006E+03  0.25500000920E-02 0. -1.
       -2    1    3    3    0  502  0.45593243439E+02 -0.32016979434E+03  0.22232131230E+03  0.39244643834E+03  0.25500000920E-02 0.  1.
</event>
<event>
 5   0  0.3013140E-03  0.7012889E+03  0.7818609E-02  0.9715031E-01
        1   -1    0    0  501    0  0.00000000000E+00  0.00000000000E+00  0.29445257760E+03  0.29445257765E+03  0.50400001928E-02 0. -1.
       -1   -1    0    0    0  501  0.00000000000E+00  0.00000000000E+00 -0.41755972485E+03  0.41755972488E+03  0.50400001928E-02 0.  1.
    10030    2    1    2    0    0  0.00000000000E+00  0.00000000000E+00 -0.12310714725E+03  0.71201230252E+03  0.70128891995E+03 0.  0.
        2    1    3    3  502    0 -0.23144641021E+03 -0.18697983722E+03  0.12681679549E+03  0.32343685620E+03  0.25500000920E-02 0.  1.
       -2    1    3    3    0  502  0.23144641021E+03  0.18697983722E+03 -0.24992394274E+03  0.38857544632E+03  0.25500000920E-02 0. -1.
</event>
<event>
 5   0  0.5023894E-03  0.7013272E+03  0.7818609E-02  0.9714965E-01
       -2   -1    0    0    0  501  0.00000000000E+00  0.00000000000E+00  0.17437986762E+03  0.17437986764E+03  0.25500000920E-02 0.  1.
        2   -1    0    0  501    0  0.00000000000E+00  0.00000000000E+00 -0.70515564678E+03  0.70515564679E+03  0.25500000920E-02 0. -1.
    10030    2    1    2    0    0  0.00000000000E+00  0.00000000000E+00 -0.53077577916E+03  0.87953551443E+03  0.70132716573E+03 0.  0.
        2    1    3    3  502    0 -0.26574723120E+03 -0.19479262210E+03 -0.11489992176E+03  0.34895235856E+03  0.25500000920E-02 0.  1.
       -2    1    3    3    0  502  0.26574723120E+03  0.19479262210E+03 -0.41587585740E+03  0.53058315587E+03  0.25500000920E-02 0. -1.
</event>
<event>
 5   0  0.2934483E-03  0.7007234E+03  0.7818609E-02  0.9715996E-01
        1   -1    0    0  501    0  0.00000000000E+00  0.00000000000E+00  0.35798276941E+03  0.35798276945E+03  0.50400001928E-02 0. -1.
       -1   -1    0    0    0  501  0.00000000000E+00  0.00000000000E+00 -0.34290289827E+03  0.34290289831E+03  0.50400001928E-02 0.  1.
    10030    2    1    2    0    0  0.00000000000E+00  0.00000000000E+00  0.15079871142E+02  0.70088566776E+03  0.70072342386E+03 0.  0.
        5    1    3    3  502    0 -0.10976558240E+03  0.92054143641E+02 -0.31223518323E+03  0.34356272802E+03  0.46999998093E+01 0.  1.
       -5    1    3    3    0  502  0.10976558240E+03 -0.92054143641E+02  0.32731505437E+03  0.35732293973E+03  0.46999998093E+01 0. -1.
</event>
<event>
 5   0  0.4878235E-03  0.7004023E+03  0.7818609E-02  0.9716544E-01
        2   -1    0    0  501    0  0.00000000000E+00  0.00000000000E+00  0.91553248716E+03  0.91553248717E+03  0.25500000920E-02 0. -1.
       -2   -1    0    0    0  501  0.00000000000E+00  0.00000000000E+00 -0.13395575719E+03  0.13395575722E+03  0.25500000920E-02 0.  1.
    10030    2    1    2    0    0  0.00000000000E+00  0.00000000000E+00  0.78157672997E+03  0.10494882444E+04  0.70040230601E+03 0.  0.
        4    1    3    3  502    0  0.32933038731E+03 -0.18113691041E+02  0.56714672339E+03  0.65608202883E+03  0.12699999809E+01 0. -1.
       -4    1    3    3    0  502 -0.32933038731E+03  0.18113691041E+02  0.21443000658E+03  0.39340621555E+03  0.12699999809E+01 0.  1.
</event>
<event>
 5   0  0.2913582E-03  0.7004014E+03  0.7818609E-02  0.9716546E-01
        1   -1    0    0  501    0  0.00000000000E+00  0.00000000000E+00  0.11373735783E+04  0.11373735783E+04  0.50400001928E-02 0.  1.
       -1   -1    0    0    0  501  0.00000000000E+00  0.00000000000E+00 -0.10782782698E+03  0.10782782710E+03  0.50400001928E-02 0. -1.
    10030    2    1    2    0    0  0.00000000000E+00  0.00000000000E+00  0.10295457513E+04  0.12452014054E+04  0.70040137491E+03 0.  0.
        1    1    3    3  502    0  0.77554933895E+02 -0.10249408681E+03  0.10939250587E+04  0.11014498807E+04  0.50400001928E-02 0.  1.
       -1    1    3    3    0  502 -0.77554933895E+02  0.10249408681E+03 -0.64379307410E+02  0.14375152469E+03  0.50400001928E-02 0. -1.
</event>
<event>
 5   0  0.2934483E-03  0.7014594E+03  0.7818609E-02  0.9714740E-01
       -1   -1    0    0    0  501  0.00000000000E+00  0.00000000000E+00  0.11098193190E+03  0.11098193201E+03  0.50400001928E-02 0. -1.
        1   -1    0    0  501    0  0.00000000000E+00  0.00000000000E+00 -0.11083906652E+04  0.11083906652E+04  0.50400001928E-02 0.  1.
    10030    2    1    2    0    0  0.00000000000E+00  0.00000000000E+00 -0.99740873326E+03  0.12193725972E+04  0.70145944258E+03 0.  0.
        5    1    3    3  502    0  0.12277220555E+03  0.38718307851E+02  0.68369491830E+02  0.14583757825E+03  0.46999998093E+01 0. -1.
       -5    1    3    3    0  502 -0.12277220555E+03 -0.38718307851E+02 -0.10657782251E+04  0.10735350189E+04  0.46999998093E+01 0.  1.
</event>
<event>
 5   0  0.2938783E-03  0.6998195E+03  0.7818609E-02  0.9717541E-01
       -1   -1    0    0    0  501  0.00000000000E+00  0.00000000000E+00  0.98525509039E+03  0.98525509040E+03  0.50400001928E-02 0.  1.
        1   -1    0    0  501    0  0.00000000000E+00  0.00000000000E+00 -0.12426918112E+03  0.12426918122E+03  0.50400001928E-02 0. -1.
    10030    2    1    2    0    0  0.00000000000E+00  0.00000000000E+00  0.86098590927E+03  0.11095242716E+04  0.69981952914E+03 0.  0.
        4    1    3    3  502    0 -0.13058645576E+03  0.30857853113E+03  0.59031397325E+03  0.67878253676E+03  0.12699999809E+01 0.  1.
       -4    1    3    3    0  502  0.13058645576E+03 -0.30857853113E+03  0.27067193602E+03  0.43074173486E+03  0.12699999809E+01 0. -1.
</event>
<event>
 5   0  0.5023894E-03  0.6994676E+03  0.7818609E-02  0.9718143E-01
        2   -1    0    0  501    0  0.00000000000E+00  0.00000000000E+00  0.13078107572E+04  0.13078107572E+04  0.25500000920E-02 0.  1.
       -2   -1    0    0    0  501  0.00000000000E+00  0.00000000000E+00 -0.93525558155E+02  0.93525558190E+02  0.25500000920E-02 0. -1.
    10030    2    1    2    0    0  0.00000000000E+00  0.00000000000E+00  0.12142851990E+04  0.14013363154E+04  0.69946760054E+03 0.  0.
        2    1    3    3  502    0  0.78724282328E+02 -0.24452494259E+03  0.10826098795E+04  0.11126698124E+04  0.25500000920E-02 0.  1.
       -2    1    3    3    0  502 -0.78724282328E+02  0.24452494259E+03  0.13167531954E+03  0.28866650301E+03  0.25500000920E-02 0. -1.
</event>
<event>
 5   0  0.5113683E-03  0.6999166E+03  0.7818609E-02  0.9717375E-01
       -2   -1    0    0    0  501  0.00000000000E+00  0.00000000000E+00  0.63255669358E+02  0.63255669409E+02  0.25500000920E-02 0. -1.
        2   -1    0    0  501    0  0.00000000000E+00  0.00000000000E+00 -0.19361237732E+04  0.19361237732E+04  0.25500000920E-02 0.  1.
    10030    2    1    2    0    0  0.00000000000E+00  0.00000000000E+00 -0.18728681038E+04  0.19993794426E+04  0.69991658155E+03 0.  0.
        3    1    3    3  502    0 -0.44762887306E+02 -0.15007969438E+03 -0.18304309369E+04  0.18371186830E+04  0.10100000352E+00 0.  1.
       -3    1    3    3    0  502  0.44762887306E+02  0.15007969438E+03 -0.42437166945E+02  0.16226075954E+03  0.10100000352E+00 0. -1.
</event>
<event>
 5   0  0.2937617E-03  0.6982372E+03  0.7818609E-02  0.9720252E-01
       -1   -1    0    0    0  501  0.00000000000E+00  0.00000000000E+00  0.10973922871E+03  0.10973922883E+03  0.50400001928E-02 0. -1.
        1   -1    0    0  501    0  0.00000000000E+00  0.00000000000E+00 -0.11106675963E+04  0.11106675963E+04  0.50400001928E-02 0.  1.
    10030    2    1    2    0    0  0.00000000000E+00  0.00000000000E+00 -0.10009283676E+04  0.12204068251E+04  0.69823722458E+03 0.  0.
        3    1    3    3  502    0  0.17735022350E+03  0.68053761715E+02 -0.10124332271E+04  0.10300997358E+04  0.10100000352E+00 0.  1.
       -3    1    3    3    0  502 -0.17735022350E+03 -0.68053761715E+02  0.11504859466E+02  0.19030708933E+03  0.10100000352E+00 0. -1.
</event>
<event>
 5   0  0.5076796E-03  0.7005601E+03  0.7818609E-02  0.9716275E-01
       -2   -1    0    0    0  501  0.00000000000E+00  0.00000000000E+00  0.35071291673E+03  0.35071291674E+03  0.25500000920E-02 0. -1.
        2   -1    0    0  501    0  0.00000000000E+00  0.00000000000E+00 -0.34984771315E+03  0.34984771316E+03  0.25500000920E-02 0.  1.
    10030    2    1    2    0    0  0.00000000000E+00  0.00000000000E+00  0.86520358022E+00  0.70056062989E+03  0.70056009562E+03 0.  0.
        5    1    3    3  502    0  0.33491792677E+03  0.18525506094E+01  0.10290498000E+03  0.35040686997E+03  0.46999998093E+01 0. -1.
       -5    1    3    3    0  502 -0.33491792677E+03 -0.18525506094E+01 -0.10203977642E+03  0.35015375992E+03  0.46999998093E+01 0.  1.
</event>
<event>
 5   0  0.5076796E-03  0.6982669E+03  0.7818609E-02  0.9720201E-01
       -2   -1    0    0    0  501  0.00000000000E+00  0.00000000000E+00  0.10790631640E+03  0.10790631643E+03  0.25500000920E-02 0. -1.
        2   -1    0    0  501    0  0.00000000000E+00  0.00000000000E+00 -0.11296295843E+04  0.11296295843E+04  0.25500000920E-02 0.  1.
    10030    2    1    2    0    0  0.00000000000E+00  0.00000000000E+00 -0.10217232679E+04  0.12375359007E+04  0.69826690416E+03 0.  0.
        5    1    3    3  502    0 -0.25818673713E+03 -0.13654679503E+03 -0.84976742407E+03  0.89857230286E+03  0.46999998093E+01 0.  1.
       -5    1    3    3    0  502  0.25818673713E+03  0.13654679503E+03 -0.17195584384E+03  0.33896359788E+03  0.46999998093E+01 0. -1.
</event>
<event>
 5   0  0.5076796E-03  0.7146625E+03  0.7818609E-02  0.9692481E-01
        2   -1    0    0  501    0  0.00000000000E+00  0.00000000000E+00  0.75152543049E+03  0.75152543049E+03  0.25500000920E-02 0. -1.
       -2   -1    0    0    0  501  0.00000000000E+00  0.00000000000E+00 -0.16990192822E+03  0.16990192824E+03  0.25500000920E-02 0.  1.
    10030    2    1    2    0    0  0.00000000000E+00  0.00000000000E+00  0.58162350227E+03  0.92142735873E+03  0.71466249308E+03 0.  0.
        5    1    3    3  502    0  0.42062219731E+02 -0.17761193518E+03 -0.10521739775E+03  0.21073210632E+03  0.46999998093E+01 0.  1.
       -5    1    3    3    0  502 -0.42062219731E+02  0.17761193518E+03  0.68684090002E+03  0.71069525240E+03  0.46999998093E+01 0. -1.
</event>
<event>
 5   0  0.2938783E-03  0.7004598E+03  0.7818609E-02  0.9716446E-01
       -1   -1    0    0    0  501  0.00000000000E+00  0.00000000000E+00  0.69036385132E+03  0.69036385134E+03  0.50400001928E-02 0.  1.
        1   -1    0    0  501    0  0.00000000000E+00  0.00000000000E+00 -0.17767586421E+03  0.17767586428E+03  0.50400001928E-02 0. -1.
    10030    2    1    2    0    0  0.00000000000E+00  0.00000000000E+00  0.51268798711E+03  0.86803971562E+03  0.70045983166E+03 0.  0.
        4    1    3    3  502    0  0.10107730579E+03  0.99518588176E+02  0.65317033851E+03  0.66839634585E+03  0.12699999809E+01 0.  1.
       -4    1    3    3    0  502 -0.10107730579E+03 -0.99518588176E+02 -0.14048235140E+03  0.19964336977E+03  0.12699999809E+01 0. -1.
</event>
<event>
 5   0  0.4878235E-03  0.6940179E+03  0.7818609E-02  0.9727517E-01
        2   -1    0    0  501    0  0.00000000000E+00  0.00000000000E+00  0.10509187433E+04  0.10509187433E+04  0.25500000920E-02 0.  1.
       -2   -1    0    0    0  501  0.00000000000E+00  0.00000000000E+00 -0.11458090555E+03  0.11458090558E+03  0.25500000920E-02 0. -1.
    10030    2    1    2    0    0  0.00000000000E+00  0.00000000000E+00  0.93633783777E+03  0.11654996489E+04  0.69401792855E+03 0.  0.
        4    1    3    3  502    0  0.15596290753E+03 -0.79778691169E+02 -0.34864778004E+02  0.17862316125E+03  0.12699999809E+01 0. -1.
       -4    1    3    3    0  502 -0.15596290753E+03  0.79778691169E+02  0.97120261577E+03  0.98687648765E+03  0.12699999809E+01 0.  1.
</event>
<event>
 5   0  0.2913582E-03  0.7007931E+03  0.7818609E-02  0.9715877E-01
       -1   -1    0    0    0  501  0.00000000000E+00  0.00000000000E+00  0.21937457283E+03  0.21937457289E+03  0.50400001928E-02 0.  1.
        1   -1    0    0  501    0  0.00000000000E+00  0.00000000000E+00 -0.55967177166E+03  0.55967177168E+03  0.50400001928E-02 0. -1.
    10030    2    1    2    0    0  0.00000000000E+00  0.00000000000E+00 -0.34029719883E+03  0.77904634457E+03  0.70079313885E+03 0.  0.
        1    1    3    3  502    0 -0.33877724722E+03  0.89374546571E+02 -0.16518666375E+03  0.38735573665E+03  0.50400001928E-02 0.  1.
       -1    1    3    3    0  502  0.33877724722E+03 -0.89374546571E+02 -0.17511053508E+03  0.39169060792E+03  0.50400001928E-02 0. -1.
</event>
<event>
 5   0  0.1981750E-03  0.7016721E+03  0.7818609E-02  0.9714377E-01
        3   -1    0    0  501    0  0.00000000000E+00  0.00000000000E+00  0.81134636558E+02  0.81134699423E+02  0.10100000352E+00 0. -1.
       -3   -1    0    0    0  501  0.00000000000E+00  0.00000000000E+00 -0.15170573262E+04  0.15170573296E+04  0.10100000352E+00 0.  1.
    10030    2    1    2    0    0  0.00000000000E+00  0.00000000000E+00 -0.14359226896E+04  0.15981920290E+04  0.70167213917E+03 0.  0.
        4    1    3    3  502    0  0.22253877481E+03 -0.26777456155E+03 -0.81612988101E+03  0.88729719806E+03  0.12699999809E+01 0.  1.
       -4    1    3    3    0  502 -0.22253877481E+03  0.26777456155E+03 -0.61979280864E+03  0.71089483093E+03  0.12699999809E+01 0. -1.
</event>
<event>
 5   0  0.2913582E-03  0.7003079E+03  0.7818609E-02  0.9716706E-01
        1   -1    0    0  501    0  0.00000000000E+00  0.00000000000E+00  0.95644090720E+03  0.95644090721E+03  0.50400001928E-02 0. -1.
       -1   -1    0    0    0  501  0.00000000000E+00  0.00000000000E+00 -0.12819170003E+03  0.12819170013E+03  0.50400001928E-02 0.  1.
    10030    2    1    2    0    0  0.00000000000E+00  0.00000000000E+00  0.82824920717E+03  0.10846326073E+04  0.70030789210E+03 0.  0.
        1    1    3    3  502    0 -0.16195973835E+03 -0.12230839221E+03 -0.27804375158E+02  0.20484965940E+03  0.50400001928E-02 0.  1.
       -1    1    3    3    0  502  0.16195973835E+03  0.12230839221E+03  0.85605358232E+03  0.87978294794E+03  0.50400001928E-02 0. -1.
</event>
<event>
 5   0  0.3013140E-03  0.6998982E+03  0.7818609E-02  0.9717406E-01
       -1   -1    0    0    0  501  0.00000000000E+00  0.00000000000E+00  0.88223022941E+02  0.88223023084E+02  0.50400001928E-02 0.  1.
        1   -1    0    0  501    0  0.00000000000E+00  0.00000000000E+00 -0.13881224579E+04  0.13881224579E+04  0.50400001928E-02 0. -1.
    10030    2    1    2    0    0  0.00000000000E+00  0.00000000000E+00 -0.12998994349E+04  0.14763454809E+04  0.69989816275E+03 0.  0.
        2    1    3    3  502    0 -0.50811209052E+01 -0.12615442894E+03 -0.13384055234E+04  0.13443474636E+04  0.25500000920E-02 0. -1.
       -2    1    3    3    0  502  0.50811209052E+01  0.12615442894E+03  0.38506088502E+02  0.13199801736E+03  0.25500000920E-02 0.  1.
</event>
<event>
 5   0  0.4878235E-03  0.7027381E+03  0.7818609E-02  0.9712561E-01
        2   -1    0    0  501    0  0.00000000000E+00  0.00000000000E+00  0.54695548329E+03  0.54695548329E+03  0.25500000920E-02 0.  1.
       -2   -1    0    0    0  501  0.00000000000E+00  0.00000000000E+00 -0.22572260325E+03  0.22572260326E+03  0.25500000920E-02 0. -1.
    10030    2    1    2    0    0  0.00000000000E+00  0.00000000000E+00  0.32123288004E+03  0.77267808655E+03  0.70273811781E+03 0.  0.
        4    1    3    3  502    0 -0.36093828056E+02  0.21941536062E+03  0.45974530229E+03  0.51069875737E+03  0.12699999809E+01 0.  1.
       -4    1    3    3    0  502  0.36093828056E+02 -0.21941536062E+03 -0.13851242225E+03  0.26197932918E+03  0.12699999809E+01 0. -1.
</event>
<event>
 5   0  0.2938783E-03  0.7002923E+03  0.7818609E-02  0.9716732E-01
        1   -1    0    0  501    0  0.00000000000E+00  0.00000000000E+00  0.13184010178E+04  0.13184010178E+04  0.50400001928E-02 0.  1.
       -1   -1    0    0    0  501  0.00000000000E+00  0.00000000000E+00 -0.92993192599E+02  0.92993192735E+02  0.50400001928E-02 0. -1.
    10030    2    1    2    0    0  0.00000000000E+00  0.00000000000E+00  0.12254078252E+04  0.14113942105E+04  0.70029228147E+03 0.  0.
        4    1    3    3  502    0 -0.18633294549E+03  0.29625855255E+03  0.59141167042E+03  0.68721064700E+03  0.12699999809E+01 0.  1.
       -4    1    3    3    0  502  0.18633294549E+03 -0.29625855255E+03  0.63399615476E+03  0.72418356353E+03  0.12699999809E+01 0. -1.
</event>
<event>
 5   0  0.2913582E-03  0.6981704E+03  0.7818609E-02  0.9720366E-01
       -1   -1    0    0    0  501  0.00000000000E+00  0.00000000000E+00  0.62658807234E+02  0.62658807437E+02  0.50400001928E-02 0.  1.
        1   -1    0    0  501    0  0.00000000000E+00  0.00000000000E+00 -0.19448258899E+04  0.19448258899E+04  0.50400001928E-02 0. -1.
    10030    2    1    2    0    0  0.00000000000E+00  0.00000000000E+00 -0.18821670827E+04  0.20074846974E+04  0.69817038250E+03 0.  0.
        1    1    3    3  502    0  0.82774014958E+02 -0.33318461761E+03 -0.75929988230E+03  0.83330656919E+03  0.50400001928E-02 0.  1.
       -1    1    3    3    0  502 -0.82774014958E+02  0.33318461761E+03 -0.11228672004E+04  0.11741781282E+04  0.50400001928E-02 0. -1.
</event>
<event>
 5   0  0.5072407E-03  0.6977053E+03  0.7818609E-02  0.9721165E-01
        2   -1    0    0  501    0  0.00000000000E+00  0.00000000000E+00  0.10921210295E+04  0.10921210295E+04  0.25500000920E-02 0.  1.
       -2   -1    0    0    0  501  0.00000000000E+00  0.00000000000E+00 -0.11143284879E+03  0.11143284882E+03  0.25500000920E-02 0. -1.
    10030    2    1    2    0    0  0.00000000000E+00  0.00000000000E+00  0.98068818072E+03  0.12035538783E+04  0.69770526031E+03 0.  0.
        1    1    3    3  502    0  0.33449556576E+03 -0.95652791996E+02  0.44598002348E+03  0.56562790021E+03  0.50400001928E-02 0.  1.
       -1    1    3    3    0  502 -0.33449556576E+03  0.95652791996E+02  0.53470815724E+03  0.63792597813E+03  0.50400001928E-02 0. -1.
</event>
<event>
 5   0  0.5076796E-03  0.6893000E+03  0.7818609E-02  0.9735708E-01
       -2   -1    0    0    0  501  0.00000000000E+00  0.00000000000E+00  0.15229440183E+03  0.15229440185E+03  0.25500000920E-02 0.  1.
        2   -1    0    0  501    0  0.00000000000E+00  0.00000000000E+00 -0.77996056277E+03  0.77996056277E+03  0.25500000920E-02 0. -1.
    10030    2    1    2    0    0  0.00000000000E+00  0.00000000000E+00 -0.62766616094E+03  0.93225496462E+03  0.68930001413E+03 0.  0.
        5    1    3    3  502    0  0.36538081648E+02  0.27663873580E+03 -0.40322027210E+02  0.28197868259E+03  0.46999998093E+01 0.  1.
       -5    1    3    3    0  502 -0.36538081648E+02 -0.27663873580E+03 -0.58734413373E+03  0.65027628204E+03  0.46999998093E+01 0. -1.
</event>
<event>
 5   0  0.2938783E-03  0.6982147E+03  0.7818609E-02  0.9720290E-01
       -1   -1    0    0    0  501  0.00000000000E+00  0.00000000000E+00  0.13637540264E+03  0.13637540273E+03  0.50400001928E-02 0.  1.
        1   -1    0    0  501    0  0.00000000000E+00  0.00000000000E+00 -0.89367987092E+03  0.89367987094E+03  0.50400001928E-02 0. -1.
    10030    2    1    2    0    0  0.00000000000E+00  0.00000000000E+00 -0.75730446828E+03  0.10300552737E+04  0.69821472996E+03 0.  0.
        4    1    3    3  502    0 -0.77030149948E+02 -0.30476821243E+03 -0.60266523566E+03  0.67972369863E+03  0.12699999809E+01 0. -1.
       -4    1    3    3    0  502  0.77030149948E+02  0.30476821243E+03 -0.15463923263E+03  0.35033157504E+03  0.12699999809E+01 0.  1.
</event>
<event>
 5   0  0.4878235E-03  0.6995617E+03  0.7818609E-02  0.9717982E-01
        2   -1    0    0  501    0  0.00000000000E+00  0.00000000000E+00  0.13725826562E+04  0.13725826562E+04  0.25500000920E-02 0.  1.
       -2   -1    0    0    0  501  0.00000000000E+00  0.00000000000E+00 -0.89136085748E+02  0.89136085785E+02  0.25500000920E-02 0. -1.
    10030    2    1    2    0    0  0.00000000000E+00  0.00000000000E+00  0.12834465704E+04  0.14617187420E+04  0.69956170669E+03 0.  0.
        4    1    3    3  502    0 -0.24525541083E+03  0.24545359521E+03  0.73392938011E+03  0.81181995038E+03  0.12699999809E+01 0. -1.
       -4    1    3    3    0  502  0.24525541083E+03 -0.24545359521E+03  0.54951719033E+03  0.64989879159E+03  0.12699999809E+01 0.  1.
</event>
<event>
 5   0  0.5023894E-03  0.6995387E+03  0.7818609E-02  0.9718021E-01
       -2   -1    0    0    0  501  0.00000000000E+00  0.00000000000E+00  0.21283046855E+03  0.21283046856E+03  0.25500000920E-02 0.  1.
        2   -1    0    0  501    0  0.00000000000E+00  0.00000000000E+00 -0.57481720602E+03  0.57481720602E+03  0.25500000920E-02 0. -1.
    10030    2    1    2    0    0  0.00000000000E+00  0.00000000000E+00 -0.36198673747E+03  0.78764767459E+03  0.69953874887E+03 0.  0.
        2    1    3    3  502    0  0.10593876316E+03 -0.13481232377E+03  0.16226760462E+03  0.23606812512E+03  0.25500000920E-02 0.  1.
       -2    1    3    3    0  502 -0.10593876316E+03  0.13481232377E+03 -0.52425434209E+03  0.55157954947E+03  0.25500000920E-02 0. -1.
</event>
<event>
 5   0  0.2913582E-03  0.7000281E+03  0.7818609E-02  0.9717184E-01
        1   -1    0    0  501    0  0.00000000000E+00  0.00000000000E+00  0.32768401608E+03  0.32768401612E+03  0.50400001928E-02 0.  1.
       -1   -1    0    0    0  501  0.00000000000E+00  0.00000000000E+00 -0.37386577658E+03  0.37386577661E+03  0.50400001928E-02 0. -1.
    10030    2    1    2    0    0  0.00000000000E+00  0.00000000000E+00 -0.46181760496E+02  0.70154979273E+03  0.70002811135E+03 0.  0.
        1    1    3    3  502    0  0.89832530754E+02  0.80950667136E+02 -0.35226635302E+03  0.37244392542E+03  0.50400001928E-02 0. -1.
       -1    1    3    3    0  502 -0.89832530754E+02 -0.80950667136E+02  0.30608459252E+03  0.32910586731E+03  0.50400001928E-02 0.  1.
</event>
<event>
 5   0  0.5023894E-03  0.6981868E+03  0.7818609E-02  0.9720338E-01
        2   -1    0    0  501    0  0.00000000000E+00  0.00000000000E+00  0.16501638794E+03  0.16501638796E+03  0.25500000920E-02 0. -1.
       -2   -1    0    0    0  501  0.00000000000E+00  0.00000000000E+00 -0.73850979333E+03  0.73850979333E+03  0.25500000920E-02 0.  1.
    10030    2    1    2    0    0  0.00000000000E+00  0.00000000000E+00 -0.57349340538E+03  0.90352618129E+03  0.69818684767E+03 0.  0.
        2    1    3    3  502    0  0.54727861346E+02 -0.30906022421E+03 -0.48450699411E+03  0.57728709352E+03  0.25500000920E-02 0.  1.
       -2    1    3    3    0  502 -0.54727861346E+02  0.30906022421E+03 -0.88986411273E+02  0.32623908777E+03  0.25500000920E-02 0. -1.
</event>
<event>
 5   0  0.3013140E-03  0.7004517E+03  0.7818609E-02  0.9716460E-01
        1   -1    0    0  501    0  0.00000000000E+00  0.00000000000E+00  0.16448566133E+04  0.16448566133E+04  0.50400001928E-02 0.  1.
       -1   -1    0    0    0  501  0.00000000000E+00  0.00000000000E+00 -0.74570731914E+02  0.74570732084E+02  0.50400001928E-02 0. -1.
    10030    2    1    2    0    0  0.00000000000E+00  0.00000000000E+00  0.15702858814E+04  0.17194273454E+04  0.70045174480E+03 0.  0.
        2    1    3    3  502    0  0.24836821713E+02 -0.62513078550E+02  0.16288505699E+04  0.16302389187E+04  0.25500000920E-02 0.  1.
       -2    1    3    3    0  502 -0.24836821713E+02  0.62513078550E+02 -0.58564688584E+02  0.89188426705E+02  0.25500000920E-02 0. -1.
</event>
<event>
 5   0  0.2938783E-03  0.6995774E+03  0.7818609E-02  0.9717955E-01
       -1   -1    0    0    0  501  0.00000000000E+00  0.00000000000E+00  0.16870272112E+03  0.16870272119E+03  0.50400001928E-02 0. -1.
        1   -1    0    0  501    0  0.00000000000E+00  0.00000000000E+00 -0.72525297628E+03  0.72525297630E+03  0.50400001928E-02 0.  1.
    10030    2    1    2    0    0  0.00000000000E+00  0.00000000000E+00 -0.55655025516E+03  0.89395569750E+03  0.69957744572E+03 0.  0.
        4    1    3    3  502    0  0.23235586864E+03  0.15943834324E+03 -0.54307317055E+03  0.61183324236E+03  0.12699999809E+01 0.  1.
       -4    1    3    3    0  502 -0.23235586864E+03 -0.15943834324E+03 -0.13477084618E+02  0.28212245514E+03  0.12699999809E+01 0. -1.
</event>
<event>
 5   0  0.5072407E-03  0.7004225E+03  0.7818609E-02  0.9716510E-01
       -2   -1    0    0    0  501  0.00000000000E+00  0.00000000000E+00  0.11189032500E+03  0.11189032503E+03  0.25500000920E-02 0.  1.
        2   -1    0    0  501    0  0.00000000000E+00  0.00000000000E+00 -0.10961440493E+04  0.10961440493E+04  0.25500000920E-02 0. -1.
    10030    2    1    2    0    0  0.00000000000E+00  0.00000000000E+00 -0.98425372432E+03  0.12080343743E+04  0.70042248376E+03 0.  0.
        1    1    3    3  502    0  0.21351945561E+03 -0.27309638188E+03 -0.57794323776E+03  0.67393662745E+03  0.50400001928E-02 0. -1.
       -1    1    3    3    0  502 -0.21351945561E+03  0.27309638188E+03 -0.40631048656E+03  0.53409774689E+03  0.50400001928E-02 0.  1.
</event>
<event>
 5   0  0.5023894E-03  0.7066631E+03  0.7818609E-02  0.9705905E-01
        2   -1    0    0  501    0  0.00000000000E+00  0.00000000000E+00  0.27042762245E+03  0.27042762246E+03  0.25500000920E-02 0.  1.
       -2   -1    0    0    0  501  0.00000000000E+00  0.00000000000E+00 -0.46165099353E+03  0.46165099354E+03  0.25500000920E-02 0. -1.
    10030    2    1    2    0    0  0.00000000000E+00  0.00000000000E+00 -0.19122337108E+03  0.73207861600E+03  0.70666308971E+03 0.  0.
        2    1    3    3  502    0  0.12420071368E+03  0.18707824943E+03  0.18699829587E+03  0.29221986817E+03  0.25500000920E-02 0.  1.
       -2    1    3    3    0  502 -0.12420071368E+03 -0.18707824943E+03 -0.37822166695E+03  0.43985874783E+03  0.25500000920E-02 0. -1.
</event>
<event>
 5   0  0.2913582E-03  0.7005619E+03  0.7818609E-02  0.9716272E-01
        1   -1    0    0  501    0  0.00000000000E+00  0.00000000000E+00  0.28254350667E+03  0.28254350671E+03  0.50400001928E-02 0. -1.
       -1   -1    0    0    0  501  0.00000000000E+00  0.00000000000E+00 -0.43425789686E+03  0.43425789689E+03  0.50400001928E-02 0.  1.
    10030    2    1    2    0    0  0.00000000000E+00  0.00000000000E+00 -0.15171439019E+03  0.71680140360E+03  0.70056191448E+03 0.  0.
        1    1    3    3  502    0  0.27859646050E+03 -0.80739258069E+02 -0.27678115255E+03  0.40092720290E+03  0.50400001928E-02 0.  1.
       -1    1    3    3    0  502 -0.27859646050E+03  0.80739258069E+02  0.12506676236E+03  0.31587420070E+03  0.50400001928E-02 0. -1.
</event>
<event>
 5   0  0.3013140E-03  0.7001622E+03  0.7818609E-02  0.9716955E-01
       -1   -1    0    0    0  501  0.00000000000E+00  0.00000000000E+00  0.11451078560E+03  0.11451078571E+03  0.50400001928E-02 0. -1.
        1   -1    0    0  501    0  0.00000000000E+00  0.00000000000E+00 -0.10702641094E+04  0.10702641094E+04  0.50400001928E-02 0.  1.
    10030    2    1    2    0    0  0.00000000000E+00  0.00000000000E+00 -0.95575332381E+03  0.11847748951E+04  0.70016222132E+03 0.  0.
        2    1    3    3  502    0  0.24964348937E+01  0.16796996517E+03  0.41852848989E+02  0.17312366205E+03  0.25500000920E-02 0. -1.
       -2    1    3    3    0  502 -0.24964348937E+01 -0.16796996517E+03 -0.99760617280E+03  0.10116512331E+04  0.25500000920E-02 0.  1.
</event>
<event>
 5   0  0.5072407E-03  0.7004182E+03  0.7818609E-02  0.9716517E-01
        2   -1    0    0  501    0  0.00000000000E+00  0.00000000000E+00  0.30039946505E+03  0.30039946506E+03  0.25500000920E-02 0.  1.
       -2   -1    0    0    0  501  0.00000000000E+00  0.00000000000E+00 -0.40827774656E+03  0.40827774657E+03  0.25500000920E-02 0. -1.
    10030    2    1    2    0    0  0.00000000000E+00  0.00000000000E+00 -0.10787828150E+03  0.70867721163E+03  0.70041820840E+03 0.  0.
        1    1    3    3  502    0  0.13559633657E+03  0.15957954385E+03 -0.33795250074E+03  0.39757249664E+03  0.50400001928E-02 0. -1.
       -1    1    3    3    0  502 -0.13559633657E+03 -0.15957954385E+03  0.23007421923E+03  0.31110471499E+03  0.50400001928E-02 0.  1.
</event>
<event>
 5   0  0.3013140E-03  0.7005002E+03  0.7818609E-02  0.9716377E-01
       -1   -1    0    0    0  501  0.00000000000E+00  0.00000000000E+00  0.15620434670E+03  0.15620434678E+03  0.50400001928E-02 0. -1.
        1   -1    0    0  501    0  0.00000000000E+00  0.00000000000E+00 -0.78535020973E+03  0.78535020974E+03  0.50400001928E-02 0.  1.
    10030    2    1    2    0    0  0.00000000000E+00  0.00000000000E+00 -0.62914586303E+03  0.94155455652E+03  0.70050015413E+03 0.  0.
        2    1    3    3  502    0 -0.25381891179E+03 -0.23964173395E+03 -0.27601489013E+03  0.44501283152E+03  0.25500000920E-02 0. -1.
       -2    1    3    3    0  502  0.25381891179E+03  0.23964173395E+03 -0.35313097290E+03  0.49654172500E+03  0.25500000920E-02 0.  1.
</event>
<event>
 5   0  0.2913582E-03  0.6993715E+03  0.7818609E-02  0.9718308E-01
        1   -1    0    0  501    0  0.00000000000E+00  0.00000000000E+00  0.70581374226E+03  0.70581374228E+03  0.50400001928E-02 0. -1.
       -1   -1    0    0    0  501  0.00000000000E+00  0.00000000000E+00 -0.17324701236E+03  0.17324701244E+03  0.50400001928E-02 0.  1.
    10030    2    1    2    0    0  0.00000000000E+00  0.00000000000E+00  0.53256672990E+03  0.87906075471E+03  0.69937149547E+03 0.  0.
        1    1    3    3  502    0 -0.22121206438E+03 -0.18481700727E+03  0.51510470023E+03  0.59027532206E+03  0.50400001928E-02 0. -1.
       -1    1    3    3    0  502  0.22121206438E+03  0.18481700727E+03  0.17462029661E+02  0.28878543265E+03  0.50400001928E-02 0.  1.
</event>
<event>
 5   0  0.1981750E-03  0.6999293E+03  0.7818609E-02  0.9717353E-01
       -3   -1    0    0    0  501  0.00000000000E+00  0.00000000000E+00  0.73634156639E+03  0.73634157332E+03  0.10100000352E+00 0.  1.
        3   -1    0    0  501    0  0.00000000000E+00  0.00000000000E+00 -0.16632940117E+03  0.16632943183E+03  0.10100000352E+00 0. -1.
    10030    2    1    2    0    0  0.00000000000E+00  0.00000000000E+00  0.57001216522E+03  0.90267100515E+03  0.69992933574E+03 0.  0.
        5    1    3    3  502    0 -0.18921918223E+02 -0.19423196820E+02  0.73494388701E+03  0.73545897684E+03  0.46999998093E+01 0.  1.
       -5    1    3    3    0  502  0.18921918223E+02  0.19423196820E+02 -0.16493172178E+03  0.16721202831E+03  0.46999998093E+01 0. -1.
</event>
<event>
 5   0  0.4878235E-03  0.6991887E+03  0.7818609E-02  0.9718621E-01
       -2   -1    0    0    0  501  0.00000000000E+00  0.00000000000E+00  0.12844405097E+04  0.12844405097E+04  0.25500000920E-02 0.  1.
        2   -1    0    0  501    0  0.00000000000E+00  0.00000000000E+00 -0.95151314604E+02  0.95151314638E+02  0.25500000920E-02 0. -1.
    10030    2    1    2    0    0  0.00000000000E+00  0.00000000000E+00  0.11892891951E+04  0.13795918244E+04  0.69918868142E+03 0.  0.
        4    1    3    3  502    0  0.13762570820E+03  0.23034204893E+03  0.15248550869E+03  0.30862880346E+03  0.12699999809E+01 0. -1.
       -4    1    3    3    0  502 -0.13762570820E+03 -0.23034204893E+03  0.10368036864E+04  0.10709630209E+04  0.12699999809E+01 0.  1.
</event>
<event>
 5   0  0.4878235E-03  0.6986302E+03  0.7818609E-02  0.9719578E-01
        2   -1    0    0  501    0  0.00000000000E+00  0.00000000000E+00  0.76307065314E+03  0.76307065314E+03  0.25500000920E-02 0.  1.
       -2   -1    0    0    0  501  0.00000000000E+00  0.00000000000E+00 -0.15990792859E+03  0.15990792861E+03  0.25500000920E-02 0. -1.
    10030    2    1    2    0    0  0.00000000000E+00  0.00000000000E+00  0.60316272455E+03  0.92297858175E+03  0.69863022414E+03 0.  0.
        4    1    3    3  502    0  0.13406739078E+03 -0.31329819315E+03  0.20019312378E+03  0.39523249210E+03  0.12699999809E+01 0.  1.
       -4    1    3    3    0  502 -0.13406739078E+03  0.31329819315E+03  0.40296960077E+03  0.52774608966E+03  0.12699999809E+01 0. -1.
</event>
<event>
 5   0  0.4878235E-03  0.7081493E+03  0.7818609E-02  0.9703396E-01
       -2   -1    0    0    0  501  0.00000000000E+00  0.00000000000E+00  0.89248057647E+02  0.89248057683E+02  0.25500000920E-02 0.  1.
        2   -1    0    0  501    0  0.00000000000E+00  0.00000000000E+00 -0.14047235008E+04  0.14047235008E+04  0.25500000920E-02 0. -1.
    10030    2    1    2    0    0  0.00000000000E+00  0.00000000000E+00 -0.13154754432E+04  0.14939715585E+04  0.70814926112E+03 0.  0.
        4    1    3    3  502    0 -0.93835934587E+02  0.80069226552E+02  0.42445470433E+02  0.13045878476E+03  0.12699999809E+01 0.  1.
       -4    1    3    3    0  502  0.93835934587E+02 -0.80069226552E+02 -0.13579209136E+04  0.13635127737E+04  0.12699999809E+01 0. -1.
</event>
<event>
 5   0  0.5113683E-03  0.7005327E+03  0.7818609E-02  0.9716322E-01
       -2   -1    0    0    0  501  0.00000000000E+00  0.00000000000E+00  0.73333723252E+02  0.73333723296E+02  0.25500000920E-02 0.  1.
        2   -1    0    0  501    0  0.00000000000E+00  0.00000000000E+00 -0.16729890502E+04  0.16729890502E+04  0.25500000920E-02 0. -1.
    10030    2    1    2    0    0  0.00000000000E+00  0.00000000000E+00 -0.15996553270E+04  0.17463227735E+04  0.70053270032E+03 0.  0.
        3    1    3    3  502    0 -0.23200214221E+03  0.26238482226E+03 -0.80971045594E+03  0.88221415858E+03  0.10100000352E+00 0. -1.
       -3    1    3    3    0  502  0.23200214221E+03 -0.26238482226E+03 -0.78994487103E+03  0.86410861494E+03  0.10100000352E+00 0.  1.
</event>
<event>
 5   0  0.2913582E-03  0.6983551E+03  0.7818609E-02  0.9720049E-01
       -1   -1    0    0    0  501  0.00000000000E+00  0.00000000000E+00  0.10993383976E+04  0.10993383976E+04  0.50400001928E-02 0.  1.
        1   -1    0    0  501    0  0.00000000000E+00  0.00000000000E+00 -0.11090758607E+03  0.11090758618E+03  0.50400001928E-02 0. -1.
    10030    2    1    2    0    0  0.00000000000E+00  0.00000000000E+00  0.98843081153E+03  0.12102459838E+04  0.69835511891E+03 0.  0.
        1    1    3    3  502    0  0.19617927715E+03 -0.19501848908E+03  0.86349566735E+03  0.90672117402E+03  0.50400001928E-02 0.  1.
       -1    1    3    3    0  502 -0.19617927715E+03  0.19501848908E+03  0.12493514418E+03  0.30352480976E+03  0.50400001928E-02 0. -1.
</event>
<event>
 5   0  0.5023894E-03  0.6984268E+03  0.7818609E-02  0.9719926E-01
       -2   -1    0    0    0  501  0.00000000000E+00  0.00000000000E+00  0.48175510464E+03  0.48175510465E+03  0.25500000920E-02 0. -1.
        2   -1    0    0  501    0  0.00000000000E+00  0.00000000000E+00 -0.25313691465E+03  0.25313691466E+03  0.25500000920E-02 0.  1.
    10030    2    1    2    0    0  0.00000000000E+00  0.00000000000E+00  0.22861818999E+03  0.73489201931E+03  0.69842680594E+03 0.  0.
        2    1    3    3  502    0  0.12243640669E+03  0.31647282020E+03  0.27514284700E+02  0.34044493751E+03  0.25500000920E-02 0. -1.
       -2    1    3    3    0  502 -0.12243640669E+03 -0.31647282020E+03  0.20110390529E+03  0.39444708180E+03  0.25500000920E-02 0.  1.
</event>
<event>
 5   0  0.5072407E-03  0.7009129E+03  0.7818609E-02  0.9715672E-01
       -2   -1    0    0    0  501  0.00000000000E+00  0.00000000000E+00  0.19385817053E+03  0.19385817055E+03  0.25500000920E-02 0. -1.
        2   -1    0    0  501    0  0.00000000000E+00  0.00000000000E+00 -0.63355456108E+03  0.63355456109E+03  0.25500000920E-02 0.  1.
    10030    2    1    2    0    0  0.00000000000E+00  0.00000000000E+00 -0.43969639055E+03  0.82741273164E+03  0.70091291372E+03 0.  0.
        1    1    3    3  502    0  0.34233255028E+02  0.15228861605E+03  0.15055882479E+03  0.21686792772E+03  0.50400001928E-02 0. -1.
       -1    1    3    3    0  502 -0.34233255028E+02 -0.15228861605E+03 -0.59025521534E+03  0.61054480391E+03  0.50400001928E-02 0.  1.
</event>
<event>
 5   0  0.3013140E-03  0.6850444E+03  0.7818609E-02  0.9743156E-01
       -1   -1    0    0    0  501  0.00000000000E+00  0.00000000000E+00  0.29564382161E+03  0.29564382165E+03  0.50400001928E-02 0.  1.
        1   -1    0    0  501    0  0.00000000000E+00  0.00000000000E+00 -0.39683384514E+03  0.39683384517E+03  0.50400001928E-02 0. -1.
    10030    2    1    2    0    0  0.00000000000E+00  0.00000000000E+00 -0.10119002352E+03  0.69247766682E+03  0.68504444979E+03 0.  0.
        2    1    3    3  502    0 -0.35217028998E+01  0.33075667524E+03  0.39303061977E+02  0.33310225351E+03  0.25500000920E-02 0.  1.
       -2    1    3    3    0  502  0.35217028998E+01 -0.33075667524E+03 -0.14049308550E+03  0.35937541331E+03  0.25500000920E-02 0. -1.
</event>
<event>
 5   0  0.3013140E-03  0.6977360E+03  0.7818609E-02  0.9721112E-01
       -1   -1    0    0    0  501  0.00000000000E+00  0.00000000000E+00  0.64421257270E+02  0.64421257467E+02  0.50400001928E-02 0. -1.
        1   -1    0    0  501    0  0.00000000000E+00  0.00000000000E+00 -0.18892660255E+04  0.18892660256E+04  0.50400001928E-02 0.  1.
    10030    2    1    2    0    0  0.00000000000E+00  0.00000000000E+00 -0.18248447683E+04  0.19536872830E+04  0.69773603284E+03 0.  0.
        2    1    3    3  502    0  0.34783563434E+03 -0.38214840847E+01 -0.83809413562E+03  0.90741722070E+03  0.25500000920E-02 0. -1.
       -2    1    3    3    0  502 -0.34783563434E+03  0.38214840847E+01 -0.98675063266E+03  0.10462700623E+04  0.25500000920E-02 0.  1.
</event>
<event>
 5   0  0.5072407E-03  0.6992868E+03  0.7818609E-02  0.9718453E-01
       -2   -1    0    0    0  501  0.00000000000E+00  0.00000000000E+00  0.25647330584E+03  0.25647330585E+03  0.25500000920E-02 0. -1.
        2   -1    0    0  501    0  0.00000000000E+00  0.00000000000E+00 -0.47665972247E+03  0.47665972248E+03  0.25500000920E-02 0.  1.
    10030    2    1    2    0    0  0.00000000000E+00  0.00000000000E+00 -0.22018641663E+03  0.73313302833E+03  0.69928676461E+03 0.  0.
        1    1    3    3  502    0 -0.31331393275E+03  0.99494637243E+02  0.14775244860E+02  0.32906399253E+03  0.50400001928E-02 0. -1.
       -1    1    3    3    0  502  0.31331393275E+03 -0.99494637243E+02 -0.23496166149E+03  0.40406903580E+03  0.50400001928E-02 0.  1.
</event>
<event>
 5   0  0.4878235E-03  0.6986480E+03  0.7818609E-02  0.9719547E-01
       -2   -1    0    0    0  501  0.00000000000E+00  0.00000000000E+00  0.70829799022E+03  0.70829799022E+03  0.25500000920E-02 0. -1.
        2   -1    0    0  501    0  0.00000000000E+00  0.00000000000E+00 -0.17228236811E+03  0.17228236813E+03  0.25500000920E-02 0.  1.
    10030    2    1    2    0    0  0.00000000000E+00  0.00000000000E+00  0.53601562211E+03  0.88058035835E+03  0.69864799461E+03 0.  0.
        4    1    3    3  502    0  0.11273110268E+03 -0.21035897651E+03  0.58951382852E+03  0.63599321335E+03  0.12699999809E+01 0. -1.
       -4    1    3    3    0  502 -0.11273110268E+03  0.21035897651E+03 -0.53498206413E+02  0.24458714500E+03  0.12699999809E+01 0.  1.
</event>
<event>
 5   0  0.4878235E-03  0.6998304E+03  0.7818609E-02  0.9717522E-01
        2   -1    0    0  501    0  0.00000000000E+00  0.00000000000E+00  0.21944725033E+04  0.21944725033E+04  0.25500000920E-02 0. -1.
       -2   -1    0    0    0  501  0.00000000000E+00  0.00000000000E+00 -0.55795024237E+02  0.55795024295E+02  0.25500000920E-02 0.  1.
    10030    2    1    2    0    0  0.00000000000E+00  0.00000000000E+00  0.21386774791E+04  0.22502675276E+04  0.69983039825E+03 0.  0.
        4    1    3    3  502    0 -0.23464503980E+02  0.22685329321E+03  0.19226509626E+04  0.19361305061E+04  0.12699999809E+01 0. -1.
       -4    1    3    3    0  502  0.23464503980E+02 -0.22685329321E+03  0.21602651646E+03  0.31413702154E+03  0.12699999809E+01 0.  1.
</event>
<event>
 5   0  0.2937617E-03  0.6994839E+03  0.7818609E-02  0.9718115E-01
       -1   -1    0    0    0  501  0.00000000000E+00  0.00000000000E+00  0.72071677823E+03  0.72071677825E+03  0.50400001928E-02 0.  1.
        1   -1    0    0  501    0  0.00000000000E+00  0.00000000000E+00 -0.16971913989E+03  0.16971913996E+03  0.50400001928E-02 0. -1.
    10030    2    1    2    0    0  0.00000000000E+00  0.00000000000E+00  0.55099763834E+03  0.89043591822E+03  0.69948390045E+03 0.  0.
        3    1    3    3  502    0 -0.20703853824E+03  0.76623240280E+02 -0.69815595814E+02  0.23153899215E+03  0.10100000352E+00 0. -1.
       -3    1    3    3    0  502  0.20703853824E+03 -0.76623240280E+02  0.62081323416E+03  0.65889692606E+03  0.10100000352E+00 0.  1.
</event>
<event>
 5   0  0.1981750E-03  0.6990301E+03  0.7818609E-02  0.9718892E-01
        3   -1    0    0  501    0  0.00000000000E+00  0.00000000000E+00  0.40995842075E+03  0.40995843319E+03  0.10100000352E+00 0.  1.
       -3   -1    0    0    0  501  0.00000000000E+00  0.00000000000E+00 -0.29798331667E+03  0.29798333378E+03  0.10100000352E+00 0. -1.
    10030    2    1    2    0    0  0.00000000000E+00  0.00000000000E+00  0.11197510408E+03  0.70794176697E+03  0.69903012917E+03 0.  0.
        4    1    3    3  502    0 -0.48585667090E+02 -0.30649183748E+03  0.21885236695E+03  0.37973120086E+03  0.12699999809E+01 0.  1.
       -4    1    3    3    0  502  0.48585667090E+02  0.30649183748E+03 -0.10687726287E+03  0.32821056611E+03  0.12699999809E+01 0. -1.
</event>
<event>
 5   0  0.2937617E-03  0.6986271E+03  0.7818609E-02  0.9719583E-01
        1   -1    0    0  501    0  0.00000000000E+00  0.00000000000E+00  0.69387621190E+03  0.69387621191E+03  0.50400001928E-02 0.  1.
       -1   -1    0    0    0  501  0.00000000000E+00  0.00000000000E+00 -0.17585261753E+03  0.17585261760E+03  0.50400001928E-02 0. -1.
    10030    2    1    2    0    0  0.00000000000E+00  0.00000000000E+00  0.51802359437E+03  0.86972882951E+03  0.69862707689E+03 0.  0.
        3    1    3    3  502    0  0.13395706643E+03 -0.20598409629E+03  0.56810601697E+03  0.61896558894E+03  0.10100000352E+00 0.  1.
       -3    1    3    3    0  502 -0.13395706643E+03  0.20598409629E+03 -0.50082422601E+02  0.25076324058E+03  0.10100000352E+00 0. -1.
</event>
<event>
 5   0  0.5023894E-03  0.6999433E+03  0.7818609E-02  0.9717329E-01
       -2   -1    0    0    0  501  0.00000000000E+00  0.00000000000E+00  0.93155903976E+02  0.93155904010E+02  0.25500000920E-02 0.  1.
        2   -1    0    0  501    0  0.00000000000E+00  0.00000000000E+00 -0.13147868576E+04  0.13147868576E+04  0.25500000920E-02 0. -1.
    10030    2    1    2    0    0  0.00000000000E+00  0.00000000000E+00 -0.12216309537E+04  0.14079427617E+04  0.69994330709E+03 0.  0.
        2    1    3    3  502    0  0.21262582642E+03  0.20995554395E+03 -0.24436121313E+03  0.38600968250E+03  0.25500000920E-02 0.  1.
       -2    1    3    3    0  502 -0.21262582642E+03 -0.20995554395E+03 -0.97726974054E+03  0.10219330792E+04  0.25500000920E-02 0. -1.
</event>
<event>
 5   0  0.3013140E-03  0.7001346E+03  0.7818609E-02  0.9717002E-01
        1   -1    0    0  501    0  0.00000000000E+00  0.00000000000E+00  0.16477668185E+04  0.16477668185E+04  0.50400001928E-02 0.  1.
       -1   -1    0    0    0  501  0.00000000000E+00  0.00000000000E+00 -0.74371636966E+02  0.74371637137E+02  0.50400001928E-02 0. -1.
    10030    2    1    2    0    0  0.00000000000E+00  0.00000000000E+00  0.15733951816E+04  0.17221384557E+04  0.70013460359E+03 0.  0.
        2    1    3    3  502    0 -0.22140105133E+03 -0.25351275749E+03  0.10233938310E+04  0.10773217148E+04  0.25500000920E-02 0.  1.
       -2    1    3    3    0  502  0.22140105133E+03  0.25351275749E+03  0.55000135055E+03  0.64481674091E+03  0.25500000920E-02 0. -1.
</event>
<event>
 5   0  0.3013140E-03  0.6998169E+03  0.7818609E-02  0.9717545E-01
       -1   -1    0    0    0  501  0.00000000000E+00  0.00000000000E+00  0.15437439678E+03  0.15437439686E+03  0.50400001928E-02 0. -1.
        1   -1    0    0  501    0  0.00000000000E+00  0.00000000000E+00 -0.79311027845E+03  0.79311027847E+03  0.50400001928E-02 0.  1.
    10030    2    1    2    0    0  0.00000000000E+00  0.00000000000E+00 -0.63873588167E+03  0.94748467533E+03  0.69981689280E+03 0.  0.
        2    1    3    3  502    0 -0.22475651341E+02  0.34598201644E+03 -0.38326316256E+03  0.51681656551E+03  0.25500000920E-02 0.  1.
       -2    1    3    3    0  502  0.22475651341E+02 -0.34598201644E+03 -0.25547271911E+03  0.43066810982E+03  0.25500000920E-02 0. -1.
</event>
<event>
 5   0  0.2913582E-03  0.7002218E+03  0.7818609E-02  0.9716853E-01
        1   -1    0    0  501    0  0.00000000000E+00  0.00000000000E+00  0.46858065422E+03  0.46858065425E+03  0.50400001928E-02 0. -1.
       -1   -1    0    0    0  501  0.00000000000E+00  0.00000000000E+00 -0.26159345061E+03  0.26159345066E+03  0.50400001928E-02 0.  1.
    10030    2    1    2    0    0  0.00000000000E+00  0.00000000000E+00  0.20698720361E+03  0.73017410491E+03  0.70022176560E+03 0.  0.
        1    1    3    3  502    0 -0.12787181326E+03 -0.31650130104E+03  0.18462499433E+03  0.38808589609E+03  0.50400001928E-02 0. -1.
       -1    1    3    3    0  502  0.12787181326E+03  0.31650130104E+03  0.22362209286E+02  0.34208820882E+03  0.50400001928E-02 0.  1.
</event>
<event>
 5   0  0.5023894E-03  0.7015009E+03  0.7818609E-02  0.9714669E-01
       -2   -1    0    0    0  501  0.00000000000E+00  0.00000000000E+00  0.17391792131E+03  0.17391792133E+03  0.25500000920E-02 0.  1.
        2   -1    0    0  501    0  0.00000000000E+00  0.00000000000E+00 -0.70737894587E+03  0.70737894587E+03  0.25500000920E-02 0. -1.
    10030    2    1    2    0    0  0.00000000000E+00  0.00000000000E+00 -0.53346102456E+03  0.88129686720E+03  0.70150089339E+03 0.  0.
        2    1    3    3  502    0  0.20365677504E+03 -0.17900798135E+03 -0.54625678775E+03  0.60984950404E+03  0.25500000920E-02 0. -1.
       -2    1    3    3    0  502 -0.20365677504E+03  0.17900798135E+03  0.12795763186E+02  0.27144736317E+03  0.25500000920E-02 0.  1.
</event>
<event>
 5   0  0.4878235E-03  0.7009072E+03  0.7818609E-02  0.9715682E-01
       -2   -1    0    0    0  501  0.00000000000E+00  0.00000000000E+00  0.26401495770E+03  0.26401495771E+03  0.25500000920E-02 0.  1.
        2   -1    0    0  501    0  0.00000000000E+00  0.00000000000E+00 -0.46519230012E+03  0.46519230012E+03  0.25500000920E-02 0. -1.
    10030    2    1    2    0    0  0.00000000000E+00  0.00000000000E+00 -0.20117734242E+03  0.72920725784E+03  0.70090719912E+03 0.  0.
        4    1    3    3  502    0 -0.13147248881E+03  0.17533595618E+02 -0.43806800641E+03  0.45770911442E+03  0.12699999809E+01 0. -1.
       -4    1    3    3    0  502  0.13147248881E+03 -0.17533595618E+02  0.23689066399E+03  0.27149814341E+03  0.12699999809E+01 0.  1.
</event>
<event>
 5   0  0.2913582E-03  0.6998293E+03  0.7818609E-02  0.9717524E-01
        1   -1    0    0  501    0  0.00000000000E+00  0.00000000000E+00  0.78033420057E+03  0.78033420059E+03  0.50400001928E-02 0.  1.
       -1   -1    0    0    0  501  0.00000000000E+00  0.00000000000E+00 -0.15690744974E+03  0.15690744982E+03  0.50400001928E-02 0. -1.
    10030    2    1    2    0    0  0.00000000000E+00  0.00000000000E+00  0.62342675083E+03  0.93724165041E+03  0.69982926318E+03 0.  0.
        1    1    3    3  502    0 -0.77955877943E+02  0.34063143348E+03  0.33616536879E+03  0.48488560257E+03  0.50400001928E-02 0.  1.
       -1    1    3    3    0  502  0.77955877943E+02 -0.34063143348E+03  0.28726138205E+03  0.45235604784E+03  0.50400001928E-02 0. -1.
</event>
<event>
 5   0  0.5072407E-03  0.7001581E+03  0.7818609E-02  0.9716962E-01
        2   -1    0    0  501    0  0.00000000000E+00  0.00000000000E+00  0.40195845177E+03  0.40195845178E+03  0.25500000920E-02 0.  1.
       -2   -1    0    0    0  501  0.00000000000E+00  0.00000000000E+00 -0.30489556279E+03  0.30489556280E+03  0.25500000920E-02 0. -1.
    10030    2    1    2    0    0  0.00000000000E+00  0.00000000000E+00  0.97062888981E+02  0.70685401458E+03  0.70015812036E+03 0.  0.
        1    1    3    3  502    0 -0.98013626248E+02  0.16616662115E+03  0.34345069928E+03  0.39392435794E+03  0.50400001928E-02 0.  1.
       -1    1    3    3    0  502  0.98013626248E+02 -0.16616662115E+03 -0.24638781030E+03  0.31292965664E+03  0.50400001928E-02 0. -1.
</event>
<event>
 5   0  0.3013140E-03  0.7076952E+03  0.7818609E-02  0.9704162E-01
       -1   -1    0    0    0  501  0.00000000000E+00  0.00000000000E+00  0.86785554493E+02  0.86785554639E+02  0.50400001928E-02 0. -1.
        1   -1    0    0  501    0  0.00000000000E+00  0.00000000000E+00 -0.14427301572E+04  0.14427301572E+04  0.50400001928E-02 0.  1.
    10030    2    1    2    0    0  0.00000000000E+00  0.00000000000E+00 -0.13559446027E+04  0.15295157119E+04  0.70769523610E+03 0.  0.
        2    1    3    3  502    0 -0.24403685207E+03 -0.54413912762E+02 -0.12191229191E+04  0.12444981121E+04  0.25500000920E-02 0.  1.
       -2    1    3    3    0  502  0.24403685207E+03  0.54413912762E+02 -0.13682168360E+03  0.28501759977E+03  0.25500000920E-02 0. -1.
</event>
<event>
 5   0  0.2938783E-03  0.6992051E+03  0.7818609E-02  0.9718593E-01
        1   -1    0    0  501    0  0.00000000000E+00  0.00000000000E+00  0.12091818650E+03  0.12091818660E+03  0.50400001928E-02 0.  1.
       -1   -1    0    0    0  501  0.00000000000E+00  0.00000000000E+00 -0.10107820662E+04  0.10107820662E+04  0.50400001928E-02 0. -1.
    10030    2    1    2    0    0  0.00000000000E+00  0.00000000000E+00 -0.88986387967E+03  0.11317002528E+04  0.69920507564E+03 0.  0.
        4    1    3    3  502    0 -0.77210306067E+01  0.31197428231E+03 -0.69999013806E+03  0.76640418411E+03  0.12699999809E+01 0. -1.
       -4    1    3    3    0  502  0.77210306067E+01 -0.31197428231E+03 -0.18987374161E+03  0.36529606867E+03  0.12699999809E+01 0.  1.
</event>
<event>
 5   0  0.2913582E-03  0.6989691E+03  0.7818609E-02  0.9718997E-01
        1   -1    0    0  501    0  0.00000000000E+00  0.00000000000E+00  0.12925296677E+04  0.12925296678E+04  0.50400001928E-02 0.  1.
       -1   -1    0    0    0  501  0.00000000000E+00  0.00000000000E+00 -0.94496436800E+02  0.94496436934E+02  0.50400001928E-02 0. -1.
    10030    2    1    2    0    0  0.00000000000E+00  0.00000000000E+00  0.11980332309E+04  0.13870261047E+04  0.69896909276E+03 0.  0.
        1    1    3    3  502    0 -0.27497957896E+03  0.19136942089E+03  0.40153832913E+03  0.52294268699E+03  0.50400001928E-02 0.  1.
       -1    1    3    3    0  502  0.27497957896E+03 -0.19136942089E+03  0.79649490182E+03  0.86408341770E+03  0.50400001928E-02 0. -1.
</event>
<event>
 5   0  0.2913582E-03  0.6993993E+03  0.7818609E-02  0.9718260E-01
       -1   -1    0    0    0  501  0.00000000000E+00  0.00000000000E+00  0.99890228323E+02  0.99890228450E+02  0.50400001928E-02 0. -1.
        1   -1    0    0  501    0  0.00000000000E+00  0.00000000000E+00 -0.12242424358E+04  0.12242424358E+04  0.50400001928E-02 0.  1.
    10030    2    1    2    0    0  0.00000000000E+00  0.00000000000E+00 -0.11243522075E+04  0.13241326643E+04  0.69939933237E+03 0.  0.
        1    1    3    3  502    0  0.11997228578E+03 -0.32800328344E+03 -0.59552906533E+03  0.69038711676E+03  0.50400001928E-02 0.  1.
       -1    1    3    3    0  502 -0.11997228578E+03  0.32800328344E+03 -0.52882314218E+03  0.63374554754E+03  0.50400001928E-02 0. -1.
</event>
<event>
 5   0  0.2913582E-03  0.7001581E+03  0.7818609E-02  0.9716962E-01
        1   -1    0    0  501    0  0.00000000000E+00  0.00000000000E+00  0.87168555948E+03  0.87168555949E+03  0.50400001928E-02 0.  1.
       -1   -1    0    0    0  501  0.00000000000E+00  0.00000000000E+00 -0.14059581512E+03  0.14059581521E+03  0.50400001928E-02 0. -1.
    10030    2    1    2    0    0  0.00000000000E+00  0.00000000000E+00  0.73108974435E+03  0.10122813747E+04  0.70015810162E+03 0.  0.
        1    1    3    3  502    0 -0.18789481364E+03 -0.14437255772E+03 -0.70299600811E+01  0.23705973251E+03  0.50400001928E-02 0. -1.
       -1    1    3    3    0  502  0.18789481364E+03  0.14437255772E+03  0.73811970444E+03  0.77522164219E+03  0.50400001928E-02 0.  1.
</event>
<event>
 5   0  0.1981750E-03  0.7002959E+03  0.7818609E-02  0.9716726E-01
       -3   -1    0    0    0  501  0.00000000000E+00  0.00000000000E+00  0.61478360541E+03  0.61478361371E+03  0.10100000352E+00 0. -1.
        3   -1    0    0  501    0  0.00000000000E+00  0.00000000000E+00 -0.19942555155E+03  0.19942557713E+03  0.10100000352E+00 0.  1.
    10030    2    1    2    0    0  0.00000000000E+00  0.00000000000E+00  0.41535805386E+03  0.81420919083E+03  0.70029586143E+03 0.  0.
        5    1    3    3  502    0  0.66485462862E+02  0.26758620140E+03  0.45855281636E+03  0.53508454223E+03  0.46999998093E+01 0. -1.
       -5    1    3    3    0  502 -0.66485462862E+02 -0.26758620140E+03 -0.43194762495E+02  0.27912464860E+03  0.46999998093E+01 0.  1.
</event>
<event>
 5   0  0.3013140E-03  0.6999116E+03  0.7818609E-02  0.9717383E-01
       -1   -1    0    0    0  501  0.00000000000E+00  0.00000000000E+00  0.40748529918E+03  0.40748529921E+03  0.50400001928E-02 0.  1.
        1   -1    0    0  501    0  0.00000000000E+00  0.00000000000E+00 -0.30054843802E+03  0.30054843807E+03  0.50400001928E-02 0. -1.
    10030    2    1    2    0    0  0.00000000000E+00  0.00000000000E+00  0.10693686116E+03  0.70803373728E+03  0.69991162360E+03 0.  0.
        2    1    3    3  502    0  0.30221047282E+03  0.17531485386E+03  0.73766227073E+02  0.35708251725E+03  0.25500000920E-02 0. -1.
       -2    1    3    3    0  502 -0.30221047282E+03 -0.17531485386E+03  0.33170634088E+02  0.35095122003E+03  0.25500000920E-02 0.  1.
</event>
<event>
 5   0  0.2938783E-03  0.6998072E+03  0.7818609E-02  0.9717562E-01
       -1   -1    0    0    0  501  0.00000000000E+00  0.00000000000E+00  0.48476351156E+03  0.48476351158E+03  0.50400001928E-02 0. -1.
        1   -1    0    0  501    0  0.00000000000E+00  0.00000000000E+00 -0.25256136234E+03  0.25256136239E+03  0.50400001928E-02 0.  1.
    10030    2    1    2    0    0  0.00000000000E+00  0.00000000000E+00  0.23220214922E+03  0.73732487398E+03  0.69980721037E+03 0.  0.
        4    1    3    3  502    0  0.24475500908E+03  0.20723216188E+03  0.26353417058E+03  0.41509282739E+03  0.12699999809E+01 0. -1.
       -4    1    3    3    0  502 -0.24475500908E+03 -0.20723216188E+03 -0.31332021360E+02  0.32223204659E+03  0.12699999809E+01 0.  1.
</event>
<event>
 5   0  0.5023894E-03  0.7005695E+03  0.7818609E-02  0.9716259E-01
        2   -1    0    0  501    0  0.00000000000E+00  0.00000000000E+00  0.58920420867E+03  0.58920420867E+03  0.25500000920E-02 0.  1.
       -2   -1    0    0    0  501  0.00000000000E+00  0.00000000000E+00 -0.20824595954E+03  0.20824595956E+03  0.25500000920E-02 0. -1.
    10030    2    1    2    0    0  0.00000000000E+00  0.00000000000E+00  0.38095824913E+03  0.79745016823E+03  0.70056947067E+03 0.  0.
        2    1    3    3  502    0 -0.25785930477E+03  0.18039480005E+03  0.15368724677E+02  0.31507126598E+03  0.25500000920E-02 0. -1.
       -2    1    3    3    0  502  0.25785930477E+03 -0.18039480005E+03  0.36558952445E+03  0.48237890225E+03  0.25500000920E-02 0.  1.
</event>
<event>
 5   0  0.3013140E-03  0.7071108E+03  0.7818609E-02  0.9705148E-01
        1   -1    0    0  501    0  0.00000000000E+00  0.00000000000E+00  0.19431145869E+04  0.19431145869E+04  0.50400001928E-02 0.  1.
       -1   -1    0    0    0  501  0.00000000000E+00  0.00000000000E+00 -0.64330444277E+02  0.64330444474E+02  0.50400001928E-02 0. -1.
    10030    2    1    2    0    0  0.00000000000E+00  0.00000000000E+00  0.18787841426E+04  0.20074450314E+04  0.70711081129E+03 0.  0.
        2    1    3    3  502    0  0.77439814677E+02 -0.10063671596E+03  0.26419420184E+01  0.12701044587E+03  0.25500000920E-02 0. -1.
       -2    1    3    3    0  502 -0.77439814677E+02  0.10063671596E+03  0.18761422006E+04  0.18804345855E+04  0.25500000920E-02 0.  1.
</event>
<event>
 5   0  0.2934483E-03  0.7005288E+03  0.7818609E-02  0.9716328E-01
        1   -1    0    0  501    0  0.00000000000E+00  0.00000000000E+00  0.79901320913E+03  0.79901320914E+03  0.50400001928E-02 0.  1.
       -1   -1    0    0    0  501  0.00000000000E+00  0.00000000000E+00 -0.15354582873E+03  0.15354582882E+03  0.50400001928E-02 0. -1.
    10030    2    1    2    0    0  0.00000000000E+00  0.00000000000E+00  0.64546738040E+03  0.95255903796E+03  0.70052878716E+03 0.  0.
        5    1    3    3  502    0  0.28813241623E+03  0.17757205357E+03  0.20027170555E+03  0.39329755851E+03  0.46999998093E+01 0. -1.
       -5    1    3    3    0  502 -0.28813241623E+03 -0.17757205357E+03  0.44519567485E+03  0.55926147945E+03  0.46999998093E+01 0.  1.
</event>
<event>
 5   0  0.5072407E-03  0.6995631E+03  0.7818609E-02  0.9717980E-01
       -2   -1    0    0    0  501  0.00000000000E+00  0.00000000000E+00  0.30523187137E+03  0.30523187138E+03  0.25500000920E-02 0. -1.
        2   -1    0    0  501    0  0.00000000000E+00  0.00000000000E+00 -0.40083338011E+03  0.40083338012E+03  0.25500000920E-02 0.  1.
    10030    2    1    2    0    0  0.00000000000E+00  0.00000000000E+00 -0.95601508745E+02  0.70606525150E+03  0.69956307142E+03 0.  0.
        1    1    3    3  502    0  0.60899962350E+02 -0.28773606807E+03 -0.23889163557E+03  0.37890640513E+03  0.50400001928E-02 0.  1.
       -1    1    3    3    0  502 -0.60899962350E+02  0.28773606807E+03  0.14329012682E+03  0.32715884636E+03  0.50400001928E-02 0. -1.
</event>
<event>
 5   0  0.5072407E-03  0.7107007E+03  0.7818609E-02  0.9699106E-01
       -2   -1    0    0    0  501  0.00000000000E+00  0.00000000000E+00  0.22508882954E+03  0.22508882955E+03  0.25500000920E-02 0. -1.
        2   -1    0    0  501    0  0.00000000000E+00  0.00000000000E+00 -0.56099568539E+03  0.56099568539E+03  0.25500000920E-02 0.  1.
    10030    2    1    2    0    0  0.00000000000E+00  0.00000000000E+00 -0.33590685585E+03  0.78608451494E+03  0.71070067456E+03 0.  0.
        1    1    3    3  502    0 -0.17941039433E+03  0.26881559923E+03 -0.33135233778E+03  0.46286530196E+03  0.50400001928E-02 0.  1.
       -1    1    3    3    0  502  0.17941039433E+03 -0.26881559923E+03 -0.45545180714E+01  0.32321921298E+03  0.50400001928E-02 0. -1.
</event>
<event>
 5   0  0.5023894E-03  0.6992927E+03  0.7818609E-02  0.9718443E-01
       -2   -1    0    0    0  501  0.00000000000E+00  0.00000000000E+00  0.13484107839E+03  0.13484107842E+03  0.25500000920E-02 0. -1.
        2   -1    0    0  501    0  0.00000000000E+00  0.00000000000E+00 -0.90664184099E+03  0.90664184099E+03  0.25500000920E-02 0.  1.
    10030    2    1    2    0    0  0.00000000000E+00  0.00000000000E+00 -0.77180076259E+03  0.10414829194E+04  0.69929268142E+03 0.  0.
        2    1    3    3  502    0  0.42758497214E+02  0.25109885974E+03 -0.29162392247E+02  0.25637740067E+03  0.25500000920E-02 0. -1.
       -2    1    3    3    0  502 -0.42758497214E+02 -0.25109885974E+03 -0.74263837034E+03  0.78510551874E+03  0.25500000920E-02 0.  1.
</event>
<event>
 5   0  0.5076796E-03  0.6976149E+03  0.7818609E-02  0.9721320E-01
       -2   -1    0    0    0  501  0.00000000000E+00  0.00000000000E+00  0.17900460592E+03  0.17900460594E+03  0.25500000920E-02 0.  1.
        2   -1    0    0  501    0  0.00000000000E+00  0.00000000000E+00 -0.67968430541E+03  0.67968430541E+03  0.25500000920E-02 0. -1.
    10030    2    1    2    0    0  0.00000000000E+00  0.00000000000E+00 -0.50067969949E+03  0.85868891135E+03  0.69761485434E+03 0.  0.
        5    1    3    3  502    0 -0.33823270878E+03 -0.71801079459E+02 -0.19409774553E+03  0.39655111287E+03  0.46999998093E+01 0.  1.
       -5    1    3    3    0  502  0.33823270878E+03  0.71801079459E+02 -0.30658195395E+03  0.46213779848E+03  0.46999998093E+01 0. -1.
</event>
<event>
 5   0  0.2938783E-03  0.6939951E+03  0.7818609E-02  0.9727557E-01
       -1   -1    0    0    0  501  0.00000000000E+00  0.00000000000E+00  0.20960951896E+03  0.20960951902E+03  0.50400001928E-02 0.  1.
        1   -1    0    0  501    0  0.00000000000E+00  0.00000000000E+00 -0.57443625287E+03  0.57443625289E+03  0.50400001928E-02 0. -1.
    10030    2    1    2    0    0  0.00000000000E+00  0.00000000000E+00 -0.36482673390E+03  0.78404577191E+03  0.69399512007E+03 0.  0.
        4    1    3    3  502    0  0.24494419509E+03 -0.88391943435E+02  0.76680310297E+02  0.27146321529E+03  0.12699999809E+01 0.  1.
       -4    1    3    3    0  502 -0.24494419509E+03  0.88391943435E+02 -0.44150704420E+03  0.51258255662E+03  0.12699999809E+01 0. -1.
</event>
<event>
 5   0  0.5072407E-03  0.7004693E+03  0.7818609E-02  0.9716430E-01
        2   -1    0    0  501    0  0.00000000000E+00  0.00000000000E+00  0.10666060866E+04  0.10666060866E+04  0.25500000920E-02 0.  1.
       -2   -1    0    0    0  501  0.00000000000E+00  0.00000000000E+00 -0.11500430755E+03  0.11500430758E+03  0.25500000920E-02 0. -1.
    10030    2    1    2    0    0  0.00000000000E+00  0.00000000000E+00  0.95160177901E+03  0.11816103941E+04  0.70046925537E+03 0.  0.
        1    1    3    3  502    0  0.18425770948E+03  0.19122110191E+03  0.90585563285E+02  0.28057469169E+03  0.50400001928E-02 0. -1.
       -1    1    3    3    0  502 -0.18425770948E+03 -0.19122110191E+03  0.86101621573E+03  0.90103570245E+03  0.50400001928E-02 0.  1.
</event>
<event>
 5   0  0.2913582E-03  0.6943990E+03  0.7818609E-02  0.9726859E-01
       -1   -1    0    0    0  501  0.00000000000E+00  0.00000000000E+00  0.21097079131E+03  0.21097079137E+03  0.50400001928E-02 0. -1.
        1   -1    0    0  501    0  0.00000000000E+00  0.00000000000E+00 -0.57139422238E+03  0.57139422240E+03  0.50400001928E-02 0.  1.
    10030    2    1    2    0    0  0.00000000000E+00  0.00000000000E+00 -0.36042343106E+03  0.78236501377E+03  0.69439899562E+03 0.  0.
        1    1    3    3  502    0  0.66275022259E+02  0.54543864846E+02 -0.55925196961E+03  0.56580047482E+03  0.50400001928E-02 0.  1.
       -1    1    3    3    0  502 -0.66275022259E+02 -0.54543864846E+02  0.19882853854E+03  0.21656453895E+03  0.50400001928E-02 0. -1.
</event>
<event>
 5   0  0.1981750E-03  0.6996501E+03  0.7818609E-02  0.9717831E-01
       -4   -1    0    0    0  501  0.00000000000E+00  0.00000000000E+00  0.92722318897E+03  0.92722405872E+03  0.12699999809E+01 0.  1.
        4   -1    0    0  501    0  0.00000000000E+00  0.00000000000E+00 -0.13197887264E+03  0.13198498295E+03  0.12699999809E+01 0. -1.
    10030    2    1    2    0    0  0.00000000000E+00  0.00000000000E+00  0.79524431633E+03  0.10592090417E+04  0.69965010633E+03 0.  0.
        3    1    3    3  502    0  0.72694033411E+02 -0.32904185973E+03  0.53983801924E+03  0.63637886920E+03  0.10100000352E+00 0.  1.
       -3    1    3    3    0  502 -0.72694033411E+02  0.32904185973E+03  0.25540629709E+03  0.42283017246E+03  0.10100000352E+00 0. -1.
</event>
<event>
 5   0  0.2913582E-03  0.6996713E+03  0.7818609E-02  0.9717794E-01
       -1   -1    0    0    0  501  0.00000000000E+00  0.00000000000E+00  0.20789403918E+03  0.20789403924E+03  0.50400001928E-02 0. -1.
        1   -1    0    0  501    0  0.00000000000E+00  0.00000000000E+00 -0.58868922929E+03  0.58868922931E+03  0.50400001928E-02 0.  1.
    10030    2    1    2    0    0  0.00000000000E+00  0.00000000000E+00 -0.38079519011E+03  0.79658326855E+03  0.69967129920E+03 0.  0.
        1    1    3    3  502    0 -0.34192518320E+03  0.53498018160E+02 -0.13223192123E+03  0.37048636935E+03  0.50400001928E-02 0. -1.
       -1    1    3    3    0  502  0.34192518320E+03 -0.53498018160E+02 -0.24856326888E+03  0.42609689921E+03  0.50400001928E-02 0.  1.
</event>
<event>
 5   0  0.2934483E-03  0.7002414E+03  0.7818609E-02  0.9716819E-01
       -1   -1    0    0    0  501  0.00000000000E+00  0.00000000000E+00  0.10444052092E+03  0.10444052104E+03  0.50400001928E-02 0. -1.
        1   -1    0    0  501    0  0.00000000000E+00  0.00000000000E+00 -0.11737255997E+04  0.11737255997E+04  0.50400001928E-02 0.  1.
    10030    2    1    2    0    0  0.00000000000E+00  0.00000000000E+00 -0.10692850788E+04  0.12781661208E+04  0.70024142449E+03 0.  0.
        5    1    3    3  502    0 -0.95314849133E+02  0.30991802106E+03 -0.77561493868E+03  0.84067515923E+03  0.46999998093E+01 0.  1.
       -5    1    3    3    0  502  0.95314849133E+02 -0.30991802106E+03 -0.29367014013E+03  0.43749096156E+03  0.46999998093E+01 0. -1.
</event>
<event>
 5   0  0.1981750E-03  0.7003036E+03  0.7818609E-02  0.9716713E-01
       -4   -1    0    0    0  501  0.00000000000E+00  0.00000000000E+00  0.90202126241E+03  0.90202215646E+03  0.12699999809E+01 0.  1.
        4   -1    0    0  501    0  0.00000000000E+00  0.00000000000E+00 -0.13592002900E+03  0.13592596214E+03  0.12699999809E+01 0. -1.
    10030    2    1    2    0    0  0.00000000000E+00  0.00000000000E+00  0.76610123341E+03  0.10379481186E+04  0.70030364633E+03 0.  0.
        5    1    3    3  502    0 -0.18668255662E+03  0.29403595563E+03  0.33009258476E+03  0.47988615802E+03  0.46999998093E+01 0. -1.
       -5    1    3    3    0  502  0.18668255662E+03 -0.29403595563E+03  0.43600864864E+03  0.55806196057E+03  0.46999998093E+01 0.  1.
</event>
<event>
 5   0  0.5072407E-03  0.7002527E+03  0.7818609E-02  0.9716800E-01
       -2   -1    0    0    0  501  0.00000000000E+00  0.00000000000E+00  0.84296144578E+02  0.84296144617E+02  0.25500000920E-02 0. -1.
        2   -1    0    0  501    0  0.00000000000E+00  0.00000000000E+00 -0.14542594670E+04  0.14542594670E+04  0.25500000920E-02 0.  1.
    10030    2    1    2    0    0  0.00000000000E+00  0.00000000000E+00 -0.13699633224E+04  0.15385556116E+04  0.70025271529E+03 0.  0.
        1    1    3    3  502    0 -0.24858125630E+03  0.11399024235E+03 -0.20460526716E+03  0.34154023439E+03  0.50400001928E-02 0. -1.
       -1    1    3    3    0  502  0.24858125630E+03 -0.11399024235E+03 -0.11653580553E+04  0.11970153772E+04  0.50400001928E-02 0.  1.
</event>
<event>
 5   0  0.5113683E-03  0.6962310E+03  0.7818609E-02  0.9723699E-01
       -2   -1    0    0    0  501  0.00000000000E+00  0.00000000000E+00  0.33030596247E+03  0.33030596248E+03  0.25500000920E-02 0. -1.
        2   -1    0    0  501    0  0.00000000000E+00  0.00000000000E+00 -0.36688533893E+03  0.36688533894E+03  0.25500000920E-02 0.  1.
    10030    2    1    2    0    0  0.00000000000E+00  0.00000000000E+00 -0.36579376460E+02  0.69719130142E+03  0.69623103924E+03 0.  0.
        3    1    3    3  502    0 -0.11055369320E+03  0.53167406310E+02 -0.34452347698E+03  0.36571208425E+03  0.10100000352E+00 0.  1.
       -3    1    3    3    0  502  0.11055369320E+03 -0.53167406310E+02  0.30794410052E+03  0.33147921717E+03  0.10100000352E+00 0. -1.
</event>
<event>
 5   0  0.2913582E-03  0.6990556E+03  0.7818609E-02  0.9718849E-01
        1   -1    0    0  501    0  0.00000000000E+00  0.00000000000E+00  0.94065918648E+02  0.94065918783E+02  0.50400001928E-02 0.  1.
       -1   -1    0    0    0  501  0.00000000000E+00  0.00000000000E+00 -0.12987666315E+04  0.12987666315E+04  0.50400001928E-02 0. -1.
    10030    2    1    2    0    0  0.00000000000E+00  0.00000000000E+00 -0.12047007128E+04  0.13928325503E+04  0.69905558120E+03 0.  0.
        1    1    3    3  502    0 -0.27048327521E+03  0.12589765914E+03 -0.96516351083E+03  0.10102237502E+04  0.50400001928E-02 0. -1.
       -1    1    3    3    0  502  0.27048327521E+03 -0.12589765914E+03 -0.23953720201E+03  0.38260880010E+03  0.50400001928E-02 0.  1.
</event>
<event>
 5   0  0.3013140E-03  0.7010811E+03  0.7818609E-02  0.9715385E-01
        1   -1    0    0  501    0  0.00000000000E+00  0.00000000000E+00  0.22389635310E+03  0.22389635316E+03  0.50400001928E-02 0. -1.
       -1   -1    0    0    0  501  0.00000000000E+00  0.00000000000E+00 -0.54881950905E+03  0.54881950907E+03  0.50400001928E-02 0.  1.
    10030    2    1    2    0    0  0.00000000000E+00  0.00000000000E+00 -0.32492315594E+03  0.77271586223E+03  0.70108112688E+03 0.  0.
        2    1    3    3  502    0 -0.52056288675E+02  0.10999971832E+02 -0.54434315604E+03  0.54693722502E+03  0.25500000920E-02 0.  1.
       -2    1    3    3    0  502  0.52056288675E+02 -0.10999971832E+02  0.21942000010E+03  0.22577863721E+03  0.25500000920E-02 0. -1.
</event>
<event>
 5   0  0.1981750E-03  0.6993128E+03  0.7818609E-02  0.9718408E-01
        3   -1    0    0  501    0  0.00000000000E+00  0.00000000000E+00  0.24903549007E+03  0.24903551055E+03  0.10100000352E+00 0. -1.
       -3   -1    0    0    0  501  0.00000000000E+00  0.00000000000E+00 -0.49093232197E+03  0.49093233236E+03  0.10100000352E+00 0.  1.
    10030    2    1    2    0    0  0.00000000000E+00  0.00000000000E+00 -0.24189683190E+03  0.73996784291E+03  0.69931275640E+03 0.  0.
        2    1    3    3  502    0  0.25193098445E+03  0.19822390577E+03 -0.26870011256E+03  0.41828421945E+03  0.25500000920E-02 0.  1.
       -2    1    3    3    0  502 -0.25193098445E+03 -0.19822390577E+03  0.26803280664E+02  0.32168362346E+03  0.25500000920E-02 0. -1.
</event>
<event>
 5   0  0.2938783E-03  0.7026935E+03  0.7818609E-02  0.9712637E-01
        1   -1    0    0  501    0  0.00000000000E+00  0.00000000000E+00  0.48106500599E+03  0.48106500601E+03  0.50400001928E-02 0. -1.
       -1   -1    0    0    0  501  0.00000000000E+00  0.00000000000E+00 -0.25660680308E+03  0.25660680313E+03  0.50400001928E-02 0.  1.
    10030    2    1    2    0    0  0.00000000000E+00  0.00000000000E+00  0.22445820291E+03  0.73767180914E+03  0.70269354141E+03 0.  0.
        4    1    3    3  502    0 -0.16985732515E+03  0.24355616945E+03  0.30938563367E+03  0.42882654046E+03  0.12699999809E+01 0.  1.
       -4    1    3    3    0  502  0.16985732515E+03 -0.24355616945E+03 -0.84927430755E+02  0.30884526867E+03  0.12699999809E+01 0. -1.
</event>
<event>
 5   0  0.3013140E-03  0.7010069E+03  0.7818609E-02  0.9715512E-01
        1   -1    0    0  501    0  0.00000000000E+00  0.00000000000E+00  0.86901712974E+03  0.86901712976E+03  0.50400001928E-02 0. -1.
       -1   -1    0    0    0  501  0.00000000000E+00  0.00000000000E+00 -0.14136965726E+03  0.14136965735E+03  0.50400001928E-02 0.  1.
    10030    2    1    2    0    0  0.00000000000E+00  0.00000000000E+00  0.72764747248E+03  0.10103867871E+04  0.70100685828E+03 0.  0.
        2    1    3    3  502    0 -0.21484660704E+02  0.17859680307E+03  0.79741035655E+03  0.81744827693E+03  0.25500000920E-02 0. -1.
       -2    1    3    3    0  502  0.21484660704E+02 -0.17859680307E+03 -0.69762884070E+02  0.19293851018E+03  0.25500000920E-02 0.  1.
</event>
<event>
 5   0  0.2937617E-03  0.7001615E+03  0.7818609E-02  0.9716956E-01
       -1   -1    0    0    0  501  0.00000000000E+00  0.00000000000E+00  0.35257445835E+03  0.35257445839E+03  0.50400001928E-02 0.  1.
        1   -1    0    0  501    0  0.00000000000E+00  0.00000000000E+00 -0.34760465727E+03  0.34760465731E+03  0.50400001928E-02 0. -1.
    10030    2    1    2    0    0  0.00000000000E+00  0.00000000000E+00  0.49698010863E+01  0.70017911570E+03  0.70016147790E+03 0.  0.
        3    1    3    3  502    0 -0.22177517693E+03  0.15319602949E+03  0.22588090608E+03  0.35167520027E+03  0.10100000352E+00 0.  1.
       -3    1    3    3    0  502  0.22177517693E+03 -0.15319602949E+03 -0.22091110499E+03  0.34850391542E+03  0.10100000352E+00 0. -1.
</event>
<event>
 5   0  0.5072407E-03  0.6995503E+03  0.7818609E-02  0.9718001E-01
        2   -1    0    0  501    0  0.00000000000E+00  0.00000000000E+00  0.78219694629E+03  0.78219694630E+03  0.25500000920E-02 0.  1.
       -2   -1    0    0    0  501  0.00000000000E+00  0.00000000000E+00 -0.15640903797E+03  0.15640903799E+03  0.25500000920E-02 0. -1.
    10030    2    1    2    0    0  0.00000000000E+00  0.00000000000E+00  0.62578790832E+03  0.93860598429E+03  0.69955034668E+03 0.  0.
        1    1    3    3  502    0 -0.67026325773E+02  0.17786376838E+03  0.70685638676E+03  0.73196584619E+03  0.50400001928E-02 0.  1.
       -1    1    3    3    0  502  0.67026325773E+02 -0.17786376838E+03 -0.81068478442E+02  0.20664013810E+03  0.50400001928E-02 0. -1.
</event>
<event>
 5   0  0.2934483E-03  0.7000727E+03  0.7818609E-02  0.9717108E-01
        1   -1    0    0  501    0  0.00000000000E+00  0.00000000000E+00  0.13865416308E+04  0.13865416309E+04  0.50400001928E-02 0.  1.
       -1   -1    0    0    0  501  0.00000000000E+00  0.00000000000E+00 -0.88367662883E+02  0.88367663027E+02  0.50400001928E-02 0. -1.
    10030    2    1    2    0    0  0.00000000000E+00  0.00000000000E+00  0.12981739680E+04  0.14749092939E+04  0.70007269200E+03 0.  0.
        5    1    3    3  502    0  0.28263906581E+03  0.58415723568E+02  0.10662435474E+04  0.11046242034E+04  0.46999998093E+01 0.  1.
       -5    1    3    3    0  502 -0.28263906581E+03 -0.58415723568E+02  0.23193042057E+03  0.37028509052E+03  0.46999998093E+01 0. -1.
</event>
<event>
 5   0  0.5023894E-03  0.6970646E+03  0.7818609E-02  0.9722265E-01
        2   -1    0    0  501    0  0.00000000000E+00  0.00000000000E+00  0.13968701718E+04  0.13968701719E+04  0.25500000920E-02 0. -1.
       -2   -1    0    0    0  501  0.00000000000E+00  0.00000000000E+00 -0.86962107195E+02  0.86962107233E+02  0.25500000920E-02 0.  1.
    10030    2    1    2    0    0  0.00000000000E+00  0.00000000000E+00  0.13099080647E+04  0.14838322791E+04  0.69706462728E+03 0.  0.
        2    1    3    3  502    0  0.19501474522E+03 -0.26961692592E+03  0.43423953044E+03  0.54707221406E+03  0.25500000920E-02 0. -1.
       -2    1    3    3    0  502 -0.19501474522E+03  0.26961692592E+03  0.87566853422E+03  0.93676006502E+03  0.25500000920E-02 0.  1.
</event>
<event>
 5   0  0.3013140E-03  0.7013735E+03  0.7818609E-02  0.9714886E-01
        1   -1    0    0  501    0  0.00000000000E+00  0.00000000000E+00  0.34618069849E+03  0.34618069852E+03  0.50400001928E-02 0.  1.
       -1   -1    0    0    0  501  0.00000000000E+00  0.00000000000E+00 -0.35525144698E+03  0.35525144701E+03  0.50400001928E-02 0. -1.
    10030    2    1    2    0    0  0.00000000000E+00  0.00000000000E+00 -0.90707484875E+01  0.70143214554E+03  0.70137349274E+03 0.  0.
        2    1    3    3  502    0 -0.18282614815E+03  0.87203837225E+02  0.28175991287E+03  0.34701377233E+03  0.25500000920E-02 0.  1.
       -2    1    3    3    0  502  0.18282614815E+03 -0.87203837225E+02 -0.29083066136E+03  0.35441837321E+03  0.25500000920E-02 0. -1.
</event>
<event>
 5   0  0.5113683E-03  0.7000644E+03  0.7818609E-02  0.9717122E-01
       -2   -1    0    0    0  501  0.00000000000E+00  0.00000000000E+00  0.44207764291E+03  0.44207764292E+03  0.25500000920E-02 0. -1.
        2   -1    0    0  501    0  0.00000000000E+00  0.00000000000E+00 -0.27715161947E+03  0.27715161949E+03  0.25500000920E-02 0.  1.
    10030    2    1    2    0    0  0.00000000000E+00  0.00000000000E+00  0.16492602344E+03  0.71922926241E+03  0.70006438182E+03 0.  0.
        3    1    3    3  502    0  0.19725814008E+02  0.13650730566E+03 -0.24805703457E+03  0.28382328100E+03  0.10100000352E+00 0.  1.
       -3    1    3    3    0  502 -0.19725814008E+02 -0.13650730566E+03  0.41298305801E+03  0.43540598140E+03  0.10100000352E+00 0. -1.
</event>
<event>
 5   0  0.2913582E-03  0.7006459E+03  0.7818609E-02  0.9716128E-01
       -1   -1    0    0    0  501  0.00000000000E+00  0.00000000000E+00  0.93777543769E+02  0.93777543904E+02  0.50400001928E-02 0.  1.
        1   -1    0    0  501    0  0.00000000000E+00  0.00000000000E+00 -0.13086946928E+04  0.13086946928E+04  0.50400001928E-02 0. -1.
    10030    2    1    2    0    0  0.00000000000E+00  0.00000000000E+00 -0.12149171490E+04  0.14024722367E+04  0.70064591323E+03 0.  0.
        1    1    3    3  502    0 -0.30740422493E+03 -0.11428106330E+03 -0.36092889221E+03  0.48767528561E+03  0.50400001928E-02 0.  1.
       -1    1    3    3    0  502  0.30740422493E+03  0.11428106330E+03 -0.85398825678E+03  0.91479695107E+03  0.50400001928E-02 0. -1.
</event>
<event>
 5   0  0.5113683E-03  0.7015995E+03  0.7818609E-02  0.9714501E-01
       -2   -1    0    0    0  501  0.00000000000E+00  0.00000000000E+00  0.68490701729E+02  0.68490701777E+02  0.25500000920E-02 0. -1.
        2   -1    0    0  501    0  0.00000000000E+00  0.00000000000E+00 -0.17967470934E+04  0.17967470934E+04  0.25500000920E-02 0.  1.
    10030    2    1    2    0    0  0.00000000000E+00  0.00000000000E+00 -0.17282563916E+04  0.18652377951E+04  0.70159951340E+03 0.  0.
        3    1    3    3  502    0  0.15633511991E+03 -0.12112798746E+03 -0.93846482943E+02  0.21890598810E+03  0.10100000352E+00 0. -1.
       -3    1    3    3    0  502 -0.15633511991E+03  0.12112798746E+03 -0.16344099087E+04  0.16463318071E+04  0.10100000352E+00 0.  1.
</event>
<event>
 5   0  0.2937617E-03  0.6998617E+03  0.7818609E-02  0.9717469E-01
        1   -1    0    0  501    0  0.00000000000E+00  0.00000000000E+00  0.68458906737E+03  0.68458906739E+03  0.50400001928E-02 0. -1.
       -1   -1    0    0    0  501  0.00000000000E+00  0.00000000000E+00 -0.17886874210E+03  0.17886874217E+03  0.50400001928E-02 0.  1.
    10030    2    1    2    0    0  0.00000000000E+00  0.00000000000E+00  0.50572032527E+03  0.86345780956E+03  0.69986165883E+03 0.  0.
        3    1    3    3  502    0 -0.20398123373E+03  0.16515345230E+03 -0.32688340216E+02  0.26448543308E+03  0.10100000352E+00 0.  1.
       -3    1    3    3    0  502  0.20398123373E+03 -0.16515345230E+03  0.53840866548E+03  0.59897237648E+03  0.10100000352E+00 0. -1.
</event>
<event>
 5   0  0.2934483E-03  0.6999878E+03  0.7818609E-02  0.9717253E-01
       -1   -1    0    0    0  501  0.00000000000E+00  0.00000000000E+00  0.13586905463E+03  0.13586905472E+03  0.50400001928E-02 0. -1.
        1   -1    0    0  501    0  0.00000000000E+00  0.00000000000E+00 -0.90157200732E+03  0.90157200733E+03  0.50400001928E-02 0.  1.
    10030    2    1    2    0    0  0.00000000000E+00  0.00000000000E+00 -0.76570295269E+03  0.10374410621E+04  0.69998781810E+03 0.  0.
        5    1    3    3  502    0 -0.29346521476E+02 -0.31155379487E+03 -0.15064776150E+03  0.34733819753E+03  0.46999998093E+01 0. -1.
       -5    1    3    3    0  502  0.29346521476E+02  0.31155379487E+03 -0.61505519119E+03  0.69010286453E+03  0.46999998093E+01 0.  1.
</event>
<event>
 5   0  0.2937617E-03  0.6969114E+03  0.7818609E-02  0.9722529E-01
        1   -1    0    0  501    0  0.00000000000E+00  0.00000000000E+00  0.40248196881E+03  0.40248196884E+03  0.50400001928E-02 0.  1.
       -1   -1    0    0    0  501  0.00000000000E+00  0.00000000000E+00 -0.30168152147E+03  0.30168152151E+03  0.50400001928E-02 0. -1.
    10030    2    1    2    0    0  0.00000000000E+00  0.00000000000E+00  0.10080044734E+03  0.70416349035E+03  0.69691139391E+03 0.  0.
        3    1    3    3  502    0 -0.38910982161E+02  0.21820699025E+02 -0.29878411378E+03  0.30209628314E+03  0.10100000352E+00 0. -1.
       -3    1    3    3    0  502  0.38910982161E+02 -0.21820699025E+02  0.39958456111E+03  0.40206720722E+03  0.10100000352E+00 0.  1.
</event>
<event>
 5   0  0.5076796E-03  0.6948246E+03  0.7818609E-02  0.9726124E-01
        2   -1    0    0  501    0  0.00000000000E+00  0.00000000000E+00  0.14465996108E+04  0.14465996108E+04  0.25500000920E-02 0.  1.
       -2   -1    0    0    0  501  0.00000000000E+00  0.00000000000E+00 -0.83433804714E+02  0.83433804753E+02  0.25500000920E-02 0. -1.
    10030    2    1    2    0    0  0.00000000000E+00  0.00000000000E+00  0.13631658061E+04  0.15300334155E+04  0.69482460940E+03 0.  0.
        5    1    3    3  502    0  0.16592821217E+03  0.18058294799E+03  0.13981396867E+03  0.28233386005E+03  0.46999998093E+01 0. -1.
       -5    1    3    3    0  502 -0.16592821217E+03 -0.18058294799E+03  0.12233518374E+04  0.12476995555E+04  0.46999998093E+01 0.  1.
</event>
<event>
 5   0  0.5072407E-03  0.7004849E+03  0.7818609E-02  0.9716403E-01
       -2   -1    0    0    0  501  0.00000000000E+00  0.00000000000E+00  0.64993857528E+02  0.64993857578E+02  0.25500000920E-02 0.  1.
        2   -1    0    0  501    0  0.00000000000E+00  0.00000000000E+00 -0.18874054322E+04  0.18874054322E+04  0.25500000920E-02 0. -1.
    10030    2    1    2    0    0  0.00000000000E+00  0.00000000000E+00 -0.18224115747E+04  0.19523992898E+04  0.70048486010E+03 0.  0.
        1    1    3    3  502    0  0.53632832553E+02  0.19203781935E+03 -0.17137811039E+04  0.17253407423E+04  0.50400001928E-02 0. -1.
       -1    1    3    3    0  502 -0.53632832553E+02 -0.19203781935E+03 -0.10863047074E+03  0.22705854749E+03  0.50400001928E-02 0.  1.
</event>
<event>
 5   0  0.5072407E-03  0.6999549E+03  0.7818609E-02  0.9717309E-01
       -2   -1    0    0    0  501  0.00000000000E+00  0.00000000000E+00  0.16989486812E+03  0.16989486814E+03  0.25500000920E-02 0. -1.
        2   -1    0    0  501    0  0.00000000000E+00  0.00000000000E+00 -0.72094125987E+03  0.72094125987E+03  0.25500000920E-02 0.  1.
    10030    2    1    2    0    0  0.00000000000E+00  0.00000000000E+00 -0.55104639175E+03  0.89083612801E+03  0.69995491363E+03 0.  0.
        1    1    3    3  502    0 -0.30356589931E+02  0.34712355232E+03 -0.23393207761E+03  0.41969095784E+03  0.50400001928E-02 0. -1.
       -1    1    3    3    0  502  0.30356589931E+02 -0.34712355232E+03 -0.31711431414E+03  0.47114517018E+03  0.50400001928E-02 0.  1.
</event>
<event>
 5   0  0.3013140E-03  0.7019186E+03  0.7818609E-02  0.9713957E-01
       -1   -1    0    0    0  501  0.00000000000E+00  0.00000000000E+00  0.20214958011E+03  0.20214958017E+03  0.50400001928E-02 0. -1.
        1   -1    0    0  501    0  0.00000000000E+00  0.00000000000E+00 -0.60931334393E+03  0.60931334395E+03  0.50400001928E-02 0.  1.
    10030    2    1    2    0    0  0.00000000000E+00  0.00000000000E+00 -0.40716376382E+03  0.81146292412E+03  0.70191861826E+03 0.  0.
        2    1    3    3  502    0 -0.29032414081E+03 -0.91578318076E+02 -0.40547232424E+03  0.50703303720E+03  0.25500000920E-02 0. -1.
       -2    1    3    3    0  502  0.29032414081E+03  0.91578318076E+02 -0.16914395749E+01  0.30442988692E+03  0.25500000920E-02 0.  1.
</event>
<event>
 5   0  0.1981750E-03  0.7011080E+03  0.7818609E-02  0.9715339E-01
        4   -1    0    0  501    0  0.00000000000E+00  0.00000000000E+00  0.10642762733E+03  0.10643520451E+03  0.12699999809E+01 0.  1.
       -4   -1    0    0    0  501  0.00000000000E+00  0.00000000000E+00 -0.11546146400E+04  0.11546153385E+04  0.12699999809E+01 0. -1.
    10030    2    1    2    0    0  0.00000000000E+00  0.00000000000E+00 -0.10481870127E+04  0.12610505430E+04  0.70110802191E+03 0.  0.
        4    1    3    3  502    0  0.13841458405E+03  0.30939443915E+03 -0.36318701089E+03  0.49677956262E+03  0.12699999809E+01 0.  1.
       -4    1    3    3    0  502 -0.13841458405E+03 -0.30939443915E+03 -0.68500000179E+03  0.76427098035E+03  0.12699999809E+01 0. -1.
</event>
<event>
 5   0  0.5023894E-03  0.7003376E+03  0.7818609E-02  0.9716655E-01
        2   -1    0    0  501    0  0.00000000000E+00  0.00000000000E+00  0.15935721004E+04  0.15935721004E+04  0.25500000920E-02 0. -1.
       -2   -1    0    0    0  501  0.00000000000E+00  0.00000000000E+00 -0.76945491745E+02  0.76945491787E+02  0.25500000920E-02 0.  1.
    10030    2    1    2    0    0  0.00000000000E+00  0.00000000000E+00  0.15166266087E+04  0.16705175922E+04  0.70033760126E+03 0.  0.
        2    1    3    3  502    0  0.11415855144E+03  0.32352872063E+03  0.92554298729E+03  0.98708299006E+03  0.25500000920E-02 0. -1.
       -2    1    3    3    0  502 -0.11415855144E+03 -0.32352872063E+03  0.59108362141E+03  0.68343460217E+03  0.25500000920E-02 0.  1.
</event>
<event>
 5   0  0.2934483E-03  0.6998903E+03  0.7818609E-02  0.9717420E-01
       -1   -1    0    0    0  501  0.00000000000E+00  0.00000000000E+00  0.48572282232E+03  0.48572282235E+03  0.50400001928E-02 0. -1.
        1   -1    0    0  501    0  0.00000000000E+00  0.00000000000E+00 -0.25212244180E+03  0.25212244185E+03  0.50400001928E-02 0.  1.
    10030    2    1    2    0    0  0.00000000000E+00  0.00000000000E+00  0.23360038052E+03  0.73784526420E+03  0.69989034579E+03 0.  0.
        5    1    3    3  502    0  0.28030294218E+02 -0.12471601722E+03  0.46019401024E+03  0.47764044993E+03  0.46999998093E+01 0. -1.
       -5    1    3    3    0  502 -0.28030294218E+02  0.12471601722E+03 -0.22659362972E+03  0.26020481428E+03  0.46999998093E+01 0.  1.
</event>
<event>
 5   0  0.2938783E-03  0.6985933E+03  0.7818609E-02  0.9719641E-01
        1   -1    0    0  501    0  0.00000000000E+00  0.00000000000E+00  0.84509731199E+03  0.84509731201E+03  0.50400001928E-02 0.  1.
       -1   -1    0    0    0  501  0.00000000000E+00  0.00000000000E+00 -0.14437172235E+03  0.14437172244E+03  0.50400001928E-02 0. -1.
    10030    2    1    2    0    0  0.00000000000E+00  0.00000000000E+00  0.70072558965E+03  0.98946903444E+03  0.69859331384E+03 0.  0.
        4    1    3    3  502    0 -0.12884397016E+03 -0.31817364698E+03  0.25888542483E+03  0.42995175819E+03  0.12699999809E+01 0. -1.
       -4    1    3    3    0  502  0.12884397016E+03  0.31817364698E+03  0.44184016482E+03  0.55951727625E+03  0.12699999809E+01 0.  1.
</event>
<event>
 5   0  0.2937617E-03  0.7041206E+03  0.7818609E-02  0.9710211E-01
       -1   -1    0    0    0  501  0.00000000000E+00  0.00000000000E+00  0.29345552195E+03  0.29345552199E+03  0.50400001928E-02 0. -1.
        1   -1    0    0  501    0  0.00000000000E+00  0.00000000000E+00 -0.42236878047E+03  0.42236878050E+03  0.50400001928E-02 0.  1.
    10030    2    1    2    0    0  0.00000000000E+00  0.00000000000E+00 -0.12891325852E+03  0.71582430249E+03  0.70412058897E+03 0.  0.
        3    1    3    3  502    0 -0.32581914753E+03 -0.94280595420E+01 -0.19970719906E+03  0.38226951325E+03  0.10100000352E+00 0. -1.
       -3    1    3    3    0  502  0.32581914753E+03  0.94280595420E+01  0.70793940540E+02  0.33355478923E+03  0.10100000352E+00 0.  1.
</event>
<event>
 5   0  0.2937617E-03  0.6990879E+03  0.7818609E-02  0.9718793E-01
       -1   -1    0    0    0  501  0.00000000000E+00  0.00000000000E+00  0.19538361031E+03  0.19538361037E+03  0.50400001928E-02 0.  1.
        1   -1    0    0  501    0  0.00000000000E+00  0.00000000000E+00 -0.62533887755E+03  0.62533887757E+03  0.50400001928E-02 0. -1.
    10030    2    1    2    0    0  0.00000000000E+00  0.00000000000E+00 -0.42995526724E+03  0.82072248795E+03  0.69908788460E+03 0.  0.
        3    1    3    3  502    0  0.64833793472E+02 -0.29376717513E+02  0.18678540079E+03  0.19988798978E+03  0.10100000352E+00 0.  1.
       -3    1    3    3    0  502 -0.64833793472E+02  0.29376717513E+02 -0.61674066803E+03  0.62083449817E+03  0.10100000352E+00 0. -1.
</event>
<event>
 5   0  0.5023894E-03  0.6998940E+03  0.7818609E-02  0.9717413E-01
        2   -1    0    0  501    0  0.00000000000E+00  0.00000000000E+00  0.34526641060E+03  0.34526641061E+03  0.25500000920E-02 0. -1.
       -2   -1    0    0    0  501  0.00000000000E+00  0.00000000000E+00 -0.35469107234E+03  0.35469107235E+03  0.25500000920E-02 0.  1.
    10030    2    1    2    0    0  0.00000000000E+00  0.00000000000E+00 -0.94246617392E+01  0.69995748296E+03  0.69989403034E+03 0.  0.
        2    1    3    3  502    0  0.20621996946E+03 -0.19790416084E+03 -0.20664690827E+03  0.35269771389E+03  0.25500000920E-02 0.  1.
       -2    1    3    3    0  502 -0.20621996946E+03  0.19790416084E+03  0.19722224653E+03  0.34725976907E+03  0.25500000920E-02 0. -1.
</event>
<event>
 5   0  0.5023894E-03  0.7038989E+03  0.7818609E-02  0.9710588E-01
        2   -1    0    0  501    0  0.00000000000E+00  0.00000000000E+00  0.29820538576E+04  0.29820538576E+04  0.25500000920E-02 0.  1.
       -2   -1    0    0    0  501  0.00000000000E+00  0.00000000000E+00 -0.41537953468E+02  0.41537953546E+02  0.25500000920E-02 0. -1.
    10030    2    1    2    0    0  0.00000000000E+00  0.00000000000E+00  0.29405159041E+04  0.30235918111E+04  0.70389889755E+03 0.  0.
        2    1    3    3  502    0  0.22474462494E+03  0.24661786881E+03  0.19512359239E+04  0.19795585747E+04  0.25500000920E-02 0.  1.
       -2    1    3    3    0  502 -0.22474462494E+03 -0.24661786881E+03  0.98927998015E+03  0.10440332364E+04  0.25500000920E-02 0. -1.
</event>
<event>
 5   0  0.2938783E-03  0.6977591E+03  0.7818609E-02  0.9721072E-01
       -1   -1    0    0    0  501  0.00000000000E+00  0.00000000000E+00  0.66415697369E+02  0.66415697560E+02  0.50400001928E-02 0. -1.
        1   -1    0    0  501    0  0.00000000000E+00  0.00000000000E+00 -0.18326534052E+04  0.18326534052E+04  0.50400001928E-02 0.  1.
    10030    2    1    2    0    0  0.00000000000E+00  0.00000000000E+00 -0.17662377078E+04  0.18990691027E+04  0.69775913932E+03 0.  0.
        4    1    3    3  502    0  0.10094773794E+03 -0.33362561906E+03 -0.84285639314E+03  0.91208826976E+03  0.12699999809E+01 0.  1.
       -4    1    3    3    0  502 -0.10094773794E+03  0.33362561906E+03 -0.92338131466E+03  0.98698083297E+03  0.12699999809E+01 0. -1.
</event>
<event>
 5   0  0.2913582E-03  0.7002054E+03  0.7818609E-02  0.9716881E-01
       -1   -1    0    0    0  501  0.00000000000E+00  0.00000000000E+00  0.17378928412E+03  0.17378928419E+03  0.50400001928E-02 0. -1.
        1   -1    0    0  501    0  0.00000000000E+00  0.00000000000E+00 -0.70529038421E+03  0.70529038423E+03  0.50400001928E-02 0.  1.
    10030    2    1    2    0    0  0.00000000000E+00  0.00000000000E+00 -0.53150110009E+03  0.87907966842E+03  0.70020542988E+03 0.  0.
        1    1    3    3  502    0 -0.11595347002E+03 -0.15641286076E+03 -0.63104771954E+03  0.66040246410E+03  0.50400001928E-02 0.  1.
       -1    1    3    3    0  502  0.11595347002E+03  0.15641286076E+03  0.99546619449E+02  0.21867720432E+03  0.50400001928E-02 0. -1.
</event>
<event>
 5   0  0.2913582E-03  0.7010936E+03  0.7818609E-02  0.9715364E-01
        1   -1    0    0  501    0  0.00000000000E+00  0.00000000000E+00  0.72301795043E+03  0.72301795045E+03  0.50400001928E-02 0. -1.
       -1   -1    0    0    0  501  0.00000000000E+00  0.00000000000E+00 -0.16995853677E+03  0.16995853685E+03  0.50400001928E-02 0.  1.
    10030    2    1    2    0    0  0.00000000000E+00  0.00000000000E+00  0.55305941366E+03  0.89297648730E+03  0.70109363984E+03 0.  0.
        1    1    3    3  502    0 -0.13895006523E+03 -0.21322234393E+03 -0.30512159035E+02  0.25632378051E+03  0.50400001928E-02 0. -1.
       -1    1    3    3    0  502  0.13895006523E+03  0.21322234393E+03  0.58357157270E+03  0.63665270679E+03  0.50400001928E-02 0.  1.
</event>
<event>
 5   0  0.1981750E-03  0.7000717E+03  0.7818609E-02  0.9717110E-01
        3   -1    0    0  501    0  0.00000000000E+00  0.00000000000E+00  0.25566349632E+03  0.25566351627E+03  0.10100000352E+00 0.  1.
       -3   -1    0    0    0  501  0.00000000000E+00  0.00000000000E+00 -0.47924351524E+03  0.47924352588E+03  0.10100000352E+00 0. -1.
    10030    2    1    2    0    0  0.00000000000E+00  0.00000000000E+00 -0.22358001892E+03  0.73490704216E+03  0.70007166473E+03 0.  0.
        3    1    3    3  502    0  0.88754017370E+01 -0.25720479520E+03 -0.36085531006E+03  0.44322640312E+03  0.10100000352E+00 0. -1.
       -3    1    3    3    0  502 -0.88754017370E+01  0.25720479520E+03  0.13727529114E+03  0.29168063903E+03  0.10100000352E+00 0.  1.
</event>
<event>
 5   0  0.1981750E-03  0.7015970E+03  0.7818609E-02  0.9714505E-01
        3   -1    0    0  501    0  0.00000000000E+00  0.00000000000E+00  0.84959120426E+03  0.84959121026E+03  0.10100000352E+00 0. -1.
       -3   -1    0    0    0  501  0.00000000000E+00  0.00000000000E+00 -0.14484563359E+03  0.14484566880E+03  0.10100000352E+00 0.  1.
    10030    2    1    2    0    0  0.00000000000E+00  0.00000000000E+00  0.70474557067E+03  0.99443687907E+03  0.70159702613E+03 0.  0.
        2    1    3    3  502    0  0.95743011813E+02  0.30196303854E+03  0.13876873514E+03  0.34583979357E+03  0.25500000920E-02 0.  1.
       -2    1    3    3    0  502 -0.95743011813E+02 -0.30196303854E+03  0.56597683553E+03  0.64859708550E+03  0.25500000920E-02 0. -1.
</event>
<event>
 5   0  0.2934483E-03  0.6995692E+03  0.7818609E-02  0.9717969E-01
        1   -1    0    0  501    0  0.00000000000E+00  0.00000000000E+00  0.39470935570E+03  0.39470935573E+03  0.50400001928E-02 0.  1.
       -1   -1    0    0    0  501  0.00000000000E+00  0.00000000000E+00 -0.30997304315E+03  0.30997304319E+03  0.50400001928E-02 0. -1.
    10030    2    1    2    0    0  0.00000000000E+00  0.00000000000E+00  0.84736312543E+02  0.70468239892E+03  0.69956918220E+03 0.  0.
        5    1    3    3  502    0 -0.18487027391E+03 -0.23196370544E+03 -0.14430497609E+03  0.32989421780E+03  0.46999998093E+01 0. -1.
       -5    1    3    3    0  502  0.18487027391E+03  0.23196370544E+03  0.22904128863E+03  0.37478818112E+03  0.46999998093E+01 0.  1.
</event>
<event>
 5   0  0.4878235E-03  0.7009451E+03  0.7818609E-02  0.9715617E-01
       -2   -1    0    0    0  501  0.00000000000E+00  0.00000000000E+00  0.38784139296E+03  0.38784139297E+03  0.25500000920E-02 0. -1.
        2   -1    0    0  501    0  0.00000000000E+00  0.00000000000E+00 -0.31670421414E+03  0.31670421415E+03  0.25500000920E-02 0.  1.
    10030    2    1    2    0    0  0.00000000000E+00  0.00000000000E+00  0.71137178820E+02  0.70454560712E+03  0.70094508651E+03 0.  0.
        4    1    3    3  502    0  0.18564219402E+03 -0.26977799200E+03 -0.89917405700E+02  0.33960262354E+03  0.12699999809E+01 0.  1.
       -4    1    3    3    0  502 -0.18564219402E+03  0.26977799200E+03  0.16105458452E+03  0.36494298358E+03  0.12699999809E+01 0. -1.
</event>
<event>
 5   0  0.5113683E-03  0.7004848E+03  0.7818609E-02  0.9716404E-01
       -2   -1    0    0    0  501  0.00000000000E+00  0.00000000000E+00  0.25421565105E+03  0.25421565106E+03  0.25500000920E-02 0. -1.
        2   -1    0    0  501    0  0.00000000000E+00  0.00000000000E+00 -0.48254199797E+03  0.48254199798E+03  0.25500000920E-02 0.  1.
    10030    2    1    2    0    0  0.00000000000E+00  0.00000000000E+00 -0.22832634692E+03  0.73675764904E+03  0.70048476979E+03 0.  0.
        3    1    3    3  502    0 -0.18350696915E+03  0.16579009845E+03  0.14668855164E+03  0.28753905101E+03  0.10100000352E+00 0. -1.
       -3    1    3    3    0  502  0.18350696915E+03 -0.16579009845E+03 -0.37501489856E+03  0.44921859803E+03  0.10100000352E+00 0.  1.
</event>
<event>
 5   0  0.5072407E-03  0.7012551E+03  0.7818609E-02  0.9715088E-01
       -2   -1    0    0    0  501  0.00000000000E+00  0.00000000000E+00  0.11715257785E+03  0.11715257787E+03  0.25500000920E-02 0.  1.
        2   -1    0    0  501    0  0.00000000000E+00  0.00000000000E+00 -0.10493978506E+04  0.10493978506E+04  0.25500000920E-02 0. -1.
    10030    2    1    2    0    0  0.00000000000E+00  0.00000000000E+00 -0.93224527272E+03  0.11665504284E+04  0.70125505602E+03 0.  0.
        1    1    3    3  502    0 -0.17807114382E+03 -0.15411924146E+03 -0.33999723183E+02  0.23794548546E+03  0.50400001928E-02 0.  1.
       -1    1    3    3    0  502  0.17807114382E+03  0.15411924146E+03 -0.89824554953E+03  0.92860494298E+03  0.50400001928E-02 0. -1.
</event>
<event>
 5   0  0.1981750E-03  0.6987271E+03  0.7818609E-02  0.9719412E-01
       -3   -1    0    0    0  501  0.00000000000E+00  0.00000000000E+00  0.35670961439E+03  0.35670962869E+03  0.10100000352E+00 0. -1.
        3   -1    0    0  501    0  0.00000000000E+00  0.00000000000E+00 -0.34216870888E+03  0.34216872379E+03  0.10100000352E+00 0.  1.
    10030    2    1    2    0    0  0.00000000000E+00  0.00000000000E+00  0.14540905508E+02  0.69887835248E+03  0.69872706662E+03 0.  0.
        1    1    3    3  502    0 -0.13235115287E+03  0.45053134197E+02 -0.31296798975E+03  0.34277627573E+03  0.50400001928E-02 0.  1.
       -1    1    3    3    0  502  0.13235115287E+03 -0.45053134197E+02  0.32750889526E+03  0.35610207675E+03  0.50400001928E-02 0. -1.
</event>
<event>
 5   0  0.5113683E-03  0.7001482E+03  0.7818609E-02  0.9716979E-01
        2   -1    0    0  501    0  0.00000000000E+00  0.00000000000E+00  0.36112666033E+03  0.36112666034E+03  0.25500000920E-02 0.  1.
       -2   -1    0    0    0  501  0.00000000000E+00  0.00000000000E+00 -0.33935984294E+03  0.33935984295E+03  0.25500000920E-02 0. -1.
    10030    2    1    2    0    0  0.00000000000E+00  0.00000000000E+00  0.21766817386E+02  0.70048650329E+03  0.70014823213E+03 0.  0.
        3    1    3    3  502    0 -0.26548840209E+03  0.16971987479E+03  0.16347906082E+03  0.35498498711E+03  0.10100000352E+00 0.  1.
       -3    1    3    3    0  502  0.26548840209E+03 -0.16971987479E+03 -0.14171224343E+03  0.34550151618E+03  0.10100000352E+00 0. -1.
</event>
<event>
 5   0  0.5076796E-03  0.6996342E+03  0.7818609E-02  0.9717858E-01
        2   -1    0    0  501    0  0.00000000000E+00  0.00000000000E+00  0.85708095361E+03  0.85708095362E+03  0.25500000920E-02 0.  1.
       -2   -1    0    0    0  501  0.00000000000E+00  0.00000000000E+00 -0.14277766436E+03  0.14277766439E+03  0.25500000920E-02 0. -1.
    10030    2    1    2    0    0  0.00000000000E+00  0.00000000000E+00  0.71430328925E+03  0.99985861800E+03  0.69963423799E+03 0.  0.
        5    1    3    3  502    0 -0.26595379718E+02  0.30489996586E+02  0.85368052288E+03  0.85465167131E+03  0.46999998093E+01 0.  1.
       -5    1    3    3    0  502  0.26595379718E+02 -0.30489996586E+02 -0.13937723364E+03  0.14520694670E+03  0.46999998093E+01 0. -1.
</event>
<event>
 5   0  0.1981750E-03  0.6998498E+03  0.7818609E-02  0.9717489E-01
       -4   -1    0    0    0  501  0.00000000000E+00  0.00000000000E+00  0.58432176839E+03  0.58432314854E+03  0.12699999809E+01 0.  1.
        4   -1    0    0  501    0  0.00000000000E+00  0.00000000000E+00 -0.20955122800E+03  0.20955507643E+03  0.12699999809E+01 0. -1.
    10030    2    1    2    0    0  0.00000000000E+00  0.00000000000E+00  0.37477054039E+03  0.79387822496E+03  0.69984975397E+03 0.  0.
        4    1    3    3  502    0 -0.51425498877E+02  0.14338401034E+03 -0.16996768448E+03  0.22824150153E+03  0.12699999809E+01 0. -1.
       -4    1    3    3    0  502  0.51425498877E+02 -0.14338401034E+03  0.54473822487E+03  0.56563672343E+03  0.12699999809E+01 0.  1.
</event>
<event>
 5   0  0.2913582E-03  0.7004731E+03  0.7818609E-02  0.9716424E-01
       -1   -1    0    0    0  501  0.00000000000E+00  0.00000000000E+00  0.90273837251E+02  0.90273837391E+02  0.50400001928E-02 0.  1.
        1   -1    0    0  501    0  0.00000000000E+00  0.00000000000E+00 -0.13588170816E+04  0.13588170816E+04  0.50400001928E-02 0. -1.
    10030    2    1    2    0    0  0.00000000000E+00  0.00000000000E+00 -0.12685432444E+04  0.14490909190E+04  0.70047307497E+03 0.  0.
        1    1    3    3  502    0 -0.29839832047E+03 -0.77296913657E+02 -0.97826173313E+03  0.10256765519E+04  0.50400001928E-02 0. -1.
       -1    1    3    3    0  502  0.29839832047E+03  0.77296913657E+02 -0.29028151125E+03  0.42341436716E+03  0.50400001928E-02 0.  1.
</event>
<event>
 5   0  0.5072407E-03  0.7002468E+03  0.7818609E-02  0.9716810E-01
       -2   -1    0    0    0  501  0.00000000000E+00  0.00000000000E+00  0.21934623036E+03  0.21934623038E+03  0.25500000920E-02 0. -1.
        2   -1    0    0  501    0  0.00000000000E+00  0.00000000000E+00 -0.55887174645E+03  0.55887174646E+03  0.25500000920E-02 0.  1.
    10030    2    1    2    0    0  0.00000000000E+00  0.00000000000E+00 -0.33952551609E+03  0.77821797684E+03  0.70024684462E+03 0.  0.
        1    1    3    3  502    0 -0.10527288440E+03 -0.33006483392E+03 -0.11351892622E+03  0.36457059867E+03  0.50400001928E-02 0. -1.
       -1    1    3    3    0  502  0.10527288440E+03  0.33006483392E+03 -0.22600658987E+03  0.41364737817E+03  0.50400001928E-02 0.  1.
</event>
<event>
 5   0  0.2937617E-03  0.7014032E+03  0.7818609E-02  0.9714836E-01
        1   -1    0    0  501    0  0.00000000000E+00  0.00000000000E+00  0.19157435983E+03  0.19157435990E+03  0.50400001928E-02 0.  1.
       -1   -1    0    0    0  501  0.00000000000E+00  0.00000000000E+00 -0.64200452670E+03  0.64200452672E+03  0.50400001928E-02 0. -1.
    10030    2    1    2    0    0  0.00000000000E+00  0.00000000000E+00 -0.45043016687E+03  0.83357888662E+03  0.70140318291E+03 0.  0.
        3    1    3    3  502    0 -0.14393578732E+03  0.85786880957E+02  0.14092367519E+03  0.21894381071E+03  0.10100000352E+00 0.  1.
       -3    1    3    3    0  502  0.14393578732E+03 -0.85786880957E+02 -0.59135384206E+03  0.61463507591E+03  0.10100000352E+00 0. -1.
</event>
<event>
 5   0  0.3013140E-03  0.7014181E+03  0.7818609E-02  0.9714810E-01
       -1   -1    0    0    0  501  0.00000000000E+00  0.00000000000E+00  0.11770437932E+03  0.11770437942E+03  0.50400001928E-02 0. -1.
        1   -1    0    0  501    0  0.00000000000E+00  0.00000000000E+00 -0.10449639605E+04  0.10449639605E+04  0.50400001928E-02 0.  1.
    10030    2    1    2    0    0  0.00000000000E+00  0.00000000000E+00 -0.92725958117E+03  0.11626683399E+04  0.70141809058E+03 0.  0.
        2    1    3    3  502    0  0.32534890046E+03  0.28726480649E+02 -0.25187405046E+03  0.41245321556E+03  0.25500000920E-02 0. -1.
       -2    1    3    3    0  502 -0.32534890046E+03 -0.28726480649E+02 -0.67538553071E+03  0.75021512436E+03  0.25500000920E-02 0.  1.
</event>
<event>
 5   0  0.2938783E-03  0.7010919E+03  0.7818609E-02  0.9715367E-01
        1   -1    0    0  501    0  0.00000000000E+00  0.00000000000E+00  0.58237944729E+03  0.58237944732E+03  0.50400001928E-02 0. -1.
       -1   -1    0    0    0  501  0.00000000000E+00  0.00000000000E+00 -0.21100069002E+03  0.21100069008E+03  0.50400001928E-02 0.  1.
    10030    2    1    2    0    0  0.00000000000E+00  0.00000000000E+00  0.37137875727E+03  0.79338013739E+03  0.70109190628E+03 0.  0.
        4    1    3    3  502    0 -0.16699479822E+03 -0.39613669076E+02  0.53157810363E+03  0.55859949747E+03  0.12699999809E+01 0. -1.
       -4    1    3    3    0  502  0.16699479822E+03  0.39613669076E+02 -0.16019934636E+03  0.23478063993E+03  0.12699999809E+01 0.  1.
</event>
<event>
 5   0  0.4878235E-03  0.6990810E+03  0.7818609E-02  0.9718805E-01
        2   -1    0    0  501    0  0.00000000000E+00  0.00000000000E+00  0.10046219394E+04  0.10046219394E+04  0.25500000920E-02 0. -1.
       -2   -1    0    0    0  501  0.00000000000E+00  0.00000000000E+00 -0.12161644430E+03  0.12161644433E+03  0.25500000920E-02 0.  1.
    10030    2    1    2    0    0  0.00000000000E+00  0.00000000000E+00  0.88300549506E+03  0.11262383837E+04  0.69908096284E+03 0.  0.
        4    1    3    3  502    0  0.16206198072E+03 -0.14989682824E+02  0.93984986266E+03  0.95383864119E+03  0.12699999809E+01 0. -1.
       -4    1    3    3    0  502 -0.16206198072E+03  0.14989682824E+02 -0.56844367600E+02  0.17239974250E+03  0.12699999809E+01 0.  1.
</event>
<event>
 5   0  0.2934483E-03  0.6998751E+03  0.7818609E-02  0.9717446E-01
        1   -1    0    0  501    0  0.00000000000E+00  0.00000000000E+00  0.44185077819E+03  0.44185077822E+03  0.50400001928E-02 0. -1.
       -1   -1    0    0    0  501  0.00000000000E+00  0.00000000000E+00 -0.27714398964E+03  0.27714398969E+03  0.50400001928E-02 0.  1.
    10030    2    1    2    0    0  0.00000000000E+00  0.00000000000E+00  0.16470678855E+03  0.71899476791E+03  0.69987509606E+03 0.  0.
        5    1    3    3  502    0 -0.27637985615E+02 -0.91734266459E+02  0.42808110932E+03  0.43869643268E+03  0.46999998093E+01 0. -1.
       -5    1    3    3    0  502  0.27637985615E+02  0.91734266459E+02 -0.26337432077E+03  0.28029833523E+03  0.46999998093E+01 0.  1.
</event>
<event>
 5   0  0.2937617E-03  0.6996546E+03  0.7818609E-02  0.9717823E-01
        1   -1    0    0  501    0  0.00000000000E+00  0.00000000000E+00  0.43013689153E+03  0.43013689156E+03  0.50400001928E-02 0.  1.
       -1   -1    0    0    0  501  0.00000000000E+00  0.00000000000E+00 -0.28451209961E+03  0.28451209965E+03  0.50400001928E-02 0. -1.
    10030    2    1    2    0    0  0.00000000000E+00  0.00000000000E+00  0.14562479192E+03  0.71464899121E+03  0.69965462952E+03 0.  0.
        3    1    3    3  502    0 -0.22526782629E+03 -0.97914962457E+02 -0.18161665025E+03  0.30547921580E+03  0.10100000352E+00 0. -1.
       -3    1    3    3    0  502  0.22526782629E+03  0.97914962457E+02  0.32724144217E+03  0.40916977541E+03  0.10100000352E+00 0.  1.
</event>
<event>
 5   0  0.2934483E-03  0.7004354E+03  0.7818609E-02  0.9716488E-01
       -1   -1    0    0    0  501  0.00000000000E+00  0.00000000000E+00  0.45318779298E+03  0.45318779301E+03  0.50400001928E-02 0.  1.
        1   -1    0    0  501    0  0.00000000000E+00  0.00000000000E+00 -0.27064375574E+03  0.27064375579E+03  0.50400001928E-02 0. -1.
    10030    2    1    2    0    0  0.00000000000E+00  0.00000000000E+00  0.18254403724E+03  0.72383154880E+03  0.70043542565E+03 0.  0.
        5    1    3    3  502    0 -0.28475371310E+03  0.23996035815E+02 -0.11789908873E+03  0.30916463572E+03  0.46999998093E+01 0. -1.
       -5    1    3    3    0  502  0.28475371310E+03 -0.23996035815E+02  0.30044312597E+03  0.41466691308E+03  0.46999998093E+01 0.  1.
</event>
<event>
 5   0  0.5076796E-03  0.7003575E+03  0.7818609E-02  0.9716621E-01
       -2   -1    0    0    0  501  0.00000000000E+00  0.00000000000E+00  0.15788664860E+03  0.15788664862E+03  0.25500000920E-02 0. -1.
        2   -1    0    0  501    0  0.00000000000E+00  0.00000000000E+00 -0.77666580120E+03  0.77666580121E+03  0.25500000920E-02 0.  1.
    10030    2    1    2    0    0  0.00000000000E+00  0.00000000000E+00 -0.61877915261E+03  0.93455244983E+03  0.70035750997E+03 0.  0.
        5    1    3    3  502    0  0.15220700712E+03  0.11995603925E+03  0.79756347743E+02  0.20961772199E+03  0.46999998093E+01 0. -1.
       -5    1    3    3    0  502 -0.15220700712E+03 -0.11995603925E+03 -0.69853550035E+03  0.72493472783E+03  0.46999998093E+01 0.  1.
</event>
<event>
 5   0  0.5072407E-03  0.6957179E+03  0.7818609E-02  0.9724583E-01
       -2   -1    0    0    0  501  0.00000000000E+00  0.00000000000E+00  0.48488201358E+02  0.48488201425E+02  0.25500000920E-02 0. -1.
        2   -1    0    0  501    0  0.00000000000E+00  0.00000000000E+00 -0.24955732779E+04  0.24955732779E+04  0.25500000920E-02 0.  1.
    10030    2    1    2    0    0  0.00000000000E+00  0.00000000000E+00 -0.24470850765E+04  0.25440614793E+04  0.69571793045E+03 0.  0.
        1    1    3    3  502    0 -0.16381527258E+03 -0.25386864123E+03 -0.18539582930E+04  0.18784158439E+04  0.50400001928E-02 0.  1.
       -1    1    3    3    0  502  0.16381527258E+03  0.25386864123E+03 -0.59312678350E+03  0.66564563535E+03  0.50400001928E-02 0. -1.
</event>
<event>
 5   0  0.3013140E-03  0.7071385E+03  0.7818609E-02  0.9705102E-01
       -1   -1    0    0    0  501  0.00000000000E+00  0.00000000000E+00  0.17753344433E+03  0.17753344441E+03  0.50400001928E-02 0. -1.
        1   -1    0    0  501    0  0.00000000000E+00  0.00000000000E+00 -0.70415594307E+03  0.70415594308E+03  0.50400001928E-02 0.  1.
    10030    2    1    2    0    0  0.00000000000E+00  0.00000000000E+00 -0.52662249873E+03  0.88168938749E+03  0.70713854360E+03 0.  0.
        2    1    3    3  502    0  0.19093248290E+03 -0.29738658691E+03 -0.24981107182E+03  0.43278119958E+03  0.25500000920E-02 0.  1.
       -2    1    3    3    0  502 -0.19093248290E+03  0.29738658691E+03 -0.27681142691E+03  0.44890818791E+03  0.25500000920E-02 0. -1.
</event>
<event>
 5   0  0.1981750E-03  0.6997434E+03  0.7818609E-02  0.9717671E-01
        4   -1    0    0  501    0  0.00000000000E+00  0.00000000000E+00  0.10047644963E+04  0.10047652989E+04  0.12699999809E+01 0. -1.
       -4   -1    0    0    0  501  0.00000000000E+00  0.00000000000E+00 -0.12182558562E+03  0.12183220515E+03  0.12699999809E+01 0.  1.
    10030    2    1    2    0    0  0.00000000000E+00  0.00000000000E+00  0.88293891067E+03  0.11265975041E+04  0.69974339310E+03 0.  0.
        4    1    3    3  502    0 -0.12441829856E+03 -0.26097516262E+03  0.12424888742E+03  0.31468610939E+03  0.12699999809E+01 0.  1.
       -4    1    3    3    0  502  0.12441829856E+03  0.26097516262E+03  0.75869002325E+03  0.81191139467E+03  0.12699999809E+01 0. -1.
</event>
<event>
 5   0  0.5072407E-03  0.7008190E+03  0.7818609E-02  0.9715833E-01
       -2   -1    0    0    0  501  0.00000000000E+00  0.00000000000E+00  0.14973661133E+03  0.14973661135E+03  0.25500000920E-02 0.  1.
        2   -1    0    0  501    0  0.00000000000E+00  0.00000000000E+00 -0.82001875388E+03  0.82001875389E+03  0.25500000920E-02 0. -1.
    10030    2    1    2    0    0  0.00000000000E+00  0.00000000000E+00 -0.67028214256E+03  0.96975536524E+03  0.70081903355E+03 0.  0.
        1    1    3    3  502    0  0.70811041891E+02  0.19981909030E+03 -0.72121595030E+03  0.75172755670E+03  0.50400001928E-02 0. -1.
       -1    1    3    3    0  502 -0.70811041891E+02 -0.19981909030E+03  0.50933807745E+02  0.21802780854E+03  0.50400001928E-02 0.  1.
</event>
<event>
 5   0  0.2934483E-03  0.6992285E+03  0.7818609E-02  0.9718553E-01
       -1   -1    0    0    0  501  0.00000000000E+00  0.00000000000E+00  0.36519481544E+03  0.36519481547E+03  0.50400001928E-02 0.  1.
        1   -1    0    0  501    0  0.00000000000E+00  0.00000000000E+00 -0.33469838923E+03  0.33469838927E+03  0.50400001928E-02 0. -1.
    10030    2    1    2    0    0  0.00000000000E+00  0.00000000000E+00  0.30496426203E+02  0.69989320474E+03  0.69922847913E+03 0.  0.
        5    1    3    3  502    0 -0.95214716032E+02  0.12183007583E+03  0.32907396734E+03  0.36362092281E+03  0.46999998093E+01 0.  1.
       -5    1    3    3    0  502  0.95214716032E+02 -0.12183007583E+03 -0.29857754114E+03  0.33627228193E+03  0.46999998093E+01 0. -1.
</event>
<event>
 5   0  0.5072407E-03  0.7003067E+03  0.7818609E-02  0.9716708E-01
       -2   -1    0    0    0  501  0.00000000000E+00  0.00000000000E+00  0.34868948095E+03  0.34868948096E+03  0.25500000920E-02 0. -1.
        2   -1    0    0  501    0  0.00000000000E+00  0.00000000000E+00 -0.35162334860E+03  0.35162334861E+03  0.25500000920E-02 0.  1.
    10030    2    1    2    0    0  0.00000000000E+00  0.00000000000E+00 -0.29338676472E+01  0.70031282957E+03  0.70030668402E+03 0.  0.
        1    1    3    3  502    0  0.23519421665E+03 -0.25553161381E+03 -0.46128692630E+02  0.35034351930E+03  0.50400001928E-02 0.  1.
       -1    1    3    3    0  502 -0.23519421665E+03  0.25553161381E+03  0.43194824983E+02  0.34996931028E+03  0.50400001928E-02 0. -1.
</event>
<event>
 5   0  0.5113683E-03  0.7004957E+03  0.7818609E-02  0.9716385E-01
       -2   -1    0    0    0  501  0.00000000000E+00  0.00000000000E+00  0.25848481639E+03  0.25848481640E+03  0.25500000920E-02 0. -1.
        2   -1    0    0  501    0  0.00000000000E+00  0.00000000000E+00 -0.47458708642E+03  0.47458708643E+03  0.25500000920E-02 0.  1.
    10030    2    1    2    0    0  0.00000000000E+00  0.00000000000E+00 -0.21610227003E+03  0.73307190283E+03  0.70049569850E+03 0.  0.
        3    1    3    3  502    0 -0.31849134228E+02  0.52309535811E+01  0.25692519171E+03  0.25894457817E+03  0.10100000352E+00 0. -1.
       -3    1    3    3    0  502  0.31849134228E+02 -0.52309535811E+01 -0.47302746175E+03  0.47412732466E+03  0.10100000352E+00 0.  1.
</event>
<event>
 5   0  0.2938783E-03  0.7001155E+03  0.7818609E-02  0.9717035E-01
       -1   -1    0    0    0  501  0.00000000000E+00  0.00000000000E+00  0.32673925304E+03  0.32673925308E+03  0.50400001928E-02 0.  1.
        1   -1    0    0  501    0  0.00000000000E+00  0.00000000000E+00 -0.37504046451E+03  0.37504046454E+03  0.50400001928E-02 0. -1.
    10030    2    1    2    0    0  0.00000000000E+00  0.00000000000E+00 -0.48301211470E+02  0.70177971762E+03  0.70011553692E+03 0.  0.
        4    1    3    3  502    0  0.19353585445E+03 -0.26559560956E+03  0.96724896802E+02  0.34257039180E+03  0.12699999809E+01 0. -1.
       -4    1    3    3    0  502 -0.19353585445E+03  0.26559560956E+03 -0.14502610827E+03  0.35920932582E+03  0.12699999809E+01 0.  1.
</event>
<event>
 5   0  0.2938783E-03  0.6983051E+03  0.7818609E-02  0.9720135E-01
       -1   -1    0    0    0  501  0.00000000000E+00  0.00000000000E+00  0.13501619664E+03  0.13501619674E+03  0.50400001928E-02 0.  1.
        1   -1    0    0  501    0  0.00000000000E+00  0.00000000000E+00 -0.90291025350E+03  0.90291025351E+03  0.50400001928E-02 0. -1.
    10030    2    1    2    0    0  0.00000000000E+00  0.00000000000E+00 -0.76789405685E+03  0.10379264502E+04  0.69830511496E+03 0.  0.
        4    1    3    3  502    0  0.15118804276E+03  0.35510017310E+01 -0.85170017906E+03  0.86502326085E+03  0.12699999809E+01 0. -1.
       -4    1    3    3    0  502 -0.15118804276E+03 -0.35510017310E+01  0.83806122213E+02  0.17290318940E+03  0.12699999809E+01 0.  1.
</event>
<event>
 5   0  0.2913582E-03  0.6988266E+03  0.7818609E-02  0.9719241E-01
       -1   -1    0    0    0  501  0.00000000000E+00  0.00000000000E+00  0.11644023065E+04  0.11644023065E+04  0.50400001928E-02 0. -1.
        1   -1    0    0  501    0  0.00000000000E+00  0.00000000000E+00 -0.10485179282E+03  0.10485179294E+03  0.50400001928E-02 0.  1.
    10030    2    1    2    0    0  0.00000000000E+00  0.00000000000E+00  0.10595505137E+04  0.12692540994E+04  0.69882664368E+03 0.  0.
        1    1    3    3  502    0 -0.28170875892E+03  0.16275362158E+02  0.15549711440E+03  0.32218638221E+03  0.50400001928E-02 0.  1.
       -1    1    3    3    0  502  0.28170875892E+03 -0.16275362158E+02  0.90405339927E+03  0.94706771723E+03  0.50400001928E-02 0. -1.
</event>
<event>
 5   0  0.5076796E-03  0.7004482E+03  0.7818609E-02  0.9716466E-01
        2   -1    0    0  501    0  0.00000000000E+00  0.00000000000E+00  0.11940873694E+04  0.11940873694E+04  0.25500000920E-02 0.  1.
       -2   -1    0    0    0  501  0.00000000000E+00  0.00000000000E+00 -0.10272022770E+03  0.10272022774E+03  0.25500000920E-02 0. -1.
    10030    2    1    2    0    0  0.00000000000E+00  0.00000000000E+00  0.10913671417E+04  0.12968075971E+04  0.70044821793E+03 0.  0.
        5    1    3    3  502    0  0.34812734395E+03 -0.37583788387E+02  0.53560276211E+03  0.63991999307E+03  0.46999998093E+01 0. -1.
       -5    1    3    3    0  502 -0.34812734395E+03  0.37583788387E+02  0.55576437954E+03  0.65688760402E+03  0.46999998093E+01 0.  1.
</event>
<event>
 5   0  0.2913582E-03  0.6947186E+03  0.7818609E-02  0.9726307E-01
       -1   -1    0    0    0  501  0.00000000000E+00  0.00000000000E+00  0.46269257537E+03  0.46269257540E+03  0.50400001928E-02 0.  1.
        1   -1    0    0  501    0  0.00000000000E+00  0.00000000000E+00 -0.26077461942E+03  0.26077461946E+03  0.50400001928E-02 0. -1.
    10030    2    1    2    0    0  0.00000000000E+00  0.00000000000E+00  0.20191795596E+03  0.72346719486E+03  0.69471859131E+03 0.  0.
        1    1    3    3  502    0 -0.12314281569E+03  0.17981280856E+03 -0.18071826413E+03  0.28311815589E+03  0.50400001928E-02 0. -1.
       -1    1    3    3    0  502  0.12314281569E+03 -0.17981280856E+03  0.38263622009E+03  0.44034903897E+03  0.50400001928E-02 0.  1.
</event>
<event>
 5   0  0.1981750E-03  0.6995419E+03  0.7818609E-02  0.9718016E-01
        3   -1    0    0  501    0  0.00000000000E+00  0.00000000000E+00  0.68478366307E+03  0.68478367052E+03  0.10100000352E+00 0. -1.
       -3   -1    0    0    0  501  0.00000000000E+00  0.00000000000E+00 -0.17865453300E+03  0.17865456155E+03  0.10100000352E+00 0.  1.
    10030    2    1    2    0    0  0.00000000000E+00  0.00000000000E+00  0.50612913006E+03  0.86343823207E+03  0.69954191032E+03 0.  0.
        2    1    3    3  502    0  0.97042773801E+02 -0.17102495050E+03 -0.10396971340E+03  0.22243321458E+03  0.25500000920E-02 0.  1.
       -2    1    3    3    0  502 -0.97042773801E+02  0.17102495050E+03  0.61009884346E+03  0.64100501748E+03  0.25500000920E-02 0. -1.
</event>
<event>
 5   0  0.5076796E-03  0.7021448E+03  0.7818609E-02  0.9713571E-01
       -2   -1    0    0    0  501  0.00000000000E+00  0.00000000000E+00  0.28161044119E+03  0.28161044120E+03  0.25500000920E-02 0. -1.
        2   -1    0    0  501    0  0.00000000000E+00  0.00000000000E+00 -0.43766785379E+03  0.43766785379E+03  0.25500000920E-02 0.  1.
    10030    2    1    2    0    0  0.00000000000E+00  0.00000000000E+00 -0.15605741260E+03  0.71927829500E+03  0.70214482098E+03 0.  0.
        5    1    3    3  502    0  0.34105341843E+03 -0.58170292044E+02 -0.13887963133E+03  0.37284160054E+03  0.46999998093E+01 0.  1.
       -5    1    3    3    0  502 -0.34105341843E+03  0.58170292044E+02 -0.17177781264E+02  0.34643669446E+03  0.46999998093E+01 0. -1.
</event>
<event>
 5   0  0.5072407E-03  0.7001629E+03  0.7818609E-02  0.9716954E-01
       -2   -1    0    0    0  501  0.00000000000E+00  0.00000000000E+00  0.11500313906E+03  0.11500313909E+03  0.25500000920E-02 0. -1.
        2   -1    0    0  501    0  0.00000000000E+00  0.00000000000E+00 -0.10656840659E+04  0.10656840659E+04  0.25500000920E-02 0.  1.
    10030    2    1    2    0    0  0.00000000000E+00  0.00000000000E+00 -0.95068092681E+03  0.11806872050E+04  0.70016287487E+03 0.  0.
        1    1    3    3  502    0 -0.16483364530E+03  0.72854192041E+02  0.30773028350E+02  0.18282462422E+03  0.50400001928E-02 0. -1.
       -1    1    3    3    0  502  0.16483364530E+03 -0.72854192041E+02 -0.98145395516E+03  0.99786258074E+03  0.50400001928E-02 0.  1.
</event>
<event>
 5   0  0.4878235E-03  0.7006732E+03  0.7818609E-02  0.9716082E-01
       -2   -1    0    0    0  501  0.00000000000E+00  0.00000000000E+00  0.24472895641E+03  0.24472895643E+03  0.25500000920E-02 0.  1.
        2   -1    0    0  501    0  0.00000000000E+00  0.00000000000E+00 -0.50151701196E+03  0.50151701197E+03  0.25500000920E-02 0. -1.
    10030    2    1    2    0    0  0.00000000000E+00  0.00000000000E+00 -0.25678805555E+03  0.74624596840E+03  0.70067320476E+03 0.  0.
        4    1    3    3  502    0  0.70502836704E+02 -0.32677838501E+03 -0.23999166115E+03  0.41152445033E+03  0.12699999809E+01 0. -1.
       -4    1    3    3    0  502 -0.70502836704E+02  0.32677838501E+03 -0.16796394402E+02  0.33472151807E+03  0.12699999809E+01 0.  1.
</event>
<event>
 5   0  0.5076796E-03  0.7002777E+03  0.7818609E-02  0.9716757E-01
        2   -1    0    0  501    0  0.00000000000E+00  0.00000000000E+00  0.46441698919E+03  0.46441698920E+03  0.25500000920E-02 0. -1.
       -2   -1    0    0    0  501  0.00000000000E+00  0.00000000000E+00 -0.26398093009E+03  0.26398093011E+03  0.25500000920E-02 0.  1.
    10030    2    1    2    0    0  0.00000000000E+00  0.00000000000E+00  0.20043605910E+03  0.72839791931E+03  0.70027774137E+03 0.  0.
        5    1    3    3  502    0 -0.10182836516E+03 -0.28225354655E+02  0.44740178260E+03  0.45973484931E+03  0.46999998093E+01 0. -1.
       -5    1    3    3    0  502  0.10182836516E+03  0.28225354655E+02 -0.24696572350E+03  0.26866307000E+03  0.46999998093E+01 0.  1.
</event>
<event>
 5   0  0.2938783E-03  0.7008356E+03  0.7818609E-02  0.9715804E-01
       -1   -1    0    0    0  501  0.00000000000E+00  0.00000000000E+00  0.71708969051E+03  0.71708969053E+03  0.50400001928E-02 0.  1.
        1   -1    0    0  501    0  0.00000000000E+00  0.00000000000E+00 -0.17123746463E+03  0.17123746471E+03  0.50400001928E-02 0. -1.
    10030    2    1    2    0    0  0.00000000000E+00  0.00000000000E+00  0.54585222588E+03  0.88832715523E+03  0.70083556005E+03 0.  0.
        4    1    3    3  502    0  0.18500649131E+03  0.29657295945E+03  0.24166969888E+03  0.42495738417E+03  0.12699999809E+01 0. -1.
       -4    1    3    3    0  502 -0.18500649131E+03 -0.29657295945E+03  0.30418252700E+03  0.46336977106E+03  0.12699999809E+01 0.  1.
</event>
<event>
 5   0  0.5072407E-03  0.7003317E+03  0.7818609E-02  0.9716665E-01
        2   -1    0    0  501    0  0.00000000000E+00  0.00000000000E+00  0.91511999164E+03  0.91511999164E+03  0.25500000920E-02 0. -1.
       -2   -1    0    0    0  501  0.00000000000E+00  0.00000000000E+00 -0.13398913710E+03  0.13398913712E+03  0.25500000920E-02 0.  1.
    10030    2    1    2    0    0  0.00000000000E+00  0.00000000000E+00  0.78113085454E+03  0.10491091288E+04  0.70033174434E+03 0.  0.
        1    1    3    3  502    0  0.11826970513E+03  0.10440599650E+03 -0.77736473973E+02  0.17587295036E+03  0.50400001928E-02 0.  1.
       -1    1    3    3    0  502 -0.11826970513E+03 -0.10440599650E+03  0.85886732852E+03  0.87323617840E+03  0.50400001928E-02 0. -1.
</event>
<event>
 5   0  0.2938783E-03  0.7005391E+03  0.7818609E-02  0.9716311E-01
       -1   -1    0    0    0  501  0.00000000000E+00  0.00000000000E+00  0.18325014988E+03  0.18325014995E+03  0.50400001928E-02 0. -1.
        1   -1    0    0  501    0  0.00000000000E+00  0.00000000000E+00 -0.66951524792E+03  0.66951524793E+03  0.50400001928E-02 0.  1.
    10030    2    1    2    0    0  0.00000000000E+00  0.00000000000E+00 -0.48626509803E+03  0.85276539789E+03  0.70053913400E+03 0.  0.
        4    1    3    3  502    0  0.95028687818E+02  0.12367314860E+03  0.13864473845E+03  0.20868511110E+03  0.12699999809E+01 0. -1.
       -4    1    3    3    0  502 -0.95028687818E+02 -0.12367314860E+03 -0.62490983649E+03  0.64408028679E+03  0.12699999809E+01 0.  1.
</event>
<event>
 5   0  0.3013140E-03  0.6948202E+03  0.7818609E-02  0.9726131E-01
        1   -1    0    0  501    0  0.00000000000E+00  0.00000000000E+00  0.15959028763E+03  0.15959028771E+03  0.50400001928E-02 0.  1.
       -1   -1    0    0    0  501  0.00000000000E+00  0.00000000000E+00 -0.75627277693E+03  0.75627277695E+03  0.50400001928E-02 0. -1.
    10030    2    1    2    0    0  0.00000000000E+00  0.00000000000E+00 -0.59668248930E+03  0.91586306466E+03  0.69482023587E+03 0.  0.
        2    1    3    3  502    0 -0.60635873775E+02  0.32682881019E+03 -0.16521662544E+03  0.37120117684E+03  0.25500000920E-02 0.  1.
       -2    1    3    3    0  502  0.60635873775E+02 -0.32682881019E+03 -0.43146586385E+03  0.54466188781E+03  0.25500000920E-02 0. -1.
</event>
<event>
 5   0  0.1981750E-03  0.7012568E+03  0.7818609E-02  0.9715085E-01
        4   -1    0    0  501    0  0.00000000000E+00  0.00000000000E+00  0.24869884754E+03  0.24870209020E+03  0.12699999809E+01 0.  1.
       -4   -1    0    0    0  501  0.00000000000E+00  0.00000000000E+00 -0.49432659794E+03  0.49432822935E+03  0.12699999809E+01 0. -1.
    10030    2    1    2    0    0  0.00000000000E+00  0.00000000000E+00 -0.24562775040E+03  0.74303031954E+03  0.70125677465E+03 0.  0.
        3    1    3    3  502    0 -0.20735094520E+03 -0.13001159534E+03  0.14322634802E+03  0.28356873306E+03  0.10100000352E+00 0.  1.
       -3    1    3    3    0  502  0.20735094520E+03  0.13001159534E+03 -0.38885409842E+03  0.45946158649E+03  0.10100000352E+00 0. -1.
</event>
<event>
 5   0  0.2913582E-03  0.7031439E+03  0.7818609E-02  0.9711871E-01
       -1   -1    0    0    0  501  0.00000000000E+00  0.00000000000E+00  0.59609967628E+03  0.59609967631E+03  0.50400001928E-02 0. -1.
        1   -1    0    0  501    0  0.00000000000E+00  0.00000000000E+00 -0.20735265258E+03  0.20735265264E+03  0.50400001928E-02 0.  1.
    10030    2    1    2    0    0  0.00000000000E+00  0.00000000000E+00  0.38874702371E+03  0.80345232894E+03  0.70314393721E+03 0.  0.
        1    1    3    3  502    0  0.17636489841E+03 -0.15566257436E+03 -0.10418033341E+03  0.25727214451E+03  0.50400001928E-02 0.  1.
       -1    1    3    3    0  502 -0.17636489841E+03  0.15566257436E+03  0.49292735712E+03  0.54618018443E+03  0.50400001928E-02 0. -1.
</event>
<event>
 5   0  0.2938783E-03  0.6997686E+03  0.7818609E-02  0.9717628E-01
        1   -1    0    0  501    0  0.00000000000E+00  0.00000000000E+00  0.94894297642E+03  0.94894297643E+03  0.50400001928E-02 0.  1.
       -1   -1    0    0    0  501  0.00000000000E+00  0.00000000000E+00 -0.12900565653E+03  0.12900565663E+03  0.50400001928E-02 0. -1.
    10030    2    1    2    0    0  0.00000000000E+00  0.00000000000E+00  0.81993731989E+03  0.10779486331E+04  0.69976856672E+03 0.  0.
        4    1    3    3  502    0 -0.10272175701E+03 -0.32791666186E+03  0.51140729905E+03  0.61613321198E+03  0.12699999809E+01 0.  1.
       -4    1    3    3    0  502  0.10272175701E+03  0.32791666186E+03  0.30853002084E+03  0.46181542108E+03  0.12699999809E+01 0. -1.
</event>
<event>
 5   0  0.4878235E-03  0.7060001E+03  0.7818609E-02  0.9707026E-01
        2   -1    0    0  501    0  0.00000000000E+00  0.00000000000E+00  0.10051691591E+04  0.10051691591E+04  0.25500000920E-02 0. -1.
       -2   -1    0    0    0  501  0.00000000000E+00  0.00000000000E+00 -0.12396820690E+03  0.12396820692E+03  0.25500000920E-02 0.  1.
    10030    2    1    2    0    0  0.00000000000E+00  0.00000000000E+00  0.88120095218E+03  0.11291373660E+04  0.70600005182E+03 0.  0.
        4    1    3    3  502    0 -0.23704811561E+03 -0.15266748932E+03  0.78028046205E+03  0.82966160799E+03  0.12699999809E+01 0. -1.
       -4    1    3    3    0  502  0.23704811561E+03  0.15266748932E+03  0.10092049013E+03  0.29947575801E+03  0.12699999809E+01 0.  1.
</event>
<event>
 5   0  0.4878235E-03  0.6965469E+03  0.7818609E-02  0.9723156E-01
       -2   -1    0    0    0  501  0.00000000000E+00  0.00000000000E+00  0.78688776851E+02  0.78688776892E+02  0.25500000920E-02 0.  1.
        2   -1    0    0  501    0  0.00000000000E+00  0.00000000000E+00 -0.15414447267E+04  0.15414447267E+04  0.25500000920E-02 0. -1.
    10030    2    1    2    0    0  0.00000000000E+00  0.00000000000E+00 -0.14627559498E+04  0.16201335036E+04  0.69654691202E+03 0.  0.
        4    1    3    3  502    0  0.24600788093E+02 -0.24793789338E+03 -0.12973748846E+04  0.13210834954E+04  0.12699999809E+01 0. -1.
       -4    1    3    3    0  502 -0.24600788093E+02  0.24793789338E+03 -0.16538106523E+03  0.29905000817E+03  0.12699999809E+01 0.  1.
</event>
<event>
 5   0  0.2937617E-03  0.7018212E+03  0.7818609E-02  0.9714123E-01
       -1   -1    0    0    0  501  0.00000000000E+00  0.00000000000E+00  0.35153204426E+03  0.35153204429E+03  0.50400001928E-02 0. -1.
        1   -1    0    0  501    0  0.00000000000E+00  0.00000000000E+00 -0.35029029989E+03  0.35029029993E+03  0.50400001928E-02 0.  1.
    10030    2    1    2    0    0  0.00000000000E+00  0.00000000000E+00  0.12417443639E+01  0.70182234423E+03  0.70182124571E+03 0.  0.
        3    1    3    3  502    0  0.29692055847E+03 -0.99890811032E+02  0.15872950924E+03  0.35119091600E+03  0.10100000352E+00 0. -1.
       -3    1    3    3    0  502 -0.29692055847E+03  0.99890811032E+02 -0.15748776488E+03  0.35063142823E+03  0.10100000352E+00 0.  1.
</event>
<event>
 5   0  0.5023894E-03  0.7010135E+03  0.7818609E-02  0.9715501E-01
        2   -1    0    0  501    0  0.00000000000E+00  0.00000000000E+00  0.13468868207E+04  0.13468868207E+04  0.25500000920E-02 0. -1.
       -2   -1    0    0    0  501  0.00000000000E+00  0.00000000000E+00 -0.91214029369E+02  0.91214029405E+02  0.25500000920E-02 0.  1.
    10030    2    1    2    0    0  0.00000000000E+00  0.00000000000E+00  0.12556727913E+04  0.14381008501E+04  0.70101347788E+03 0.  0.
        2    1    3    3  502    0 -0.20015440325E+02 -0.18301377407E+03  0.15963620029E+02  0.18479582388E+03  0.25500000920E-02 0.  1.
       -2    1    3    3    0  502  0.20015440325E+02  0.18301377407E+03  0.12397091713E+04  0.12533050262E+04  0.25500000920E-02 0. -1.
</event>
<event>
 5   0  0.2934483E-03  0.6979240E+03  0.7818609E-02  0.9720789E-01
        1   -1    0    0  501    0  0.00000000000E+00  0.00000000000E+00  0.85158119024E+03  0.85158119026E+03  0.50400001928E-02 0.  1.
       -1   -1    0    0    0  501  0.00000000000E+00  0.00000000000E+00 -0.14299807369E+03  0.14299807378E+03  0.50400001928E-02 0. -1.
    10030    2    1    2    0    0  0.00000000000E+00  0.00000000000E+00  0.70858311655E+03  0.99457926404E+03  0.69792397823E+03 0.  0.
        5    1    3    3  502    0  0.48238180712E+01 -0.34861014038E+03  0.33413419018E+03  0.48292861403E+03  0.46999998093E+01 0.  1.
       -5    1    3    3    0  502 -0.48238180712E+01  0.34861014038E+03  0.37444892637E+03  0.51165065001E+03  0.46999998093E+01 0. -1.
</event>
<event>
 5   0  0.5072407E-03  0.7019008E+03  0.7818609E-02  0.9713987E-01
       -2   -1    0    0    0  501  0.00000000000E+00  0.00000000000E+00  0.25676323835E+03  0.25676323836E+03  0.25500000920E-02 0. -1.
        2   -1    0    0  501    0  0.00000000000E+00  0.00000000000E+00 -0.47968780140E+03  0.47968780141E+03  0.25500000920E-02 0.  1.
    10030    2    1    2    0    0  0.00000000000E+00  0.00000000000E+00 -0.22292456305E+03  0.73645103977E+03  0.70190082858E+03 0.  0.
        1    1    3    3  502    0 -0.12951133520E+03  0.32419013047E+03 -0.73722785432E+02  0.35680173171E+03  0.50400001928E-02 0. -1.
       -1    1    3    3    0  502  0.12951133520E+03 -0.32419013047E+03 -0.14920177762E+03  0.37964930806E+03  0.50400001928E-02 0.  1.
</event>
<event>
 5   0  0.4878235E-03  0.7003844E+03  0.7818609E-02  0.9716575E-01
       -2   -1    0    0    0  501  0.00000000000E+00  0.00000000000E+00  0.33967675871E+03  0.33967675872E+03  0.25500000920E-02 0.  1.
        2   -1    0    0  501    0  0.00000000000E+00  0.00000000000E+00 -0.36103313637E+03  0.36103313638E+03  0.25500000920E-02 0. -1.
    10030    2    1    2    0    0  0.00000000000E+00  0.00000000000E+00 -0.21356377667E+02  0.70070989510E+03  0.70038436749E+03 0.  0.
        4    1    3    3  502    0  0.27240131841E+03  0.53902640830E+02 -0.22414319326E+03  0.35686097706E+03  0.12699999809E+01 0. -1.
       -4    1    3    3    0  502 -0.27240131841E+03 -0.53902640830E+02  0.20278681559E+03  0.34384891804E+03  0.12699999809E+01 0.  1.
</event>
<event>
 5   0  0.2937617E-03  0.6999985E+03  0.7818609E-02  0.9717235E-01
        1   -1    0    0  501    0  0.00000000000E+00  0.00000000000E+00  0.73485233367E+03  0.73485233369E+03  0.50400001928E-02 0.  1.
       -1   -1    0    0    0  501  0.00000000000E+00  0.00000000000E+00 -0.16669945055E+03  0.16669945062E+03  0.50400001928E-02 0. -1.
    10030    2    1    2    0    0  0.00000000000E+00  0.00000000000E+00  0.56815288312E+03  0.90155178431E+03  0.69999851514E+03 0.  0.
        3    1    3    3  502    0 -0.98518078997E+02 -0.19875278783E+03  0.63274986449E+03  0.67050792968E+03  0.10100000352E+00 0.  1.
       -3    1    3    3    0  502  0.98518078997E+02  0.19875278783E+03 -0.64596981364E+02  0.23104385463E+03  0.10100000352E+00 0. -1.
</event>
<event>
 5   0  0.4878235E-03  0.6984483E+03  0.7818609E-02  0.9719890E-01
       -2   -1    0    0    0  501  0.00000000000E+00  0.00000000000E+00  0.11096965358E+03  0.11096965361E+03  0.25500000920E-02 0.  1.
        2   -1    0    0  501    0  0.00000000000E+00  0.00000000000E+00 -0.10990166299E+04  0.10990166299E+04  0.25500000920E-02 0. -1.
    10030    2    1    2    0    0  0.00000000000E+00  0.00000000000E+00 -0.98804697633E+03  0.12099862835E+04  0.69844826498E+03 0.  0.
        4    1    3    3  502    0 -0.32887311475E+03 -0.59556408869E+02 -0.31862025669E+03  0.46176289621E+03  0.12699999809E+01 0. -1.
       -4    1    3    3    0  502  0.32887311475E+03  0.59556408869E+02 -0.66942671964E+03  0.74822338731E+03  0.12699999809E+01 0.  1.
</event>
<event>
 5   0  0.5076796E-03  0.6960143E+03  0.7818609E-02  0.9724073E-01
       -2   -1    0    0    0  501  0.00000000000E+00  0.00000000000E+00  0.10123612316E+03  0.10123612319E+03  0.25500000920E-02 0.  1.
        2   -1    0    0  501    0  0.00000000000E+00  0.00000000000E+00 -0.11963020315E+04  0.11963020315E+04  0.25500000920E-02 0. -1.
    10030    2    1    2    0    0  0.00000000000E+00  0.00000000000E+00 -0.10950659084E+04  0.12975381547E+04  0.69601430968E+03 0.  0.
        5    1    3    3  502    0 -0.20459076283E+03  0.28068596490E+03 -0.58685467680E+03  0.68195490526E+03  0.46999998093E+01 0. -1.
       -5    1    3    3    0  502  0.20459076283E+03 -0.28068596490E+03 -0.50821123159E+03  0.61558324948E+03  0.46999998093E+01 0.  1.
</event>
<event>
 5   0  0.5072407E-03  0.7002562E+03  0.7818609E-02  0.9716794E-01
        2   -1    0    0  501    0  0.00000000000E+00  0.00000000000E+00  0.12929070053E+04  0.12929070053E+04  0.25500000920E-02 0. -1.
       -2   -1    0    0    0  501  0.00000000000E+00  0.00000000000E+00 -0.94817091185E+02  0.94817091219E+02  0.25500000920E-02 0.  1.
    10030    2    1    2    0    0  0.00000000000E+00  0.00000000000E+00  0.11980899141E+04  0.13877240965E+04  0.70025618581E+03 0.  0.
        1    1    3    3  502    0 -0.15304197037E+03  0.18853138941E+03  0.99176406695E+02  0.26230114212E+03  0.50400001928E-02 0.  1.
       -1    1    3    3    0  502  0.15304197037E+03 -0.18853138941E+03  0.10989135074E+04  0.11254229544E+04  0.50400001928E-02 0. -1.
</event>
<event>
 5   0  0.2938783E-03  0.7016494E+03  0.7818609E-02  0.9714416E-01
        1   -1    0    0  501    0  0.00000000000E+00  0.00000000000E+00  0.35522327369E+03  0.35522327373E+03  0.50400001928E-02 0. -1.
       -1   -1    0    0    0  501  0.00000000000E+00  0.00000000000E+00 -0.34648064103E+03  0.34648064106E+03  0.50400001928E-02 0.  1.
    10030    2    1    2    0    0  0.00000000000E+00  0.00000000000E+00  0.87426326675E+01  0.70170391479E+03  0.70164944980E+03 0.  0.
        4    1    3    3  502    0  0.33203179458E+03  0.86834457656E+02  0.77116491506E+02  0.35175830027E+03  0.12699999809E+01 0. -1.
       -4    1    3    3    0  502 -0.33203179458E+03 -0.86834457656E+02 -0.68373858839E+02  0.34994561452E+03  0.12699999809E+01 0.  1.
</event>
<event>
 5   0  0.5072407E-03  0.7033666E+03  0.7818609E-02  0.9711492E-01
       -2   -1    0    0    0  501  0.00000000000E+00  0.00000000000E+00  0.30406114319E+03  0.30406114320E+03  0.25500000920E-02 0. -1.
        2   -1    0    0  501    0  0.00000000000E+00  0.00000000000E+00 -0.40676410988E+03  0.40676410989E+03  0.25500000920E-02 0.  1.
    10030    2    1    2    0    0  0.00000000000E+00  0.00000000000E+00 -0.10270296670E+03  0.71082525309E+03  0.70336664767E+03 0.  0.
        1    1    3    3  502    0  0.15893860994E+03  0.26018784758E+03  0.12578399503E+03  0.32981936145E+03  0.50400001928E-02 0. -1.
       -1    1    3    3    0  502 -0.15893860994E+03 -0.26018784758E+03 -0.22848696173E+03  0.38100589164E+03  0.50400001928E-02 0.  1.
</event>
<event>
 5   0  0.3013140E-03  0.7004110E+03  0.7818609E-02  0.9716530E-01
       -1   -1    0    0    0  501  0.00000000000E+00  0.00000000000E+00  0.30241527656E+03  0.30241527661E+03  0.50400001928E-02 0. -1.
        1   -1    0    0  501    0  0.00000000000E+00  0.00000000000E+00 -0.40554795231E+03  0.40554795234E+03  0.50400001928E-02 0.  1.
    10030    2    1    2    0    0  0.00000000000E+00  0.00000000000E+00 -0.10313267575E+03  0.70796322895E+03  0.70041101129E+03 0.  0.
        2    1    3    3  502    0  0.28033320770E+03  0.83889041657E+02 -0.24604630534E+03  0.38231252010E+03  0.25500000920E-02 0.  1.
       -2    1    3    3    0  502 -0.28033320770E+03 -0.83889041657E+02  0.14291362959E+03  0.32565070885E+03  0.25500000920E-02 0. -1.
</event>
<event>
 5   0  0.5113683E-03  0.7001838E+03  0.7818609E-02  0.9716918E-01
        2   -1    0    0  501    0  0.00000000000E+00  0.00000000000E+00  0.48288755547E+03  0.48288755548E+03  0.25500000920E-02 0.  1.
       -2   -1    0    0    0  501  0.00000000000E+00  0.00000000000E+00 -0.25381551005E+03  0.25381551007E+03  0.25500000920E-02 0. -1.
    10030    2    1    2    0    0  0.00000000000E+00  0.00000000000E+00  0.22907204542E+03  0.73670306554E+03  0.70018383642E+03 0.  0.
        3    1    3    3  502    0 -0.15137520533E+03  0.69283289445E+00  0.44667340460E+03  0.47162704904E+03  0.10100000352E+00 0.  1.
       -3    1    3    3    0  502  0.15137520533E+03 -0.69283289445E+00 -0.21760135918E+03  0.26507601650E+03  0.10100000352E+00 0. -1.
</event>
<event>
 5   0  0.2938783E-03  0.6992713E+03  0.7818609E-02  0.9718479E-01
        1   -1    0    0  501    0  0.00000000000E+00  0.00000000000E+00  0.50300686201E+03  0.50300686204E+03  0.50400001928E-02 0.  1.
       -1   -1    0    0    0  501  0.00000000000E+00  0.00000000000E+00 -0.24302870081E+03  0.24302870087E+03  0.50400001928E-02 0. -1.
    10030    2    1    2    0    0  0.00000000000E+00  0.00000000000E+00  0.25997816120E+03  0.74603556290E+03  0.69927134706E+03 0.  0.
        4    1    3    3  502    0 -0.19118086089E+03 -0.11217016136E+03  0.41846251596E+03  0.47354488366E+03  0.12699999809E+01 0.  1.
       -4    1    3    3    0  502  0.19118086089E+03  0.11217016136E+03 -0.15848435477E+03  0.27249067925E+03  0.12699999809E+01 0. -1.
</event>
<event>
 5   0  0.2938783E-03  0.7017291E+03  0.7818609E-02  0.9714280E-01
        1   -1    0    0  501    0  0.00000000000E+00  0.00000000000E+00  0.20219852771E+03  0.20219852777E+03  0.50400001928E-02 0. -1.
       -1   -1    0    0    0  501  0.00000000000E+00  0.00000000000E+00 -0.60883700308E+03  0.60883700310E+03  0.50400001928E-02 0.  1.
    10030    2    1    2    0    0  0.00000000000E+00  0.00000000000E+00 -0.40663847537E+03  0.81103553088E+03  0.70172913769E+03 0.  0.
        4    1    3    3  502    0  0.10668786428E+03 -0.12235349923E+03  0.15618132045E+03  0.22527071917E+03  0.12699999809E+01 0. -1.
       -4    1    3    3    0  502 -0.10668786428E+03  0.12235349923E+03 -0.56281979582E+03  0.58576481170E+03  0.12699999809E+01 0.  1.
</event>
<event>
 5   0  0.5072407E-03  0.6983062E+03  0.7818609E-02  0.9720133E-01
       -2   -1    0    0    0  501  0.00000000000E+00  0.00000000000E+00  0.62004072672E+02  0.62004072725E+02  0.25500000920E-02 0. -1.
        2   -1    0    0  501    0  0.00000000000E+00  0.00000000000E+00 -0.19661269816E+04  0.19661269816E+04  0.25500000920E-02 0.  1.
    10030    2    1    2    0    0  0.00000000000E+00  0.00000000000E+00 -0.19041229089E+04  0.20281310543E+04  0.69830618014E+03 0.  0.
        1    1    3    3  502    0 -0.14456019063E+03  0.10340153331E+03 -0.18249084825E+04  0.18335431534E+04  0.50400001928E-02 0.  1.
       -1    1    3    3    0  502  0.14456019063E+03 -0.10340153331E+03 -0.79214426399E+02  0.19458790091E+03  0.50400001928E-02 0. -1.
</event>
<event>
 5   0  0.4878235E-03  0.6990122E+03  0.7818609E-02  0.9718923E-01
        2   -1    0    0  501    0  0.00000000000E+00  0.00000000000E+00  0.13774441423E+04  0.13774441423E+04  0.25500000920E-02 0.  1.
       -2   -1    0    0    0  501  0.00000000000E+00  0.00000000000E+00 -0.88682011943E+02  0.88682011980E+02  0.25500000920E-02 0. -1.
    10030    2    1    2    0    0  0.00000000000E+00  0.00000000000E+00  0.12887621304E+04  0.14661261543E+04  0.69901221136E+03 0.  0.
        4    1    3    3  502    0 -0.27002908202E+03  0.31093879125E+01  0.17901939631E+03  0.32399834966E+03  0.12699999809E+01 0.  1.
       -4    1    3    3    0  502  0.27002908202E+03 -0.31093879125E+01  0.11097427341E+04  0.11421278046E+04  0.12699999809E+01 0. -1.
</event>
<event>
 5   0  0.2934483E-03  0.7018630E+03  0.7818609E-02  0.9714052E-01
        1   -1    0    0  501    0  0.00000000000E+00  0.00000000000E+00  0.14044134099E+04  0.14044134099E+04  0.50400001928E-02 0.  1.
       -1   -1    0    0    0  501  0.00000000000E+00  0.00000000000E+00 -0.87689931506E+02  0.87689931651E+02  0.50400001928E-02 0. -1.
    10030    2    1    2    0    0  0.00000000000E+00  0.00000000000E+00  0.13167234784E+04  0.14921033415E+04  0.70186299470E+03 0.  0.
        5    1    3    3  502    0  0.75292980567E+02 -0.23296285370E+03  0.12395603505E+03  0.27445930982E+03  0.46999998093E+01 0. -1.
       -5    1    3    3    0  502 -0.75292980567E+02  0.23296285370E+03  0.11927674433E+04  0.12176440317E+04  0.46999998093E+01 0.  1.
</event>
<event>
 5   0  0.5072407E-03  0.6995686E+03  0.7818609E-02  0.9717970E-01
       -2   -1    0    0    0  501  0.00000000000E+00  0.00000000000E+00  0.21963792003E+03  0.21963792005E+03  0.25500000920E-02 0.  1.
        2   -1    0    0  501    0  0.00000000000E+00  0.00000000000E+00 -0.55704881406E+03  0.55704881407E+03  0.25500000920E-02 0. -1.
    10030    2    1    2    0    0  0.00000000000E+00  0.00000000000E+00 -0.33741089403E+03  0.77668673412E+03  0.69956856100E+03 0.  0.
        1    1    3    3  502    0 -0.68321905473E+02  0.15769976400E+03  0.16952876938E+03  0.24140650779E+03  0.50400001928E-02 0.  1.
       -1    1    3    3    0  502  0.68321905473E+02 -0.15769976400E+03 -0.50693966341E+03  0.53528022632E+03  0.50400001928E-02 0. -1.
</event>
<event>
 5   0  0.5113683E-03  0.6939294E+03  0.7818609E-02  0.9727670E-01
       -2   -1    0    0    0  501  0.00000000000E+00  0.00000000000E+00  0.18772367693E+03  0.18772367695E+03  0.25500000920E-02 0. -1.
        2   -1    0    0  501    0  0.00000000000E+00  0.00000000000E+00 -0.64128567223E+03  0.64128567224E+03  0.25500000920E-02 0.  1.
    10030    2    1    2    0    0  0.00000000000E+00  0.00000000000E+00 -0.45356199530E+03  0.82900934919E+03  0.69392940380E+03 0.  0.
        3    1    3    3  502    0  0.25571437169E+03 -0.46183982328E+02  0.47891183714E+02  0.26422788609E+03  0.10100000352E+00 0. -1.
       -3    1    3    3    0  502 -0.25571437169E+03  0.46183982328E+02 -0.50145317901E+03  0.56478146310E+03  0.10100000352E+00 0.  1.
</event>
<event>
 5   0  0.2913582E-03  0.6999794E+03  0.7818609E-02  0.9717267E-01
       -1   -1    0    0    0  501  0.00000000000E+00  0.00000000000E+00  0.43581139121E+03  0.43581139124E+03  0.50400001928E-02 0. -1.
        1   -1    0    0  501    0  0.00000000000E+00  0.00000000000E+00 -0.28106838330E+03  0.28106838335E+03  0.50400001928E-02 0.  1.
    10030    2    1    2    0    0  0.00000000000E+00  0.00000000000E+00  0.15474300791E+03  0.71687977459E+03  0.69997943735E+03 0.  0.
        1    1    3    3  502    0 -0.21336554185E+03  0.80396478324E+02 -0.19456594386E+03  0.29974047893E+03  0.50400001928E-02 0.  1.
       -1    1    3    3    0  502  0.21336554185E+03 -0.80396478324E+02  0.34930895176E+03  0.41713929566E+03  0.50400001928E-02 0. -1.
</event>
<event>
 5   0  0.2938783E-03  0.7001872E+03  0.7818609E-02  0.9716912E-01
        1   -1    0    0  501    0  0.00000000000E+00  0.00000000000E+00  0.53480568767E+03  0.53480568769E+03  0.50400001928E-02 0. -1.
       -1   -1    0    0    0  501  0.00000000000E+00  0.00000000000E+00 -0.22917768532E+03  0.22917768538E+03  0.50400001928E-02 0.  1.
    10030    2    1    2    0    0  0.00000000000E+00  0.00000000000E+00  0.30562800235E+03  0.76398337307E+03  0.70018720248E+03 0.  0.
        4    1    3    3  502    0  0.10845348891E+03 -0.26207120911E+03  0.37674601294E+03  0.47157464846E+03  0.12699999809E+01 0. -1.
       -4    1    3    3    0  502 -0.10845348891E+03  0.26207120911E+03 -0.71118010590E+02  0.29240872462E+03  0.12699999809E+01 0.  1.
</event>
<event>
 5   0  0.2937617E-03  0.6997944E+03  0.7818609E-02  0.9717584E-01
        1   -1    0    0  501    0  0.00000000000E+00  0.00000000000E+00  0.30842722589E+03  0.30842722593E+03  0.50400001928E-02 0.  1.
       -1   -1    0    0    0  501  0.00000000000E+00  0.00000000000E+00 -0.39694302754E+03  0.39694302757E+03  0.50400001928E-02 0. -1.
    10030    2    1    2    0    0  0.00000000000E+00  0.00000000000E+00 -0.88515801650E+02  0.70537025349E+03  0.69979436078E+03 0.  0.
        3    1    3    3  502    0  0.29564177364E+03  0.15296645120E+03 -0.15293737736E+03  0.36632314301E+03  0.10100000352E+00 0.  1.
       -3    1    3    3    0  502 -0.29564177364E+03 -0.15296645120E+03  0.64421575709E+02  0.33904711048E+03  0.10100000352E+00 0. -1.
</event>
<event>
 5   0  0.2934483E-03  0.6983853E+03  0.7818609E-02  0.9719998E-01
       -1   -1    0    0    0  501  0.00000000000E+00  0.00000000000E+00  0.82830392076E+03  0.82830392078E+03  0.50400001928E-02 0. -1.
        1   -1    0    0  501    0  0.00000000000E+00  0.00000000000E+00 -0.14721105458E+03  0.14721105466E+03  0.50400001928E-02 0.  1.
    10030    2    1    2    0    0  0.00000000000E+00  0.00000000000E+00  0.68109286619E+03  0.97551497544E+03  0.69838526254E+03 0.  0.
        5    1    3    3  502    0 -0.10191484850E+03 -0.29448479688E+03  0.12055152934E+03  0.33415968213E+03  0.46999998093E+01 0.  1.
       -5    1    3    3    0  502  0.10191484850E+03  0.29448479688E+03  0.56054133685E+03  0.64135529331E+03  0.46999998093E+01 0. -1.
</event>
<event>
 5   0  0.1981750E-03  0.7001963E+03  0.7818609E-02  0.9716897E-01
        3   -1    0    0  501    0  0.00000000000E+00  0.00000000000E+00  0.10222160314E+04  0.10222160364E+04  0.10100000352E+00 0.  1.
       -3   -1    0    0    0  501  0.00000000000E+00  0.00000000000E+00 -0.11990486179E+03  0.11990490433E+03  0.10100000352E+00 0. -1.
    10030    2    1    2    0    0  0.00000000000E+00  0.00000000000E+00  0.90231116961E+03  0.11421209407E+04  0.70019625564E+03 0.  0.
        5    1    3    3  502    0 -0.61800975036E+01  0.20187327439E+03 -0.15236376524E+02  0.20259627263E+03  0.46999998093E+01 0. -1.
       -5    1    3    3    0  502  0.61800975036E+01 -0.20187327439E+03  0.91754754613E+03  0.93952466808E+03  0.46999998093E+01 0.  1.
</event>
<event>
 5   0  0.1981750E-03  0.7016254E+03  0.7818609E-02  0.9714456E-01
       -3   -1    0    0    0  501  0.00000000000E+00  0.00000000000E+00  0.24280320109E+04  0.24280320130E+04  0.10100000352E+00 0.  1.
        3   -1    0    0  501    0  0.00000000000E+00  0.00000000000E+00 -0.50686909595E+02  0.50687010222E+02  0.10100000352E+00 0. -1.
    10030    2    1    2    0    0  0.00000000000E+00  0.00000000000E+00  0.23773451013E+04  0.24787190233E+04  0.70162544523E+03 0.  0.
        4    1    3    3  502    0  0.41205066799E+02 -0.77887075236E+02  0.23882922526E+04  0.23899175197E+04  0.12699999809E+01 0.  1.
       -4    1    3    3    0  502 -0.41205066799E+02  0.77887075236E+02 -0.10947151275E+02  0.88801503590E+02  0.12699999809E+01 0. -1.
</event>
<event>
 5   0  0.2937617E-03  0.7008294E+03  0.7818609E-02  0.9715815E-01
       -1   -1    0    0    0  501  0.00000000000E+00  0.00000000000E+00  0.57526220677E+03  0.57526220679E+03  0.50400001928E-02 0. -1.
        1   -1    0    0  501    0  0.00000000000E+00  0.00000000000E+00 -0.21345127582E+03  0.21345127588E+03  0.50400001928E-02 0.  1.
    10030    2    1    2    0    0  0.00000000000E+00  0.00000000000E+00  0.36181093095E+03  0.78871348267E+03  0.70082937153E+03 0.  0.
        3    1    3    3  502    0  0.73813661273E+02  0.30400118370E+03  0.32302434012E+01  0.31285079663E+03  0.10100000352E+00 0.  1.
       -3    1    3    3    0  502 -0.73813661273E+02 -0.30400118370E+03  0.35858068755E+03  0.47586268604E+03  0.10100000352E+00 0. -1.
</event>
<event>
 5   0  0.4878235E-03  0.7000008E+03  0.7818609E-02  0.9717231E-01
       -2   -1    0    0    0  501  0.00000000000E+00  0.00000000000E+00  0.54987193038E+02  0.54987193097E+02  0.25500000920E-02 0.  1.
        2   -1    0    0  501    0  0.00000000000E+00  0.00000000000E+00 -0.22277964196E+04  0.22277964196E+04  0.25500000920E-02 0. -1.
    10030    2    1    2    0    0  0.00000000000E+00  0.00000000000E+00 -0.21728092266E+04  0.22827836127E+04  0.70000077670E+03 0.  0.
        4    1    3    3  502    0 -0.20181385867E+03 -0.81675785033E+02 -0.19272266055E+03  0.29076348498E+03  0.12699999809E+01 0.  1.
       -4    1    3    3    0  502  0.20181385867E+03  0.81675785033E+02 -0.19800865660E+04  0.19920201277E+04  0.12699999809E+01 0. -1.
</event>
<event>
 5   0  0.5072407E-03  0.6990408E+03  0.7818609E-02  0.9718874E-01
        2   -1    0    0  501    0  0.00000000000E+00  0.00000000000E+00  0.11074401077E+04  0.11074401077E+04  0.25500000920E-02 0.  1.
       -2   -1    0    0    0  501  0.00000000000E+00  0.00000000000E+00 -0.11031251881E+03  0.11031251884E+03  0.25500000920E-02 0. -1.
    10030    2    1    2    0    0  0.00000000000E+00  0.00000000000E+00  0.99712758889E+03  0.12177526265E+04  0.69904079345E+03 0.  0.
        1    1    3    3  502    0 -0.34636166883E+03  0.29214852084E+02  0.56244192788E+03  0.66118139378E+03  0.50400001928E-02 0. -1.
       -1    1    3    3    0  502  0.34636166883E+03 -0.29214852084E+02  0.43468566100E+03  0.55657123275E+03  0.50400001928E-02 0.  1.
</event>
<event>
 5   0  0.3013140E-03  0.6987416E+03  0.7818609E-02  0.9719387E-01
        1   -1    0    0  501    0  0.00000000000E+00  0.00000000000E+00  0.27266368043E+03  0.27266368047E+03  0.50400001928E-02 0.  1.
       -1   -1    0    0    0  501  0.00000000000E+00  0.00000000000E+00 -0.44765752037E+03  0.44765752039E+03  0.50400001928E-02 0. -1.
    10030    2    1    2    0    0  0.00000000000E+00  0.00000000000E+00 -0.17499383994E+03  0.72032120087E+03  0.69874157484E+03 0.  0.
        2    1    3    3  502    0 -0.26358266424E+03 -0.12234231278E+03  0.11244263309E+03  0.31158756093E+03  0.25500000920E-02 0.  1.
       -2    1    3    3    0  502  0.26358266424E+03  0.12234231278E+03 -0.28743647303E+03  0.40873363994E+03  0.25500000920E-02 0. -1.
</event>
<event>
 5   0  0.5076796E-03  0.6998607E+03  0.7818609E-02  0.9717470E-01
       -2   -1    0    0    0  501  0.00000000000E+00  0.00000000000E+00  0.21671127784E+03  0.21671127785E+03  0.25500000920E-02 0.  1.
        2   -1    0    0  501    0  0.00000000000E+00  0.00000000000E+00 -0.56504332915E+03  0.56504332916E+03  0.25500000920E-02 0. -1.
    10030    2    1    2    0    0  0.00000000000E+00  0.00000000000E+00 -0.34833205131E+03  0.78175460701E+03  0.69986073444E+03 0.  0.
        5    1    3    3  502    0 -0.58747241302E+02 -0.19138601096E+03  0.14637885982E+03  0.24804980176E+03  0.46999998093E+01 0.  1.
       -5    1    3    3    0  502  0.58747241302E+02  0.19138601096E+03 -0.49471091113E+03  0.53370480525E+03  0.46999998093E+01 0. -1.
</event>
<event>
 5   0  0.1981750E-03  0.7001613E+03  0.7818609E-02  0.9716956E-01
       -3   -1    0    0    0  501  0.00000000000E+00  0.00000000000E+00  0.45915205854E+02  0.45915316939E+02  0.10100000352E+00 0. -1.
        3   -1    0    0  501    0  0.00000000000E+00  0.00000000000E+00 -0.26691878989E+04  0.26691879008E+04  0.10100000352E+00 0.  1.
    10030    2    1    2    0    0  0.00000000000E+00  0.00000000000E+00 -0.26232726930E+04  0.27151032177E+04  0.70016131067E+03 0.  0.
        5    1    3    3  502    0 -0.17838547493E+03  0.27255337471E+03 -0.18086588230E+04  0.18377637356E+04  0.46999998093E+01 0.  1.
       -5    1    3    3    0  502  0.17838547493E+03 -0.27255337471E+03 -0.81461386999E+03  0.87733948213E+03  0.46999998093E+01 0. -1.
</event>
<event>
 5   0  0.1981750E-03  0.7002845E+03  0.7818609E-02  0.9716746E-01
       -3   -1    0    0    0  501  0.00000000000E+00  0.00000000000E+00  0.53019215619E+03  0.53019216581E+03  0.10100000352E+00 0.  1.
        3   -1    0    0  501    0  0.00000000000E+00  0.00000000000E+00 -0.23123611863E+03  0.23123614068E+03  0.10100000352E+00 0. -1.
    10030    2    1    2    0    0  0.00000000000E+00  0.00000000000E+00  0.29895603756E+03  0.76142830650E+03  0.70028448043E+03 0.  0.
        5    1    3    3  502    0  0.99108082438E+02  0.44104350985E+02  0.51142402023E+03  0.52282332030E+03  0.46999998093E+01 0.  1.
       -5    1    3    3    0  502 -0.99108082438E+02 -0.44104350985E+02 -0.21246798267E+03  0.23860498620E+03  0.46999998093E+01 0. -1.
</event>
<event>
 5   0  0.3013140E-03  0.7007627E+03  0.7818609E-02  0.9715929E-01
        1   -1    0    0  501    0  0.00000000000E+00  0.00000000000E+00  0.44273773908E+03  0.44273773910E+03  0.50400001928E-02 0. -1.
       -1   -1    0    0    0  501  0.00000000000E+00  0.00000000000E+00 -0.27729081328E+03  0.27729081332E+03  0.50400001928E-02 0.  1.
    10030    2    1    2    0    0  0.00000000000E+00  0.00000000000E+00  0.16544692580E+03  0.72002855243E+03  0.70076274947E+03 0.  0.
        2    1    3    3  502    0 -0.14468150377E+03  0.10050337634E+03  0.39392558818E+03  0.43152176679E+03  0.25500000920E-02 0. -1.
       -2    1    3    3    0  502  0.14468150377E+03 -0.10050337634E+03 -0.22847866238E+03  0.28850678563E+03  0.25500000920E-02 0.  1.
</event>
<event>
 5   0  0.5023894E-03  0.7006356E+03  0.7818609E-02  0.9716146E-01
        2   -1    0    0  501    0  0.00000000000E+00  0.00000000000E+00  0.12837645628E+04  0.12837645628E+04  0.25500000920E-02 0. -1.
       -2   -1    0    0    0  501  0.00000000000E+00  0.00000000000E+00 -0.95595848038E+02  0.95595848072E+02  0.25500000920E-02 0.  1.
    10030    2    1    2    0    0  0.00000000000E+00  0.00000000000E+00  0.11881687148E+04  0.13793604109E+04  0.70063560312E+03 0.  0.
        2    1    3    3  502    0  0.94256174326E+02 -0.72591290819E+02  0.12427757777E+04  0.12484571901E+04  0.25500000920E-02 0. -1.
       -2    1    3    3    0  502 -0.94256174326E+02  0.72591290819E+02 -0.54607062870E+02  0.13090322083E+03  0.25500000920E-02 0.  1.
</event>
<event>
 5   0  0.5113683E-03  0.6933603E+03  0.7818609E-02  0.9728655E-01
        2   -1    0    0  501    0  0.00000000000E+00  0.00000000000E+00  0.88856957540E+03  0.88856957541E+03  0.25500000920E-02 0. -1.
       -2   -1    0    0    0  501  0.00000000000E+00  0.00000000000E+00 -0.13525912259E+03  0.13525912262E+03  0.25500000920E-02 0.  1.
    10030    2    1    2    0    0  0.00000000000E+00  0.00000000000E+00  0.75331045281E+03  0.10238286980E+04  0.69336034252E+03 0.  0.
        3    1    3    3  502    0  0.66348014433E+02  0.39704230724E+01  0.87907302776E+03  0.88158222623E+03  0.10100000352E+00 0. -1.
       -3    1    3    3    0  502 -0.66348014433E+02 -0.39704230724E+01 -0.12576257495E+03  0.14224647179E+03  0.10100000352E+00 0.  1.
</event>
<event>
 5   0  0.2934483E-03  0.7009095E+03  0.7818609E-02  0.9715678E-01
        1   -1    0    0  501    0  0.00000000000E+00  0.00000000000E+00  0.24518700271E+03  0.24518700276E+03  0.50400001928E-02 0. -1.
       -1   -1    0    0    0  501  0.00000000000E+00  0.00000000000E+00 -0.50091778146E+03  0.50091778149E+03  0.50400001928E-02 0.  1.
    10030    2    1    2    0    0  0.00000000000E+00  0.00000000000E+00 -0.25573077875E+03  0.74610478425E+03  0.70090949336E+03 0.  0.
        5    1    3    3  502    0  0.14252140311E+03 -0.29826534456E+01 -0.46862432641E+03  0.48984905417E+03  0.46999998093E+01 0.  1.
       -5    1    3    3    0  502 -0.14252140311E+03  0.29826534456E+01  0.21289354766E+03  0.25625573008E+03  0.46999998093E+01 0. -1.
</event>
<event>
 5   0  0.5072407E-03  0.6999338E+03  0.7818609E-02  0.9717345E-01
        2   -1    0    0  501    0  0.00000000000E+00  0.00000000000E+00  0.88639071342E+03  0.88639071342E+03  0.25500000920E-02 0.  1.
       -2   -1    0    0    0  501  0.00000000000E+00  0.00000000000E+00 -0.13817475099E+03  0.13817475102E+03  0.25500000920E-02 0. -1.
    10030    2    1    2    0    0  0.00000000000E+00  0.00000000000E+00  0.74821596242E+03  0.10245654644E+04  0.69993375722E+03 0.  0.
        1    1    3    3  502    0  0.20077153492E+03 -0.27523564982E+03  0.25688534213E+03  0.42667780724E+03  0.50400001928E-02 0. -1.
       -1    1    3    3    0  502 -0.20077153492E+03  0.27523564982E+03  0.49133062029E+03  0.59788765720E+03  0.50400001928E-02 0.  1.
</event>
<event>
 5   0  0.4878235E-03  0.7009963E+03  0.7818609E-02  0.9715530E-01
       -2   -1    0    0    0  501  0.00000000000E+00  0.00000000000E+00  0.15225714383E+03  0.15225714385E+03  0.25500000920E-02 0. -1.
        2   -1    0    0  501    0  0.00000000000E+00  0.00000000000E+00 -0.80685172874E+03  0.80685172875E+03  0.25500000920E-02 0.  1.
    10030    2    1    2    0    0  0.00000000000E+00  0.00000000000E+00 -0.65459458492E+03  0.95910887259E+03  0.70099626168E+03 0.  0.
        4    1    3    3  502    0 -0.13758688907E+03 -0.20433803860E+03 -0.66842632384E+03  0.71237598876E+03  0.12699999809E+01 0.  1.
       -4    1    3    3    0  502  0.13758688907E+03  0.20433803860E+03  0.13831738925E+02  0.24673288383E+03  0.12699999809E+01 0. -1.
</event>
<event>
 5   0  0.2934483E-03  0.6999626E+03  0.7818609E-02  0.9717296E-01
        1   -1    0    0  501    0  0.00000000000E+00  0.00000000000E+00  0.39969235537E+03  0.39969235540E+03  0.50400001928E-02 0. -1.
       -1   -1    0    0    0  501  0.00000000000E+00  0.00000000000E+00 -0.30645298089E+03  0.30645298094E+03  0.50400001928E-02 0.  1.
    10030    2    1    2    0    0  0.00000000000E+00  0.00000000000E+00  0.93239374476E+02  0.70614533634E+03  0.69996260977E+03 0.  0.
        5    1    3    3  502    0  0.12769132260E+03 -0.32568511196E+03  0.56134738772E+02  0.35432903482E+03  0.46999998093E+01 0. -1.
       -5    1    3    3    0  502 -0.12769132260E+03  0.32568511196E+03  0.37104635704E+02  0.35181630152E+03  0.46999998093E+01 0.  1.
</event>
<event>
 5   0  0.3013140E-03  0.6997257E+03  0.7818609E-02  0.9717701E-01
       -1   -1    0    0    0  501  0.00000000000E+00  0.00000000000E+00  0.55718360437E+03  0.55718360440E+03  0.50400001928E-02 0. -1.
        1   -1    0    0  501    0  0.00000000000E+00  0.00000000000E+00 -0.21968346969E+03  0.21968346974E+03  0.50400001928E-02 0.  1.
    10030    2    1    2    0    0  0.00000000000E+00  0.00000000000E+00  0.33750013469E+03  0.77686707414E+03  0.69972573911E+03 0.  0.
        2    1    3    3  502    0  0.19280919858E+03 -0.13504036635E+03  0.45611431575E+03  0.51327532245E+03  0.25500000920E-02 0. -1.
       -2    1    3    3    0  502 -0.19280919858E+03  0.13504036635E+03 -0.11861418106E+03  0.26359175169E+03  0.25500000920E-02 0.  1.
</event>
<event>
 5   0  0.2934483E-03  0.6998843E+03  0.7818609E-02  0.9717430E-01
       -1   -1    0    0    0  501  0.00000000000E+00  0.00000000000E+00  0.37950114858E+03  0.37950114861E+03  0.50400001928E-02 0.  1.
        1   -1    0    0  501    0  0.00000000000E+00  0.00000000000E+00 -0.32268546037E+03  0.32268546041E+03  0.50400001928E-02 0. -1.
    10030    2    1    2    0    0  0.00000000000E+00  0.00000000000E+00  0.56815688215E+02  0.70218660902E+03  0.69988428434E+03 0.  0.
        5    1    3    3  502    0  0.44711868526E+02  0.54633434266E+02  0.37225005408E+03  0.37891444428E+03  0.46999998093E+01 0.  1.
       -5    1    3    3    0  502 -0.44711868526E+02 -0.54633434266E+02 -0.31543436586E+03  0.32327216474E+03  0.46999998093E+01 0. -1.
</event>
<event>
 5   0  0.5113683E-03  0.7001529E+03  0.7818609E-02  0.9716971E-01
        2   -1    0    0  501    0  0.00000000000E+00  0.00000000000E+00  0.13644392519E+04  0.13644392519E+04  0.25500000920E-02 0. -1.
       -2   -1    0    0    0  501  0.00000000000E+00  0.00000000000E+00 -0.89819695607E+02  0.89819695643E+02  0.25500000920E-02 0.  1.
    10030    2    1    2    0    0  0.00000000000E+00  0.00000000000E+00  0.12746195563E+04  0.14542589475E+04  0.70015289275E+03 0.  0.
        3    1    3    3  502    0  0.34569437205E+03  0.41811946463E+02  0.71221851619E+03  0.79278500411E+03  0.10100000352E+00 0. -1.
       -3    1    3    3    0  502 -0.34569437205E+03 -0.41811946463E+02  0.56240104009E+03  0.66147394343E+03  0.10100000352E+00 0.  1.
</event>
<event>
 5   0  0.5023894E-03  0.6980847E+03  0.7818609E-02  0.9720513E-01
        2   -1    0    0  501    0  0.00000000000E+00  0.00000000000E+00  0.86419544130E+03  0.86419544131E+03  0.25500000920E-02 0.  1.
       -2   -1    0    0    0  501  0.00000000000E+00  0.00000000000E+00 -0.14097569680E+03  0.14097569682E+03  0.25500000920E-02 0. -1.
    10030    2    1    2    0    0  0.00000000000E+00  0.00000000000E+00  0.72321974451E+03  0.10051711381E+04  0.69808467830E+03 0.  0.
        2    1    3    3  502    0 -0.15290019987E+03  0.15196152604E+03  0.75688702183E+03  0.78698712844E+03  0.25500000920E-02 0.  1.
       -2    1    3    3    0  502  0.15290019987E+03 -0.15196152604E+03 -0.33667277319E+02  0.21818400969E+03  0.25500000920E-02 0. -1.
</event>
<event>
 5   0  0.5076796E-03  0.6997911E+03  0.7818609E-02  0.9717590E-01
        2   -1    0    0  501    0  0.00000000000E+00  0.00000000000E+00  0.56872993001E+03  0.56872993001E+03  0.25500000920E-02 0. -1.
       -2   -1    0    0    0  501  0.00000000000E+00  0.00000000000E+00 -0.21526366276E+03  0.21526366278E+03  0.25500000920E-02 0.  1.
    10030    2    1    2    0    0  0.00000000000E+00  0.00000000000E+00  0.35346626725E+03  0.78399359279E+03  0.69979107700E+03 0.  0.
        5    1    3    3  502    0  0.31015465558E+03 -0.15929459225E+03  0.14437686179E+03  0.37740885750E+03  0.46999998093E+01 0.  1.
       -5    1    3    3    0  502 -0.31015465558E+03  0.15929459225E+03  0.20908940546E+03  0.40658473529E+03  0.46999998093E+01 0. -1.
</event>
<event>
 5   0  0.2938783E-03  0.6973903E+03  0.7818609E-02  0.9721706E-01
       -1   -1    0    0    0  501  0.00000000000E+00  0.00000000000E+00  0.22457783528E+03  0.22457783534E+03  0.50400001928E-02 0. -1.
        1   -1    0    0  501    0  0.00000000000E+00  0.00000000000E+00 -0.54140824985E+03  0.54140824987E+03  0.50400001928E-02 0.  1.
    10030    2    1    2    0    0  0.00000000000E+00  0.00000000000E+00 -0.31683041456E+03  0.76598608521E+03  0.69739025742E+03 0.  0.
        4    1    3    3  502    0 -0.19025726648E+03  0.28269310748E+03 -0.23967504592E+03  0.41660408184E+03  0.12699999809E+01 0.  1.
       -4    1    3    3    0  502  0.19025726648E+03 -0.28269310748E+03 -0.77155368639E+02  0.34938200337E+03  0.12699999809E+01 0. -1.
</event>
<event>
 5   0  0.2913582E-03  0.7007933E+03  0.7818609E-02  0.9715876E-01
       -1   -1    0    0    0  501  0.00000000000E+00  0.00000000000E+00  0.22141406518E+03  0.22141406524E+03  0.50400001928E-02 0.  1.
        1   -1    0    0  501    0  0.00000000000E+00  0.00000000000E+00 -0.55451678926E+03  0.55451678929E+03  0.50400001928E-02 0. -1.
    10030    2    1    2    0    0  0.00000000000E+00  0.00000000000E+00 -0.33310272408E+03  0.77593085452E+03  0.70079331205E+03 0.  0.
        1    1    3    3  502    0 -0.14152867851E+03 -0.22085380342E+03 -0.42377655139E+03  0.49839074516E+03  0.50400001928E-02 0. -1.
       -1    1    3    3    0  502  0.14152867851E+03  0.22085380342E+03  0.90673827308E+02  0.27754010937E+03  0.50400001928E-02 0.  1.
</event>
<event>
 5   0  0.5023894E-03  0.6999815E+03  0.7818609E-02  0.9717264E-01
       -2   -1    0    0    0  501  0.00000000000E+00  0.00000000000E+00  0.13210936434E+03  0.13210936436E+03  0.25500000920E-02 0. -1.
        2   -1    0    0  501    0  0.00000000000E+00  0.00000000000E+00 -0.92721312310E+03  0.92721312310E+03  0.25500000920E-02 0.  1.
    10030    2    1    2    0    0  0.00000000000E+00  0.00000000000E+00 -0.79510375876E+03  0.10593224875E+04  0.69998153208E+03 0.  0.
        2    1    3    3  502    0 -0.33221336376E+03  0.74804804539E+02 -0.27524056276E+03  0.43785710596E+03  0.25500000920E-02 0. -1.
       -2    1    3    3    0  502  0.33221336376E+03 -0.74804804539E+02 -0.51986319600E+03  0.62146538151E+03  0.25500000920E-02 0.  1.
</event>
<event>
 5   0  0.2934483E-03  0.6988819E+03  0.7818609E-02  0.9719146E-01
       -1   -1    0    0    0  501  0.00000000000E+00  0.00000000000E+00  0.16050729472E+03  0.16050729480E+03  0.50400001928E-02 0.  1.
        1   -1    0    0  501    0  0.00000000000E+00  0.00000000000E+00 -0.76076907471E+03  0.76076907473E+03  0.50400001928E-02 0. -1.
    10030    2    1    2    0    0  0.00000000000E+00  0.00000000000E+00 -0.60026177999E+03  0.92127636953E+03  0.69888192460E+03 0.  0.
        5    1    3    3  502    0  0.13240518091E+03 -0.16001925801E+03  0.70260680197E+02  0.21930788414E+03  0.46999998093E+01 0.  1.
       -5    1    3    3    0  502 -0.13240518091E+03  0.16001925801E+03 -0.67052246019E+03  0.70196848539E+03  0.46999998093E+01 0. -1.
</event>
<event>
 5   0  0.2938783E-03  0.7003011E+03  0.7818609E-02  0.9716717E-01
        1   -1    0    0  501    0  0.00000000000E+00  0.00000000000E+00  0.49419990841E+03  0.49419990844E+03  0.50400001928E-02 0. -1.
       -1   -1    0    0    0  501  0.00000000000E+00  0.00000000000E+00 -0.24808868228E+03  0.24808868233E+03  0.50400001928E-02 0.  1.
    10030    2    1    2    0    0  0.00000000000E+00  0.00000000000E+00  0.24611122613E+03  0.74228859077E+03  0.70030108978E+03 0.  0.
        4    1    3    3  502    0  0.27342727086E+03 -0.99986264936E+02 -0.83143539577E+02  0.30277745408E+03  0.12699999809E+01 0.  1.
       -4    1    3    3    0  502 -0.27342727086E+03  0.99986264936E+02  0.32925476571E+03  0.43951113668E+03  0.12699999809E+01 0. -1.
</event>
<event>
 5   0  0.4878235E-03  0.6999443E+03  0.7818609E-02  0.9717328E-01
       -2   -1    0    0    0  501  0.00000000000E+00  0.00000000000E+00  0.19610693881E+03  0.19610693883E+03  0.25500000920E-02 0. -1.
        2   -1    0    0  501    0  0.00000000000E+00  0.00000000000E+00 -0.62455970932E+03  0.62455970933E+03  0.25500000920E-02 0.  1.
    10030    2    1    2    0    0  0.00000000000E+00  0.00000000000E+00 -0.42845277051E+03  0.82066664816E+03  0.69994426267E+03 0.  0.
        4    1    3    3  502    0 -0.13516073422E+03 -0.19140284314E+03 -0.51901424361E+03  0.56945664488E+03  0.12699999809E+01 0.  1.
       -4    1    3    3    0  502  0.13516073422E+03  0.19140284314E+03  0.90561473095E+02  0.25121000328E+03  0.12699999809E+01 0. -1.
</event>
<event>
 5   0  0.2934483E-03  0.7000350E+03  0.7818609E-02  0.9717172E-01
       -1   -1    0    0    0  501  0.00000000000E+00  0.00000000000E+00  0.20680195436E+03  0.20680195442E+03  0.50400001928E-02 0.  1.
        1   -1    0    0  501    0  0.00000000000E+00  0.00000000000E+00 -0.59241335443E+03  0.59241335445E+03  0.50400001928E-02 0. -1.
    10030    2    1    2    0    0  0.00000000000E+00  0.00000000000E+00 -0.38561140007E+03  0.79921530888E+03  0.70003496918E+03 0.  0.
        5    1    3    3  502    0 -0.12312297743E+03 -0.18546457819E+03  0.11551905645E+03  0.25084481206E+03  0.46999998093E+01 0.  1.
       -5    1    3    3    0  502  0.12312297743E+03  0.18546457819E+03 -0.50113045652E+03  0.54837049682E+03  0.46999998093E+01 0. -1.
</event>
<event>
 5   0  0.5076796E-03  0.7004421E+03  0.7818609E-02  0.9716476E-01
        2   -1    0    0  501    0  0.00000000000E+00  0.00000000000E+00  0.16462610126E+04  0.16462610126E+04  0.25500000920E-02 0.  1.
       -2   -1    0    0    0  501  0.00000000000E+00  0.00000000000E+00 -0.74505062009E+02  0.74505062053E+02  0.25500000920E-02 0. -1.
    10030    2    1    2    0    0  0.00000000000E+00  0.00000000000E+00  0.15717559506E+04  0.17207660746E+04  0.70044208573E+03 0.  0.
        5    1    3    3  502    0  0.10601490941E+02  0.32367880344E+03  0.45855440677E+03  0.56140412661E+03  0.46999998093E+01 0. -1.
       -5    1    3    3    0  502 -0.10601490941E+02 -0.32367880344E+03  0.11132015438E+04  0.11593619480E+04  0.46999998093E+01 0.  1.
</event>
<event>
 5   0  0.5072407E-03  0.7014901E+03  0.7818609E-02  0.9714687E-01
        2   -1    0    0  501    0  0.00000000000E+00  0.00000000000E+00  0.92308973654E+03  0.92308973655E+03  0.25500000920E-02 0. -1.
       -2   -1    0    0    0  501  0.00000000000E+00  0.00000000000E+00 -0.13327206938E+03  0.13327206940E+03  0.25500000920E-02 0.  1.
    10030    2    1    2    0    0  0.00000000000E+00  0.00000000000E+00  0.78981766717E+03  0.10563618059E+04  0.70149006956E+03 0.  0.
        1    1    3    3  502    0  0.14705418043E+03  0.15589707280E+03 -0.23209624808E+02  0.21556325290E+03  0.50400001928E-02 0.  1.
       -1    1    3    3    0  502 -0.14705418043E+03 -0.15589707280E+03  0.81302729197E+03  0.84079855305E+03  0.50400001928E-02 0. -1.
</event>
<event>
 5   0  0.2913582E-03  0.7017326E+03  0.7818609E-02  0.9714274E-01
       -1   -1    0    0    0  501  0.00000000000E+00  0.00000000000E+00  0.40637481572E+03  0.40637481575E+03  0.50400001928E-02 0. -1.
        1   -1    0    0  501    0  0.00000000000E+00  0.00000000000E+00 -0.30293991731E+03  0.30293991736E+03  0.50400001928E-02 0.  1.
    10030    2    1    2    0    0  0.00000000000E+00  0.00000000000E+00  0.10343489841E+03  0.70931473311E+03  0.70173257898E+03 0.  0.
        1    1    3    3  502    0  0.14441885619E+03 -0.12018870643E+03 -0.24780337259E+03  0.31098013228E+03  0.50400001928E-02 0.  1.
       -1    1    3    3    0  502 -0.14441885619E+03  0.12018870643E+03  0.35123827100E+03  0.39833460083E+03  0.50400001928E-02 0. -1.
</event>
<event>
 5   0  0.1981750E-03  0.7008281E+03  0.7818609E-02  0.9715817E-01
       -3   -1    0    0    0  501  0.00000000000E+00  0.00000000000E+00  0.11508458312E+04  0.11508458356E+04  0.10100000352E+00 0. -1.
        3   -1    0    0  501    0  0.00000000000E+00  0.00000000000E+00 -0.10669541282E+03  0.10669546062E+03  0.10100000352E+00 0.  1.
    10030    2    1    2    0    0  0.00000000000E+00  0.00000000000E+00  0.10441504184E+04  0.12575412962E+04  0.70082809273E+03 0.  0.
        4    1    3    3  502    0  0.10335738476E+03  0.31315548096E+02 -0.76083731284E+02  0.13211267768E+03  0.12699999809E+01 0.  1.
       -4    1    3    3    0  502 -0.10335738476E+03 -0.31315548096E+02  0.11202341496E+04  0.11254286186E+04  0.12699999809E+01 0. -1.
</event>
<event>
 5   0  0.3013140E-03  0.7057656E+03  0.7818609E-02  0.9707423E-01
        1   -1    0    0  501    0  0.00000000000E+00  0.00000000000E+00  0.79838459608E+03  0.79838459609E+03  0.50400001928E-02 0. -1.
       -1   -1    0    0    0  501  0.00000000000E+00  0.00000000000E+00 -0.15597280798E+03  0.15597280806E+03  0.50400001928E-02 0.  1.
    10030    2    1    2    0    0  0.00000000000E+00  0.00000000000E+00  0.64241178810E+03  0.95435740416E+03  0.70576564764E+03 0.  0.
        2    1    3    3  502    0  0.19312484426E+03  0.93280540019E+02  0.70013879063E+03  0.73225186293E+03  0.25500000920E-02 0. -1.
       -2    1    3    3    0  502 -0.19312484426E+03 -0.93280540019E+02 -0.57727002533E+02  0.22210554123E+03  0.25500000920E-02 0.  1.
</event>
<event>
 5   0  0.2938783E-03  0.7007310E+03  0.7818609E-02  0.9715983E-01
        1   -1    0    0  501    0  0.00000000000E+00  0.00000000000E+00  0.14184987670E+04  0.14184987670E+04  0.50400001928E-02 0. -1.
       -1   -1    0    0    0  501  0.00000000000E+00  0.00000000000E+00 -0.86539374130E+02  0.86539374277E+02  0.50400001928E-02 0.  1.
    10030    2    1    2    0    0  0.00000000000E+00  0.00000000000E+00  0.13319593929E+04  0.15050381413E+04  0.70073103434E+03 0.  0.
        4    1    3    3  502    0 -0.23968348924E+03  0.13940535380E+03  0.11259943567E+04  0.11596322399E+04  0.12699999809E+01 0. -1.
       -4    1    3    3    0  502  0.23968348924E+03 -0.13940535380E+03  0.20596503625E+03  0.34540590143E+03  0.12699999809E+01 0.  1.
</event>
<event>
 5   0  0.2938783E-03  0.6990690E+03  0.7818609E-02  0.9718826E-01
        1   -1    0    0  501    0  0.00000000000E+00  0.00000000000E+00  0.50984781205E+03  0.50984781208E+03  0.50400001928E-02 0. -1.
       -1   -1    0    0    0  501  0.00000000000E+00  0.00000000000E+00 -0.23962909885E+03  0.23962909890E+03  0.50400001928E-02 0.  1.
    10030    2    1    2    0    0  0.00000000000E+00  0.00000000000E+00  0.27021871321E+03  0.74947691098E+03  0.69906901456E+03 0.  0.
        4    1    3    3  502    0  0.24221243657E+03 -0.79964990330E+02  0.39132165283E+03  0.46711402568E+03  0.12699999809E+01 0. -1.
       -4    1    3    3    0  502 -0.24221243657E+03  0.79964990330E+02 -0.12110293962E+03  0.28236288530E+03  0.12699999809E+01 0.  1.
</event>
<event>
 5   0  0.2913582E-03  0.7001837E+03  0.7818609E-02  0.9716918E-01
       -1   -1    0    0    0  501  0.00000000000E+00  0.00000000000E+00  0.81276395618E+02  0.81276395774E+02  0.50400001928E-02 0. -1.
        1   -1    0    0  501    0  0.00000000000E+00  0.00000000000E+00 -0.15079936542E+04  0.15079936542E+04  0.50400001928E-02 0.  1.
    10030    2    1    2    0    0  0.00000000000E+00  0.00000000000E+00 -0.14267172586E+04  0.15892700500E+04  0.70018365865E+03 0.  0.
        1    1    3    3  502    0 -0.32788806826E+03 -0.11130318970E+03 -0.59617712450E+03  0.68943901046E+03  0.50400001928E-02 0.  1.
       -1    1    3    3    0  502  0.32788806826E+03  0.11130318970E+03 -0.83054013410E+03  0.89983103954E+03  0.50400001928E-02 0. -1.
</event>
<event>
 5   0  0.5076796E-03  0.7017857E+03  0.7818609E-02  0.9714183E-01
       -2   -1    0    0    0  501  0.00000000000E+00  0.00000000000E+00  0.11182859878E+03  0.11182859881E+03  0.25500000920E-02 0. -1.
        2   -1    0    0  501    0  0.00000000000E+00  0.00000000000E+00 -0.11010225052E+04  0.11010225052E+04  0.25500000920E-02 0.  1.
    10030    2    1    2    0    0  0.00000000000E+00  0.00000000000E+00 -0.98919390646E+03  0.12128511041E+04  0.70178573371E+03 0.  0.
        5    1    3    3  502    0 -0.27707086912E+03  0.14469637108E+03 -0.77002375401E+03  0.83106195801E+03  0.46999998093E+01 0. -1.
       -5    1    3    3    0  502  0.27707086912E+03 -0.14469637108E+03 -0.21917015245E+03  0.38178914604E+03  0.46999998093E+01 0.  1.
</event>
<event>
 5   0  0.5023894E-03  0.6999380E+03  0.7818609E-02  0.9717338E-01
        2   -1    0    0  501    0  0.00000000000E+00  0.00000000000E+00  0.13530292043E+04  0.13530292043E+04  0.25500000920E-02 0.  1.
       -2   -1    0    0    0  501  0.00000000000E+00  0.00000000000E+00 -0.90521549856E+02  0.90521549892E+02  0.25500000920E-02 0. -1.
    10030    2    1    2    0    0  0.00000000000E+00  0.00000000000E+00  0.12625076544E+04  0.14435507541E+04  0.69993799896E+03 0.  0.
        2    1    3    3  502    0  0.79575914337E+02  0.13316764045E+03  0.12782434223E+04  0.12876226906E+04  0.25500000920E-02 0.  1.
       -2    1    3    3    0  502 -0.79575914337E+02 -0.13316764045E+03 -0.15735767929E+02  0.15592806355E+03  0.25500000920E-02 0. -1.
</event>
<event>
 5   0  0.3013140E-03  0.6999992E+03  0.7818609E-02  0.9717234E-01
       -1   -1    0    0    0  501  0.00000000000E+00  0.00000000000E+00  0.34142470465E+03  0.34142470469E+03  0.50400001928E-02 0. -1.
        1   -1    0    0  501    0  0.00000000000E+00  0.00000000000E+00 -0.35878988914E+03  0.35878988918E+03  0.50400001928E-02 0.  1.
    10030    2    1    2    0    0  0.00000000000E+00  0.00000000000E+00 -0.17365184492E+02  0.70021459387E+03  0.69999923416E+03 0.  0.
        2    1    3    3  502    0 -0.13104618661E+03  0.12330349246E+03 -0.30897967862E+03  0.35755460573E+03  0.25500000920E-02 0.  1.
       -2    1    3    3    0  502  0.13104618661E+03 -0.12330349246E+03  0.29161449412E+03  0.34265998813E+03  0.25500000920E-02 0. -1.
</event>
<event>
 5   0  0.2938783E-03  0.7063067E+03  0.7818609E-02  0.9706507E-01
       -1   -1    0    0    0  501  0.00000000000E+00  0.00000000000E+00  0.73528798800E+03  0.73528798802E+03  0.50400001928E-02 0. -1.
        1   -1    0    0  501    0  0.00000000000E+00  0.00000000000E+00 -0.16961694512E+03  0.16961694520E+03  0.50400001928E-02 0.  1.
    10030    2    1    2    0    0  0.00000000000E+00  0.00000000000E+00  0.56567104288E+03  0.90490493322E+03  0.70630673890E+03 0.  0.
        4    1    3    3  502    0  0.34860434083E+03  0.43985864862E+02  0.32823963595E+03  0.48083532968E+03  0.12699999809E+01 0. -1.
       -4    1    3    3    0  502 -0.34860434083E+03 -0.43985864862E+02  0.23743140693E+03  0.42406960354E+03  0.12699999809E+01 0.  1.
</event>
<event>
 5   0  0.2937617E-03  0.7006160E+03  0.7818609E-02  0.9716179E-01
        1   -1    0    0  501    0  0.00000000000E+00  0.00000000000E+00  0.94201983748E+03  0.94201983750E+03  0.50400001928E-02 0. -1.
       -1   -1    0    0    0  501  0.00000000000E+00  0.00000000000E+00 -0.13026869501E+03  0.13026869511E+03  0.50400001928E-02 0.  1.
    10030    2    1    2    0    0  0.00000000000E+00  0.00000000000E+00  0.81175114247E+03  0.10722885326E+04  0.70061600028E+03 0.  0.
        3    1    3    3  502    0  0.34711042244E+03 -0.80673856547E+01  0.47708806852E+03  0.59005403431E+03  0.10100000352E+00 0.  1.
       -3    1    3    3    0  502 -0.34711042244E+03  0.80673856547E+01  0.33466307396E+03  0.48223449830E+03  0.10100000352E+00 0. -1.
</event>
<event>
 5   0  0.2913582E-03  0.7012729E+03  0.7818609E-02  0.9715058E-01
       -1   -1    0    0    0  501  0.00000000000E+00  0.00000000000E+00  0.19403301901E+03  0.19403301908E+03  0.50400001928E-02 0. -1.
        1   -1    0    0  501    0  0.00000000000E+00  0.00000000000E+00 -0.63363405150E+03  0.63363405152E+03  0.50400001928E-02 0.  1.
    10030    2    1    2    0    0  0.00000000000E+00  0.00000000000E+00 -0.43960103249E+03  0.82766707060E+03  0.70127292262E+03 0.  0.
        1    1    3    3  502    0  0.19119798449E+03 -0.36282083776E+02 -0.56404274613E+03  0.59667183473E+03  0.50400001928E-02 0.  1.
       -1    1    3    3    0  502 -0.19119798449E+03  0.36282083776E+02  0.12444171364E+03  0.23099523587E+03  0.50400001928E-02 0. -1.
</event>
<event>
 5   0  0.1981750E-03  0.7008264E+03  0.7818609E-02  0.9715820E-01
       -3   -1    0    0    0  501  0.00000000000E+00  0.00000000000E+00  0.10870957903E+04  0.10870957950E+04  0.10100000352E+00 0.  1.
        3   -1    0    0  501    0  0.00000000000E+00  0.00000000000E+00 -0.11295174399E+03  0.11295178915E+03  0.10100000352E+00 0. -1.
    10030    2    1    2    0    0  0.00000000000E+00  0.00000000000E+00  0.97414404632E+03  0.12000475842E+04  0.70082635600E+03 0.  0.
        5    1    3    3  502    0 -0.69558297141E+02  0.51742917391E+02  0.10683870622E+04  0.10719089005E+04  0.46999998093E+01 0.  1.
       -5    1    3    3    0  502  0.69558297141E+02 -0.51742917391E+02 -0.94243015924E+02  0.12813868366E+03  0.46999998093E+01 0. -1.
</event>
<event>
 5   0  0.2938783E-03  0.6998103E+03  0.7818609E-02  0.9717557E-01
        1   -1    0    0  501    0  0.00000000000E+00  0.00000000000E+00  0.73629523559E+03  0.73629523561E+03  0.50400001928E-02 0. -1.
       -1   -1    0    0    0  501  0.00000000000E+00  0.00000000000E+00 -0.16628332541E+03  0.16628332549E+03  0.50400001928E-02 0.  1.
    10030    2    1    2    0    0  0.00000000000E+00  0.00000000000E+00  0.57001191018E+03  0.90257856110E+03  0.69981031802E+03 0.  0.
        4    1    3    3  502    0 -0.17768166891E+03 -0.88783809332E+02 -0.86518922176E+02  0.21665751098E+03  0.12699999809E+01 0.  1.
       -4    1    3    3    0  502  0.17768166891E+03  0.88783809332E+02  0.65653083235E+03  0.68592105012E+03  0.12699999809E+01 0. -1.
</event>
<event>
 5   0  0.2938783E-03  0.6992682E+03  0.7818609E-02  0.9718485E-01
        1   -1    0    0  501    0  0.00000000000E+00  0.00000000000E+00  0.97453389130E+03  0.97453389132E+03  0.50400001928E-02 0. -1.
       -1   -1    0    0    0  501  0.00000000000E+00  0.00000000000E+00 -0.12543842509E+03  0.12543842519E+03  0.50400001928E-02 0.  1.
    10030    2    1    2    0    0  0.00000000000E+00  0.00000000000E+00  0.84909546621E+03  0.10999723165E+04  0.69926817913E+03 0.  0.
        4    1    3    3  502    0 -0.13962003507E+02  0.18263395582E+03 -0.43921323186E+02  0.18836346485E+03  0.12699999809E+01 0.  1.
       -4    1    3    3    0  502  0.13962003507E+02 -0.18263395582E+03  0.89301678940E+03  0.91160885165E+03  0.12699999809E+01 0. -1.
</event>
<event>
 5   0  0.2937617E-03  0.7000762E+03  0.7818609E-02  0.9717102E-01
       -1   -1    0    0    0  501  0.00000000000E+00  0.00000000000E+00  0.18994877630E+03  0.18994877637E+03  0.50400001928E-02 0. -1.
        1   -1    0    0  501    0  0.00000000000E+00  0.00000000000E+00 -0.64505111687E+03  0.64505111688E+03  0.50400001928E-02 0.  1.
    10030    2    1    2    0    0  0.00000000000E+00  0.00000000000E+00 -0.45510234057E+03  0.83499989325E+03  0.70007619681E+03 0.  0.
        3    1    3    3  502    0  0.15790241601E+03 -0.16225007080E+03  0.90860969997E+02  0.24395488216E+03  0.10100000352E+00 0. -1.
       -3    1    3    3    0  502 -0.15790241601E+03  0.16225007080E+03 -0.54596331056E+03  0.59104501109E+03  0.10100000352E+00 0.  1.
</event>
<event>
 5   0  0.5023894E-03  0.7003024E+03  0.7818609E-02  0.9716715E-01
        2   -1    0    0  501    0  0.00000000000E+00  0.00000000000E+00  0.17706769877E+03  0.17706769879E+03  0.25500000920E-02 0.  1.
       -2   -1    0    0    0  501  0.00000000000E+00  0.00000000000E+00 -0.69242365218E+03  0.69242365218E+03  0.25500000920E-02 0. -1.
    10030    2    1    2    0    0  0.00000000000E+00  0.00000000000E+00 -0.51535595341E+03  0.86949135097E+03  0.70030239946E+03 0.  0.
        2    1    3    3  502    0  0.84974322329E+02 -0.94084507686E+02  0.14757144937E+03  0.19455041177E+03  0.25500000920E-02 0.  1.
       -2    1    3    3    0  502 -0.84974322329E+02  0.94084507686E+02 -0.66292740278E+03  0.67494093920E+03  0.25500000920E-02 0. -1.
</event>
<event>
 5   0  0.2934483E-03  0.6991346E+03  0.7818609E-02  0.9718713E-01
        1   -1    0    0  501    0  0.00000000000E+00  0.00000000000E+00  0.70160186086E+02  0.70160186267E+02  0.50400001928E-02 0.  1.
       -1   -1    0    0    0  501  0.00000000000E+00  0.00000000000E+00 -0.17416899974E+04  0.17416899974E+04  0.50400001928E-02 0. -1.
    10030    2    1    2    0    0  0.00000000000E+00  0.00000000000E+00 -0.16715298113E+04  0.18118501837E+04  0.69913459217E+03 0.  0.
        5    1    3    3  502    0  0.25361991564E+03  0.11346008212E+03 -0.28614030550E+03  0.39886666478E+03  0.46999998093E+01 0.  1.
       -5    1    3    3    0  502 -0.25361991564E+03 -0.11346008212E+03 -0.13853895058E+04  0.14129835189E+04  0.46999998093E+01 0. -1.
</event>
<event>
 5   0  0.5072407E-03  0.6980601E+03  0.7818609E-02  0.9720555E-01
       -2   -1    0    0    0  501  0.00000000000E+00  0.00000000000E+00  0.13851048837E+03  0.13851048839E+03  0.25500000920E-02 0.  1.
        2   -1    0    0  501    0  0.00000000000E+00  0.00000000000E+00 -0.87951443063E+03  0.87951443063E+03  0.25500000920E-02 0. -1.
    10030    2    1    2    0    0  0.00000000000E+00  0.00000000000E+00 -0.74100394226E+03  0.10180249190E+04  0.69806009290E+03 0.  0.
        1    1    3    3  502    0 -0.14306716798E+03 -0.19938393177E+03 -0.85463946747E+01  0.24555082506E+03  0.50400001928E-02 0.  1.
       -1    1    3    3    0  502  0.14306716798E+03  0.19938393177E+03 -0.73245754758E+03  0.77247409396E+03  0.50400001928E-02 0. -1.
</event>
<event>
 5   0  0.2937617E-03  0.7003299E+03  0.7818609E-02  0.9716668E-01
       -1   -1    0    0    0  501  0.00000000000E+00  0.00000000000E+00  0.17014844424E+03  0.17014844431E+03  0.50400001928E-02 0. -1.
        1   -1    0    0  501    0  0.00000000000E+00  0.00000000000E+00 -0.72063827370E+03  0.72063827371E+03  0.50400001928E-02 0.  1.
    10030    2    1    2    0    0  0.00000000000E+00  0.00000000000E+00 -0.55048982946E+03  0.89078671803E+03  0.70032986847E+03 0.  0.
        3    1    3    3  502    0  0.15619507026E+03  0.25791276353E+03 -0.50170820881E+03  0.58534351500E+03  0.10100000352E+00 0.  1.
       -3    1    3    3    0  502 -0.15619507026E+03 -0.25791276353E+03 -0.48781620651E+02  0.30544320303E+03  0.10100000352E+00 0. -1.
</event>
<event>
 5   0  0.5072407E-03  0.7168564E+03  0.7818609E-02  0.9688832E-01
       -2   -1    0    0    0  501  0.00000000000E+00  0.00000000000E+00  0.30829671682E+03  0.30829671683E+03  0.25500000920E-02 0.  1.
        2   -1    0    0  501    0  0.00000000000E+00  0.00000000000E+00 -0.41671147430E+03  0.41671147431E+03  0.25500000920E-02 0. -1.
    10030    2    1    2    0    0  0.00000000000E+00  0.00000000000E+00 -0.10841475748E+03  0.72500819114E+03  0.71685641350E+03 0.  0.
        1    1    3    3  502    0  0.26858287026E+03 -0.16872196604E+03  0.11462479749E+03  0.33725762296E+03  0.50400001928E-02 0.  1.
       -1    1    3    3    0  502 -0.26858287026E+03  0.16872196604E+03 -0.22303955497E+03  0.38775056818E+03  0.50400001928E-02 0. -1.
</event>
<event>
 5   0  0.2913582E-03  0.6992683E+03  0.7818609E-02  0.9718484E-01
       -1   -1    0    0    0  501  0.00000000000E+00  0.00000000000E+00  0.14479030412E+03  0.14479030421E+03  0.50400001928E-02 0. -1.
        1   -1    0    0  501    0  0.00000000000E+00  0.00000000000E+00 -0.84428342282E+03  0.84428342283E+03  0.50400001928E-02 0.  1.
    10030    2    1    2    0    0  0.00000000000E+00  0.00000000000E+00 -0.69949311870E+03  0.98907372704E+03  0.69926834222E+03 0.  0.
        1    1    3    3  502    0 -0.22537335452E+03 -0.97329005423E+02  0.23838002641E+01  0.24550308909E+03  0.50400001928E-02 0. -1.
       -1    1    3    3    0  502  0.22537335452E+03  0.97329005423E+02 -0.70187691896E+03  0.74357063795E+03  0.50400001928E-02 0.  1.
</event>
<event>
 5   0  0.5076796E-03  0.7039542E+03  0.7818609E-02  0.9710494E-01
        2   -1    0    0  501    0  0.00000000000E+00  0.00000000000E+00  0.51938202630E+03  0.51938202630E+03  0.25500000920E-02 0. -1.
       -2   -1    0    0    0  501  0.00000000000E+00  0.00000000000E+00 -0.23852937900E+03  0.23852937902E+03  0.25500000920E-02 0.  1.
    10030    2    1    2    0    0  0.00000000000E+00  0.00000000000E+00  0.28085264730E+03  0.75791140532E+03  0.70395418091E+03 0.  0.
        5    1    3    3  502    0  0.19286138226E+02  0.61616371391E+02 -0.23206497834E+03  0.24092483583E+03  0.46999998093E+01 0.  1.
       -5    1    3    3    0  502 -0.19286138226E+02 -0.61616371391E+02  0.51291762563E+03  0.51698656949E+03  0.46999998093E+01 0. -1.
</event>
<event>
 5   0  0.3013140E-03  0.6974681E+03  0.7818609E-02  0.9721572E-01
        1   -1    0    0  501    0  0.00000000000E+00  0.00000000000E+00  0.40112113946E+03  0.40112113949E+03  0.50400001928E-02 0. -1.
       -1   -1    0    0    0  501  0.00000000000E+00  0.00000000000E+00 -0.30318884051E+03  0.30318884056E+03  0.50400001928E-02 0.  1.
    10030    2    1    2    0    0  0.00000000000E+00  0.00000000000E+00  0.97932298942E+02  0.70430998004E+03  0.69746814466E+03 0.  0.
        2    1    3    3  502    0 -0.23467036843E+03 -0.24056661304E+03 -0.45076214887E+02  0.33907866681E+03  0.25500000920E-02 0.  1.
       -2    1    3    3    0  502  0.23467036843E+03  0.24056661304E+03  0.14300851383E+03  0.36523131323E+03  0.25500000920E-02 0. -1.
</event>
<event>
 5   0  0.5113683E-03  0.7029088E+03  0.7818609E-02  0.9712271E-01
       -2   -1    0    0    0  501  0.00000000000E+00  0.00000000000E+00  0.26754453636E+03  0.26754453637E+03  0.25500000920E-02 0.  1.
        2   -1    0    0  501    0  0.00000000000E+00  0.00000000000E+00 -0.46168088848E+03  0.46168088849E+03  0.25500000920E-02 0. -1.
    10030    2    1    2    0    0  0.00000000000E+00  0.00000000000E+00 -0.19413635212E+03  0.72922542486E+03  0.70290881133E+03 0.  0.
        3    1    3    3  502    0  0.15868159358E+03  0.11397661171E+03 -0.40015268897E+03  0.44530068588E+03  0.10100000352E+00 0. -1.
       -3    1    3    3    0  502 -0.15868159358E+03 -0.11397661171E+03  0.20601633684E+03  0.28392473898E+03  0.10100000352E+00 0.  1.
</event>
<event>
 5   0  0.5023894E-03  0.6984545E+03  0.7818609E-02  0.9719879E-01
       -2   -1    0    0    0  501  0.00000000000E+00  0.00000000000E+00  0.38066493147E+03  0.38066493148E+03  0.25500000920E-02 0. -1.
        2   -1    0    0  501    0  0.00000000000E+00  0.00000000000E+00 -0.32038587860E+03  0.32038587861E+03  0.25500000920E-02 0.  1.
    10030    2    1    2    0    0  0.00000000000E+00  0.00000000000E+00  0.60279052867E+02  0.70105081009E+03  0.69845448965E+03 0.  0.
        2    1    3    3  502    0  0.12318377927E+03  0.90435993084E+02 -0.28504487670E+03  0.32342463428E+03  0.25500000920E-02 0.  1.
       -2    1    3    3    0  502 -0.12318377927E+03 -0.90435993084E+02  0.34532392956E+03  0.37762617581E+03  0.25500000920E-02 0. -1.
</event>
<event>
 5   0  0.1981750E-03  0.6981036E+03  0.7818609E-02  0.9720481E-01
       -4   -1    0    0    0  501  0.00000000000E+00  0.00000000000E+00  0.19282124030E+03  0.19282542263E+03  0.12699999809E+01 0.  1.
        4   -1    0    0  501    0  0.00000000000E+00  0.00000000000E+00 -0.63185411417E+03  0.63185539049E+03  0.12699999809E+01 0. -1.
    10030    2    1    2    0    0  0.00000000000E+00  0.00000000000E+00 -0.43903287386E+03  0.82468081312E+03  0.69810355907E+03 0.  0.
        3    1    3    3  502    0  0.29873790039E+03 -0.12005911365E+03 -0.60241888339E+02  0.32754788842E+03  0.10100000352E+00 0.  1.
       -3    1    3    3    0  502 -0.29873790039E+03  0.12005911365E+03 -0.37879098552E+03  0.49713292469E+03  0.10100000352E+00 0. -1.
</event>
<event>
 5   0  0.5076796E-03  0.6950583E+03  0.7818609E-02  0.9725721E-01
       -2   -1    0    0    0  501  0.00000000000E+00  0.00000000000E+00  0.21373623288E+03  0.21373623290E+03  0.25500000920E-02 0.  1.
        2   -1    0    0  501    0  0.00000000000E+00  0.00000000000E+00 -0.56507264224E+03  0.56507264224E+03  0.25500000920E-02 0. -1.
    10030    2    1    2    0    0  0.00000000000E+00  0.00000000000E+00 -0.35133640936E+03  0.77880887514E+03  0.69505826479E+03 0.  0.
        5    1    3    3  502    0  0.29098634825E+03 -0.10641405345E+02 -0.38817289014E+03  0.48526959210E+03  0.46999998093E+01 0. -1.
       -5    1    3    3    0  502 -0.29098634825E+03  0.10641405345E+02  0.36836480780E+02  0.29353928305E+03  0.46999998093E+01 0.  1.
</event>
<event>
 5   0  0.5076796E-03  0.7010597E+03  0.7818609E-02  0.9715422E-01
        2   -1    0    0  501    0  0.00000000000E+00  0.00000000000E+00  0.30274249931E+03  0.30274249932E+03  0.25500000920E-02 0. -1.
       -2   -1    0    0    0  501  0.00000000000E+00  0.00000000000E+00 -0.40586037947E+03  0.40586037948E+03  0.25500000920E-02 0.  1.
    10030    2    1    2    0    0  0.00000000000E+00  0.00000000000E+00 -0.10311788016E+03  0.70860287880E+03  0.70105972829E+03 0.  0.
        5    1    3    3  502    0 -0.50927042852E+02  0.20654521825E+03  0.22999632621E+03  0.31332872665E+03  0.46999998093E+01 0. -1.
       -5    1    3    3    0  502  0.50927042852E+02 -0.20654521825E+03 -0.33311420637E+03  0.39527415215E+03  0.46999998093E+01 0.  1.
</event>
<event>
 5   0  0.5113683E-03  0.6992761E+03  0.7818609E-02  0.9718471E-01
        2   -1    0    0  501    0  0.00000000000E+00  0.00000000000E+00  0.90727173653E+03  0.90727173653E+03  0.25500000920E-02 0. -1.
       -2   -1    0    0    0  501  0.00000000000E+00  0.00000000000E+00 -0.13474105957E+03  0.13474105959E+03  0.25500000920E-02 0.  1.
    10030    2    1    2    0    0  0.00000000000E+00  0.00000000000E+00  0.77253067696E+03  0.10420127961E+04  0.69927606883E+03 0.  0.
        3    1    3    3  502    0  0.32938381956E+03 -0.10634347115E+02  0.56029803725E+03  0.65003129976E+03  0.10100000352E+00 0. -1.
       -3    1    3    3    0  502 -0.32938381956E+03  0.10634347115E+02  0.21223263971E+03  0.39198149636E+03  0.10100000352E+00 0.  1.
</event>
<event>
 5   0  0.5072407E-03  0.7009965E+03  0.7818609E-02  0.9715530E-01
       -2   -1    0    0    0  501  0.00000000000E+00  0.00000000000E+00  0.28760761773E+03  0.28760761774E+03  0.25500000920E-02 0.  1.
        2   -1    0    0  501    0  0.00000000000E+00  0.00000000000E+00 -0.42714107048E+03  0.42714107049E+03  0.25500000920E-02 0. -1.
    10030    2    1    2    0    0  0.00000000000E+00  0.00000000000E+00 -0.13953345275E+03  0.71474868823E+03  0.70099650705E+03 0.  0.
        1    1    3    3  502    0 -0.62306594300E+02  0.14585622586E+03  0.24892365740E+03  0.29515951205E+03  0.50400001928E-02 0.  1.
       -1    1    3    3    0  502  0.62306594300E+02 -0.14585622586E+03 -0.38845711015E+03  0.41958917618E+03  0.50400001928E-02 0. -1.
</event>
<event>
 5   0  0.2934483E-03  0.7005881E+03  0.7818609E-02  0.9716227E-01
       -1   -1    0    0    0  501  0.00000000000E+00  0.00000000000E+00  0.66677126026E+02  0.66677126217E+02  0.50400001928E-02 0.  1.
        1   -1    0    0  501    0  0.00000000000E+00  0.00000000000E+00 -0.18403003427E+04  0.18403003428E+04  0.50400001928E-02 0. -1.
    10030    2    1    2    0    0  0.00000000000E+00  0.00000000000E+00 -0.17736232167E+04  0.19069774690E+04  0.70058814740E+03 0.  0.
        5    1    3    3  502    0  0.31314568372E+03 -0.73769628201E+02 -0.12637982772E+04  0.13041128605E+04  0.46999998093E+01 0. -1.
       -5    1    3    3    0  502 -0.31314568372E+03  0.73769628201E+02 -0.50982493949E+03  0.60286460851E+03  0.46999998093E+01 0.  1.
</event>
<event>
 5   0  0.2913582E-03  0.7003561E+03  0.7818609E-02  0.9716623E-01
        1   -1    0    0  501    0  0.00000000000E+00  0.00000000000E+00  0.78934451211E+03  0.78934451212E+03  0.50400001928E-02 0. -1.
       -1   -1    0    0    0  501  0.00000000000E+00  0.00000000000E+00 -0.15534999167E+03  0.15534999175E+03  0.50400001928E-02 0.  1.
    10030    2    1    2    0    0  0.00000000000E+00  0.00000000000E+00  0.63399452044E+03  0.94469450387E+03  0.70035609064E+03 0.  0.
        1    1    3    3  502    0  0.18319265470E+03 -0.72980306039E+02 -0.73336699258E+02  0.21038998381E+03  0.50400001928E-02 0.  1.
       -1    1    3    3    0  502 -0.18319265470E+03  0.72980306039E+02  0.70733121969E+03  0.73430452006E+03  0.50400001928E-02 0. -1.
</event>
<event>
 5   0  0.1981750E-03  0.7005500E+03  0.7818609E-02  0.9716292E-01
        3   -1    0    0  501    0  0.00000000000E+00  0.00000000000E+00  0.91657499304E+02  0.91657554951E+02  0.10100000352E+00 0. -1.
       -3   -1    0    0    0  501  0.00000000000E+00  0.00000000000E+00 -0.13385979355E+04  0.13385979393E+04  0.10100000352E+00 0.  1.
    10030    2    1    2    0    0  0.00000000000E+00  0.00000000000E+00 -0.12469404362E+04  0.14302554943E+04  0.70055001781E+03 0.  0.
        4    1    3    3  502    0  0.12080470696E+03 -0.19776806534E+03 -0.87239411753E+02  0.24762534756E+03  0.12699999809E+01 0. -1.
       -4    1    3    3    0  502 -0.12080470696E+03  0.19776806534E+03 -0.11597010245E+04  0.11826301467E+04  0.12699999809E+01 0.  1.
</event>
<event>
 5   0  0.5023894E-03  0.6992147E+03  0.7818609E-02  0.9718576E-01
        2   -1    0    0  501    0  0.00000000000E+00  0.00000000000E+00  0.12695912003E+04  0.12695912003E+04  0.25500000920E-02 0. -1.
       -2   -1    0    0    0  501  0.00000000000E+00  0.00000000000E+00 -0.96271372801E+02  0.96271372834E+02  0.25500000920E-02 0.  1.
    10030    2    1    2    0    0  0.00000000000E+00  0.00000000000E+00  0.11733198275E+04  0.13658625732E+04  0.69921466740E+03 0.  0.
        2    1    3    3  502    0 -0.32557930489E+03  0.24549023746E+02  0.83080467394E+03  0.89265947852E+03  0.25500000920E-02 0. -1.
       -2    1    3    3    0  502  0.32557930489E+03 -0.24549023746E+02  0.34251515360E+03  0.47320309466E+03  0.25500000920E-02 0.  1.
</event>
<event>
 5   0  0.3013140E-03  0.6938629E+03  0.7818609E-02  0.9727785E-01
       -1   -1    0    0    0  501  0.00000000000E+00  0.00000000000E+00  0.61763766446E+03  0.61763766448E+03  0.50400001928E-02 0. -1.
        1   -1    0    0  501    0  0.00000000000E+00  0.00000000000E+00 -0.19487387545E+03  0.19487387552E+03  0.50400001928E-02 0.  1.
    10030    2    1    2    0    0  0.00000000000E+00  0.00000000000E+00  0.42276378901E+03  0.81251154000E+03  0.69386294131E+03 0.  0.
        2    1    3    3  502    0  0.21251026340E+03  0.25086872967E+03  0.81693158422E+02  0.33877648046E+03  0.25500000920E-02 0.  1.
       -2    1    3    3    0  502 -0.21251026340E+03 -0.25086872967E+03  0.34107063059E+03  0.47373505953E+03  0.25500000920E-02 0. -1.
</event>
<event>
 5   0  0.5072407E-03  0.7000244E+03  0.7818609E-02  0.9717191E-01
        2   -1    0    0  501    0  0.00000000000E+00  0.00000000000E+00  0.10303901620E+04  0.10303901620E+04  0.25500000920E-02 0.  1.
       -2   -1    0    0    0  501  0.00000000000E+00  0.00000000000E+00 -0.11889527636E+03  0.11889527639E+03  0.25500000920E-02 0. -1.
    10030    2    1    2    0    0  0.00000000000E+00  0.00000000000E+00  0.91149488559E+03  0.11492854383E+04  0.70002435124E+03 0.  0.
        1    1    3    3  502    0 -0.15660154264E+03  0.10379304532E+03 -0.29096075184E+02  0.19011475753E+03  0.50400001928E-02 0. -1.
       -1    1    3    3    0  502  0.15660154264E+03 -0.10379304532E+03  0.94059096077E+03  0.95917068081E+03  0.50400001928E-02 0.  1.
</event>
<event>
 5   0  0.5076796E-03  0.7007009E+03  0.7818609E-02  0.9716034E-01
        2   -1    0    0  501    0  0.00000000000E+00  0.00000000000E+00  0.28651472896E+03  0.28651472897E+03  0.25500000920E-02 0.  1.
       -2   -1    0    0    0  501  0.00000000000E+00  0.00000000000E+00 -0.42840882503E+03  0.42840882503E+03  0.25500000920E-02 0. -1.
    10030    2    1    2    0    0  0.00000000000E+00  0.00000000000E+00 -0.14189409607E+03  0.71492355400E+03  0.70070090165E+03 0.  0.
        5    1    3    3  502    0 -0.11560524565E+02  0.26569970535E+03  0.16170180186E+03  0.31128691247E+03  0.46999998093E+01 0.  1.
       -5    1    3    3    0  502  0.11560524565E+02 -0.26569970535E+03 -0.30359589792E+03  0.40363664153E+03  0.46999998093E+01 0. -1.
</event>
<event>
 5   0  0.1981750E-03  0.6990159E+03  0.7818609E-02  0.9718917E-01
        3   -1    0    0  501    0  0.00000000000E+00  0.00000000000E+00  0.22146908343E+03  0.22146910646E+03  0.10100000352E+00 0. -1.
       -3   -1    0    0    0  501  0.00000000000E+00  0.00000000000E+00 -0.55157042332E+03  0.55157043257E+03  0.10100000352E+00 0.  1.
    10030    2    1    2    0    0  0.00000000000E+00  0.00000000000E+00 -0.33010133989E+03  0.77303953903E+03  0.69901590418E+03 0.  0.
        4    1    3    3  502    0  0.33082561966E+03 -0.95069037739E+02 -0.23205089565E+03  0.41513003220E+03  0.12699999809E+01 0.  1.
       -4    1    3    3    0  502 -0.33082561966E+03  0.95069037739E+02 -0.98050444240E+02  0.35790950683E+03  0.12699999809E+01 0. -1.
</event>
<event>
 5   0  0.2937617E-03  0.7005971E+03  0.7818609E-02  0.9716212E-01
        1   -1    0    0  501    0  0.00000000000E+00  0.00000000000E+00  0.61294946737E+03  0.61294946739E+03  0.50400001928E-02 0. -1.
       -1   -1    0    0    0  501  0.00000000000E+00  0.00000000000E+00 -0.20019442669E+03  0.20019442675E+03  0.50400001928E-02 0.  1.
    10030    2    1    2    0    0  0.00000000000E+00  0.00000000000E+00  0.41275504068E+03  0.81314389414E+03  0.70059708034E+03 0.  0.
        3    1    3    3  502    0 -0.27427362406E+03 -0.16177937537E+03  0.36945458777E+02  0.32056756585E+03  0.10100000352E+00 0.  1.
       -3    1    3    3    0  502  0.27427362406E+03  0.16177937537E+03  0.37580958190E+03  0.49257632830E+03  0.10100000352E+00 0. -1.
</event>
<event>
 5   0  0.2934483E-03  0.7000983E+03  0.7818609E-02  0.9717064E-01
       -1   -1    0    0    0  501  0.00000000000E+00  0.00000000000E+00  0.19766648923E+03  0.19766648929E+03  0.50400001928E-02 0.  1.
        1   -1    0    0  501    0  0.00000000000E+00  0.00000000000E+00 -0.61990476617E+03  0.61990476619E+03  0.50400001928E-02 0. -1.
    10030    2    1    2    0    0  0.00000000000E+00  0.00000000000E+00 -0.42223827694E+03  0.81757125548E+03  0.70009827543E+03 0.  0.
        5    1    3    3  502    0  0.12513317266E+03 -0.20434741489E+03 -0.50906969279E+03  0.56266350422E+03  0.46999998093E+01 0. -1.
       -5    1    3    3    0  502 -0.12513317266E+03  0.20434741489E+03  0.86831415850E+02  0.25490775125E+03  0.46999998093E+01 0.  1.
</event>
<event>
 5   0  0.5072407E-03  0.7004669E+03  0.7818609E-02  0.9716434E-01
       -2   -1    0    0    0  501  0.00000000000E+00  0.00000000000E+00  0.64605626119E+02  0.64605626170E+02  0.25500000920E-02 0. -1.
        2   -1    0    0  501    0  0.00000000000E+00  0.00000000000E+00 -0.18986499301E+04  0.18986499301E+04  0.25500000920E-02 0.  1.
    10030    2    1    2    0    0  0.00000000000E+00  0.00000000000E+00 -0.18340443040E+04  0.19632555563E+04  0.70046689448E+03 0.  0.
        1    1    3    3  502    0 -0.75793097327E+02 -0.34192399300E+03 -0.90968285170E+03  0.97477151235E+03  0.50400001928E-02 0.  1.
       -1    1    3    3    0  502  0.75793097327E+02  0.34192399300E+03 -0.92436145228E+03  0.98848404392E+03  0.50400001928E-02 0. -1.
</event>
<event>
 5   0  0.4878235E-03  0.7004599E+03  0.7818609E-02  0.9716446E-01
        2   -1    0    0  501    0  0.00000000000E+00  0.00000000000E+00  0.21883718481E+03  0.21883718482E+03  0.25500000920E-02 0. -1.
       -2   -1    0    0    0  501  0.00000000000E+00  0.00000000000E+00 -0.56051260754E+03  0.56051260755E+03  0.25500000920E-02 0.  1.
    10030    2    1    2    0    0  0.00000000000E+00  0.00000000000E+00 -0.34167542274E+03  0.77934979237E+03  0.70045985207E+03 0.  0.
        4    1    3    3  502    0 -0.30801577956E+03 -0.16330633051E+03 -0.20801856938E+03  0.40597538860E+03  0.12699999809E+01 0. -1.
       -4    1    3    3    0  502  0.30801577956E+03  0.16330633051E+03 -0.13365685336E+03  0.37337440377E+03  0.12699999809E+01 0.  1.
</event>
<event>
 5   0  0.1981750E-03  0.6999033E+03  0.7818609E-02  0.9717398E-01
        4   -1    0    0  501    0  0.00000000000E+00  0.00000000000E+00  0.39247934648E+03  0.39248140123E+03  0.12699999809E+01 0. -1.
       -4   -1    0    0    0  501  0.00000000000E+00  0.00000000000E+00 -0.31202791944E+03  0.31203050398E+03  0.12699999809E+01 0.  1.
    10030    2    1    2    0    0  0.00000000000E+00  0.00000000000E+00  0.80451427035E+02  0.70451190521E+03  0.69990327365E+03 0.  0.
        1    1    3    3  502    0  0.19390333836E+03 -0.29008818730E+03  0.67169242960E+02  0.35533275709E+03  0.50400001928E-02 0.  1.
       -1    1    3    3    0  502 -0.19390333836E+03  0.29008818730E+03  0.13282184075E+02  0.34917914811E+03  0.50400001928E-02 0. -1.
</event>
<event>
 5   0  0.3013140E-03  0.7000887E+03  0.7818609E-02  0.9717080E-01
       -1   -1    0    0    0  501  0.00000000000E+00  0.00000000000E+00  0.65916004740E+02  0.65916004933E+02  0.50400001928E-02 0.  1.
        1   -1    0    0  501    0  0.00000000000E+00  0.00000000000E+00 -0.18588968042E+04  0.18588968042E+04  0.50400001928E-02 0. -1.
    10030    2    1    2    0    0  0.00000000000E+00  0.00000000000E+00 -0.17929807994E+04  0.19248128091E+04  0.70008871080E+03 0.  0.
        2    1    3    3  502    0  0.76561656890E+02  0.20808252205E+03 -0.16412184741E+04  0.16561274417E+04  0.25500000920E-02 0. -1.
       -2    1    3    3    0  502 -0.76561656890E+02 -0.20808252205E+03 -0.15176232535E+03  0.26868536747E+03  0.25500000920E-02 0.  1.
</event>
<event>
 5   0  0.5113683E-03  0.7007685E+03  0.7818609E-02  0.9715919E-01
        2   -1    0    0  501    0  0.00000000000E+00  0.00000000000E+00  0.15414395376E+04  0.15414395376E+04  0.25500000920E-02 0. -1.
       -2   -1    0    0    0  501  0.00000000000E+00  0.00000000000E+00 -0.79645761828E+02  0.79645761869E+02  0.25500000920E-02 0.  1.
    10030    2    1    2    0    0  0.00000000000E+00  0.00000000000E+00  0.14617937758E+04  0.16210852995E+04  0.70076851048E+03 0.  0.
        3    1    3    3  502    0  0.26759375303E+03 -0.94511057680E+01  0.20810532209E+03  0.33912177067E+03  0.10100000352E+00 0. -1.
       -3    1    3    3    0  502 -0.26759375303E+03  0.94511057680E+01  0.12536884537E+04  0.12819635288E+04  0.10100000352E+00 0.  1.
</event>
<event>
 5   0  0.2938783E-03  0.7001046E+03  0.7818609E-02  0.9717053E-01
       -1   -1    0    0    0  501  0.00000000000E+00  0.00000000000E+00  0.37539478852E+03  0.37539478855E+03  0.50400001928E-02 0. -1.
        1   -1    0    0  501    0  0.00000000000E+00  0.00000000000E+00 -0.32642065721E+03  0.32642065725E+03  0.50400001928E-02 0.  1.
    10030    2    1    2    0    0  0.00000000000E+00  0.00000000000E+00  0.48974131310E+02  0.70181544580E+03  0.70010460249E+03 0.  0.
        4    1    3    3  502    0 -0.15108056250E+03  0.22734186322E+03 -0.19519531210E+03  0.33557783286E+03  0.12699999809E+01 0.  1.
       -4    1    3    3    0  502  0.15108056250E+03 -0.22734186322E+03  0.24416944341E+03  0.36623761294E+03  0.12699999809E+01 0. -1.
</event>
<event>
 5   0  0.5076796E-03  0.6885078E+03  0.7818609E-02  0.9737090E-01
       -2   -1    0    0    0  501  0.00000000000E+00  0.00000000000E+00  0.28036479272E+03  0.28036479274E+03  0.25500000920E-02 0.  1.
        2   -1    0    0  501    0  0.00000000000E+00  0.00000000000E+00 -0.42270191591E+03  0.42270191592E+03  0.25500000920E-02 0. -1.
    10030    2    1    2    0    0  0.00000000000E+00  0.00000000000E+00 -0.14233712319E+03  0.70306670866E+03  0.68850776334E+03 0.  0.
        5    1    3    3  502    0 -0.21773558556E+03 -0.14867816579E+02 -0.34299056751E+03  0.40656420967E+03  0.46999998093E+01 0. -1.
       -5    1    3    3    0  502  0.21773558556E+03  0.14867816579E+02  0.20065344432E+03  0.29650249898E+03  0.46999998093E+01 0.  1.
</event>
<event>
 5   0  0.3013140E-03  0.7004295E+03  0.7818609E-02  0.9716498E-01
        1   -1    0    0  501    0  0.00000000000E+00  0.00000000000E+00  0.25137907154E+03  0.25137907159E+03  0.50400001928E-02 0.  1.
       -1   -1    0    0    0  501  0.00000000000E+00  0.00000000000E+00 -0.48790998446E+03  0.48790998449E+03  0.50400001928E-02 0. -1.
    10030    2    1    2    0    0  0.00000000000E+00  0.00000000000E+00 -0.23653091292E+03  0.73928905608E+03  0.70042946517E+03 0.  0.
        2    1    3    3  502    0 -0.21487796274E+03 -0.25945906386E+03 -0.21927664816E+03  0.40196242750E+03  0.25500000920E-02 0. -1.
       -2    1    3    3    0  502  0.21487796274E+03  0.25945906386E+03 -0.17254264764E+02  0.33732662858E+03  0.25500000920E-02 0.  1.
</event>
<event>
 5   0  0.5072407E-03  0.7003970E+03  0.7818609E-02  0.9716554E-01
       -2   -1    0    0    0  501  0.00000000000E+00  0.00000000000E+00  0.29316410219E+03  0.29316410221E+03  0.25500000920E-02 0. -1.
        2   -1    0    0  501    0  0.00000000000E+00  0.00000000000E+00 -0.41832876328E+03  0.41832876329E+03  0.25500000920E-02 0.  1.
    10030    2    1    2    0    0  0.00000000000E+00  0.00000000000E+00 -0.12516466109E+03  0.71149286550E+03  0.70039696263E+03 0.  0.
        1    1    3    3  502    0 -0.88292335141E+02  0.37483039292E+02  0.27955972452E+03  0.29555736207E+03  0.50400001928E-02 0. -1.
       -1    1    3    3    0  502  0.88292335141E+02 -0.37483039292E+02 -0.40472438560E+03  0.41593550342E+03  0.50400001928E-02 0.  1.
</event>
<event>
 5   0  0.5023894E-03  0.7004763E+03  0.7818609E-02  0.9716418E-01
        2   -1    0    0  501    0  0.00000000000E+00  0.00000000000E+00  0.12784428739E+04  0.12784428739E+04  0.25500000920E-02 0.  1.
       -2   -1    0    0    0  501  0.00000000000E+00  0.00000000000E+00 -0.95950135576E+02  0.95950135610E+02  0.25500000920E-02 0. -1.
    10030    2    1    2    0    0  0.00000000000E+00  0.00000000000E+00  0.11824927383E+04  0.13743930095E+04  0.70047631537E+03 0.  0.
        2    1    3    3  502    0  0.30376398881E+03  0.78083693239E+01  0.24952129136E+03  0.39318495187E+03  0.25500000920E-02 0. -1.
       -2    1    3    3    0  502 -0.30376398881E+03 -0.78083693239E+01  0.93297144694E+03  0.98120805762E+03  0.25500000920E-02 0.  1.
</event>
<event>
 5   0  0.2934483E-03  0.7005682E+03  0.7818609E-02  0.9716261E-01
       -1   -1    0    0    0  501  0.00000000000E+00  0.00000000000E+00  0.32030210340E+03  0.32030210344E+03  0.50400001928E-02 0.  1.
        1   -1    0    0  501    0  0.00000000000E+00  0.00000000000E+00 -0.38307257016E+03  0.38307257020E+03  0.50400001928E-02 0. -1.
    10030    2    1    2    0    0  0.00000000000E+00  0.00000000000E+00 -0.62770466763E+02  0.70337467364E+03  0.70056819798E+03 0.  0.
        5    1    3    3  502    0 -0.11213466048E+03  0.85830398015E+02  0.29042307702E+03  0.32296856344E+03  0.46999998093E+01 0.  1.
       -5    1    3    3    0  502  0.11213466048E+03 -0.85830398015E+02 -0.35319354379E+03  0.38040611020E+03  0.46999998093E+01 0. -1.
</event>
<event>
 5   0  0.2938783E-03  0.7017987E+03  0.7818609E-02  0.9714161E-01
        1   -1    0    0  501    0  0.00000000000E+00  0.00000000000E+00  0.12170295725E+04  0.12170295725E+04  0.50400001928E-02 0.  1.
       -1   -1    0    0    0  501  0.00000000000E+00  0.00000000000E+00 -0.10117285044E+03  0.10117285056E+03  0.50400001928E-02 0. -1.
    10030    2    1    2    0    0  0.00000000000E+00  0.00000000000E+00  0.11158567220E+04  0.13182024231E+04  0.70179869195E+03 0.  0.
        4    1    3    3  502    0  0.83838863398E+02 -0.33558415271E+03  0.44707471027E+03  0.56526373316E+03  0.12699999809E+01 0. -1.
       -4    1    3    3    0  502 -0.83838863398E+02  0.33558415271E+03  0.66878201177E+03  0.75293868989E+03  0.12699999809E+01 0.  1.
</event>
<event>
 5   0  0.1981750E-03  0.6964941E+03  0.7818609E-02  0.9723247E-01
        3   -1    0    0  501    0  0.00000000000E+00  0.00000000000E+00  0.11730352186E+04  0.11730352229E+04  0.10100000352E+00 0. -1.
       -3   -1    0    0    0  501  0.00000000000E+00  0.00000000000E+00 -0.10338648412E+03  0.10338653346E+03  0.10100000352E+00 0.  1.
    10030    2    1    2    0    0  0.00000000000E+00  0.00000000000E+00  0.10696487345E+04  0.12764217564E+04  0.69649413856E+03 0.  0.
        2    1    3    3  502    0  0.75100995299E+02 -0.34004525125E+03  0.53069020979E+03  0.63474643060E+03  0.25500000920E-02 0. -1.
       -2    1    3    3    0  502 -0.75100995299E+02  0.34004525125E+03  0.53895852467E+03  0.64167532578E+03  0.25500000920E-02 0.  1.
</event>
<event>
 5   0  0.4878235E-03  0.6983742E+03  0.7818609E-02  0.9720017E-01
       -2   -1    0    0    0  501  0.00000000000E+00  0.00000000000E+00  0.71687697847E+02  0.71687697892E+02  0.25500000920E-02 0. -1.
        2   -1    0    0  501    0  0.00000000000E+00  0.00000000000E+00 -0.17008723538E+04  0.17008723538E+04  0.25500000920E-02 0.  1.
    10030    2    1    2    0    0  0.00000000000E+00  0.00000000000E+00 -0.16291846560E+04  0.17725600517E+04  0.69837417884E+03 0.  0.
        4    1    3    3  502    0 -0.23049181507E+02 -0.33206294045E+02 -0.16949082066E+04  0.16953906229E+04  0.12699999809E+01 0.  1.
       -4    1    3    3    0  502  0.23049181507E+02  0.33206294045E+02  0.65723550607E+02  0.77169428770E+02  0.12699999809E+01 0. -1.
</event>
<event>
 5   0  0.5076796E-03  0.7063532E+03  0.7818609E-02  0.9706429E-01
       -2   -1    0    0    0  501  0.00000000000E+00  0.00000000000E+00  0.18510074433E+03  0.18510074435E+03  0.25500000920E-02 0.  1.
        2   -1    0    0  501    0  0.00000000000E+00  0.00000000000E+00 -0.67386936070E+03  0.67386936070E+03  0.25500000920E-02 0. -1.
    10030    2    1    2    0    0  0.00000000000E+00  0.00000000000E+00 -0.48876861637E+03  0.85897010505E+03  0.70635322681E+03 0.  0.
        5    1    3    3  502    0 -0.78327335190E+02  0.29552148481E+03 -0.29435010434E+02  0.30717524194E+03  0.46999998093E+01 0.  1.
       -5    1    3    3    0  502  0.78327335190E+02 -0.29552148481E+03 -0.45933360593E+03  0.55179486311E+03  0.46999998093E+01 0. -1.
</event>
<event>
 5   0  0.2938783E-03  0.7002951E+03  0.7818609E-02  0.9716728E-01
        1   -1    0    0  501    0  0.00000000000E+00  0.00000000000E+00  0.94307896342E+03  0.94307896343E+03  0.50400001928E-02 0. -1.
       -1   -1    0    0    0  501  0.00000000000E+00  0.00000000000E+00 -0.13000321946E+03  0.13000321956E+03  0.50400001928E-02 0.  1.
    10030    2    1    2    0    0  0.00000000000E+00  0.00000000000E+00  0.81307574396E+03  0.10730821830E+04  0.70029508497E+03 0.  0.
        4    1    3    3  502    0  0.50338148922E+02 -0.24981646891E+03  0.38589141515E+02  0.25774586732E+03  0.12699999809E+01 0.  1.
       -4    1    3    3    0  502 -0.50338148922E+02  0.24981646891E+03  0.77448660245E+03  0.81533631567E+03  0.12699999809E+01 0. -1.
</event>
<event>
 5   0  0.4878235E-03  0.7059504E+03  0.7818609E-02  0.9707110E-01
        2   -1    0    0  501    0  0.00000000000E+00  0.00000000000E+00  0.18588113123E+04  0.18588113123E+04  0.25500000920E-02 0.  1.
       -2   -1    0    0    0  501  0.00000000000E+00  0.00000000000E+00 -0.67027510096E+02  0.67027510144E+02  0.25500000920E-02 0. -1.
    10030    2    1    2    0    0  0.00000000000E+00  0.00000000000E+00  0.17917838022E+04  0.19258388224E+04  0.70595040632E+03 0.  0.
        4    1    3    3  502    0  0.21281882652E+03  0.25063495354E+03  0.12461000943E+04  0.12887500886E+04  0.12699999809E+01 0.  1.
       -4    1    3    3    0  502 -0.21281882652E+03 -0.25063495354E+03  0.54568370785E+03  0.63708873383E+03  0.12699999809E+01 0. -1.
</event>
<event>
 5   0  0.1981750E-03  0.6998444E+03  0.7818609E-02  0.9717498E-01
        3   -1    0    0  501    0  0.00000000000E+00  0.00000000000E+00  0.51826674334E+03  0.51826675318E+03  0.10100000352E+00 0. -1.
       -3   -1    0    0    0  501  0.00000000000E+00  0.00000000000E+00 -0.23625970995E+03  0.23625973154E+03  0.10100000352E+00 0.  1.
    10030    2    1    2    0    0  0.00000000000E+00  0.00000000000E+00  0.28200703338E+03  0.75452648472E+03  0.69984444648E+03 0.  0.
        2    1    3    3  502    0 -0.28922138145E+02 -0.34504688657E+03  0.19546498327E+03  0.39761841469E+03  0.25500000920E-02 0.  1.
       -2    1    3    3    0  502  0.28922138145E+02  0.34504688657E+03  0.86542050111E+02  0.35690807003E+03  0.25500000920E-02 0. -1.
</event>
<event>
 5   0  0.2937617E-03  0.7027804E+03  0.7818609E-02  0.9712489E-01
       -1   -1    0    0    0  501  0.00000000000E+00  0.00000000000E+00  0.28694687299E+03  0.28694687303E+03  0.50400001928E-02 0. -1.
        1   -1    0    0  501    0  0.00000000000E+00  0.00000000000E+00 -0.43030636140E+03  0.43030636143E+03  0.50400001928E-02 0.  1.
    10030    2    1    2    0    0  0.00000000000E+00  0.00000000000E+00 -0.14335948841E+03  0.71725323446E+03  0.70278037780E+03 0.  0.
        3    1    3    3  502    0  0.23661945948E+03  0.14735342509E+03  0.14667306449E+03  0.31498380679E+03  0.10100000352E+00 0. -1.
       -3    1    3    3    0  502 -0.23661945948E+03 -0.14735342509E+03 -0.29003255290E+03  0.40226942767E+03  0.10100000352E+00 0.  1.
</event>
<event>
 5   0  0.3013140E-03  0.6994274E+03  0.7818609E-02  0.9718212E-01
       -1   -1    0    0    0  501  0.00000000000E+00  0.00000000000E+00  0.39076198718E+03  0.39076198721E+03  0.50400001928E-02 0.  1.
        1   -1    0    0  501    0  0.00000000000E+00  0.00000000000E+00 -0.31297740990E+03  0.31297740994E+03  0.50400001928E-02 0. -1.
    10030    2    1    2    0    0  0.00000000000E+00  0.00000000000E+00  0.77784577279E+02  0.70373939715E+03  0.69942740770E+03 0.  0.
        2    1    3    3  502    0 -0.31028267805E+03 -0.15987560720E+03  0.17215921295E+02  0.34947380163E+03  0.25500000920E-02 0. -1.
       -2    1    3    3    0  502  0.31028267805E+03  0.15987560720E+03  0.60568655984E+02  0.35426559552E+03  0.25500000920E-02 0.  1.
</event>
<event>
 5   0  0.3013140E-03  0.6998445E+03  0.7818609E-02  0.9717498E-01
        1   -1    0    0  501    0  0.00000000000E+00  0.00000000000E+00  0.68660766214E+03  0.68660766216E+03  0.50400001928E-02 0.  1.
       -1   -1    0    0    0  501  0.00000000000E+00  0.00000000000E+00 -0.17833415236E+03  0.17833415243E+03  0.50400001928E-02 0. -1.
    10030    2    1    2    0    0  0.00000000000E+00  0.00000000000E+00  0.50827350978E+03  0.86494181459E+03  0.69984454123E+03 0.  0.
        2    1    3    3  502    0 -0.23513738822E+03 -0.76169870741E+02  0.56026774977E+03  0.61236540724E+03  0.25500000920E-02 0.  1.
       -2    1    3    3    0  502  0.23513738822E+03  0.76169870741E+02 -0.51994239997E+02  0.25257640734E+03  0.25500000920E-02 0. -1.
</event>
<event>
 5   0  0.2913582E-03  0.6998705E+03  0.7818609E-02  0.9717454E-01
        1   -1    0    0  501    0  0.00000000000E+00  0.00000000000E+00  0.28919073445E+03  0.28919073450E+03  0.50400001928E-02 0. -1.
       -1   -1    0    0    0  501  0.00000000000E+00  0.00000000000E+00 -0.42343916263E+03  0.42343916266E+03  0.50400001928E-02 0.  1.
    10030    2    1    2    0    0  0.00000000000E+00  0.00000000000E+00 -0.13424842818E+03  0.71262989716E+03  0.69987050935E+03 0.  0.
        1    1    3    3  502    0 -0.31983759115E+03  0.13907186105E+03 -0.38008944189E+02  0.35083008296E+03  0.50400001928E-02 0.  1.
       -1    1    3    3    0  502  0.31983759115E+03 -0.13907186105E+03 -0.96239483993E+02  0.36179981420E+03  0.50400001928E-02 0. -1.
</event>
<event>
 5   0  0.2934483E-03  0.7005031E+03  0.7818609E-02  0.9716372E-01
        1   -1    0    0  501    0  0.00000000000E+00  0.00000000000E+00  0.30105780514E+03  0.30105780518E+03  0.50400001928E-02 0.  1.
       -1   -1    0    0    0  501  0.00000000000E+00  0.00000000000E+00 -0.40748368185E+03  0.40748368188E+03  0.50400001928E-02 0. -1.
    10030    2    1    2    0    0  0.00000000000E+00  0.00000000000E+00 -0.10642587671E+03  0.70854148706E+03  0.70050308468E+03 0.  0.
        5    1    3    3  502    0 -0.24849501663E+03  0.22327439800E+03 -0.15955175828E+03  0.37024327632E+03  0.46999998093E+01 0. -1.
       -5    1    3    3    0  502  0.24849501663E+03 -0.22327439800E+03  0.53125881573E+02  0.33829821073E+03  0.46999998093E+01 0.  1.
</event>
<event>
 5   0  0.3013140E-03  0.7000607E+03  0.7818609E-02  0.9717128E-01
       -1   -1    0    0    0  501  0.00000000000E+00  0.00000000000E+00  0.25005836227E+03  0.25005836232E+03  0.50400001928E-02 0. -1.
        1   -1    0    0  501    0  0.00000000000E+00  0.00000000000E+00 -0.48997056285E+03  0.48997056287E+03  0.50400001928E-02 0.  1.
    10030    2    1    2    0    0  0.00000000000E+00  0.00000000000E+00 -0.23991220058E+03  0.74002892519E+03  0.70006067318E+03 0.  0.
        2    1    3    3  502    0 -0.96518139819E+02 -0.23806554375E+03  0.13137925800E+03  0.28853329768E+03  0.25500000920E-02 0. -1.
       -2    1    3    3    0  502  0.96518139819E+02  0.23806554375E+03 -0.37129145858E+03  0.45149562750E+03  0.25500000920E-02 0.  1.
</event>
<event>
 5   0  0.4878235E-03  0.6999583E+03  0.7818609E-02  0.9717303E-01
       -2   -1    0    0    0  501  0.00000000000E+00  0.00000000000E+00  0.84290226560E+03  0.84290226560E+03  0.25500000920E-02 0. -1.
        2   -1    0    0  501    0  0.00000000000E+00  0.00000000000E+00 -0.14531389805E+03  0.14531389808E+03  0.25500000920E-02 0.  1.
    10030    2    1    2    0    0  0.00000000000E+00  0.00000000000E+00  0.69758836755E+03  0.98821616368E+03  0.69995832420E+03 0.  0.
        4    1    3    3  502    0  0.30523351654E+02 -0.11918660529E+03 -0.11377220986E+03  0.16757938571E+03  0.12699999809E+01 0.  1.
       -4    1    3    3    0  502 -0.30523351654E+02  0.11918660529E+03  0.81136057741E+03  0.82063677797E+03  0.12699999809E+01 0. -1.
</event>
<event>
 5   0  0.4878235E-03  0.6994066E+03  0.7818609E-02  0.9718247E-01
        2   -1    0    0  501    0  0.00000000000E+00  0.00000000000E+00  0.22957293424E+03  0.22957293425E+03  0.25500000920E-02 0. -1.
       -2   -1    0    0    0  501  0.00000000000E+00  0.00000000000E+00 -0.53269526357E+03  0.53269526358E+03  0.25500000920E-02 0.  1.
    10030    2    1    2    0    0  0.00000000000E+00  0.00000000000E+00 -0.30312232933E+03  0.76226819783E+03  0.69940664772E+03 0.  0.
        4    1    3    3  502    0 -0.62521971881E+02 -0.29217062251E+03 -0.34960179333E+03  0.45988661257E+03  0.12699999809E+01 0.  1.
       -4    1    3    3    0  502  0.62521971881E+02  0.29217062251E+03  0.46479463995E+02  0.30238158525E+03  0.12699999809E+01 0. -1.
</event>
<event>
 5   0  0.5072407E-03  0.6995860E+03  0.7818609E-02  0.9717941E-01
       -2   -1    0    0    0  501  0.00000000000E+00  0.00000000000E+00  0.33064831649E+03  0.33064831650E+03  0.25500000920E-02 0. -1.
        2   -1    0    0  501    0  0.00000000000E+00  0.00000000000E+00 -0.37004611970E+03  0.37004611970E+03  0.25500000920E-02 0.  1.
    10030    2    1    2    0    0  0.00000000000E+00  0.00000000000E+00 -0.39397803207E+02  0.70069443620E+03  0.69958595328E+03 0.  0.
        1    1    3    3  502    0  0.15209721120E+03 -0.19980262546E+03  0.22420383701E+03  0.33663334854E+03  0.50400001928E-02 0. -1.
       -1    1    3    3    0  502 -0.15209721120E+03  0.19980262546E+03 -0.26360164022E+03  0.36406108766E+03  0.50400001928E-02 0.  1.
</event>
<event>
 5   0  0.2938783E-03  0.7000706E+03  0.7818609E-02  0.9717111E-01
        1   -1    0    0  501    0  0.00000000000E+00  0.00000000000E+00  0.10793321724E+04  0.10793321724E+04  0.50400001928E-02 0.  1.
       -1   -1    0    0    0  501  0.00000000000E+00  0.00000000000E+00 -0.11351900771E+03  0.11351900782E+03  0.50400001928E-02 0. -1.
    10030    2    1    2    0    0  0.00000000000E+00  0.00000000000E+00  0.96581316468E+03  0.11928511802E+04  0.70007061722E+03 0.  0.
        4    1    3    3  502    0  0.18593211445E+03  0.16438681535E+03  0.90349529078E+03  0.93696271516E+03  0.12699999809E+01 0.  1.
       -4    1    3    3    0  502 -0.18593211445E+03 -0.16438681535E+03  0.62317873902E+02  0.25588846506E+03  0.12699999809E+01 0. -1.
</event>
<event>
 5   0  0.2938783E-03  0.7070254E+03  0.7818609E-02  0.9705293E-01
       -1   -1    0    0    0  501  0.00000000000E+00  0.00000000000E+00  0.13667008054E+03  0.13667008064E+03  0.50400001928E-02 0. -1.
        1   -1    0    0  501    0  0.00000000000E+00  0.00000000000E+00 -0.91440090457E+03  0.91440090459E+03  0.50400001928E-02 0.  1.
    10030    2    1    2    0    0  0.00000000000E+00  0.00000000000E+00 -0.77773082403E+03  0.10510709852E+04  0.70702544603E+03 0.  0.
        4    1    3    3  502    0  0.24105618948E+02  0.23483608702E+03  0.23151811333E+01  0.23608481865E+03  0.12699999809E+01 0. -1.
       -4    1    3    3    0  502 -0.24105618948E+02 -0.23483608702E+03 -0.78004600516E+03  0.81498616657E+03  0.12699999809E+01 0.  1.
</event>
<event>
 5   0  0.5076796E-03  0.6983618E+03  0.7818609E-02  0.9720038E-01
        2   -1    0    0  501    0  0.00000000000E+00  0.00000000000E+00  0.77267920880E+03  0.77267920880E+03  0.25500000920E-02 0. -1.
       -2   -1    0    0    0  501  0.00000000000E+00  0.00000000000E+00 -0.15779806764E+03  0.15779806766E+03  0.25500000920E-02 0.  1.
    10030    2    1    2    0    0  0.00000000000E+00  0.00000000000E+00  0.61488114115E+03  0.93047727646E+03  0.69836175745E+03 0.  0.
        5    1    3    3  502    0 -0.22784256063E+03  0.12570932402E+03  0.61760030540E+03  0.67019944331E+03  0.46999998093E+01 0. -1.
       -5    1    3    3    0  502  0.22784256063E+03 -0.12570932402E+03 -0.27191642489E+01  0.26027783315E+03  0.46999998093E+01 0.  1.
</event>
<event>
 5   0  0.2934483E-03  0.6991721E+03  0.7818609E-02  0.9718649E-01
       -1   -1    0    0    0  501  0.00000000000E+00  0.00000000000E+00  0.13018756300E+03  0.13018756309E+03  0.50400001928E-02 0.  1.
        1   -1    0    0  501    0  0.00000000000E+00  0.00000000000E+00 -0.93872557019E+03  0.93872557020E+03  0.50400001928E-02 0. -1.
    10030    2    1    2    0    0  0.00000000000E+00  0.00000000000E+00 -0.80853800719E+03  0.10689131333E+04  0.69917206570E+03 0.  0.
        5    1    3    3  502    0 -0.27214760288E+03 -0.12016058501E+03 -0.68486361772E+03  0.74670151253E+03  0.46999998093E+01 0. -1.
       -5    1    3    3    0  502  0.27214760288E+03  0.12016058501E+03 -0.12367438947E+03  0.32221162076E+03  0.46999998093E+01 0.  1.
</event>
<event>
 5   0  0.2934483E-03  0.6955262E+03  0.7818609E-02  0.9724914E-01
       -1   -1    0    0    0  501  0.00000000000E+00  0.00000000000E+00  0.70876917862E+03  0.70876917863E+03  0.50400001928E-02 0.  1.
        1   -1    0    0  501    0  0.00000000000E+00  0.00000000000E+00 -0.17063264908E+03  0.17063264916E+03  0.50400001928E-02 0. -1.
    10030    2    1    2    0    0  0.00000000000E+00  0.00000000000E+00  0.53813652953E+03  0.87940182779E+03  0.69552616795E+03 0.  0.
        5    1    3    3  502    0  0.14758086106E+03  0.15142244723E+03  0.61810790676E+03  0.65329039674E+03  0.46999998093E+01 0.  1.
       -5    1    3    3    0  502 -0.14758086106E+03 -0.15142244723E+03 -0.79971377231E+02  0.22611143105E+03  0.46999998093E+01 0. -1.
</event>
<event>
 5   0  0.5023894E-03  0.6997766E+03  0.7818609E-02  0.9717614E-01
        2   -1    0    0  501    0  0.00000000000E+00  0.00000000000E+00  0.20880594081E+03  0.20880594083E+03  0.25500000920E-02 0.  1.
       -2   -1    0    0    0  501  0.00000000000E+00  0.00000000000E+00 -0.58629467553E+03  0.58629467553E+03  0.25500000920E-02 0. -1.
    10030    2    1    2    0    0  0.00000000000E+00  0.00000000000E+00 -0.37748873472E+03  0.79510061636E+03  0.69977656813E+03 0.  0.
        2    1    3    3  502    0 -0.13575131478E+03 -0.99927652869E+01  0.17748819780E+03  0.22367461900E+03  0.25500000920E-02 0.  1.
       -2    1    3    3    0  502  0.13575131478E+03  0.99927652869E+01 -0.55497693252E+03  0.57142599736E+03  0.25500000920E-02 0. -1.
</event>
<event>
 5   0  0.2937617E-03  0.7031730E+03  0.7818609E-02  0.9711821E-01
        1   -1    0    0  501    0  0.00000000000E+00  0.00000000000E+00  0.77444279728E+03  0.77444279730E+03  0.50400001928E-02 0. -1.
       -1   -1    0    0    0  501  0.00000000000E+00  0.00000000000E+00 -0.15961547521E+03  0.15961547529E+03  0.50400001928E-02 0.  1.
    10030    2    1    2    0    0  0.00000000000E+00  0.00000000000E+00  0.61482732207E+03  0.93405827259E+03  0.70317296637E+03 0.  0.
        3    1    3    3  502    0  0.23916448328E+01  0.34934800049E+03  0.35993465135E+03  0.50160014838E+03  0.10100000352E+00 0. -1.
       -3    1    3    3    0  502 -0.23916448328E+01 -0.34934800049E+03  0.25489267072E+03  0.43245812421E+03  0.10100000352E+00 0.  1.
</event>
<event>
 5   0  0.5113683E-03  0.7007986E+03  0.7818609E-02  0.9715867E-01
       -2   -1    0    0    0  501  0.00000000000E+00  0.00000000000E+00  0.99772292076E+02  0.99772292109E+02  0.25500000920E-02 0. -1.
        2   -1    0    0  501    0  0.00000000000E+00  0.00000000000E+00 -0.12305988252E+04  0.12305988252E+04  0.25500000920E-02 0.  1.
    10030    2    1    2    0    0  0.00000000000E+00  0.00000000000E+00 -0.11308265331E+04  0.13303711173E+04  0.70079858857E+03 0.  0.
        3    1    3    3  502    0  0.63004842555E+02  0.29067729292E+00 -0.12197571016E+04  0.12213832698E+04  0.10100000352E+00 0.  1.
       -3    1    3    3    0  502 -0.63004842555E+02 -0.29067729292E+00  0.88930568508E+02  0.10898784746E+03  0.10100000352E+00 0. -1.
</event>
<event>
 5   0  0.1981750E-03  0.6987193E+03  0.7818609E-02  0.9719425E-01
        3   -1    0    0  501    0  0.00000000000E+00  0.00000000000E+00  0.12534830807E+03  0.12534834876E+03  0.10100000352E+00 0.  1.
       -3   -1    0    0    0  501  0.00000000000E+00  0.00000000000E+00 -0.97370392695E+03  0.97370393219E+03  0.10100000352E+00 0. -1.
    10030    2    1    2    0    0  0.00000000000E+00  0.00000000000E+00 -0.84835561888E+03  0.10990522809E+04  0.69871929999E+03 0.  0.
        2    1    3    3  502    0  0.31075792596E+02  0.20400747600E+03 -0.86759256543E+03  0.89179684611E+03  0.25500000920E-02 0. -1.
       -2    1    3    3    0  502 -0.31075792596E+02 -0.20400747600E+03  0.19236946551E+02  0.20725543483E+03  0.25500000920E-02 0.  1.
</event>
<event>
 5   0  0.4878235E-03  0.7022304E+03  0.7818609E-02  0.9713425E-01
       -2   -1    0    0    0  501  0.00000000000E+00  0.00000000000E+00  0.45823551527E+02  0.45823551598E+02  0.25500000920E-02 0. -1.
        2   -1    0    0  501    0  0.00000000000E+00  0.00000000000E+00 -0.26903608234E+04  0.26903608234E+04  0.25500000920E-02 0.  1.
    10030    2    1    2    0    0  0.00000000000E+00  0.00000000000E+00 -0.26445372718E+04  0.27361843750E+04  0.70223041208E+03 0.  0.
        4    1    3    3  502    0  0.15191216140E+02 -0.17774292204E+03 -0.14391920885E+03  0.22921097478E+03  0.12699999809E+01 0. -1.
       -4    1    3    3    0  502 -0.15191216140E+02  0.17774292204E+03 -0.25006180630E+04  0.25069734002E+04  0.12699999809E+01 0.  1.
</event>
<event>
 5   0  0.4878235E-03  0.7007342E+03  0.7818609E-02  0.9715977E-01
       -2   -1    0    0    0  501  0.00000000000E+00  0.00000000000E+00  0.12667852558E+03  0.12667852561E+03  0.25500000920E-02 0.  1.
        2   -1    0    0  501    0  0.00000000000E+00  0.00000000000E+00 -0.96904436119E+03  0.96904436119E+03  0.25500000920E-02 0. -1.
    10030    2    1    2    0    0  0.00000000000E+00  0.00000000000E+00 -0.84236583560E+03  0.10957228868E+04  0.70073421756E+03 0.  0.
        4    1    3    3  502    0  0.13746576877E+03  0.31096797108E+03 -0.28889183971E+03  0.44615919196E+03  0.12699999809E+01 0. -1.
       -4    1    3    3    0  502 -0.13746576877E+03 -0.31096797108E+03 -0.55347399589E+03  0.64956369483E+03  0.12699999809E+01 0.  1.
</event>
<event>
 5   0  0.3013140E-03  0.6985094E+03  0.7818609E-02  0.9719785E-01
       -1   -1    0    0    0  501  0.00000000000E+00  0.00000000000E+00  0.72978343752E+03  0.72978343754E+03  0.50400001928E-02 0. -1.
        1   -1    0    0  501    0  0.00000000000E+00  0.00000000000E+00 -0.16714391332E+03  0.16714391340E+03  0.50400001928E-02 0.  1.
    10030    2    1    2    0    0  0.00000000000E+00  0.00000000000E+00  0.56263952420E+03  0.89692735093E+03  0.69850944064E+03 0.  0.
        2    1    3    3  502    0 -0.24821435271E+03  0.20081386000E+03  0.99534512414E+02  0.33443039698E+03  0.25500000920E-02 0.  1.
       -2    1    3    3    0  502  0.24821435271E+03 -0.20081386000E+03  0.46310501178E+03  0.56249695395E+03  0.25500000920E-02 0. -1.
</event>
<event>
 5   0  0.5072407E-03  0.6994528E+03  0.7818609E-02  0.9718168E-01
       -2   -1    0    0    0  501  0.00000000000E+00  0.00000000000E+00  0.78694634696E+02  0.78694634738E+02  0.25500000920E-02 0. -1.
        2   -1    0    0  501    0  0.00000000000E+00  0.00000000000E+00 -0.15542173282E+04  0.15542173282E+04  0.25500000920E-02 0.  1.
    10030    2    1    2    0    0  0.00000000000E+00  0.00000000000E+00 -0.14755226935E+04  0.16329119629E+04  0.69945282875E+03 0.  0.
        1    1    3    3  502    0  0.15338600147E+03 -0.28943464183E+03 -0.10237696172E+04  0.10748971609E+04  0.50400001928E-02 0.  1.
       -1    1    3    3    0  502 -0.15338600147E+03  0.28943464183E+03 -0.45175307629E+03  0.55801480204E+03  0.50400001928E-02 0. -1.
</event>
<event>
 5   0  0.2913582E-03  0.7039179E+03  0.7818609E-02  0.9710556E-01
       -1   -1    0    0    0  501  0.00000000000E+00  0.00000000000E+00  0.15869690034E+03  0.15869690042E+03  0.50400001928E-02 0. -1.
        1   -1    0    0  501    0  0.00000000000E+00  0.00000000000E+00 -0.78057660548E+03  0.78057660550E+03  0.50400001928E-02 0.  1.
    10030    2    1    2    0    0  0.00000000000E+00  0.00000000000E+00 -0.62187970515E+03  0.93927350592E+03  0.70391785831E+03 0.  0.
        1    1    3    3  502    0  0.15427191202E+03 -0.31158167600E+03 -0.23795043598E+03  0.42131149244E+03  0.50400001928E-02 0. -1.
       -1    1    3    3    0  502 -0.15427191202E+03  0.31158167600E+03 -0.38392926916E+03  0.51796201347E+03  0.50400001928E-02 0.  1.
</event>
<event>
 5   0  0.2934483E-03  0.7006595E+03  0.7818609E-02  0.9716105E-01
       -1   -1    0    0    0  501  0.00000000000E+00  0.00000000000E+00  0.10786842875E+03  0.10786842887E+03  0.50400001928E-02 0.  1.
        1   -1    0    0  501    0  0.00000000000E+00  0.00000000000E+00 -0.11377834937E+04  0.11377834937E+04  0.50400001928E-02 0. -1.
    10030    2    1    2    0    0  0.00000000000E+00  0.00000000000E+00 -0.10299150650E+04  0.12456519226E+04  0.70065945452E+03 0.  0.
        5    1    3    3  502    0  0.41831016989E+02  0.15976722975E+03 -0.10641694769E+04  0.10769188303E+04  0.46999998093E+01 0. -1.
       -5    1    3    3    0  502 -0.41831016989E+02 -0.15976722975E+03  0.34254411896E+02  0.16873309224E+03  0.46999998093E+01 0.  1.
</event>
<event>
 5   0  0.5072407E-03  0.7002612E+03  0.7818609E-02  0.9716786E-01
        2   -1    0    0  501    0  0.00000000000E+00  0.00000000000E+00  0.15196649167E+04  0.15196649167E+04  0.25500000920E-02 0. -1.
       -2   -1    0    0    0  501  0.00000000000E+00  0.00000000000E+00 -0.80670051808E+02  0.80670051848E+02  0.25500000920E-02 0.  1.
    10030    2    1    2    0    0  0.00000000000E+00  0.00000000000E+00  0.14389948649E+04  0.16003349686E+04  0.70026123010E+03 0.  0.
        1    1    3    3  502    0 -0.31627206551E+03 -0.10425501125E+03  0.47236012319E+03  0.57794568326E+03  0.50400001928E-02 0.  1.
       -1    1    3    3    0  502  0.31627206551E+03  0.10425501125E+03  0.96663474173E+03  0.10223892853E+04  0.50400001928E-02 0. -1.
</event>
<event>
 5   0  0.2934483E-03  0.6999139E+03  0.7818609E-02  0.9717379E-01
        1   -1    0    0  501    0  0.00000000000E+00  0.00000000000E+00  0.15093957500E+04  0.15093957500E+04  0.50400001928E-02 0. -1.
       -1   -1    0    0    0  501  0.00000000000E+00  0.00000000000E+00 -0.81138351901E+02  0.81138352058E+02  0.50400001928E-02 0.  1.
    10030    2    1    2    0    0  0.00000000000E+00  0.00000000000E+00  0.14282573981E+04  0.15905341021E+04  0.69991394800E+03 0.  0.
        5    1    3    3  502    0  0.31662545451E+03 -0.14230798090E+03  0.81433806548E+03  0.88525240172E+03  0.46999998093E+01 0.  1.
       -5    1    3    3    0  502 -0.31662545451E+03  0.14230798090E+03  0.61391933262E+03  0.70528170034E+03  0.46999998093E+01 0. -1.
</event>
<event>
 5   0  0.2937617E-03  0.6994468E+03  0.7818609E-02  0.9718179E-01
       -1   -1    0    0    0  501  0.00000000000E+00  0.00000000000E+00  0.83628054612E+02  0.83628054764E+02  0.50400001928E-02 0.  1.
        1   -1    0    0  501    0  0.00000000000E+00  0.00000000000E+00 -0.14625049154E+04  0.14625049154E+04  0.50400001928E-02 0. -1.
    10030    2    1    2    0    0  0.00000000000E+00  0.00000000000E+00 -0.13788768608E+04  0.15461329702E+04  0.69944675583E+03 0.  0.
        3    1    3    3  502    0 -0.22794085666E+03  0.40881352388E+02 -0.11014133073E+03  0.25643603890E+03  0.10100000352E+00 0.  1.
       -3    1    3    3    0  502  0.22794085666E+03 -0.40881352388E+02 -0.12687355301E+04  0.12896969313E+04  0.10100000352E+00 0. -1.
</event>
<event>
 5   0  0.2938783E-03  0.6995245E+03  0.7818609E-02  0.9718046E-01
       -1   -1    0    0    0  501  0.00000000000E+00  0.00000000000E+00  0.11165717768E+03  0.11165717779E+03  0.50400001928E-02 0.  1.
        1   -1    0    0  501    0  0.00000000000E+00  0.00000000000E+00 -0.10956180645E+04  0.10956180645E+04  0.50400001928E-02 0. -1.
    10030    2    1    2    0    0  0.00000000000E+00  0.00000000000E+00 -0.98396088679E+03  0.12072752423E+04  0.69952446982E+03 0.  0.
        4    1    3    3  502    0  0.31087169122E+02  0.28444672646E+03 -0.83911112924E+03  0.88655820587E+03  0.12699999809E+01 0. -1.
       -4    1    3    3    0  502 -0.31087169122E+02 -0.28444672646E+03 -0.14484975755E+03  0.32071703641E+03  0.12699999809E+01 0.  1.
</event>
<event>
 5   0  0.5076796E-03  0.6990952E+03  0.7818609E-02  0.9718781E-01
        2   -1    0    0  501    0  0.00000000000E+00  0.00000000000E+00  0.46238801519E+03  0.46238801520E+03  0.25500000920E-02 0.  1.
       -2   -1    0    0    0  501  0.00000000000E+00  0.00000000000E+00 -0.26424456817E+03  0.26424456818E+03  0.25500000920E-02 0. -1.
    10030    2    1    2    0    0  0.00000000000E+00  0.00000000000E+00  0.19814344702E+03  0.72663258338E+03  0.69909519068E+03 0.  0.
        5    1    3    3  502    0 -0.17178525007E+03 -0.93204961718E+02 -0.20210774185E+03  0.28118848900E+03  0.46999998093E+01 0. -1.
       -5    1    3    3    0  502  0.17178525007E+03  0.93204961718E+02  0.40025118887E+03  0.44544409438E+03  0.46999998093E+01 0.  1.
</event>
<event>
 5   0  0.5072407E-03  0.6990375E+03  0.7818609E-02  0.9718880E-01
       -2   -1    0    0    0  501  0.00000000000E+00  0.00000000000E+00  0.24854163875E+03  0.24854163876E+03  0.25500000920E-02 0. -1.
        2   -1    0    0  501    0  0.00000000000E+00  0.00000000000E+00 -0.49152065525E+03  0.49152065526E+03  0.25500000920E-02 0.  1.
    10030    2    1    2    0    0  0.00000000000E+00  0.00000000000E+00 -0.24297901651E+03  0.74006229402E+03  0.69903747866E+03 0.  0.
        1    1    3    3  502    0  0.17164130615E+03  0.30299107758E+03 -0.89746212022E+02  0.35960911232E+03  0.50400001928E-02 0.  1.
       -1    1    3    3    0  502 -0.17164130615E+03 -0.30299107758E+03 -0.15323280448E+03  0.38045318170E+03  0.50400001928E-02 0. -1.
</event>
<event>
 5   0  0.3013140E-03  0.6995593E+03  0.7818609E-02  0.9717986E-01
       -1   -1    0    0    0  501  0.00000000000E+00  0.00000000000E+00  0.86222681223E+02  0.86222681370E+02  0.50400001928E-02 0. -1.
        1   -1    0    0  501    0  0.00000000000E+00  0.00000000000E+00 -0.14189513862E+04  0.14189513862E+04  0.50400001928E-02 0.  1.
    10030    2    1    2    0    0  0.00000000000E+00  0.00000000000E+00 -0.13327287050E+04  0.15051740676E+04  0.69955927030E+03 0.  0.
        2    1    3    3  502    0  0.29043839431E+03 -0.17243006880E+03 -0.86190241085E+03  0.92572261253E+03  0.25500000920E-02 0.  1.
       -2    1    3    3    0  502 -0.29043839431E+03  0.17243006880E+03 -0.47082629417E+03  0.57945145509E+03  0.25500000920E-02 0. -1.
</event>
<event>
 5   0  0.2934483E-03  0.7012478E+03  0.7818609E-02  0.9715101E-01
       -1   -1    0    0    0  501  0.00000000000E+00  0.00000000000E+00  0.42244203170E+03  0.42244203173E+03  0.50400001928E-02 0. -1.
        1   -1    0    0  501    0  0.00000000000E+00  0.00000000000E+00 -0.29101533993E+03  0.29101533998E+03  0.50400001928E-02 0.  1.
    10030    2    1    2    0    0  0.00000000000E+00  0.00000000000E+00  0.13142669177E+03  0.71345737170E+03  0.70124777784E+03 0.  0.
        5    1    3    3  502    0 -0.21776514827E+03 -0.38644488655E+02 -0.21105236872E+03  0.30574539840E+03  0.46999998093E+01 0.  1.
       -5    1    3    3    0  502  0.21776514827E+03  0.38644488655E+02  0.34247906049E+03  0.40771197330E+03  0.46999998093E+01 0. -1.
</event>
<event>
 5   0  0.5113683E-03  0.7006434E+03  0.7818609E-02  0.9716132E-01
       -2   -1    0    0    0  501  0.00000000000E+00  0.00000000000E+00  0.62670995147E+02  0.62670995199E+02  0.25500000920E-02 0.  1.
        2   -1    0    0  501    0  0.00000000000E+00  0.00000000000E+00 -0.19582472731E+04  0.19582472731E+04  0.25500000920E-02 0. -1.
    10030    2    1    2    0    0  0.00000000000E+00  0.00000000000E+00 -0.18955762779E+04  0.20209182683E+04  0.70064343400E+03 0.  0.
        3    1    3    3  502    0  0.12981540353E+03 -0.12422014518E+03 -0.80350543527E+02  0.19682200972E+03  0.10100000352E+00 0.  1.
       -3    1    3    3    0  502 -0.12981540353E+03  0.12422014518E+03 -0.18152257344E+04  0.18240962586E+04  0.10100000352E+00 0. -1.
</event>
<event>
 5   0  0.5072407E-03  0.7021375E+03  0.7818609E-02  0.9713584E-01
        2   -1    0    0  501    0  0.00000000000E+00  0.00000000000E+00  0.20650651813E+03  0.20650651815E+03  0.25500000920E-02 0. -1.
       -2   -1    0    0    0  501  0.00000000000E+00  0.00000000000E+00 -0.59682989829E+03  0.59682989830E+03  0.25500000920E-02 0.  1.
    10030    2    1    2    0    0  0.00000000000E+00  0.00000000000E+00 -0.39032338016E+03  0.80333641645E+03  0.70213749144E+03 0.  0.
        1    1    3    3  502    0  0.12758116173E+03 -0.24417637252E+03 -0.44412551536E+03  0.52263421926E+03  0.50400001928E-02 0.  1.
       -1    1    3    3    0  502 -0.12758116173E+03  0.24417637252E+03  0.53802135198E+02  0.28070219718E+03  0.50400001928E-02 0. -1.
</event>
<event>
 5   0  0.1981750E-03  0.6997725E+03  0.7818609E-02  0.9717621E-01
       -3   -1    0    0    0  501  0.00000000000E+00  0.00000000000E+00  0.45721457182E+03  0.45721458297E+03  0.10100000352E+00 0.  1.
        3   -1    0    0  501    0  0.00000000000E+00  0.00000000000E+00 -0.26775253422E+03  0.26775255326E+03  0.10100000352E+00 0. -1.
    10030    2    1    2    0    0  0.00000000000E+00  0.00000000000E+00  0.18946203760E+03  0.72496713624E+03  0.69977245225E+03 0.  0.
        4    1    3    3  502    0  0.14993651955E+03  0.74545316033E+02  0.41300657965E+03  0.44566131958E+03  0.12699999809E+01 0.  1.
       -4    1    3    3    0  502 -0.14993651955E+03 -0.74545316033E+02 -0.22354454205E+03  0.27930581666E+03  0.12699999809E+01 0. -1.
</event>
<event>
 5   0  0.2934483E-03  0.6992486E+03  0.7818609E-02  0.9718518E-01
        1   -1    0    0  501    0  0.00000000000E+00  0.00000000000E+00  0.39516457301E+03  0.39516457304E+03  0.50400001928E-02 0. -1.
       -1   -1    0    0    0  501  0.00000000000E+00  0.00000000000E+00 -0.30933228590E+03  0.30933228594E+03  0.50400001928E-02 0.  1.
    10030    2    1    2    0    0  0.00000000000E+00  0.00000000000E+00  0.85832287107E+02  0.70449685899E+03  0.69924862732E+03 0.  0.
        5    1    3    3  502    0 -0.64012833281E+02  0.89762465698E+02 -0.29132695191E+03  0.31152596357E+03  0.46999998093E+01 0.  1.
       -5    1    3    3    0  502  0.64012833281E+02 -0.89762465698E+02  0.37715923901E+03  0.39297089542E+03  0.46999998093E+01 0. -1.
</event>
<event>
 5   0  0.3013140E-03  0.7003501E+03  0.7818609E-02  0.9716634E-01
        1   -1    0    0  501    0  0.00000000000E+00  0.00000000000E+00  0.77027807252E+03  0.77027807254E+03  0.50400001928E-02 0.  1.
       -1   -1    0    0    0  501  0.00000000000E+00  0.00000000000E+00 -0.15919259975E+03  0.15919259983E+03  0.50400001928E-02 0. -1.
    10030    2    1    2    0    0  0.00000000000E+00  0.00000000000E+00  0.61108547277E+03  0.92947067237E+03  0.70035010941E+03 0.  0.
        2    1    3    3  502    0 -0.24424583943E+03 -0.12933766062E+03  0.59092137301E+03  0.65235904962E+03  0.25500000920E-02 0. -1.
       -2    1    3    3    0  502  0.24424583943E+03  0.12933766062E+03  0.20164099764E+02  0.27711162275E+03  0.25500000920E-02 0.  1.
</event>
<event>
 5   0  0.2934483E-03  0.7060805E+03  0.7818609E-02  0.9706890E-01
       -1   -1    0    0    0  501  0.00000000000E+00  0.00000000000E+00  0.15155823150E+03  0.15155823158E+03  0.50400001928E-02 0. -1.
        1   -1    0    0  501    0  0.00000000000E+00  0.00000000000E+00 -0.82237322472E+03  0.82237322473E+03  0.50400001928E-02 0.  1.
    10030    2    1    2    0    0  0.00000000000E+00  0.00000000000E+00 -0.67081499322E+03  0.97393145632E+03  0.70608053824E+03 0.  0.
        5    1    3    3  502    0  0.14743097603E+02  0.53276216401E+02  0.14550806694E+03  0.15572540482E+03  0.46999998093E+01 0. -1.
       -5    1    3    3    0  502 -0.14743097603E+02 -0.53276216401E+02 -0.81632306016E+03  0.81820605150E+03  0.46999998093E+01 0.  1.
</event>
<event>
 5   0  0.3013140E-03  0.7002667E+03  0.7818609E-02  0.9716776E-01
       -1   -1    0    0    0  501  0.00000000000E+00  0.00000000000E+00  0.13159829435E+03  0.13159829445E+03  0.50400001928E-02 0.  1.
        1   -1    0    0  501    0  0.00000000000E+00  0.00000000000E+00 -0.93157270921E+03  0.93157270922E+03  0.50400001928E-02 0. -1.
    10030    2    1    2    0    0  0.00000000000E+00  0.00000000000E+00 -0.79997441486E+03  0.10631710037E+04  0.70026674819E+03 0.  0.
        2    1    3    3  502    0  0.26983494588E+03 -0.15410513851E+03 -0.15501839186E+03  0.34726069970E+03  0.25500000920E-02 0.  1.
       -2    1    3    3    0  502 -0.26983494588E+03  0.15410513851E+03 -0.64495602300E+03  0.71591030398E+03  0.25500000920E-02 0. -1.
</event>
<event>
 5   0  0.2934483E-03  0.7000615E+03  0.7818609E-02  0.9717127E-01
       -1   -1    0    0    0  501  0.00000000000E+00  0.00000000000E+00  0.27579388385E+03  0.27579388389E+03  0.50400001928E-02 0.  1.
        1   -1    0    0  501    0  0.00000000000E+00  0.00000000000E+00 -0.44425038583E+03  0.44425038586E+03  0.50400001928E-02 0. -1.
    10030    2    1    2    0    0  0.00000000000E+00  0.00000000000E+00 -0.16845650198E+03  0.72004426975E+03  0.70006153825E+03 0.  0.
        5    1    3    3  502    0 -0.13855968676E+03  0.16827236489E+03 -0.36587866379E+03  0.42591508801E+03  0.46999998093E+01 0. -1.
       -5    1    3    3    0  502  0.13855968676E+03 -0.16827236489E+03  0.19742216181E+03  0.29412918174E+03  0.46999998093E+01 0.  1.
</event>
<event>
 5   0  0.1981750E-03  0.7074046E+03  0.7818609E-02  0.9704652E-01
        4   -1    0    0  501    0  0.00000000000E+00  0.00000000000E+00  0.71134702503E+03  0.71134815872E+03  0.12699999809E+01 0. -1.
       -4   -1    0    0    0  501  0.00000000000E+00  0.00000000000E+00 -0.17586744931E+03  0.17587203480E+03  0.12699999809E+01 0.  1.
    10030    2    1    2    0    0  0.00000000000E+00  0.00000000000E+00  0.53547957572E+03  0.88722019352E+03  0.70740461956E+03 0.  0.
        3    1    3    3  502    0  0.15957487652E+02  0.32630845933E+02 -0.17352484070E+03  0.17728591049E+03  0.10100000352E+00 0.  1.
       -3    1    3    3    0  502 -0.15957487652E+02 -0.32630845933E+02  0.70900441642E+03  0.70993428303E+03  0.10100000352E+00 0. -1.
</event>
<event>
 5   0  0.5113683E-03  0.6996686E+03  0.7818609E-02  0.9717799E-01
        2   -1    0    0  501    0  0.00000000000E+00  0.00000000000E+00  0.97753609954E+03  0.97753609954E+03  0.25500000920E-02 0.  1.
       -2   -1    0    0    0  501  0.00000000000E+00  0.00000000000E+00 -0.12519642852E+03  0.12519642854E+03  0.25500000920E-02 0. -1.
    10030    2    1    2    0    0  0.00000000000E+00  0.00000000000E+00  0.85233967102E+03  0.11027325281E+04  0.69966857418E+03 0.  0.
        3    1    3    3  502    0 -0.22947383396E+03  0.36936703712E+02  0.14087996636E+02  0.23285412258E+03  0.10100000352E+00 0. -1.
       -3    1    3    3    0  502  0.22947383396E+03 -0.36936703712E+02  0.83825167439E+03  0.86987840551E+03  0.10100000352E+00 0.  1.
</event>
<event>
 5   0  0.5023894E-03  0.6987930E+03  0.7818609E-02  0.9719299E-01
       -2   -1    0    0    0  501  0.00000000000E+00  0.00000000000E+00  0.21274033280E+03  0.21274033282E+03  0.25500000920E-02 0. -1.
        2   -1    0    0  501    0  0.00000000000E+00  0.00000000000E+00 -0.57383524590E+03  0.57383524591E+03  0.25500000920E-02 0.  1.
    10030    2    1    2    0    0  0.00000000000E+00  0.00000000000E+00 -0.36109491310E+03  0.78657557873E+03  0.69879296274E+03 0.  0.
        2    1    3    3  502    0  0.20934779499E+03 -0.14544886882E+03 -0.44951190928E+03  0.51676186905E+03  0.25500000920E-02 0. -1.
       -2    1    3    3    0  502 -0.20934779499E+03  0.14544886882E+03  0.88416996179E+02  0.26981370968E+03  0.25500000920E-02 0.  1.
</event>
<event>
 5   0  0.5072407E-03  0.6997804E+03  0.7818609E-02  0.9717608E-01
        2   -1    0    0  501    0  0.00000000000E+00  0.00000000000E+00  0.20598898491E+03  0.20598898492E+03  0.25500000920E-02 0. -1.
       -2   -1    0    0    0  501  0.00000000000E+00  0.00000000000E+00 -0.59431894533E+03  0.59431894534E+03  0.25500000920E-02 0.  1.
    10030    2    1    2    0    0  0.00000000000E+00  0.00000000000E+00 -0.38832996042E+03  0.80030793026E+03  0.69978041204E+03 0.  0.
        1    1    3    3  502    0  0.34137238378E+03  0.76592917472E+02 -0.18885259957E+03  0.39757626162E+03  0.50400001928E-02 0.  1.
       -1    1    3    3    0  502 -0.34137238378E+03 -0.76592917472E+02 -0.19947736085E+03  0.40273166865E+03  0.50400001928E-02 0. -1.
</event>
<event>
 5   0  0.3013140E-03  0.7008984E+03  0.7818609E-02  0.9715697E-01
       -1   -1    0    0    0  501  0.00000000000E+00  0.00000000000E+00  0.79338292964E+03  0.79338292965E+03  0.50400001928E-02 0. -1.
        1   -1    0    0  501    0  0.00000000000E+00  0.00000000000E+00 -0.15479869684E+03  0.15479869692E+03  0.50400001928E-02 0.  1.
    10030    2    1    2    0    0  0.00000000000E+00  0.00000000000E+00  0.63858423280E+03  0.94818162658E+03  0.70089840533E+03 0.  0.
        2    1    3    3  502    0 -0.82904473605E+02  0.26041725195E+03  0.22522874383E+02  0.27422176561E+03  0.25500000920E-02 0.  1.
       -2    1    3    3    0  502  0.82904473605E+02 -0.26041725195E+03  0.61606135842E+03  0.67395986097E+03  0.25500000920E-02 0. -1.
</event>
<event>
 5   0  0.4878235E-03  0.7006417E+03  0.7818609E-02  0.9716135E-01
        2   -1    0    0  501    0  0.00000000000E+00  0.00000000000E+00  0.78312235002E+03  0.78312235002E+03  0.25500000920E-02 0.  1.
       -2   -1    0    0    0  501  0.00000000000E+00  0.00000000000E+00 -0.15671202961E+03  0.15671202963E+03  0.25500000920E-02 0. -1.
    10030    2    1    2    0    0  0.00000000000E+00  0.00000000000E+00  0.62641032041E+03  0.93983437966E+03  0.70064168565E+03 0.  0.
        4    1    3    3  502    0  0.10623705716E+03  0.13896785936E+03 -0.93934493095E+02  0.19855397287E+03  0.12699999809E+01 0. -1.
       -4    1    3    3    0  502 -0.10623705716E+03 -0.13896785936E+03  0.72034481350E+03  0.74128040679E+03  0.12699999809E+01 0.  1.
</event>
<event>
 5   0  0.2938783E-03  0.6997349E+03  0.7818609E-02  0.9717686E-01
        1   -1    0    0  501    0  0.00000000000E+00  0.00000000000E+00  0.22263735608E+04  0.22263735608E+04  0.50400001928E-02 0.  1.
       -1   -1    0    0    0  501  0.00000000000E+00  0.00000000000E+00 -0.54980548991E+02  0.54980549222E+02  0.50400001928E-02 0. -1.
    10030    2    1    2    0    0  0.00000000000E+00  0.00000000000E+00  0.21713930118E+04  0.22813541100E+04  0.69973492381E+03 0.  0.
        4    1    3    3  502    0 -0.16386485364E+03 -0.70238646975E+02  0.20671558337E+04  0.20748301163E+04  0.12699999809E+01 0.  1.
       -4    1    3    3    0  502  0.16386485364E+03  0.70238646975E+02  0.10423717811E+03  0.20652399373E+03  0.12699999809E+01 0. -1.
</event>
<event>
 5   0  0.3013140E-03  0.6999625E+03  0.7818609E-02  0.9717296E-01
        1   -1    0    0  501    0  0.00000000000E+00  0.00000000000E+00  0.13586191813E+03  0.13586191823E+03  0.50400001928E-02 0. -1.
       -1   -1    0    0    0  501  0.00000000000E+00  0.00000000000E+00 -0.90155412329E+03  0.90155412330E+03  0.50400001928E-02 0.  1.
    10030    2    1    2    0    0  0.00000000000E+00  0.00000000000E+00 -0.76569220515E+03  0.10374160415E+04  0.69996249198E+03 0.  0.
        2    1    3    3  502    0  0.22255022131E+03  0.26914753947E+03 -0.34911814460E+03  0.49381421396E+03  0.25500000920E-02 0. -1.
       -2    1    3    3    0  502 -0.22255022131E+03 -0.26914753947E+03 -0.41657406055E+03  0.54360182757E+03  0.25500000920E-02 0.  1.
</event>
<event>
 5   0  0.5113683E-03  0.7005474E+03  0.7818609E-02  0.9716297E-01
       -2   -1    0    0    0  501  0.00000000000E+00  0.00000000000E+00  0.92828953606E+02  0.92828953641E+02  0.25500000920E-02 0. -1.
        2   -1    0    0  501    0  0.00000000000E+00  0.00000000000E+00 -0.13216959426E+04  0.13216959426E+04  0.25500000920E-02 0.  1.
    10030    2    1    2    0    0  0.00000000000E+00  0.00000000000E+00 -0.12288669890E+04  0.14145248963E+04  0.70054736133E+03 0.  0.
        3    1    3    3  502    0  0.29375117382E+03  0.31737207509E+02 -0.23455751246E+03  0.37724559548E+03  0.10100000352E+00 0. -1.
       -3    1    3    3    0  502 -0.29375117382E+03 -0.31737207509E+02 -0.99430947656E+03  0.10372793008E+04  0.10100000352E+00 0.  1.
</event>
<event>
 5   0  0.2937617E-03  0.6996860E+03  0.7818609E-02  0.9717769E-01
        1   -1    0    0  501    0  0.00000000000E+00  0.00000000000E+00  0.74305739483E+03  0.74305739484E+03  0.50400001928E-02 0. -1.
       -1   -1    0    0    0  501  0.00000000000E+00  0.00000000000E+00 -0.16471152010E+03  0.16471152018E+03  0.50400001928E-02 0.  1.
    10030    2    1    2    0    0  0.00000000000E+00  0.00000000000E+00  0.57834587472E+03  0.90776891502E+03  0.69968596690E+03 0.  0.
        3    1    3    3  502    0  0.17342260648E+02  0.76258953337E+02 -0.15322521261E+03  0.17202952639E+03  0.10100000352E+00 0.  1.
       -3    1    3    3    0  502 -0.17342260648E+02 -0.76258953337E+02  0.73157108733E+03  0.73573938864E+03  0.10100000352E+00 0. -1.
</event>
<event>
 5   0  0.5113683E-03  0.7017353E+03  0.7818609E-02  0.9714269E-01
        2   -1    0    0  501    0  0.00000000000E+00  0.00000000000E+00  0.94690752083E+03  0.94690752084E+03  0.25500000920E-02 0. -1.
       -2   -1    0    0    0  501  0.00000000000E+00  0.00000000000E+00 -0.13001069375E+03  0.13001069377E+03  0.25500000920E-02 0.  1.
    10030    2    1    2    0    0  0.00000000000E+00  0.00000000000E+00  0.81689682708E+03  0.10769182146E+04  0.70173528831E+03 0.  0.
        3    1    3    3  502    0 -0.52911802926E+02  0.24617800492E+03  0.33463220560E+02  0.25401390971E+03  0.10100000352E+00 0.  1.
       -3    1    3    3    0  502  0.52911802926E+02 -0.24617800492E+03  0.78343360652E+03  0.82290430490E+03  0.10100000352E+00 0. -1.
</event>
<event>
 5   0  0.1981750E-03  0.6998048E+03  0.7818609E-02  0.9717566E-01
        3   -1    0    0  501    0  0.00000000000E+00  0.00000000000E+00  0.17189042264E+03  0.17189045231E+03  0.10100000352E+00 0.  1.
       -3   -1    0    0    0  501  0.00000000000E+00  0.00000000000E+00 -0.71226574904E+03  0.71226575620E+03  0.10100000352E+00 0. -1.
    10030    2    1    2    0    0  0.00000000000E+00  0.00000000000E+00 -0.54037532640E+03  0.88415620851E+03  0.69980476396E+03 0.  0.
        1    1    3    3  502    0 -0.13584442288E+03  0.11121389585E+02 -0.67734692186E+03  0.69092419635E+03  0.50400001928E-02 0. -1.
       -1    1    3    3    0  502  0.13584442288E+03 -0.11121389585E+02  0.13697159546E+03  0.19323201215E+03  0.50400001928E-02 0.  1.
</event>
<event>
 5   0  0.2938783E-03  0.6982617E+03  0.7818609E-02  0.9720209E-01
       -1   -1    0    0    0  501  0.00000000000E+00  0.00000000000E+00  0.12852614396E+03  0.12852614406E+03  0.50400001928E-02 0.  1.
        1   -1    0    0  501    0  0.00000000000E+00  0.00000000000E+00 -0.94838576617E+03  0.94838576618E+03  0.50400001928E-02 0. -1.
    10030    2    1    2    0    0  0.00000000000E+00  0.00000000000E+00 -0.81985962221E+03  0.10769119102E+04  0.69826174339E+03 0.  0.
        4    1    3    3  502    0  0.21893052886E+03  0.16555885415E+03 -0.74268423365E+03  0.79178393168E+03  0.12699999809E+01 0. -1.
       -4    1    3    3    0  502 -0.21893052886E+03 -0.16555885415E+03 -0.77175388558E+02  0.28512797855E+03  0.12699999809E+01 0.  1.
</event>
<event>
 5   0  0.2934483E-03  0.6997630E+03  0.7818609E-02  0.9717638E-01
       -1   -1    0    0    0  501  0.00000000000E+00  0.00000000000E+00  0.12387142714E+03  0.12387142725E+03  0.50400001928E-02 0. -1.
        1   -1    0    0  501    0  0.00000000000E+00  0.00000000000E+00 -0.98825915417E+03  0.98825915419E+03  0.50400001928E-02 0.  1.
    10030    2    1    2    0    0  0.00000000000E+00  0.00000000000E+00 -0.86438772703E+03  0.11121305814E+04  0.69976302240E+03 0.  0.
        5    1    3    3  502    0 -0.35853864472E+02 -0.34780205274E+03 -0.45121332103E+03  0.57084789442E+03  0.46999998093E+01 0. -1.
       -5    1    3    3    0  502  0.35853864472E+02  0.34780205274E+03 -0.41317440600E+03  0.54128268702E+03  0.46999998093E+01 0.  1.
</event>
<event>
 5   0  0.5076796E-03  0.7069556E+03  0.7818609E-02  0.9705411E-01
       -2   -1    0    0    0  501  0.00000000000E+00  0.00000000000E+00  0.12617920216E+03  0.12617920218E+03  0.25500000920E-02 0. -1.
        2   -1    0    0  501    0  0.00000000000E+00  0.00000000000E+00 -0.99023097361E+03  0.99023097362E+03  0.25500000920E-02 0.  1.
    10030    2    1    2    0    0  0.00000000000E+00  0.00000000000E+00 -0.86405177146E+03  0.11164101758E+04  0.70695559752E+03 0.  0.
        5    1    3    3  502    0 -0.15290649215E+02  0.30852351869E+03 -0.16077488267E+03  0.34826888812E+03  0.46999998093E+01 0. -1.
       -5    1    3    3    0  502  0.15290649215E+02 -0.30852351869E+03 -0.70327688879E+03  0.76814128768E+03  0.46999998093E+01 0.  1.
</event>
<event>
 5   0  0.2913582E-03  0.6999417E+03  0.7818609E-02  0.9717332E-01
        1   -1    0    0  501    0  0.00000000000E+00  0.00000000000E+00  0.43968069093E+03  0.43968069096E+03  0.50400001928E-02 0.  1.
       -1   -1    0    0    0  501  0.00000000000E+00  0.00000000000E+00 -0.27856484398E+03  0.27856484402E+03  0.50400001928E-02 0. -1.
    10030    2    1    2    0    0  0.00000000000E+00  0.00000000000E+00  0.16111584695E+03  0.71824553498E+03  0.69994166356E+03 0.  0.
        1    1    3    3  502    0 -0.70437855292E+01  0.97346976571E+02  0.42543235828E+03  0.43648452465E+03  0.50400001928E-02 0.  1.
       -1    1    3    3    0  502  0.70437855292E+01 -0.97346976571E+02 -0.26431651132E+03  0.28176101034E+03  0.50400001928E-02 0. -1.
</event>
<event>
 5   0  0.5076796E-03  0.6992967E+03  0.7818609E-02  0.9718436E-01
       -2   -1    0    0    0  501  0.00000000000E+00  0.00000000000E+00  0.37529759232E+03  0.37529759233E+03  0.25500000920E-02 0.  1.
        2   -1    0    0  501    0  0.00000000000E+00  0.00000000000E+00 -0.32575206858E+03  0.32575206859E+03  0.25500000920E-02 0. -1.
    10030    2    1    2    0    0  0.00000000000E+00  0.00000000000E+00  0.49545523745E+02  0.70104966092E+03  0.69929669537E+03 0.  0.
        5    1    3    3  502    0 -0.24917644509E+03 -0.42018875306E+02  0.26699256462E+03  0.36764331387E+03  0.46999998093E+01 0.  1.
       -5    1    3    3    0  502  0.24917644509E+03  0.42018875306E+02 -0.21744704088E+03  0.33340634705E+03  0.46999998093E+01 0. -1.
</event>
<event>
 5   0  0.3013140E-03  0.7003701E+03  0.7818609E-02  0.9716599E-01
       -1   -1    0    0    0  501  0.00000000000E+00  0.00000000000E+00  0.50191991568E+03  0.50191991570E+03  0.50400001928E-02 0. -1.
        1   -1    0    0  501    0  0.00000000000E+00  0.00000000000E+00 -0.24432100839E+03  0.24432100844E+03  0.50400001928E-02 0.  1.
    10030    2    1    2    0    0  0.00000000000E+00  0.00000000000E+00  0.25759890729E+03  0.74624092414E+03  0.70037013060E+03 0.  0.
        2    1    3    3  502    0 -0.99760571080E+02 -0.32313777689E+03  0.31966023513E+02  0.33969401093E+03  0.25500000920E-02 0.  1.
       -2    1    3    3    0  502  0.99760571080E+02  0.32313777689E+03  0.22563288378E+03  0.40654691321E+03  0.25500000920E-02 0. -1.
</event>
<event>
 5   0  0.2937617E-03  0.7027071E+03  0.7818609E-02  0.9712614E-01
        1   -1    0    0  501    0  0.00000000000E+00  0.00000000000E+00  0.13379689401E+04  0.13379689401E+04  0.50400001928E-02 0. -1.
       -1   -1    0    0    0  501  0.00000000000E+00  0.00000000000E+00 -0.92266195423E+02  0.92266195561E+02  0.50400001928E-02 0.  1.
    10030    2    1    2    0    0  0.00000000000E+00  0.00000000000E+00  0.12457027447E+04  0.14302351356E+04  0.70270706215E+03 0.  0.
        3    1    3    3  502    0 -0.68278530974E+02  0.50249936294E+02  0.13168403007E+04  0.13195663688E+04  0.10100000352E+00 0. -1.
       -3    1    3    3    0  502  0.68278530974E+02 -0.50249936294E+02 -0.71137556011E+02  0.11066876689E+03  0.10100000352E+00 0.  1.
</event>
<event>
 5   0  0.1981750E-03  0.7002765E+03  0.7818609E-02  0.9716759E-01
        3   -1    0    0  501    0  0.00000000000E+00  0.00000000000E+00  0.16115530901E+04  0.16115530933E+04  0.10100000352E+00 0.  1.
       -3   -1    0    0    0  501  0.00000000000E+00  0.00000000000E+00 -0.76073661794E+02  0.76073728841E+02  0.10100000352E+00 0. -1.
    10030    2    1    2    0    0  0.00000000000E+00  0.00000000000E+00  0.15354794283E+04  0.16876268221E+04  0.70027652819E+03 0.  0.
        4    1    3    3  502    0  0.30778554503E+03  0.15497628570E+03  0.91718730437E+03  0.97978760711E+03  0.12699999809E+01 0.  1.
       -4    1    3    3    0  502 -0.30778554503E+03 -0.15497628570E+03  0.61829212393E+03  0.70783921498E+03  0.12699999809E+01 0. -1.
</event>
<event>
 5   0  0.2934483E-03  0.6982570E+03  0.7818609E-02  0.9720218E-01
        1   -1    0    0  501    0  0.00000000000E+00  0.00000000000E+00  0.49431465025E+03  0.49431465028E+03  0.50400001928E-02 0. -1.
       -1   -1    0    0    0  501  0.00000000000E+00  0.00000000000E+00 -0.24658527299E+03  0.24658527304E+03  0.50400001928E-02 0.  1.
    10030    2    1    2    0    0  0.00000000000E+00  0.00000000000E+00  0.24772937726E+03  0.74089992332E+03  0.69825701000E+03 0.  0.
        5    1    3    3  502    0 -0.13637015288E+02  0.21953999555E+03  0.41150062012E+03  0.46662471879E+03  0.46999998093E+01 0. -1.
       -5    1    3    3    0  502  0.13637015288E+02 -0.21953999555E+03 -0.16377124286E+03  0.27427520453E+03  0.46999998093E+01 0.  1.
</event>
<event>
 5   0  0.5023894E-03  0.6960243E+03  0.7818609E-02  0.9724055E-01
        2   -1    0    0  501    0  0.00000000000E+00  0.00000000000E+00  0.13189772826E+04  0.13189772826E+04  0.25500000920E-02 0.  1.
       -2   -1    0    0    0  501  0.00000000000E+00  0.00000000000E+00 -0.91823015417E+02  0.91823015453E+02  0.25500000920E-02 0. -1.
    10030    2    1    2    0    0  0.00000000000E+00  0.00000000000E+00  0.12271542672E+04  0.14108002981E+04  0.69602434263E+03 0.  0.
        2    1    3    3  502    0 -0.10556466357E+03 -0.64101549832E+02  0.12730640218E+04  0.12790406211E+04  0.25500000920E-02 0.  1.
       -2    1    3    3    0  502  0.10556466357E+03  0.64101549832E+02 -0.45909754624E+02  0.13175967692E+03  0.25500000920E-02 0. -1.
</event>
<event>
 5   0  0.5072407E-03  0.7009846E+03  0.7818609E-02  0.9715550E-01
        2   -1    0    0  501    0  0.00000000000E+00  0.00000000000E+00  0.54277225218E+03  0.54277225218E+03  0.25500000920E-02 0. -1.
       -2   -1    0    0    0  501  0.00000000000E+00  0.00000000000E+00 -0.22632852147E+03  0.22632852148E+03  0.25500000920E-02 0.  1.
    10030    2    1    2    0    0  0.00000000000E+00  0.00000000000E+00  0.31644373071E+03  0.76910077366E+03  0.70098456855E+03 0.  0.
        1    1    3    3  502    0  0.24960571613E+03 -0.11836163393E+03 -0.78453082586E+02  0.28717133579E+03  0.50400001928E-02 0.  1.
       -1    1    3    3    0  502 -0.24960571613E+03  0.11836163393E+03  0.39489681330E+03  0.48192943787E+03  0.50400001928E-02 0. -1.
</event>
<event>
 5   0  0.2938783E-03  0.6996974E+03  0.7818609E-02  0.9717750E-01
        1   -1    0    0  501    0  0.00000000000E+00  0.00000000000E+00  0.22309675132E+03  0.22309675137E+03  0.50400001928E-02 0.  1.
       -1   -1    0    0    0  501  0.00000000000E+00  0.00000000000E+00 -0.54861445636E+03  0.54861445638E+03  0.50400001928E-02 0. -1.
    10030    2    1    2    0    0  0.00000000000E+00  0.00000000000E+00 -0.32551770504E+03  0.77171120775E+03  0.69969737164E+03 0.  0.
        4    1    3    3  502    0 -0.20242042043E+03  0.11632514544E+03  0.12460863480E+03  0.26464030463E+03  0.12699999809E+01 0.  1.
       -4    1    3    3    0  502  0.20242042043E+03 -0.11632514544E+03 -0.45012633984E+03  0.50707090312E+03  0.12699999809E+01 0. -1.
</event>
<event>
 5   0  0.2937617E-03  0.6979842E+03  0.7818609E-02  0.9720686E-01
       -1   -1    0    0    0  501  0.00000000000E+00  0.00000000000E+00  0.44443877739E+03  0.44443877742E+03  0.50400001928E-02 0.  1.
        1   -1    0    0  501    0  0.00000000000E+00  0.00000000000E+00 -0.27404334933E+03  0.27404334938E+03  0.50400001928E-02 0. -1.
    10030    2    1    2    0    0  0.00000000000E+00  0.00000000000E+00  0.17039542805E+03  0.71848212680E+03  0.69798421517E+03 0.  0.
        3    1    3    3  502    0 -0.12289361538E+03  0.53508727943E+02 -0.24649097180E+03  0.28057767917E+03  0.10100000352E+00 0. -1.
       -3    1    3    3    0  502  0.12289361538E+03 -0.53508727943E+02  0.41688639985E+03  0.43790444763E+03  0.10100000352E+00 0.  1.
</event>
<event>
 5   0  0.2937617E-03  0.7084078E+03  0.7818609E-02  0.9702961E-01
       -1   -1    0    0    0  501  0.00000000000E+00  0.00000000000E+00  0.23535243701E+03  0.23535243707E+03  0.50400001928E-02 0. -1.
        1   -1    0    0  501    0  0.00000000000E+00  0.00000000000E+00 -0.53307461268E+03  0.53307461270E+03  0.50400001928E-02 0.  1.
    10030    2    1    2    0    0  0.00000000000E+00  0.00000000000E+00 -0.29772217567E+03  0.76842704977E+03  0.70840781824E+03 0.  0.
        3    1    3    3  502    0  0.33415776082E+03  0.35193776074E+02 -0.27292652500E+02  0.33711260741E+03  0.10100000352E+00 0. -1.
       -3    1    3    3    0  502 -0.33415776082E+03 -0.35193776074E+02 -0.27042952317E+03  0.43131444236E+03  0.10100000352E+00 0.  1.
</event>
<event>
 5   0  0.3013140E-03  0.7011901E+03  0.7818609E-02  0.9715199E-01
        1   -1    0    0  501    0  0.00000000000E+00  0.00000000000E+00  0.18820905452E+04  0.18820905452E+04  0.50400001928E-02 0. -1.
       -1   -1    0    0    0  501  0.00000000000E+00  0.00000000000E+00 -0.65308709438E+02  0.65308709632E+02  0.50400001928E-02 0.  1.
    10030    2    1    2    0    0  0.00000000000E+00  0.00000000000E+00  0.18167818357E+04  0.19473992548E+04  0.70119014467E+03 0.  0.
        2    1    3    3  502    0 -0.23002757459E+03  0.22931639362E+02  0.16404463609E+04  0.16566541004E+04  0.25500000920E-02 0. -1.
       -2    1    3    3    0  502  0.23002757459E+03 -0.22931639362E+02  0.17633547482E+03  0.29074515446E+03  0.25500000920E-02 0.  1.
</event>
<event>
 5   0  0.5072407E-03  0.6994881E+03  0.7818609E-02  0.9718108E-01
       -2   -1    0    0    0  501  0.00000000000E+00  0.00000000000E+00  0.80220894992E+02  0.80220895033E+02  0.25500000920E-02 0. -1.
        2   -1    0    0  501    0  0.00000000000E+00  0.00000000000E+00 -0.15248009871E+04  0.15248009871E+04  0.25500000920E-02 0.  1.
    10030    2    1    2    0    0  0.00000000000E+00  0.00000000000E+00 -0.14445800922E+04  0.16050218822E+04  0.69948809828E+03 0.  0.
        1    1    3    3  502    0 -0.60162019651E+02 -0.17547264198E+03 -0.41956786460E+02  0.19018540598E+03  0.50400001928E-02 0. -1.
       -1    1    3    3    0  502  0.60162019651E+02  0.17547264198E+03 -0.14026233057E+04  0.14148364762E+04  0.50400001928E-02 0.  1.
</event>
<event>
 5   0  0.5113683E-03  0.6989223E+03  0.7818609E-02  0.9719077E-01
        2   -1    0    0  501    0  0.00000000000E+00  0.00000000000E+00  0.11902393438E+04  0.11902393438E+04  0.25500000920E-02 0. -1.
       -2   -1    0    0    0  501  0.00000000000E+00  0.00000000000E+00 -0.10260381191E+03  0.10260381194E+03  0.25500000920E-02 0.  1.
    10030    2    1    2    0    0  0.00000000000E+00  0.00000000000E+00  0.10876355319E+04  0.12928431557E+04  0.69892229548E+03 0.  0.
        3    1    3    3  502    0 -0.73885891843E+01  0.34904105901E+03  0.51523115286E+03  0.62237239914E+03  0.10100000352E+00 0.  1.
       -3    1    3    3    0  502  0.73885891843E+01 -0.34904105901E+03  0.57240437901E+03  0.67047075659E+03  0.10100000352E+00 0. -1.
</event>
<event>
 5   0  0.2937617E-03  0.7002032E+03  0.7818609E-02  0.9716885E-01
        1   -1    0    0  501    0  0.00000000000E+00  0.00000000000E+00  0.19951755905E+03  0.19951755911E+03  0.50400001928E-02 0.  1.
       -1   -1    0    0    0  501  0.00000000000E+00  0.00000000000E+00 -0.61433754957E+03  0.61433754959E+03  0.50400001928E-02 0. -1.
    10030    2    1    2    0    0  0.00000000000E+00  0.00000000000E+00 -0.41481999052E+03  0.81385510870E+03  0.70020319438E+03 0.  0.
        3    1    3    3  502    0 -0.34320479900E+02  0.24057789647E+03 -0.50033932771E+03  0.55623293022E+03  0.10100000352E+00 0. -1.
       -3    1    3    3    0  502  0.34320479900E+02 -0.24057789647E+03  0.85519337183E+02  0.25762217848E+03  0.10100000352E+00 0.  1.
</event>
<event>
 5   0  0.4878235E-03  0.6994268E+03  0.7818609E-02  0.9718213E-01
       -2   -1    0    0    0  501  0.00000000000E+00  0.00000000000E+00  0.27687521396E+03  0.27687521397E+03  0.25500000920E-02 0. -1.
        2   -1    0    0  501    0  0.00000000000E+00  0.00000000000E+00 -0.44171323263E+03  0.44171323264E+03  0.25500000920E-02 0.  1.
    10030    2    1    2    0    0  0.00000000000E+00  0.00000000000E+00 -0.16483801868E+03  0.71858844661E+03  0.69942675327E+03 0.  0.
        4    1    3    3  502    0 -0.29025789936E+03 -0.85187751672E+02  0.97862639420E+02  0.31793916127E+03  0.12699999809E+01 0. -1.
       -4    1    3    3    0  502  0.29025789936E+03  0.85187751672E+02 -0.26270065810E+03  0.40064928534E+03  0.12699999809E+01 0.  1.
</event>
<event>
 5   0  0.2937617E-03  0.7004209E+03  0.7818609E-02  0.9716513E-01
       -1   -1    0    0    0  501  0.00000000000E+00  0.00000000000E+00  0.16368514280E+03  0.16368514288E+03  0.50400001928E-02 0.  1.
        1   -1    0    0  501    0  0.00000000000E+00  0.00000000000E+00 -0.74928827281E+03  0.74928827283E+03  0.50400001928E-02 0. -1.
    10030    2    1    2    0    0  0.00000000000E+00  0.00000000000E+00 -0.58560313001E+03  0.91297341570E+03  0.70042089625E+03 0.  0.
        3    1    3    3  502    0  0.66917797578E+02 -0.13372523197E+03 -0.70558397371E+03  0.72125528314E+03  0.10100000352E+00 0. -1.
       -3    1    3    3    0  502 -0.66917797578E+02  0.13372523197E+03  0.11998084370E+03  0.19171813257E+03  0.10100000352E+00 0.  1.
</event>
<event>
 5   0  0.2937617E-03  0.6982360E+03  0.7818609E-02  0.9720254E-01
       -1   -1    0    0    0  501  0.00000000000E+00  0.00000000000E+00  0.79171574488E+02  0.79171574649E+02  0.50400001928E-02 0.  1.
        1   -1    0    0  501    0  0.00000000000E+00  0.00000000000E+00 -0.15394838720E+04  0.15394838720E+04  0.50400001928E-02 0. -1.
    10030    2    1    2    0    0  0.00000000000E+00  0.00000000000E+00 -0.14603122975E+04  0.16186554466E+04  0.69823595491E+03 0.  0.
        3    1    3    3  502    0  0.30672439289E+03 -0.44269922987E+02 -0.11028303425E+04  0.11455454830E+04  0.10100000352E+00 0. -1.
       -3    1    3    3    0  502 -0.30672439289E+03  0.44269922987E+02 -0.35748195503E+03  0.47310996359E+03  0.10100000352E+00 0.  1.
</event>
<event>
 5   0  0.5076796E-03  0.6998065E+03  0.7818609E-02  0.9717563E-01
       -2   -1    0    0    0  501  0.00000000000E+00  0.00000000000E+00  0.64772363058E+02  0.64772363108E+02  0.25500000920E-02 0.  1.
        2   -1    0    0  501    0  0.00000000000E+00  0.00000000000E+00 -0.18901934007E+04  0.18901934007E+04  0.25500000920E-02 0. -1.
    10030    2    1    2    0    0  0.00000000000E+00  0.00000000000E+00 -0.18254210377E+04  0.19549657638E+04  0.69980652541E+03 0.  0.
        5    1    3    3  502    0  0.10057951859E+03 -0.22571403325E+03 -0.22078663011E+03  0.33140894738E+03  0.46999998093E+01 0.  1.
       -5    1    3    3    0  502 -0.10057951859E+03  0.22571403325E+03 -0.16046344075E+04  0.16235568164E+04  0.46999998093E+01 0. -1.
</event>
<event>
 5   0  0.2938783E-03  0.7002137E+03  0.7818609E-02  0.9716867E-01
        1   -1    0    0  501    0  0.00000000000E+00  0.00000000000E+00  0.70671992363E+03  0.70671992365E+03  0.50400001928E-02 0.  1.
       -1   -1    0    0    0  501  0.00000000000E+00  0.00000000000E+00 -0.17344185874E+03  0.17344185881E+03  0.50400001928E-02 0. -1.
    10030    2    1    2    0    0  0.00000000000E+00  0.00000000000E+00  0.53327806489E+03  0.88016178246E+03  0.70021373081E+03 0.  0.
        4    1    3    3  502    0  0.69836803135E+01  0.10797793506E+03 -0.15189377143E+03  0.18649755213E+03  0.12699999809E+01 0. -1.
       -4    1    3    3    0  502 -0.69836803135E+01 -0.10797793506E+03  0.68517183632E+03  0.69366423033E+03  0.12699999809E+01 0.  1.
</event>
<event>
 5   0  0.2937617E-03  0.6998209E+03  0.7818609E-02  0.9717539E-01
       -1   -1    0    0    0  501  0.00000000000E+00  0.00000000000E+00  0.23498205894E+03  0.23498205899E+03  0.50400001928E-02 0. -1.
        1   -1    0    0  501    0  0.00000000000E+00  0.00000000000E+00 -0.52104961198E+03  0.52104961200E+03  0.50400001928E-02 0.  1.
    10030    2    1    2    0    0  0.00000000000E+00  0.00000000000E+00 -0.28606755304E+03  0.75603167099E+03  0.69982086468E+03 0.  0.
        3    1    3    3  502    0  0.33382569106E+03 -0.40846374763E+02 -0.24738011534E+03  0.41749844312E+03  0.10100000352E+00 0.  1.
       -3    1    3    3    0  502 -0.33382569106E+03  0.40846374763E+02 -0.38687437700E+02  0.33853322788E+03  0.10100000352E+00 0. -1.
</event>
<event>
 5   0  0.5023894E-03  0.7007108E+03  0.7818609E-02  0.9716017E-01
        2   -1    0    0  501    0  0.00000000000E+00  0.00000000000E+00  0.22268584169E+03  0.22268584170E+03  0.25500000920E-02 0. -1.
       -2   -1    0    0    0  501  0.00000000000E+00  0.00000000000E+00 -0.55121999983E+03  0.55121999983E+03  0.25500000920E-02 0.  1.
    10030    2    1    2    0    0  0.00000000000E+00  0.00000000000E+00 -0.32853415814E+03  0.77390584153E+03  0.70071075238E+03 0.  0.
        2    1    3    3  502    0 -0.57870281715E+02  0.25781133493E+03  0.89838127724E+02  0.27908160657E+03  0.25500000920E-02 0. -1.
       -2    1    3    3    0  502  0.57870281715E+02 -0.25781133493E+03 -0.41837228586E+03  0.49482423497E+03  0.25500000920E-02 0.  1.
</event>
<event>
 5   0  0.2938783E-03  0.6994309E+03  0.7818609E-02  0.9718206E-01
        1   -1    0    0  501    0  0.00000000000E+00  0.00000000000E+00  0.31733859067E+03  0.31733859071E+03  0.50400001928E-02 0. -1.
       -1   -1    0    0    0  501  0.00000000000E+00  0.00000000000E+00 -0.38539557866E+03  0.38539557869E+03  0.50400001928E-02 0.  1.
    10030    2    1    2    0    0  0.00000000000E+00  0.00000000000E+00 -0.68056987992E+02  0.70273416939E+03  0.69943088238E+03 0.  0.
        4    1    3    3  502    0 -0.24172712031E+03 -0.16875943265E+03 -0.22303266691E+03  0.36967138138E+03  0.12699999809E+01 0.  1.
       -4    1    3    3    0  502  0.24172712031E+03  0.16875943265E+03  0.15497567892E+03  0.33306278801E+03  0.12699999809E+01 0. -1.
</event>
<event>
 5   0  0.5072407E-03  0.6991210E+03  0.7818609E-02  0.9718737E-01
        2   -1    0    0  501    0  0.00000000000E+00  0.00000000000E+00  0.53605955701E+03  0.53605955701E+03  0.25500000920E-02 0.  1.
       -2   -1    0    0    0  501  0.00000000000E+00  0.00000000000E+00 -0.22794583365E+03  0.22794583367E+03  0.25500000920E-02 0. -1.
    10030    2    1    2    0    0  0.00000000000E+00  0.00000000000E+00  0.30811372335E+03  0.76400539068E+03  0.69912099844E+03 0.  0.
        1    1    3    3  502    0  0.14320216458E+03 -0.19503058270E+03 -0.12164457614E+03  0.27081578805E+03  0.50400001928E-02 0. -1.
       -1    1    3    3    0  502 -0.14320216458E+03  0.19503058270E+03  0.42975829949E+03  0.49318960263E+03  0.50400001928E-02 0.  1.
</event>
<event>
 5   0  0.1981750E-03  0.6997450E+03  0.7818609E-02  0.9717668E-01
        4   -1    0    0  501    0  0.00000000000E+00  0.00000000000E+00  0.17696095978E+03  0.17696551694E+03  0.12699999809E+01 0.  1.
       -4   -1    0    0    0  501  0.00000000000E+00  0.00000000000E+00 -0.69172475738E+03  0.69172592323E+03  0.12699999809E+01 0. -1.
    10030    2    1    2    0    0  0.00000000000E+00  0.00000000000E+00 -0.51476379760E+03  0.86869144018E+03  0.69974498992E+03 0.  0.
        5    1    3    3  502    0  0.64264239641E+01 -0.22940624450E+03  0.70415042715E+02  0.24010183710E+03  0.46999998093E+01 0.  1.
       -5    1    3    3    0  502 -0.64264239641E+01  0.22940624450E+03 -0.58517884031E+03  0.62858960307E+03  0.46999998093E+01 0. -1.
</event>
<event>
 5   0  0.2938783E-03  0.6951488E+03  0.7818609E-02  0.9725565E-01
        1   -1    0    0  501    0  0.00000000000E+00  0.00000000000E+00  0.42059505051E+03  0.42059505054E+03  0.50400001928E-02 0.  1.
       -1   -1    0    0    0  501  0.00000000000E+00  0.00000000000E+00 -0.28723103905E+03  0.28723103910E+03  0.50400001928E-02 0. -1.
    10030    2    1    2    0    0  0.00000000000E+00  0.00000000000E+00  0.13336401145E+03  0.70782608963E+03  0.69514877085E+03 0.  0.
        4    1    3    3  502    0 -0.27414865618E+03  0.12280641969E+03 -0.11134190113E+03  0.32037093228E+03  0.12699999809E+01 0. -1.
       -4    1    3    3    0  502  0.27414865618E+03 -0.12280641969E+03  0.24470591258E+03  0.38745515735E+03  0.12699999809E+01 0.  1.
</event>
<event>
 5   0  0.5113683E-03  0.6997904E+03  0.7818609E-02  0.9717591E-01
        2   -1    0    0  501    0  0.00000000000E+00  0.00000000000E+00  0.59531994930E+03  0.59531994931E+03  0.25500000920E-02 0. -1.
       -2   -1    0    0    0  501  0.00000000000E+00  0.00000000000E+00 -0.20564849743E+03  0.20564849745E+03  0.25500000920E-02 0.  1.
    10030    2    1    2    0    0  0.00000000000E+00  0.00000000000E+00  0.38967145187E+03  0.80096844675E+03  0.69979040597E+03 0.  0.
        3    1    3    3  502    0  0.51290156301E+02 -0.22719440025E+03  0.49369839965E+03  0.54588102702E+03  0.10100000352E+00 0. -1.
       -3    1    3    3    0  502 -0.51290156301E+02  0.22719440025E+03 -0.10402694778E+03  0.25508741973E+03  0.10100000352E+00 0.  1.
</event>
<event>
 5   0  0.2937617E-03  0.7041456E+03  0.7818609E-02  0.9710169E-01
       -1   -1    0    0    0  501  0.00000000000E+00  0.00000000000E+00  0.78704591367E+03  0.78704591369E+03  0.50400001928E-02 0.  1.
        1   -1    0    0  501    0  0.00000000000E+00  0.00000000000E+00 -0.15749431844E+03  0.15749431852E+03  0.50400001928E-02 0. -1.
    10030    2    1    2    0    0  0.00000000000E+00  0.00000000000E+00  0.62955159523E+03  0.94454023221E+03  0.70414560938E+03 0.  0.
        3    1    3    3  502    0 -0.59507892213E+02 -0.21289410916E+03 -0.52802190618E+02  0.22727334310E+03  0.10100000352E+00 0. -1.
       -3    1    3    3    0  502  0.59507892213E+02  0.21289410916E+03  0.68235378585E+03  0.71726688911E+03  0.10100000352E+00 0.  1.
</event>
<event>
 5   0  0.5023894E-03  0.7001285E+03  0.7818609E-02  0.9717012E-01
        2   -1    0    0  501    0  0.00000000000E+00  0.00000000000E+00  0.20376179576E+04  0.20376179576E+04  0.25500000920E-02 0.  1.
       -2   -1    0    0    0  501  0.00000000000E+00  0.00000000000E+00 -0.60141295371E+02  0.60141295425E+02  0.25500000920E-02 0. -1.
    10030    2    1    2    0    0  0.00000000000E+00  0.00000000000E+00  0.19774766623E+04  0.20977592531E+04  0.70012851249E+03 0.  0.
        2    1    3    3  502    0 -0.66567191216E+02  0.16190837981E+03  0.80427731760E+02  0.19265029053E+03  0.25500000920E-02 0. -1.
       -2    1    3    3    0  502  0.66567191216E+02 -0.16190837981E+03  0.18970489305E+04  0.19051089625E+04  0.25500000920E-02 0.  1.
</event>
<event>
 5   0  0.5113683E-03  0.7007125E+03  0.7818609E-02  0.9716014E-01
        2   -1    0    0  501    0  0.00000000000E+00  0.00000000000E+00  0.24690973899E+03  0.24690973900E+03  0.25500000920E-02 0. -1.
       -2   -1    0    0    0  501  0.00000000000E+00  0.00000000000E+00 -0.49714326796E+03  0.49714326797E+03  0.25500000920E-02 0.  1.
    10030    2    1    2    0    0  0.00000000000E+00  0.00000000000E+00 -0.25023352897E+03  0.74405300697E+03  0.70071253604E+03 0.  0.
        3    1    3    3  502    0 -0.19729074067E+03 -0.19995783229E+03 -0.34745430625E+03  0.44680115956E+03  0.10100000352E+00 0.  1.
       -3    1    3    3    0  502  0.19729074067E+03  0.19995783229E+03  0.97220777283E+02  0.29725184741E+03  0.10100000352E+00 0. -1.
</event>
<event>
 5   0  0.5023894E-03  0.7021523E+03  0.7818609E-02  0.9713558E-01
       -2   -1    0    0    0  501  0.00000000000E+00  0.00000000000E+00  0.24964672589E+03  0.24964672591E+03  0.25500000920E-02 0.  1.
        2   -1    0    0  501    0  0.00000000000E+00  0.00000000000E+00 -0.49371557107E+03  0.49371557107E+03  0.25500000920E-02 0. -1.
    10030    2    1    2    0    0  0.00000000000E+00  0.00000000000E+00 -0.24406884517E+03  0.74336229698E+03  0.70215233631E+03 0.  0.
        2    1    3    3  502    0 -0.83306065817E+02  0.27776531007E+03  0.87471408257E+02  0.30289390114E+03  0.25500000920E-02 0.  1.
       -2    1    3    3    0  502  0.83306065817E+02 -0.27776531007E+03 -0.33154025343E+03  0.44046839584E+03  0.25500000920E-02 0. -1.
</event>
<event>
 5   0  0.5023894E-03  0.7005820E+03  0.7818609E-02  0.9716237E-01
       -2   -1    0    0    0  501  0.00000000000E+00  0.00000000000E+00  0.33428796516E+03  0.33428796517E+03  0.25500000920E-02 0.  1.
        2   -1    0    0  501    0  0.00000000000E+00  0.00000000000E+00 -0.36706012655E+03  0.36706012656E+03  0.25500000920E-02 0. -1.
    10030    2    1    2    0    0  0.00000000000E+00  0.00000000000E+00 -0.32772161387E+02  0.70134809173E+03  0.70058199464E+03 0.  0.
        2    1    3    3  502    0 -0.15781370749E+03  0.16510858388E+03  0.24949382577E+03  0.33825017346E+03  0.25500000920E-02 0.  1.
       -2    1    3    3    0  502  0.15781370749E+03 -0.16510858388E+03 -0.28226598715E+03  0.36309791827E+03  0.25500000920E-02 0. -1.
</event>
<event>
 5   0  0.2934483E-03  0.7006174E+03  0.7818609E-02  0.9716177E-01
        1   -1    0    0  501    0  0.00000000000E+00  0.00000000000E+00  0.70702298150E+03  0.70702298151E+03  0.50400001928E-02 0.  1.
       -1   -1    0    0    0  501  0.00000000000E+00  0.00000000000E+00 -0.17356745318E+03  0.17356745325E+03  0.50400001928E-02 0. -1.
    10030    2    1    2    0    0  0.00000000000E+00  0.00000000000E+00  0.53345552832E+03  0.88059043477E+03  0.70061737997E+03 0.  0.
        5    1    3    3  502    0 -0.14375730797E+02 -0.34387667246E+03  0.18492190673E+03  0.39073780094E+03  0.46999998093E+01 0.  1.
       -5    1    3    3    0  502  0.14375730797E+02  0.34387667246E+03  0.34853362159E+03  0.48985263383E+03  0.46999998093E+01 0. -1.
</event>
<event>
 5   0  0.2938783E-03  0.6996518E+03  0.7818609E-02  0.9717828E-01
       -1   -1    0    0    0  501  0.00000000000E+00  0.00000000000E+00  0.16871862249E+03  0.16871862256E+03  0.50400001928E-02 0.  1.
        1   -1    0    0  501    0  0.00000000000E+00  0.00000000000E+00 -0.72533870028E+03  0.72533870030E+03  0.50400001928E-02 0. -1.
    10030    2    1    2    0    0  0.00000000000E+00  0.00000000000E+00 -0.55662007779E+03  0.89405732286E+03  0.69965176020E+03 0.  0.
        4    1    3    3  502    0  0.11211937523E+03 -0.21844004955E+03  0.40104799515E+02  0.24879071002E+03  0.12699999809E+01 0.  1.
       -4    1    3    3    0  502 -0.11211937523E+03  0.21844004955E+03 -0.59672487731E+03  0.64526661284E+03  0.12699999809E+01 0. -1.
</event>
<event>
 5   0  0.5023894E-03  0.7005414E+03  0.7818609E-02  0.9716307E-01
        2   -1    0    0  501    0  0.00000000000E+00  0.00000000000E+00  0.60427876623E+03  0.60427876623E+03  0.25500000920E-02 0.  1.
       -2   -1    0    0    0  501  0.00000000000E+00  0.00000000000E+00 -0.20303468484E+03  0.20303468485E+03  0.25500000920E-02 0. -1.
    10030    2    1    2    0    0  0.00000000000E+00  0.00000000000E+00  0.40124408139E+03  0.80731345108E+03  0.70054135885E+03 0.  0.
        2    1    3    3  502    0 -0.15971814853E+03  0.27927115690E+03  0.36025227333E+03  0.48299478930E+03  0.25500000920E-02 0.  1.
       -2    1    3    3    0  502  0.15971814853E+03 -0.27927115690E+03  0.40991808055E+02  0.32431866178E+03  0.25500000920E-02 0. -1.
</event>
<event>
 5   0  0.5023894E-03  0.7001109E+03  0.7818609E-02  0.9717042E-01
       -2   -1    0    0    0  501  0.00000000000E+00  0.00000000000E+00  0.94197855609E+02  0.94197855644E+02  0.25500000920E-02 0.  1.
        2   -1    0    0  501    0  0.00000000000E+00  0.00000000000E+00 -0.13008664961E+04  0.13008664961E+04  0.25500000920E-02 0. -1.
    10030    2    1    2    0    0  0.00000000000E+00  0.00000000000E+00 -0.12066686405E+04  0.13950643518E+04  0.70011094663E+03 0.  0.
        2    1    3    3  502    0  0.21387566169E+03  0.53274899125E+02 -0.11452346638E+04  0.11662518804E+04  0.25500000920E-02 0. -1.
       -2    1    3    3    0  502 -0.21387566169E+03 -0.53274899125E+02 -0.61433976782E+02  0.22881247136E+03  0.25500000920E-02 0.  1.
</event>
<event>
 5   0  0.2934483E-03  0.6991907E+03  0.7818609E-02  0.9718617E-01
       -1   -1    0    0    0  501  0.00000000000E+00  0.00000000000E+00  0.80364872983E+02  0.80364873141E+02  0.50400001928E-02 0.  1.
        1   -1    0    0  501    0  0.00000000000E+00  0.00000000000E+00 -0.15207752214E+04  0.15207752214E+04  0.50400001928E-02 0. -1.
    10030    2    1    2    0    0  0.00000000000E+00  0.00000000000E+00 -0.14404103484E+04  0.16011400945E+04  0.69919069684E+03 0.  0.
        5    1    3    3  502    0 -0.19308835000E+03 -0.16741218902E+03 -0.12663804798E+04  0.12919177844E+04  0.46999998093E+01 0. -1.
       -5    1    3    3    0  502  0.19308835000E+03  0.16741218902E+03 -0.17402986857E+03  0.30922231014E+03  0.46999998093E+01 0.  1.
</event>
<event>
 5   0  0.5113683E-03  0.6993883E+03  0.7818609E-02  0.9718279E-01
       -2   -1    0    0    0  501  0.00000000000E+00  0.00000000000E+00  0.78300670528E+02  0.78300670570E+02  0.25500000920E-02 0.  1.
        2   -1    0    0  501    0  0.00000000000E+00  0.00000000000E+00 -0.15617488558E+04  0.15617488558E+04  0.25500000920E-02 0. -1.
    10030    2    1    2    0    0  0.00000000000E+00  0.00000000000E+00 -0.14834481853E+04  0.16400495264E+04  0.69938825453E+03 0.  0.
        3    1    3    3  502    0 -0.83127002505E+02 -0.33728196235E+03 -0.64743525076E+03  0.73473916107E+03  0.10100000352E+00 0. -1.
       -3    1    3    3    0  502  0.83127002505E+02  0.33728196235E+03 -0.83601293455E+03  0.90531036534E+03  0.10100000352E+00 0.  1.
</event>
<event>
 5   0  0.1981750E-03  0.7004355E+03  0.7818609E-02  0.9716488E-01
        4   -1    0    0  501    0  0.00000000000E+00  0.00000000000E+00  0.92557213920E+03  0.92557301050E+03  0.12699999809E+01 0.  1.
       -4   -1    0    0    0  501  0.00000000000E+00  0.00000000000E+00 -0.13251131755E+03  0.13251740331E+03  0.12699999809E+01 0. -1.
    10030    2    1    2    0    0  0.00000000000E+00  0.00000000000E+00  0.79306082165E+03  0.10580904138E+04  0.70043547665E+03 0.  0.
        1    1    3    3  502    0 -0.24839949968E+03  0.12614860105E+03  0.75949362699E+02  0.28876302864E+03  0.50400001928E-02 0. -1.
       -1    1    3    3    0  502  0.24839949968E+03 -0.12614860105E+03  0.71711145895E+03  0.76932738517E+03  0.50400001928E-02 0.  1.
</event>
<event>
 5   0  0.2913582E-03  0.6996936E+03  0.7818609E-02  0.9717756E-01
        1   -1    0    0  501    0  0.00000000000E+00  0.00000000000E+00  0.25605741603E+04  0.25605741603E+04  0.50400001928E-02 0. -1.
       -1   -1    0    0    0  501  0.00000000000E+00  0.00000000000E+00 -0.47798966285E+02  0.47798966551E+02  0.50400001928E-02 0.  1.
    10030    2    1    2    0    0  0.00000000000E+00  0.00000000000E+00  0.25127751940E+04  0.26083731269E+04  0.69969364242E+03 0.  0.
        1    1    3    3  502    0  0.18211033047E+03  0.78212399203E+01  0.23695665145E+04  0.23765670222E+04  0.50400001928E-02 0. -1.
       -1    1    3    3    0  502 -0.18211033047E+03 -0.78212399203E+01  0.14320867956E+03  0.23180610471E+03  0.50400001928E-02 0.  1.
</event>
<event>
 5   0  0.5023894E-03  0.6995241E+03  0.7818609E-02  0.9718046E-01
       -2   -1    0    0    0  501  0.00000000000E+00  0.00000000000E+00  0.24818996766E+03  0.24818996767E+03  0.25500000920E-02 0. -1.
        2   -1    0    0  501    0  0.00000000000E+00  0.00000000000E+00 -0.49290259929E+03  0.49290259929E+03  0.25500000920E-02 0.  1.
    10030    2    1    2    0    0  0.00000000000E+00  0.00000000000E+00 -0.24471263163E+03  0.74109256696E+03  0.69952406730E+03 0.  0.
        2    1    3    3  502    0  0.51162331946E+02  0.28142208451E+03 -0.33560735222E+03  0.44096288816E+03  0.25500000920E-02 0.  1.
       -2    1    3    3    0  502 -0.51162331946E+02 -0.28142208451E+03  0.90894720593E+02  0.30012967880E+03  0.25500000920E-02 0. -1.
</event>
<event>
 5   0  0.5076796E-03  0.6940337E+03  0.7818609E-02  0.9727490E-01
        2   -1    0    0  501    0  0.00000000000E+00  0.00000000000E+00  0.56287450852E+03  0.56287450853E+03  0.25500000920E-02 0.  1.
       -2   -1    0    0    0  501  0.00000000000E+00  0.00000000000E+00 -0.21393876643E+03  0.21393876644E+03  0.25500000920E-02 0. -1.
    10030    2    1    2    0    0  0.00000000000E+00  0.00000000000E+00  0.34893574210E+03  0.77681327497E+03  0.69403365341E+03 0.  0.
        5    1    3    3  502    0 -0.46235028071E+02  0.85879579290E+02  0.54718014941E+03  0.55582477982E+03  0.46999998093E+01 0.  1.
       -5    1    3    3    0  502  0.46235028071E+02 -0.85879579290E+02 -0.19824440731E+03  0.22098849515E+03  0.46999998093E+01 0. -1.
</event>
<event>
 5   0  0.1981750E-03  0.6979964E+03  0.7818609E-02  0.9720665E-01
       -4   -1    0    0    0  501  0.00000000000E+00  0.00000000000E+00  0.20069380420E+03  0.20069782248E+03  0.12699999809E+01 0. -1.
        4   -1    0    0  501    0  0.00000000000E+00  0.00000000000E+00 -0.60688268361E+03  0.60688401245E+03  0.12699999809E+01 0.  1.
    10030    2    1    2    0    0  0.00000000000E+00  0.00000000000E+00 -0.40618887940E+03  0.80758183492E+03  0.69799642860E+03 0.  0.
        1    1    3    3  502    0 -0.11266577241E+03  0.59870662329E+02 -0.57893547168E+03  0.59282742251E+03  0.50400001928E-02 0.  1.
       -1    1    3    3    0  502  0.11266577241E+03 -0.59870662329E+02  0.17274659228E+03  0.21475441241E+03  0.50400001928E-02 0. -1.
</event>
<event>
 5   0  0.2934483E-03  0.7002848E+03  0.7818609E-02  0.9716745E-01
        1   -1    0    0  501    0  0.00000000000E+00  0.00000000000E+00  0.73047802336E+03  0.73047802338E+03  0.50400001928E-02 0. -1.
       -1   -1    0    0    0  501  0.00000000000E+00  0.00000000000E+00 -0.16783487122E+03  0.16783487130E+03  0.50400001928E-02 0.  1.
    10030    2    1    2    0    0  0.00000000000E+00  0.00000000000E+00  0.56264315214E+03  0.89831289467E+03  0.70028475643E+03 0.  0.
        5    1    3    3  502    0  0.33015179046E+03  0.10758702095E+03  0.22391906440E+03  0.41320335093E+03  0.46999998093E+01 0. -1.
       -5    1    3    3    0  502 -0.33015179046E+03 -0.10758702095E+03  0.33872408774E+03  0.48510954374E+03  0.46999998093E+01 0.  1.
</event>
<event>
 5   0  0.4878235E-03  0.7007417E+03  0.7818609E-02  0.9715965E-01
        2   -1    0    0  501    0  0.00000000000E+00  0.00000000000E+00  0.79149554810E+03  0.79149554810E+03  0.25500000920E-02 0. -1.
       -2   -1    0    0    0  501  0.00000000000E+00  0.00000000000E+00 -0.15509843505E+03  0.15509843507E+03  0.25500000920E-02 0.  1.
    10030    2    1    2    0    0  0.00000000000E+00  0.00000000000E+00  0.63639711305E+03  0.94659398317E+03  0.70074166672E+03 0.  0.
        4    1    3    3  502    0 -0.49965859809E+02  0.27462863731E+03  0.32148747418E+02  0.28098510714E+03  0.12699999809E+01 0.  1.
       -4    1    3    3    0  502  0.49965859809E+02 -0.27462863731E+03  0.60424836563E+03  0.66560887603E+03  0.12699999809E+01 0. -1.
</event>
<event>
 5   0  0.2937617E-03  0.6967270E+03  0.7818609E-02  0.9722846E-01
       -1   -1    0    0    0  501  0.00000000000E+00  0.00000000000E+00  0.35542444044E+03  0.35542444048E+03  0.50400001928E-02 0. -1.
        1   -1    0    0  501    0  0.00000000000E+00  0.00000000000E+00 -0.34144282679E+03  0.34144282682E+03  0.50400001928E-02 0.  1.
    10030    2    1    2    0    0  0.00000000000E+00  0.00000000000E+00  0.13981613655E+02  0.69686726730E+03  0.69672699296E+03 0.  0.
        3    1    3    3  502    0  0.10572355280E+03 -0.33169224388E+03  0.19638557785E+02  0.34868739212E+03  0.10100000352E+00 0.  1.
       -3    1    3    3    0  502 -0.10572355280E+03  0.33169224388E+03 -0.56569441301E+01  0.34817987519E+03  0.10100000352E+00 0. -1.
</event>
<event>
 5   0  0.3013140E-03  0.7001764E+03  0.7818609E-02  0.9716931E-01
       -1   -1    0    0    0  501  0.00000000000E+00  0.00000000000E+00  0.46833165479E+03  0.46833165482E+03  0.50400001928E-02 0.  1.
        1   -1    0    0  501    0  0.00000000000E+00  0.00000000000E+00 -0.26169861247E+03  0.26169861251E+03  0.50400001928E-02 0. -1.
    10030    2    1    2    0    0  0.00000000000E+00  0.00000000000E+00  0.20663304233E+03  0.73003026733E+03  0.70017638995E+03 0.  0.
        2    1    3    3  502    0 -0.27184533842E+03 -0.12544718250E+03 -0.85872258990E+02  0.31146577419E+03  0.25500000920E-02 0.  1.
       -2    1    3    3    0  502  0.27184533842E+03  0.12544718250E+03  0.29250530132E+03  0.41856449315E+03  0.25500000920E-02 0. -1.
</event>
<event>
 5   0  0.5023894E-03  0.6991827E+03  0.7818609E-02  0.9718631E-01
        2   -1    0    0  501    0  0.00000000000E+00  0.00000000000E+00  0.18014246451E+03  0.18014246453E+03  0.25500000920E-02 0. -1.
       -2   -1    0    0    0  501  0.00000000000E+00  0.00000000000E+00 -0.67843027650E+03  0.67843027651E+03  0.25500000920E-02 0.  1.
    10030    2    1    2    0    0  0.00000000000E+00  0.00000000000E+00 -0.49828781199E+03  0.85857274104E+03  0.69918267146E+03 0.  0.
        2    1    3    3  502    0  0.25441243077E+03 -0.21853305324E+03 -0.37028215186E+03  0.49959108507E+03  0.25500000920E-02 0.  1.
       -2    1    3    3    0  502 -0.25441243077E+03  0.21853305324E+03 -0.12800566014E+03  0.35898165597E+03  0.25500000920E-02 0. -1.
</event>
<event>
 5   0  0.5076796E-03  0.7019977E+03  0.7818609E-02  0.9713822E-01
        2   -1    0    0  501    0  0.00000000000E+00  0.00000000000E+00  0.12986564728E+04  0.12986564728E+04  0.25500000920E-02 0.  1.
       -2   -1    0    0    0  501  0.00000000000E+00  0.00000000000E+00 -0.94867435169E+02  0.94867435203E+02  0.25500000920E-02 0. -1.
    10030    2    1    2    0    0  0.00000000000E+00  0.00000000000E+00  0.12037890377E+04  0.13935239080E+04  0.70199774578E+03 0.  0.
        5    1    3    3  502    0  0.19200492883E+03  0.28030620332E+03  0.77654414454E+03  0.84763220723E+03  0.46999998093E+01 0. -1.
       -5    1    3    3    0  502 -0.19200492883E+03 -0.28030620332E+03  0.42724489313E+03  0.54589170081E+03  0.46999998093E+01 0.  1.
</event>
<event>
 5   0  0.2938783E-03  0.6990994E+03  0.7818609E-02  0.9718774E-01
        1   -1    0    0  501    0  0.00000000000E+00  0.00000000000E+00  0.56963137341E+03  0.56963137343E+03  0.50400001928E-02 0.  1.
       -1   -1    0    0    0  501  0.00000000000E+00  0.00000000000E+00 -0.21449832676E+03  0.21449832681E+03  0.50400001928E-02 0. -1.
    10030    2    1    2    0    0  0.00000000000E+00  0.00000000000E+00  0.35513304666E+03  0.78412970025E+03  0.69909935344E+03 0.  0.
        4    1    3    3  502    0  0.24635716963E+03 -0.23602375664E+03  0.92261576735E+02  0.35343016307E+03  0.12699999809E+01 0. -1.
       -4    1    3    3    0  502 -0.24635716963E+03  0.23602375664E+03  0.26287146992E+03  0.43069953718E+03  0.12699999809E+01 0.  1.
</event>
<event>
 5   0  0.5076796E-03  0.6999518E+03  0.7818609E-02  0.9717315E-01
        2   -1    0    0  501    0  0.00000000000E+00  0.00000000000E+00  0.44220202707E+03  0.44220202708E+03  0.25500000920E-02 0.  1.
       -2   -1    0    0    0  501  0.00000000000E+00  0.00000000000E+00 -0.27698453981E+03  0.27698453982E+03  0.25500000920E-02 0. -1.
    10030    2    1    2    0    0  0.00000000000E+00  0.00000000000E+00  0.16521748726E+03  0.71918656689E+03  0.69995178399E+03 0.  0.
        5    1    3    3  502    0  0.87747539153E+02  0.10699546943E+01 -0.26546334806E+03  0.27963128329E+03  0.46999998093E+01 0. -1.
       -5    1    3    3    0  502 -0.87747539153E+02 -0.10699546943E+01  0.43068083533E+03  0.43955528361E+03  0.46999998093E+01 0.  1.
</event>
<event>
 5   0  0.1981750E-03  0.6991727E+03  0.7818609E-02  0.9718648E-01
       -3   -1    0    0    0  501  0.00000000000E+00  0.00000000000E+00  0.10943784098E+04  0.10943784145E+04  0.10100000352E+00 0. -1.
        3   -1    0    0  501    0  0.00000000000E+00  0.00000000000E+00 -0.11167123886E+03  0.11167128453E+03  0.10100000352E+00 0.  1.
    10030    2    1    2    0    0  0.00000000000E+00  0.00000000000E+00  0.98270717094E+03  0.12060496990E+04  0.69917272016E+03 0.  0.
        1    1    3    3  502    0 -0.10237242492E+03 -0.23181326913E+03  0.90675594521E+03  0.94150084935E+03  0.50400001928E-02 0. -1.
       -1    1    3    3    0  502  0.10237242492E+03  0.23181326913E+03  0.75951225731E+02  0.26454884964E+03  0.50400001928E-02 0.  1.
</event>
<event>
 5   0  0.2937617E-03  0.6983615E+03  0.7818609E-02  0.9720038E-01
       -1   -1    0    0    0  501  0.00000000000E+00  0.00000000000E+00  0.29815852208E+03  0.29815852212E+03  0.50400001928E-02 0. -1.
        1   -1    0    0  501    0  0.00000000000E+00  0.00000000000E+00 -0.40893418543E+03  0.40893418546E+03  0.50400001928E-02 0.  1.
    10030    2    1    2    0    0  0.00000000000E+00  0.00000000000E+00 -0.11077566335E+03  0.70709270759E+03  0.69836154643E+03 0.  0.
        3    1    3    3  502    0  0.17438440422E+03 -0.30224703786E+03 -0.68354577715E+02  0.35557777044E+03  0.10100000352E+00 0.  1.
       -3    1    3    3    0  502 -0.17438440422E+03  0.30224703786E+03 -0.42421085638E+02  0.35151493715E+03  0.10100000352E+00 0. -1.
</event>
<event>
 5   0  0.5023894E-03  0.6999560E+03  0.7818609E-02  0.9717307E-01
        2   -1    0    0  501    0  0.00000000000E+00  0.00000000000E+00  0.92593564191E+03  0.92593564192E+03  0.25500000920E-02 0.  1.
       -2   -1    0    0    0  501  0.00000000000E+00  0.00000000000E+00 -0.13228198988E+03  0.13228198990E+03  0.25500000920E-02 0. -1.
    10030    2    1    2    0    0  0.00000000000E+00  0.00000000000E+00  0.79365365204E+03  0.10582176318E+04  0.69995602498E+03 0.  0.
        2    1    3    3  502    0 -0.54831110576E+02  0.31270575141E+03  0.17415423442E+03  0.36210638634E+03  0.25500000920E-02 0. -1.
       -2    1    3    3    0  502  0.54831110576E+02 -0.31270575141E+03  0.61949941762E+03  0.69611124548E+03  0.25500000920E-02 0.  1.
</event>
<event>
 5   0  0.5113683E-03  0.7000175E+03  0.7818609E-02  0.9717202E-01
       -2   -1    0    0    0  501  0.00000000000E+00  0.00000000000E+00  0.44936930946E+03  0.44936930947E+03  0.25500000920E-02 0.  1.
        2   -1    0    0  501    0  0.00000000000E+00  0.00000000000E+00 -0.27261793675E+03  0.27261793676E+03  0.25500000920E-02 0. -1.
    10030    2    1    2    0    0  0.00000000000E+00  0.00000000000E+00  0.17675137271E+03  0.72198724623E+03  0.70001752547E+03 0.  0.
        3    1    3    3  502    0 -0.11207215146E+03 -0.31895269911E+03 -0.51062922892E+01  0.33810808305E+03  0.10100000352E+00 0. -1.
       -3    1    3    3    0  502  0.11207215146E+03  0.31895269911E+03  0.18185766500E+03  0.38387916318E+03  0.10100000352E+00 0.  1.
</event>
<event>
 5   0  0.5072407E-03  0.6995123E+03  0.7818609E-02  0.9718067E-01
        2   -1    0    0  501    0  0.00000000000E+00  0.00000000000E+00  0.19823676802E+04  0.19823676802E+04  0.25500000920E-02 0. -1.
       -2   -1    0    0    0  501  0.00000000000E+00  0.00000000000E+00 -0.61708715995E+02  0.61708716048E+02  0.25500000920E-02 0.  1.
    10030    2    1    2    0    0  0.00000000000E+00  0.00000000000E+00  0.19206589642E+04  0.20440763962E+04  0.69951229934E+03 0.  0.
        1    1    3    3  502    0  0.54566227208E+02  0.12507022599E+02  0.19691911827E+04  0.19699867544E+04  0.50400001928E-02 0. -1.
       -1    1    3    3    0  502 -0.54566227208E+02 -0.12507022599E+02 -0.48532218473E+02  0.74089641795E+02  0.50400001928E-02 0.  1.
</event>
<event>
 5   0  0.2938783E-03  0.6992685E+03  0.7818609E-02  0.9718484E-01
       -1   -1    0    0    0  501  0.00000000000E+00  0.00000000000E+00  0.21660999814E+03  0.21660999819E+03  0.50400001928E-02 0. -1.
        1   -1    0    0  501    0  0.00000000000E+00  0.00000000000E+00 -0.56435124533E+03  0.56435124535E+03  0.50400001928E-02 0.  1.
    10030    2    1    2    0    0  0.00000000000E+00  0.00000000000E+00 -0.34774124719E+03  0.78096124355E+03  0.69926853849E+03 0.  0.
        4    1    3    3  502    0  0.17788801236E+03  0.24207453902E+03  0.25907911077E+02  0.30152455976E+03  0.12699999809E+01 0. -1.
       -4    1    3    3    0  502 -0.17788801236E+03 -0.24207453902E+03 -0.37364915827E+03  0.47943668379E+03  0.12699999809E+01 0.  1.
</event>
<event>
 5   0  0.5113683E-03  0.7188149E+03  0.7818609E-02  0.9685586E-01
       -2   -1    0    0    0  501  0.00000000000E+00  0.00000000000E+00  0.29926811302E+03  0.29926811303E+03  0.25500000920E-02 0. -1.
        2   -1    0    0  501    0  0.00000000000E+00  0.00000000000E+00 -0.43163203177E+03  0.43163203178E+03  0.25500000920E-02 0.  1.
    10030    2    1    2    0    0  0.00000000000E+00  0.00000000000E+00 -0.13236391875E+03  0.73090014481E+03  0.71881486817E+03 0.  0.
        3    1    3    3  502    0  0.18218355200E+03 -0.29817966263E+03  0.19325500495E+02  0.34996491681E+03  0.10100000352E+00 0. -1.
       -3    1    3    3    0  502 -0.18218355200E+03  0.29817966263E+03 -0.15168941924E+03  0.38093522800E+03  0.10100000352E+00 0.  1.
</event>
<event>
 5   0  0.2938783E-03  0.6995563E+03  0.7818609E-02  0.9717991E-01
        1   -1    0    0  501    0  0.00000000000E+00  0.00000000000E+00  0.15044726164E+03  0.15044726173E+03  0.50400001928E-02 0. -1.
       -1   -1    0    0    0  501  0.00000000000E+00  0.00000000000E+00 -0.81320686210E+03  0.81320686211E+03  0.50400001928E-02 0.  1.
    10030    2    1    2    0    0  0.00000000000E+00  0.00000000000E+00 -0.66275960045E+03  0.96365412384E+03  0.69955627536E+03 0.  0.
        4    1    3    3  502    0 -0.55610100559E+02  0.11692803068E+03  0.11621624486E+03  0.17398987359E+03  0.12699999809E+01 0. -1.
       -4    1    3    3    0  502  0.55610100559E+02 -0.11692803068E+03 -0.77897584531E+03  0.78966425025E+03  0.12699999809E+01 0.  1.
</event>
<event>
 5   0  0.5076796E-03  0.7032235E+03  0.7818609E-02  0.9711735E-01
        2   -1    0    0  501    0  0.00000000000E+00  0.00000000000E+00  0.42302494687E+03  0.42302494688E+03  0.25500000920E-02 0.  1.
       -2   -1    0    0    0  501  0.00000000000E+00  0.00000000000E+00 -0.29225425059E+03  0.29225425060E+03  0.25500000920E-02 0. -1.
    10030    2    1    2    0    0  0.00000000000E+00  0.00000000000E+00  0.13077069629E+03  0.71527919748E+03  0.70322354578E+03 0.  0.
        5    1    3    3  502    0  0.23836623014E+03  0.25736102830E+03  0.41410298787E+02  0.35325636782E+03  0.46999998093E+01 0.  1.
       -5    1    3    3    0  502 -0.23836623014E+03 -0.25736102830E+03  0.89360397500E+02  0.36202282966E+03  0.46999998093E+01 0. -1.
</event>
<event>
 5   0  0.2938783E-03  0.6999584E+03  0.7818609E-02  0.9717303E-01
        1   -1    0    0  501    0  0.00000000000E+00  0.00000000000E+00  0.30699342144E+03  0.30699342148E+03  0.50400001928E-02 0.  1.
       -1   -1    0    0    0  501  0.00000000000E+00  0.00000000000E+00 -0.39898397472E+03  0.39898397476E+03  0.50400001928E-02 0. -1.
    10030    2    1    2    0    0  0.00000000000E+00  0.00000000000E+00 -0.91990553280E+02  0.70597739624E+03  0.69995844313E+03 0.  0.
        4    1    3    3  502    0  0.76866505060E+02  0.93024485127E+02 -0.37733475677E+03  0.39616302957E+03  0.12699999809E+01 0. -1.
       -4    1    3    3    0  502 -0.76866505060E+02 -0.93024485127E+02  0.28534420349E+03  0.30981436667E+03  0.12699999809E+01 0.  1.
</event>
<event>
 5   0  0.2937617E-03  0.7003787E+03  0.7818609E-02  0.9716585E-01
       -1   -1    0    0    0  501  0.00000000000E+00  0.00000000000E+00  0.16590003267E+03  0.16590003275E+03  0.50400001928E-02 0.  1.
        1   -1    0    0  501    0  0.00000000000E+00  0.00000000000E+00 -0.73919562012E+03  0.73919562014E+03  0.50400001928E-02 0. -1.
    10030    2    1    2    0    0  0.00000000000E+00  0.00000000000E+00 -0.57329558745E+03  0.90509565289E+03  0.70037869063E+03 0.  0.
        3    1    3    3  502    0  0.26559568107E+03 -0.22822216713E+03 -0.28985101709E+03  0.45457677644E+03  0.10100000352E+00 0. -1.
       -3    1    3    3    0  502 -0.26559568107E+03  0.22822216713E+03 -0.28344457036E+03  0.45051887645E+03  0.10100000352E+00 0.  1.
</event>
<event>
 5   0  0.5072407E-03  0.6993939E+03  0.7818609E-02  0.9718269E-01
        2   -1    0    0  501    0  0.00000000000E+00  0.00000000000E+00  0.54710549530E+03  0.54710549531E+03  0.25500000920E-02 0. -1.
       -2   -1    0    0    0  501  0.00000000000E+00  0.00000000000E+00 -0.22351806861E+03  0.22351806863E+03  0.25500000920E-02 0.  1.
    10030    2    1    2    0    0  0.00000000000E+00  0.00000000000E+00  0.32358742669E+03  0.77062356394E+03  0.69939391946E+03 0.  0.
        1    1    3    3  502    0  0.77037707428E+02  0.32327893234E+03  0.28170707081E+03  0.43566380413E+03  0.50400001928E-02 0. -1.
       -1    1    3    3    0  502 -0.77037707428E+02 -0.32327893234E+03  0.41880355886E+02  0.33495975981E+03  0.50400001928E-02 0.  1.
</event>
<event>
 5   0  0.4878235E-03  0.7003618E+03  0.7818609E-02  0.9716614E-01
       -2   -1    0    0    0  501  0.00000000000E+00  0.00000000000E+00  0.46051046465E+03  0.46051046466E+03  0.25500000920E-02 0.  1.
        2   -1    0    0  501    0  0.00000000000E+00  0.00000000000E+00 -0.26628419860E+03  0.26628419861E+03  0.25500000920E-02 0. -1.
    10030    2    1    2    0    0  0.00000000000E+00  0.00000000000E+00  0.19422626605E+03  0.72679466326E+03  0.70036179231E+03 0.  0.
        4    1    3    3  502    0 -0.31786877065E+03 -0.22946993761E+02 -0.53477200353E+02  0.32315405573E+03  0.12699999809E+01 0. -1.
       -4    1    3    3    0  502  0.31786877065E+03  0.22946993761E+02  0.24770346640E+03  0.40364060753E+03  0.12699999809E+01 0.  1.
</event>
<event>
 5   0  0.5113683E-03  0.6979741E+03  0.7818609E-02  0.9720703E-01
        2   -1    0    0  501    0  0.00000000000E+00  0.00000000000E+00  0.69506235296E+03  0.69506235297E+03  0.25500000920E-02 0. -1.
       -2   -1    0    0    0  501  0.00000000000E+00  0.00000000000E+00 -0.17522450090E+03  0.17522450092E+03  0.25500000920E-02 0.  1.
    10030    2    1    2    0    0  0.00000000000E+00  0.00000000000E+00  0.51983785206E+03  0.87028685388E+03  0.69797407947E+03 0.  0.
        3    1    3    3  502    0 -0.71113222631E+02  0.18994258625E+03 -0.94195210939E+02  0.22362474029E+03  0.10100000352E+00 0.  1.
       -3    1    3    3    0  502  0.71113222631E+02 -0.18994258625E+03  0.61403306300E+03  0.64666211360E+03  0.10100000352E+00 0. -1.
</event>
<event>
 5   0  0.3013140E-03  0.6986589E+03  0.7818609E-02  0.9719528E-01
        1   -1    0    0  501    0  0.00000000000E+00  0.00000000000E+00  0.14594719813E+04  0.14594719813E+04  0.50400001928E-02 0.  1.
       -1   -1    0    0    0  501  0.00000000000E+00  0.00000000000E+00 -0.83613170958E+02  0.83613171109E+02  0.50400001928E-02 0. -1.
    10030    2    1    2    0    0  0.00000000000E+00  0.00000000000E+00  0.13758588104E+04  0.15430851524E+04  0.69865894514E+03 0.  0.
        2    1    3    3  502    0  0.38492863913E+02 -0.14180481732E+02  0.14541337977E+04  0.14547123043E+04  0.25500000920E-02 0.  1.
       -2    1    3    3    0  502 -0.38492863913E+02  0.14180481732E+02 -0.78274987356E+02  0.88372848129E+02  0.25500000920E-02 0. -1.
</event>
<event>
 5   0  0.3013140E-03  0.6996385E+03  0.7818609E-02  0.9717851E-01
        1   -1    0    0  501    0  0.00000000000E+00  0.00000000000E+00  0.39472660763E+03  0.39472660766E+03  0.50400001928E-02 0.  1.
       -1   -1    0    0    0  501  0.00000000000E+00  0.00000000000E+00 -0.31002095768E+03  0.31002095773E+03  0.50400001928E-02 0. -1.
    10030    2    1    2    0    0  0.00000000000E+00  0.00000000000E+00  0.84705649947E+02  0.70474756539E+03  0.69963853795E+03 0.  0.
        2    1    3    3  502    0 -0.61650121366E+02 -0.23646101849E+03 -0.20979282912E+03  0.32206766663E+03  0.25500000920E-02 0. -1.
       -2    1    3    3    0  502  0.61650121366E+02  0.23646101849E+03  0.29449847907E+03  0.38267989876E+03  0.25500000920E-02 0.  1.
</event>
<event>
 5   0  0.5076796E-03  0.6993261E+03  0.7818609E-02  0.9718385E-01
        2   -1    0    0  501    0  0.00000000000E+00  0.00000000000E+00  0.15859603779E+04  0.15859603779E+04  0.25500000920E-02 0.  1.
       -2   -1    0    0    0  501  0.00000000000E+00  0.00000000000E+00 -0.77091622008E+02  0.77091622050E+02  0.25500000920E-02 0. -1.
    10030    2    1    2    0    0  0.00000000000E+00  0.00000000000E+00  0.15088687559E+04  0.16630520000E+04  0.69932612710E+03 0.  0.
        5    1    3    3  502    0  0.15113589359E+03 -0.31362996536E+03  0.83099055624E+03  0.90098457704E+03  0.46999998093E+01 0.  1.
       -5    1    3    3    0  502 -0.15113589359E+03  0.31362996536E+03  0.67787819967E+03  0.76206742293E+03  0.46999998093E+01 0. -1.
</event>
<event>
 5   0  0.2913582E-03  0.7000686E+03  0.7818609E-02  0.9717115E-01
       -1   -1    0    0    0  501  0.00000000000E+00  0.00000000000E+00  0.53410326881E+03  0.53410326883E+03  0.50400001928E-02 0.  1.
        1   -1    0    0  501    0  0.00000000000E+00  0.00000000000E+00 -0.22940132941E+03  0.22940132947E+03  0.50400001928E-02 0. -1.
    10030    2    1    2    0    0  0.00000000000E+00  0.00000000000E+00  0.30470193939E+03  0.76350459830E+03  0.70006856789E+03 0.  0.
        1    1    3    3  502    0  0.19993891437E+02 -0.76595520092E+02  0.52421256329E+03  0.53015605337E+03  0.50400001928E-02 0.  1.
       -1    1    3    3    0  502 -0.19993891437E+02  0.76595520092E+02 -0.21951062389E+03  0.23334854493E+03  0.50400001928E-02 0. -1.
</event>
<event>
 5   0  0.5113683E-03  0.6997475E+03  0.7818609E-02  0.9717664E-01
        2   -1    0    0  501    0  0.00000000000E+00  0.00000000000E+00  0.13560814043E+04  0.13560814043E+04  0.25500000920E-02 0. -1.
       -2   -1    0    0    0  501  0.00000000000E+00  0.00000000000E+00 -0.90268653317E+02  0.90268653353E+02  0.25500000920E-02 0.  1.
    10030    2    1    2    0    0  0.00000000000E+00  0.00000000000E+00  0.12658127510E+04  0.14463500577E+04  0.69974750356E+03 0.  0.
        3    1    3    3  502    0  0.75028706152E+02  0.15069242176E+03  0.12668740878E+04  0.12780091851E+04  0.10100000352E+00 0. -1.
       -3    1    3    3    0  502 -0.75028706152E+02 -0.15069242176E+03 -0.10613368283E+01  0.16834087252E+03  0.10100000352E+00 0.  1.
</event>
<event>
 5   0  0.1981750E-03  0.6996240E+03  0.7818609E-02  0.9717875E-01
        4   -1    0    0  501    0  0.00000000000E+00  0.00000000000E+00  0.12273542512E+03  0.12274199559E+03  0.12699999809E+01 0. -1.
       -4   -1    0    0    0  501  0.00000000000E+00  0.00000000000E+00 -0.99697626427E+03  0.99697707317E+03  0.12699999809E+01 0.  1.
    10030    2    1    2    0    0  0.00000000000E+00  0.00000000000E+00 -0.87424083915E+03  0.11197190688E+04  0.69962400480E+03 0.  0.
        5    1    3    3  502    0 -0.38073834234E+02  0.21137069913E+03  0.47311934188E+01  0.21487592581E+03  0.46999998093E+01 0. -1.
       -5    1    3    3    0  502  0.38073834234E+02 -0.21137069913E+03 -0.87897203257E+03  0.90484314294E+03  0.46999998093E+01 0.  1.
</event>
<event>
 5   0  0.2938783E-03  0.7003659E+03  0.7818609E-02  0.9716607E-01
        1   -1    0    0  501    0  0.00000000000E+00  0.00000000000E+00  0.85734704067E+03  0.85734704069E+03  0.50400001928E-02 0.  1.
       -1   -1    0    0    0  501  0.00000000000E+00  0.00000000000E+00 -0.14303204745E+03  0.14303204754E+03  0.50400001928E-02 0. -1.
    10030    2    1    2    0    0  0.00000000000E+00  0.00000000000E+00  0.71431499322E+03  0.10003790882E+04  0.70036591195E+03 0.  0.
        4    1    3    3  502    0 -0.26284329523E+03 -0.12070013209E+03  0.63913368875E+03  0.70153303894E+03  0.12699999809E+01 0.  1.
       -4    1    3    3    0  502  0.26284329523E+03  0.12070013209E+03  0.75181304475E+02  0.29884604929E+03  0.12699999809E+01 0. -1.
</event>
<event>
 5   0  0.2934483E-03  0.7004409E+03  0.7818609E-02  0.9716478E-01
       -1   -1    0    0    0  501  0.00000000000E+00  0.00000000000E+00  0.28193070697E+03  0.28193070702E+03  0.50400001928E-02 0.  1.
        1   -1    0    0  501    0  0.00000000000E+00  0.00000000000E+00 -0.43505145133E+03  0.43505145135E+03  0.50400001928E-02 0. -1.
    10030    2    1    2    0    0  0.00000000000E+00  0.00000000000E+00 -0.15312074435E+03  0.71698215837E+03  0.70044089906E+03 0.  0.
        5    1    3    3  502    0 -0.13941109632E+03  0.32057007923E+03 -0.97827047557E+02  0.36303285073E+03  0.46999998093E+01 0. -1.
       -5    1    3    3    0  502  0.13941109632E+03 -0.32057007923E+03 -0.55293696796E+02  0.35394930764E+03  0.46999998093E+01 0.  1.
</event>
<event>
 5   0  0.4878235E-03  0.7001877E+03  0.7818609E-02  0.9716911E-01
        2   -1    0    0  501    0  0.00000000000E+00  0.00000000000E+00  0.14900003700E+03  0.14900003702E+03  0.25500000920E-02 0.  1.
       -2   -1    0    0    0  501  0.00000000000E+00  0.00000000000E+00 -0.82258850151E+03  0.82258850151E+03  0.25500000920E-02 0. -1.
    10030    2    1    2    0    0  0.00000000000E+00  0.00000000000E+00 -0.67358846451E+03  0.97158853853E+03  0.70018773816E+03 0.  0.
        4    1    3    3  502    0  0.22214981787E+03  0.20931469311E+03 -0.57472376758E+03  0.65074741970E+03  0.12699999809E+01 0.  1.
       -4    1    3    3    0  502 -0.22214981787E+03 -0.20931469311E+03 -0.98864696929E+02  0.32084111882E+03  0.12699999809E+01 0. -1.
</event>
<event>
 5   0  0.2934483E-03  0.6977264E+03  0.7818609E-02  0.9721128E-01
        1   -1    0    0  501    0  0.00000000000E+00  0.00000000000E+00  0.45167554102E+03  0.45167554105E+03  0.50400001928E-02 0. -1.
       -1   -1    0    0    0  501  0.00000000000E+00  0.00000000000E+00 -0.26945346648E+03  0.26945346653E+03  0.50400001928E-02 0.  1.
    10030    2    1    2    0    0  0.00000000000E+00  0.00000000000E+00  0.18222207454E+03  0.72112900757E+03  0.69772642283E+03 0.  0.
        5    1    3    3  502    0 -0.42640835267E+02  0.32149490251E+02 -0.26517089902E+03  0.27053562841E+03  0.46999998093E+01 0.  1.
       -5    1    3    3    0  502  0.42640835267E+02 -0.32149490251E+02  0.44739297356E+03  0.45059337916E+03  0.46999998093E+01 0. -1.
</event>
<event>
 5   0  0.5023894E-03  0.6995375E+03  0.7818609E-02  0.9718024E-01
       -2   -1    0    0    0  501  0.00000000000E+00  0.00000000000E+00  0.55911512098E+02  0.55911512156E+02  0.25500000920E-02 0.  1.
        2   -1    0    0  501    0  0.00000000000E+00  0.00000000000E+00 -0.21880674911E+04  0.21880674911E+04  0.25500000920E-02 0. -1.
    10030    2    1    2    0    0  0.00000000000E+00  0.00000000000E+00 -0.21321559790E+04  0.22439790032E+04  0.69953745308E+03 0.  0.
        2    1    3    3  502    0  0.11496942031E+01  0.15888987103E+03 -0.20656105983E+04  0.20717129282E+04  0.25500000920E-02 0. -1.
       -2    1    3    3    0  502 -0.11496942031E+01 -0.15888987103E+03 -0.66545380625E+02  0.17226607501E+03  0.25500000920E-02 0.  1.
</event>
<event>
 5   0  0.3013140E-03  0.7009394E+03  0.7818609E-02  0.9715627E-01
        1   -1    0    0  501    0  0.00000000000E+00  0.00000000000E+00  0.10555735742E+03  0.10555735754E+03  0.50400001928E-02 0.  1.
       -1   -1    0    0    0  501  0.00000000000E+00  0.00000000000E+00 -0.11636233425E+04  0.11636233425E+04  0.50400001928E-02 0. -1.
    10030    2    1    2    0    0  0.00000000000E+00  0.00000000000E+00 -0.10580659851E+04  0.12691807000E+04  0.70093938441E+03 0.  0.
        2    1    3    3  502    0 -0.11912770219E+03  0.88782551449E+02  0.45714186296E+02  0.15544625343E+03  0.25500000920E-02 0.  1.
       -2    1    3    3    0  502  0.11912770219E+03 -0.88782551449E+02 -0.11037801714E+04  0.11137344466E+04  0.25500000920E-02 0. -1.
</event>
<event>
 5   0  0.2938783E-03  0.6985795E+03  0.7818609E-02  0.9719665E-01
       -1   -1    0    0    0  501  0.00000000000E+00  0.00000000000E+00  0.62348501716E+03  0.62348501718E+03  0.50400001928E-02 0. -1.
        1   -1    0    0  501    0  0.00000000000E+00  0.00000000000E+00 -0.19567965297E+03  0.19567965304E+03  0.50400001928E-02 0.  1.
    10030    2    1    2    0    0  0.00000000000E+00  0.00000000000E+00  0.42780536418E+03  0.81916467021E+03  0.69857950678E+03 0.  0.
        4    1    3    3  502    0  0.91690249209E+02  0.16606074403E+03 -0.13001235843E+03  0.22997412627E+03  0.12699999809E+01 0.  1.
       -4    1    3    3    0  502 -0.91690249209E+02 -0.16606074403E+03  0.55781772262E+03  0.58919054394E+03  0.12699999809E+01 0. -1.
</event>
<event>
 5   0  0.5023894E-03  0.6997966E+03  0.7818609E-02  0.9717580E-01
        2   -1    0    0  501    0  0.00000000000E+00  0.00000000000E+00  0.57877455216E+03  0.57877455216E+03  0.25500000920E-02 0. -1.
       -2   -1    0    0    0  501  0.00000000000E+00  0.00000000000E+00 -0.21153108152E+03  0.21153108153E+03  0.25500000920E-02 0.  1.
    10030    2    1    2    0    0  0.00000000000E+00  0.00000000000E+00  0.36724347064E+03  0.79030563370E+03  0.69979656181E+03 0.  0.
        2    1    3    3  502    0 -0.14121416179E+03  0.99066135462E+02  0.52741749284E+03  0.55490967774E+03  0.25500000920E-02 0. -1.
       -2    1    3    3    0  502  0.14121416179E+03 -0.99066135462E+02 -0.16017402220E+03  0.23539595596E+03  0.25500000920E-02 0.  1.
</event>
<event>
 5   0  0.4878235E-03  0.6994085E+03  0.7818609E-02  0.9718244E-01
        2   -1    0    0  501    0  0.00000000000E+00  0.00000000000E+00  0.47325373155E+03  0.47325373156E+03  0.25500000920E-02 0.  1.
       -2   -1    0    0    0  501  0.00000000000E+00  0.00000000000E+00 -0.25840907627E+03  0.25840907628E+03  0.25500000920E-02 0. -1.
    10030    2    1    2    0    0  0.00000000000E+00  0.00000000000E+00  0.21484465528E+03  0.73166280784E+03  0.69940849185E+03 0.  0.
        4    1    3    3  502    0  0.16197377357E+03  0.14685900436E+03 -0.17808964984E+03  0.28199398356E+03  0.12699999809E+01 0. -1.
       -4    1    3    3    0  502 -0.16197377357E+03 -0.14685900436E+03  0.39293430513E+03  0.44966882428E+03  0.12699999809E+01 0.  1.
</event>
<event>
 5   0  0.1981750E-03  0.7009151E+03  0.7818609E-02  0.9715669E-01
       -3   -1    0    0    0  501  0.00000000000E+00  0.00000000000E+00  0.36476659889E+03  0.36476661287E+03  0.10100000352E+00 0. -1.
        3   -1    0    0  501    0  0.00000000000E+00  0.00000000000E+00 -0.33670980176E+03  0.33670981691E+03  0.10100000352E+00 0.  1.
    10030    2    1    2    0    0  0.00000000000E+00  0.00000000000E+00  0.28056797128E+02  0.70147642978E+03  0.70091511445E+03 0.  0.
        5    1    3    3  502    0 -0.11234633537E+02 -0.29904251737E+02 -0.33521800959E+03  0.33676948379E+03  0.46999998093E+01 0.  1.
       -5    1    3    3    0  502  0.11234633537E+02  0.29904251737E+02  0.36327480671E+03  0.36470694599E+03  0.46999998093E+01 0. -1.
</event>
<event>
 5   0  0.3013140E-03  0.7006383E+03  0.7818609E-02  0.9716141E-01
        1   -1    0    0  501    0  0.00000000000E+00  0.00000000000E+00  0.24311698901E+03  0.24311698906E+03  0.50400001928E-02 0. -1.
       -1   -1    0    0    0  501  0.00000000000E+00  0.00000000000E+00 -0.50479191060E+03  0.50479191062E+03  0.50400001928E-02 0.  1.
    10030    2    1    2    0    0  0.00000000000E+00  0.00000000000E+00 -0.26167492159E+03  0.74790889969E+03  0.70063825020E+03 0.  0.
        2    1    3    3  502    0  0.99908964398E+02  0.62115214194E+02  0.22140010535E+03  0.25071519231E+03  0.25500000920E-02 0. -1.
       -2    1    3    3    0  502 -0.99908964398E+02 -0.62115214194E+02 -0.48307502693E+03  0.49719370738E+03  0.25500000920E-02 0.  1.
</event>
<event>
 5   0  0.2913582E-03  0.7002951E+03  0.7818609E-02  0.9716728E-01
        1   -1    0    0  501    0  0.00000000000E+00  0.00000000000E+00  0.31567404555E+03  0.31567404559E+03  0.50400001928E-02 0.  1.
       -1   -1    0    0    0  501  0.00000000000E+00  0.00000000000E+00 -0.38838573947E+03  0.38838573950E+03  0.50400001928E-02 0. -1.
    10030    2    1    2    0    0  0.00000000000E+00  0.00000000000E+00 -0.72711693915E+02  0.70405978510E+03  0.70029507392E+03 0.  0.
        1    1    3    3  502    0 -0.29968117455E+03 -0.25000776029E+02 -0.21667850551E+03  0.37065269452E+03  0.50400001928E-02 0. -1.
       -1    1    3    3    0  502  0.29968117455E+03  0.25000776029E+02  0.14396681159E+03  0.33340709058E+03  0.50400001928E-02 0.  1.
</event>
<event>
 5   0  0.2938783E-03  0.6992864E+03  0.7818609E-02  0.9718453E-01
       -1   -1    0    0    0  501  0.00000000000E+00  0.00000000000E+00  0.12705969738E+03  0.12705969747E+03  0.50400001928E-02 0.  1.
        1   -1    0    0  501    0  0.00000000000E+00  0.00000000000E+00 -0.96214904721E+03  0.96214904722E+03  0.50400001928E-02 0. -1.
    10030    2    1    2    0    0  0.00000000000E+00  0.00000000000E+00 -0.83508934983E+03  0.10892087447E+04  0.69928639864E+03 0.  0.
        4    1    3    3  502    0  0.62480410461E+02  0.30474302659E+03 -0.66615955202E+03  0.73521580206E+03  0.12699999809E+01 0. -1.
       -4    1    3    3    0  502 -0.62480410461E+02 -0.30474302659E+03 -0.16892979781E+03  0.35399294264E+03  0.12699999809E+01 0.  1.
</event>
<event>
 5   0  0.4878235E-03  0.7002323E+03  0.7818609E-02  0.9716835E-01
        2   -1    0    0  501    0  0.00000000000E+00  0.00000000000E+00  0.14226393579E+04  0.14226393579E+04  0.25500000920E-02 0. -1.
       -2   -1    0    0    0  501  0.00000000000E+00  0.00000000000E+00 -0.86164706130E+02  0.86164706168E+02  0.25500000920E-02 0.  1.
    10030    2    1    2    0    0  0.00000000000E+00  0.00000000000E+00  0.13364746518E+04  0.15088040641E+04  0.70023225356E+03 0.  0.
        4    1    3    3  502    0 -0.28957586950E+03  0.14919957751E+01  0.10922480074E+04  0.11299839524E+04  0.12699999809E+01 0.  1.
       -4    1    3    3    0  502  0.28957586950E+03 -0.14919957751E+01  0.24422664439E+03  0.37882011163E+03  0.12699999809E+01 0. -1.
</event>
<event>
 5   0  0.2937617E-03  0.7004934E+03  0.7818609E-02  0.9716389E-01
       -1   -1    0    0    0  501  0.00000000000E+00  0.00000000000E+00  0.59988578602E+03  0.59988578604E+03  0.50400001928E-02 0.  1.
        1   -1    0    0  501    0  0.00000000000E+00  0.00000000000E+00 -0.20449348266E+03  0.20449348273E+03  0.50400001928E-02 0. -1.
    10030    2    1    2    0    0  0.00000000000E+00  0.00000000000E+00  0.39539230336E+03  0.80437926877E+03  0.70049335077E+03 0.  0.
        3    1    3    3  502    0 -0.16867697936E+03  0.10856462981E+03 -0.13199812774E+03  0.24012854504E+03  0.10100000352E+00 0. -1.
       -3    1    3    3    0  502  0.16867697936E+03 -0.10856462981E+03  0.52739043110E+03  0.56425072373E+03  0.10100000352E+00 0.  1.
</event>
<event>
 5   0  0.2913582E-03  0.6997331E+03  0.7818609E-02  0.9717689E-01
       -1   -1    0    0    0  501  0.00000000000E+00  0.00000000000E+00  0.31769883006E+03  0.31769883010E+03  0.50400001928E-02 0. -1.
        1   -1    0    0  501    0  0.00000000000E+00  0.00000000000E+00 -0.38529128261E+03  0.38529128264E+03  0.50400001928E-02 0.  1.
    10030    2    1    2    0    0  0.00000000000E+00  0.00000000000E+00 -0.67592452552E+02  0.70299011274E+03  0.69973306265E+03 0.  0.
        1    1    3    3  502    0 -0.68691878973E+02  0.25681039619E+03 -0.26231141699E+03  0.37346677675E+03  0.50400001928E-02 0.  1.
       -1    1    3    3    0  502  0.68691878973E+02 -0.25681039619E+03  0.19471896444E+03  0.32952333599E+03  0.50400001928E-02 0. -1.
</event>
<event>
 5   0  0.2913582E-03  0.7017512E+03  0.7818609E-02  0.9714242E-01
       -1   -1    0    0    0  501  0.00000000000E+00  0.00000000000E+00  0.12479207659E+03  0.12479207669E+03  0.50400001928E-02 0. -1.
        1   -1    0    0  501    0  0.00000000000E+00  0.00000000000E+00 -0.98655059410E+03  0.98655059411E+03  0.50400001928E-02 0.  1.
    10030    2    1    2    0    0  0.00000000000E+00  0.00000000000E+00 -0.86175851751E+03  0.11113426708E+04  0.70175123045E+03 0.  0.
        1    1    3    3  502    0  0.28594644699E+03 -0.19877871598E+03 -0.36303327879E+03  0.50306213335E+03  0.50400001928E-02 0. -1.
       -1    1    3    3    0  502 -0.28594644699E+03  0.19877871598E+03 -0.49872523873E+03  0.60828053745E+03  0.50400001928E-02 0.  1.
</event>
<event>
 5   0  0.4878235E-03  0.7010133E+03  0.7818609E-02  0.9715501E-01
       -2   -1    0    0    0  501  0.00000000000E+00  0.00000000000E+00  0.63568852505E+02  0.63568852556E+02  0.25500000920E-02 0.  1.
        2   -1    0    0  501    0  0.00000000000E+00  0.00000000000E+00 -0.19326275200E+04  0.19326275200E+04  0.25500000920E-02 0. -1.
    10030    2    1    2    0    0  0.00000000000E+00  0.00000000000E+00 -0.18690586675E+04  0.19961963726E+04  0.70101330606E+03 0.  0.
        4    1    3    3  502    0  0.15076509840E+03 -0.25100845819E+03 -0.14831459194E+04  0.15117733931E+04  0.12699999809E+01 0. -1.
       -4    1    3    3    0  502 -0.15076509840E+03  0.25100845819E+03 -0.38591274811E+03  0.48442297946E+03  0.12699999809E+01 0.  1.
</event>
<event>
 5   0  0.5113683E-03  0.7006450E+03  0.7818609E-02  0.9716130E-01
       -2   -1    0    0    0  501  0.00000000000E+00  0.00000000000E+00  0.14568854433E+03  0.14568854435E+03  0.25500000920E-02 0. -1.
        2   -1    0    0  501    0  0.00000000000E+00  0.00000000000E+00 -0.84238509083E+03  0.84238509084E+03  0.25500000920E-02 0.  1.
    10030    2    1    2    0    0  0.00000000000E+00  0.00000000000E+00 -0.69669654651E+03  0.98807363519E+03  0.70064501043E+03 0.  0.
        3    1    3    3  502    0 -0.30671988301E+02  0.20180377269E+03  0.53160850260E+02  0.21093036704E+03  0.10100000352E+00 0. -1.
       -3    1    3    3    0  502  0.30671988301E+02 -0.20180377269E+03 -0.74985739677E+03  0.77714326815E+03  0.10100000352E+00 0.  1.
</event>
<event>
 5   0  0.1981750E-03  0.7015933E+03  0.7818609E-02  0.9714511E-01
       -3   -1    0    0    0  501  0.00000000000E+00  0.00000000000E+00  0.25613275884E+03  0.25613277875E+03  0.10100000352E+00 0. -1.
        3   -1    0    0  501    0  0.00000000000E+00  0.00000000000E+00 -0.48044723057E+03  0.48044724119E+03  0.10100000352E+00 0.  1.
    10030    2    1    2    0    0  0.00000000000E+00  0.00000000000E+00 -0.22431447174E+03  0.73658001994E+03  0.70159328927E+03 0.  0.
        1    1    3    3  502    0 -0.13469019538E+03  0.94551879511E+02  0.21309298023E+03  0.26923990213E+03  0.50400001928E-02 0. -1.
       -1    1    3    3    0  502  0.13469019538E+03 -0.94551879511E+02 -0.43740745197E+03  0.46734011781E+03  0.50400001928E-02 0.  1.
</event>
<event>
 5   0  0.5076796E-03  0.6976543E+03  0.7818609E-02  0.9721252E-01
        2   -1    0    0  501    0  0.00000000000E+00  0.00000000000E+00  0.28359571113E+03  0.28359571114E+03  0.25500000920E-02 0.  1.
       -2   -1    0    0    0  501  0.00000000000E+00  0.00000000000E+00 -0.42906289220E+03  0.42906289220E+03  0.25500000920E-02 0. -1.
    10030    2    1    2    0    0  0.00000000000E+00  0.00000000000E+00 -0.14546718107E+03  0.71265860334E+03  0.69765434432E+03 0.  0.
        5    1    3    3  502    0  0.29385820924E+03  0.62988437104E+02 -0.25356658303E+03  0.39324075624E+03  0.46999998093E+01 0. -1.
       -5    1    3    3    0  502 -0.29385820924E+03 -0.62988437104E+02  0.10809940196E+03  0.31941784710E+03  0.46999998093E+01 0.  1.
</event>
<event>
 5   0  0.5113683E-03  0.7005945E+03  0.7818609E-02  0.9716216E-01
       -2   -1    0    0    0  501  0.00000000000E+00  0.00000000000E+00  0.20082167870E+03  0.20082167872E+03  0.25500000920E-02 0. -1.
        2   -1    0    0  501    0  0.00000000000E+00  0.00000000000E+00 -0.61103042910E+03  0.61103042910E+03  0.25500000920E-02 0.  1.
    10030    2    1    2    0    0  0.00000000000E+00  0.00000000000E+00 -0.41020875039E+03  0.81185210782E+03  0.70059448048E+03 0.  0.
        3    1    3    3  502    0  0.16089602382E+03 -0.16708321165E+03  0.99076460725E+02  0.25223101587E+03  0.10100000352E+00 0. -1.
       -3    1    3    3    0  502 -0.16089602382E+03  0.16708321165E+03 -0.50928521112E+03  0.55962109195E+03  0.10100000352E+00 0.  1.
</event>
<event>
 5   0  0.2937617E-03  0.7001388E+03  0.7818609E-02  0.9716995E-01
        1   -1    0    0  501    0  0.00000000000E+00  0.00000000000E+00  0.14746158674E+04  0.14746158675E+04  0.50400001928E-02 0.  1.
       -1   -1    0    0    0  501  0.00000000000E+00  0.00000000000E+00 -0.83105433183E+02  0.83105433336E+02  0.50400001928E-02 0. -1.
    10030    2    1    2    0    0  0.00000000000E+00  0.00000000000E+00  0.13915104343E+04  0.15577213008E+04  0.70013881643E+03 0.  0.
        3    1    3    3  502    0 -0.20283161164E+02  0.33750631584E+03  0.89755346462E+03  0.95912676530E+03  0.10100000352E+00 0. -1.
       -3    1    3    3    0  502  0.20283161164E+02 -0.33750631584E+03  0.49395696964E+03  0.59859453549E+03  0.10100000352E+00 0.  1.
</event>
<event>
 5   0  0.5076796E-03  0.7005690E+03  0.7818609E-02  0.9716260E-01
       -2   -1    0    0    0  501  0.00000000000E+00  0.00000000000E+00  0.90232223849E+02  0.90232223885E+02  0.25500000920E-02 0.  1.
        2   -1    0    0  501    0  0.00000000000E+00  0.00000000000E+00 -0.13598162560E+04  0.13598162560E+04  0.25500000920E-02 0. -1.
    10030    2    1    2    0    0  0.00000000000E+00  0.00000000000E+00 -0.12695840322E+04  0.14500484799E+04  0.70056903967E+03 0.  0.
        5    1    3    3  502    0 -0.76648995718E+02 -0.10916352726E+03  0.35538704551E+02  0.13811891162E+03  0.46999998093E+01 0.  1.
       -5    1    3    3    0  502  0.76648995718E+02  0.10916352726E+03 -0.13051227367E+04  0.13119295683E+04  0.46999998093E+01 0. -1.
</event>
<event>
 5   0  0.5023894E-03  0.6987444E+03  0.7818609E-02  0.9719382E-01
       -2   -1    0    0    0  501  0.00000000000E+00  0.00000000000E+00  0.38651505213E+03  0.38651505213E+03  0.25500000920E-02 0. -1.
        2   -1    0    0  501    0  0.00000000000E+00  0.00000000000E+00 -0.31579863616E+03  0.31579863617E+03  0.25500000920E-02 0.  1.
    10030    2    1    2    0    0  0.00000000000E+00  0.00000000000E+00  0.70716415961E+02  0.70231368831E+03  0.69874437765E+03 0.  0.
        2    1    3    3  502    0 -0.21371340298E+02 -0.86103062608E+01  0.38575058833E+03  0.38643807778E+03  0.25500000920E-02 0. -1.
       -2    1    3    3    0  502  0.21371340298E+02  0.86103062608E+01 -0.31503417237E+03  0.31587561052E+03  0.25500000920E-02 0.  1.
</event>
<event>
 5   0  0.5076796E-03  0.7014640E+03  0.7818609E-02  0.9714732E-01
       -2   -1    0    0    0  501  0.00000000000E+00  0.00000000000E+00  0.21029573377E+03  0.21029573378E+03  0.25500000920E-02 0. -1.
        2   -1    0    0  501    0  0.00000000000E+00  0.00000000000E+00 -0.58495211839E+03  0.58495211840E+03  0.25500000920E-02 0.  1.
    10030    2    1    2    0    0  0.00000000000E+00  0.00000000000E+00 -0.37465638463E+03  0.79524785218E+03  0.70146399755E+03 0.  0.
        5    1    3    3  502    0  0.25345199485E+03  0.16642031390E+03 -0.38712030578E+03  0.49174978975E+03  0.46999998093E+01 0.  1.
       -5    1    3    3    0  502 -0.25345199485E+03 -0.16642031390E+03  0.12463921148E+02  0.30349806243E+03  0.46999998093E+01 0. -1.
</event>
<event>
 5   0  0.2913582E-03  0.7000830E+03  0.7818609E-02  0.9717090E-01
        1   -1    0    0  501    0  0.00000000000E+00  0.00000000000E+00  0.30546213129E+03  0.30546213133E+03  0.50400001928E-02 0. -1.
       -1   -1    0    0    0  501  0.00000000000E+00  0.00000000000E+00 -0.40112675976E+03  0.40112675979E+03  0.50400001928E-02 0.  1.
    10030    2    1    2    0    0  0.00000000000E+00  0.00000000000E+00 -0.95664628468E+02  0.70658889112E+03  0.70008295216E+03 0.  0.
        1    1    3    3  502    0 -0.18797063879E+03 -0.27120177825E+03 -0.16573256406E+03  0.36925688671E+03  0.50400001928E-02 0. -1.
       -1    1    3    3    0  502  0.18797063879E+03  0.27120177825E+03  0.70067935592E+02  0.33733200440E+03  0.50400001928E-02 0.  1.
</event>
<event>
 5   0  0.1981750E-03  0.7000237E+03  0.7818609E-02  0.9717192E-01
        3   -1    0    0  501    0  0.00000000000E+00  0.00000000000E+00  0.66858003769E+03  0.66858004532E+03  0.10100000352E+00 0.  1.
       -3   -1    0    0    0  501  0.00000000000E+00  0.00000000000E+00 -0.18323653192E+03  0.18323655976E+03  0.10100000352E+00 0. -1.
    10030    2    1    2    0    0  0.00000000000E+00  0.00000000000E+00  0.48534350577E+03  0.85181660507E+03  0.70002372109E+03 0.  0.
        3    1    3    3  502    0 -0.32924115716E+03 -0.92458582628E+02  0.15193790991E+03  0.37421045915E+03  0.10100000352E+00 0.  1.
       -3    1    3    3    0  502  0.32924115716E+03  0.92458582628E+02  0.33340559586E+03  0.47760614592E+03  0.10100000352E+00 0. -1.
</event>
<event>
 5   0  0.5023894E-03  0.7002855E+03  0.7818609E-02  0.9716744E-01
        2   -1    0    0  501    0  0.00000000000E+00  0.00000000000E+00  0.18051310210E+04  0.18051310210E+04  0.25500000920E-02 0.  1.
       -2   -1    0    0    0  501  0.00000000000E+00  0.00000000000E+00 -0.67917482626E+02  0.67917482674E+02  0.25500000920E-02 0. -1.
    10030    2    1    2    0    0  0.00000000000E+00  0.00000000000E+00  0.17372135384E+04  0.18730485037E+04  0.70028552693E+03 0.  0.
        2    1    3    3  502    0  0.27312932812E+03  0.27566440620E+02  0.14499474716E+04  0.14757056648E+04  0.25500000920E-02 0.  1.
       -2    1    3    3    0  502 -0.27312932812E+03 -0.27566440620E+02  0.28726606676E+03  0.39734283893E+03  0.25500000920E-02 0. -1.
</event>
<event>
 5   0  0.2934483E-03  0.7014962E+03  0.7818609E-02  0.9714677E-01
       -1   -1    0    0    0  501  0.00000000000E+00  0.00000000000E+00  0.33426873873E+03  0.33426873876E+03  0.50400001928E-02 0. -1.
        1   -1    0    0  501    0  0.00000000000E+00  0.00000000000E+00 -0.36803993439E+03  0.36803993442E+03  0.50400001928E-02 0.  1.
    10030    2    1    2    0    0  0.00000000000E+00  0.00000000000E+00 -0.33771195663E+02  0.70230867319E+03  0.70149624288E+03 0.  0.
        5    1    3    3  502    0  0.81902563173E+02  0.10048899034E+03  0.30936922559E+03  0.33546605607E+03  0.46999998093E+01 0. -1.
       -5    1    3    3    0  502 -0.81902563173E+02 -0.10048899034E+03 -0.34314042126E+03  0.36684261712E+03  0.46999998093E+01 0.  1.
</event>
<event>
 5   0  0.2937617E-03  0.6967369E+03  0.7818609E-02  0.9722829E-01
        1   -1    0    0  501    0  0.00000000000E+00  0.00000000000E+00  0.12198325517E+04  0.12198325517E+04  0.50400001928E-02 0.  1.
       -1   -1    0    0    0  501  0.00000000000E+00  0.00000000000E+00 -0.99489530080E+02  0.99489530207E+02  0.50400001928E-02 0. -1.
    10030    2    1    2    0    0  0.00000000000E+00  0.00000000000E+00  0.11203430216E+04  0.13193220819E+04  0.69673687268E+03 0.  0.
        3    1    3    3  502    0 -0.11969851357E+03  0.30459437691E+03  0.33408898442E+03  0.46767609337E+03  0.10100000352E+00 0.  1.
       -3    1    3    3    0  502  0.11969851357E+03 -0.30459437691E+03  0.78625403721E+03  0.85164598856E+03  0.10100000352E+00 0. -1.
</event>
<event>
 5   0  0.4878235E-03  0.7001846E+03  0.7818609E-02  0.9716917E-01
        2   -1    0    0  501    0  0.00000000000E+00  0.00000000000E+00  0.12844153769E+04  0.12844153769E+04  0.25500000920E-02 0. -1.
       -2   -1    0    0    0  501  0.00000000000E+00  0.00000000000E+00 -0.95424441137E+02  0.95424441171E+02  0.25500000920E-02 0.  1.
    10030    2    1    2    0    0  0.00000000000E+00  0.00000000000E+00  0.11889909358E+04  0.13798398181E+04  0.70018460295E+03 0.  0.
        4    1    3    3  502    0  0.15078203408E+03  0.96050192085E+02  0.13170275642E+01  0.17878537038E+03  0.12699999809E+01 0.  1.
       -4    1    3    3    0  502 -0.15078203408E+03 -0.96050192085E+02  0.11876739082E+04  0.12010544477E+04  0.12699999809E+01 0. -1.
</event>
<event>
 5   0  0.2937617E-03  0.6992248E+03  0.7818609E-02  0.9718559E-01
        1   -1    0    0  501    0  0.00000000000E+00  0.00000000000E+00  0.47073167817E+03  0.47073167819E+03  0.50400001928E-02 0. -1.
       -1   -1    0    0    0  501  0.00000000000E+00  0.00000000000E+00 -0.25965710896E+03  0.25965710901E+03  0.50400001928E-02 0.  1.
    10030    2    1    2    0    0  0.00000000000E+00  0.00000000000E+00  0.21107456921E+03  0.73038878720E+03  0.69922478982E+03 0.  0.
        3    1    3    3  502    0 -0.11659507111E+03 -0.28486397905E+03  0.27871831291E+03  0.41524186364E+03  0.10100000352E+00 0. -1.
       -3    1    3    3    0  502  0.11659507111E+03  0.28486397905E+03 -0.67643743708E+02  0.31514692356E+03  0.10100000352E+00 0.  1.
</event>
<event>
 5   0  0.2938783E-03  0.7008123E+03  0.7818609E-02  0.9715844E-01
       -1   -1    0    0    0  501  0.00000000000E+00  0.00000000000E+00  0.10990922779E+04  0.10990922779E+04  0.50400001928E-02 0. -1.
        1   -1    0    0  501    0  0.00000000000E+00  0.00000000000E+00 -0.11171442566E+03  0.11171442577E+03  0.50400001928E-02 0.  1.
    10030    2    1    2    0    0  0.00000000000E+00  0.00000000000E+00  0.98737785221E+03  0.12108067037E+04  0.70081227913E+03 0.  0.
        4    1    3    3  502    0 -0.27935412220E+03  0.15381304963E+03  0.24280847841E+03  0.40081760180E+03  0.12699999809E+01 0.  1.
       -4    1    3    3    0  502  0.27935412220E+03 -0.15381304963E+03  0.74456937380E+03  0.80998910186E+03  0.12699999809E+01 0. -1.
</event>
<event>
 5   0  0.2937617E-03  0.7019271E+03  0.7818609E-02  0.9713942E-01
       -1   -1    0    0    0  501  0.00000000000E+00  0.00000000000E+00  0.43613117181E+03  0.43613117184E+03  0.50400001928E-02 0.  1.
        1   -1    0    0  501    0  0.00000000000E+00  0.00000000000E+00 -0.28242743885E+03  0.28242743890E+03  0.50400001928E-02 0. -1.
    10030    2    1    2    0    0  0.00000000000E+00  0.00000000000E+00  0.15370373296E+03  0.71855861074E+03  0.70192708990E+03 0.  0.
        3    1    3    3  502    0 -0.24664843395E+03  0.13405947683E+03  0.29247986497E+03  0.40540334842E+03  0.10100000352E+00 0.  1.
       -3    1    3    3    0  502  0.24664843395E+03 -0.13405947683E+03 -0.13877613201E+03  0.31315526232E+03  0.10100000352E+00 0. -1.
</event>
<event>
 5   0  0.5076796E-03  0.6986645E+03  0.7818609E-02  0.9719519E-01
        2   -1    0    0  501    0  0.00000000000E+00  0.00000000000E+00  0.35150323213E+03  0.35150323214E+03  0.25500000920E-02 0.  1.
       -2   -1    0    0    0  501  0.00000000000E+00  0.00000000000E+00 -0.34717472074E+03  0.34717472075E+03  0.25500000920E-02 0. -1.
    10030    2    1    2    0    0  0.00000000000E+00  0.00000000000E+00  0.43285113906E+01  0.69867795288E+03  0.69866454457E+03 0.  0.
        5    1    3    3  502    0 -0.20497809298E+03  0.28203796317E+03 -0.19037924372E+02  0.34920762282E+03  0.46999998093E+01 0.  1.
       -5    1    3    3    0  502  0.20497809298E+03 -0.28203796317E+03  0.23366435763E+02  0.34947033006E+03  0.46999998093E+01 0. -1.
</event>
<event>
 5   0  0.2938783E-03  0.7020250E+03  0.7818609E-02  0.9713775E-01
        1   -1    0    0  501    0  0.00000000000E+00  0.00000000000E+00  0.15220091862E+04  0.15220091862E+04  0.50400001928E-02 0.  1.
       -1   -1    0    0    0  501  0.00000000000E+00  0.00000000000E+00 -0.80952066316E+02  0.80952066473E+02  0.50400001928E-02 0. -1.
    10030    2    1    2    0    0  0.00000000000E+00  0.00000000000E+00  0.14410571198E+04  0.16029612526E+04  0.70202503859E+03 0.  0.
        4    1    3    3  502    0  0.16800850764E+03 -0.28780625434E+03  0.97220264144E+03  0.10277348333E+04  0.12699999809E+01 0.  1.
       -4    1    3    3    0  502 -0.16800850764E+03  0.28780625434E+03  0.46885447839E+03  0.57522641932E+03  0.12699999809E+01 0. -1.
</event>
<event>
 5   0  0.2934483E-03  0.7009286E+03  0.7818609E-02  0.9715645E-01
        1   -1    0    0  501    0  0.00000000000E+00  0.00000000000E+00  0.53768588658E+03  0.53768588660E+03  0.50400001928E-02 0. -1.
       -1   -1    0    0    0  501  0.00000000000E+00  0.00000000000E+00 -0.22843306403E+03  0.22843306409E+03  0.50400001928E-02 0.  1.
    10030    2    1    2    0    0  0.00000000000E+00  0.00000000000E+00  0.30925282255E+03  0.76611895069E+03  0.70092862572E+03 0.  0.
        5    1    3    3  502    0 -0.70110115291E+02 -0.47730585279E+02  0.52626361526E+03  0.53307515397E+03  0.46999998093E+01 0. -1.
       -5    1    3    3    0  502  0.70110115291E+02  0.47730585279E+02 -0.21701079271E+03  0.23304379672E+03  0.46999998093E+01 0.  1.
</event>
<event>
 5   0  0.5076796E-03  0.6960913E+03  0.7818609E-02  0.9723940E-01
        2   -1    0    0  501    0  0.00000000000E+00  0.00000000000E+00  0.99707694514E+03  0.99707694515E+03  0.25500000920E-02 0.  1.
       -2   -1    0    0    0  501  0.00000000000E+00  0.00000000000E+00 -0.12149091470E+03  0.12149091473E+03  0.25500000920E-02 0. -1.
    10030    2    1    2    0    0  0.00000000000E+00  0.00000000000E+00  0.87558603044E+03  0.11185678599E+04  0.69609134489E+03 0.  0.
        5    1    3    3  502    0  0.14128411800E+03  0.29640137560E+03  0.25248207178E+03  0.41422730961E+03  0.46999998093E+01 0. -1.
       -5    1    3    3    0  502 -0.14128411800E+03 -0.29640137560E+03  0.62310395866E+03  0.70434055027E+03  0.46999998093E+01 0.  1.
</event>
<event>
 5   0  0.2934483E-03  0.6998391E+03  0.7818609E-02  0.9717507E-01
       -1   -1    0    0    0  501  0.00000000000E+00  0.00000000000E+00  0.60403256256E+03  0.60403256258E+03  0.50400001928E-02 0.  1.
        1   -1    0    0  501    0  0.00000000000E+00  0.00000000000E+00 -0.20271043802E+03  0.20271043808E+03  0.50400001928E-02 0. -1.
    10030    2    1    2    0    0  0.00000000000E+00  0.00000000000E+00  0.40132212454E+03  0.80674300066E+03  0.69983913971E+03 0.  0.
        5    1    3    3  502    0  0.18366515468E+03 -0.73612677452E+02  0.53330606256E+03  0.56884897968E+03  0.46999998093E+01 0.  1.
       -5    1    3    3    0  502 -0.18366515468E+03  0.73612677452E+02 -0.13198393802E+03  0.23789402098E+03  0.46999998093E+01 0. -1.
</event>
<event>
 5   0  0.4878235E-03  0.6959504E+03  0.7818609E-02  0.9724183E-01
        2   -1    0    0  501    0  0.00000000000E+00  0.00000000000E+00  0.12688105080E+04  0.12688105080E+04  0.25500000920E-02 0.  1.
       -2   -1    0    0    0  501  0.00000000000E+00  0.00000000000E+00 -0.95433262439E+02  0.95433262473E+02  0.25500000920E-02 0. -1.
    10030    2    1    2    0    0  0.00000000000E+00  0.00000000000E+00  0.11733772455E+04  0.13642437704E+04  0.69595036092E+03 0.  0.
        4    1    3    3  502    0  0.19259222409E+02 -0.26123458007E+03  0.10357152568E+04  0.10683267896E+04  0.12699999809E+01 0.  1.
       -4    1    3    3    0  502 -0.19259222409E+02  0.26123458007E+03  0.13766198876E+03  0.29591698079E+03  0.12699999809E+01 0. -1.
</event>
<event>
 5   0  0.3013140E-03  0.6982462E+03  0.7818609E-02  0.9720236E-01
        1   -1    0    0  501    0  0.00000000000E+00  0.00000000000E+00  0.50735227800E+03  0.50735227803E+03  0.50400001928E-02 0. -1.
       -1   -1    0    0    0  501  0.00000000000E+00  0.00000000000E+00 -0.24024123647E+03  0.24024123652E+03  0.50400001928E-02 0.  1.
    10030    2    1    2    0    0  0.00000000000E+00  0.00000000000E+00  0.26711104154E+03  0.74759351455E+03  0.69824619905E+03 0.  0.
        2    1    3    3  502    0 -0.28815882925E+03 -0.13366608121E+03 -0.21543633306E+02  0.31838068453E+03  0.25500000920E-02 0.  1.
       -2    1    3    3    0  502  0.28815882925E+03  0.13366608121E+03  0.28865467484E+03  0.42921283002E+03  0.25500000920E-02 0. -1.
</event>
<event>
 5   0  0.3013140E-03  0.6998378E+03  0.7818609E-02  0.9717510E-01
       -1   -1    0    0    0  501  0.00000000000E+00  0.00000000000E+00  0.35231941722E+03  0.35231941726E+03  0.50400001928E-02 0.  1.
        1   -1    0    0  501    0  0.00000000000E+00  0.00000000000E+00 -0.34753470871E+03  0.34753470875E+03  0.50400001928E-02 0. -1.
    10030    2    1    2    0    0  0.00000000000E+00  0.00000000000E+00  0.47847085122E+01  0.69985412601E+03  0.69983776996E+03 0.  0.
        2    1    3    3  502    0 -0.32363694583E+03  0.12473287683E+03 -0.43912753562E+02  0.34961048783E+03  0.25500000920E-02 0.  1.
       -2    1    3    3    0  502  0.32363694583E+03 -0.12473287683E+03  0.48697462074E+02  0.35024363818E+03  0.25500000920E-02 0. -1.
</event>
<event>
 5   0  0.2913582E-03  0.7002773E+03  0.7818609E-02  0.9716758E-01
       -1   -1    0    0    0  501  0.00000000000E+00  0.00000000000E+00  0.13353751886E+03  0.13353751896E+03  0.50400001928E-02 0.  1.
        1   -1    0    0  501    0  0.00000000000E+00  0.00000000000E+00 -0.91807210926E+03  0.91807210927E+03  0.50400001928E-02 0. -1.
    10030    2    1    2    0    0  0.00000000000E+00  0.00000000000E+00 -0.78453459039E+03  0.10516096282E+04  0.70027729269E+03 0.  0.
        1    1    3    3  502    0  0.23640135656E+03 -0.24253937809E+03 -0.52562441573E+03  0.62529351327E+03  0.50400001928E-02 0. -1.
       -1    1    3    3    0  502 -0.23640135656E+03  0.24253937809E+03 -0.25891017467E+03  0.42631611496E+03  0.50400001928E-02 0.  1.
</event>
<event>
 5   0  0.5113683E-03  0.6992757E+03  0.7818609E-02  0.9718472E-01
        2   -1    0    0  501    0  0.00000000000E+00  0.00000000000E+00  0.22177961561E+03  0.22177961562E+03  0.25500000920E-02 0. -1.
       -2   -1    0    0    0  501  0.00000000000E+00  0.00000000000E+00 -0.55120769083E+03  0.55120769084E+03  0.25500000920E-02 0.  1.
    10030    2    1    2    0    0  0.00000000000E+00  0.00000000000E+00 -0.32942807522E+03  0.77298730646E+03  0.69927571043E+03 0.  0.
        3    1    3    3  502    0  0.11094932938E+03  0.24303601578E+03 -0.41403358434E+03  0.49274747876E+03  0.10100000352E+00 0.  1.
       -3    1    3    3    0  502 -0.11094932938E+03 -0.24303601578E+03  0.84605509121E+02  0.28023982770E+03  0.10100000352E+00 0. -1.
</event>
<event>
 5   0  0.3013140E-03  0.7016685E+03  0.7818609E-02  0.9714383E-01
        1   -1    0    0  501    0  0.00000000000E+00  0.00000000000E+00  0.83214655541E+03  0.83214655543E+03  0.50400001928E-02 0. -1.
       -1   -1    0    0    0  501  0.00000000000E+00  0.00000000000E+00 -0.14791225679E+03  0.14791225688E+03  0.50400001928E-02 0.  1.
    10030    2    1    2    0    0  0.00000000000E+00  0.00000000000E+00  0.68423429862E+03  0.98005881231E+03  0.70166851160E+03 0.  0.
        2    1    3    3  502    0  0.16681869417E+03 -0.20611808912E+03  0.21253882873E+02  0.26601667416E+03  0.25500000920E-02 0.  1.
       -2    1    3    3    0  502 -0.16681869417E+03  0.20611808912E+03  0.66298041575E+03  0.71404213815E+03  0.25500000920E-02 0. -1.
</event>
<event>
 5   0  0.1981750E-03  0.7111514E+03  0.7818609E-02  0.9698350E-01
        3   -1    0    0  501    0  0.00000000000E+00  0.00000000000E+00  0.33053243487E+03  0.33053245030E+03  0.10100000352E+00 0.  1.
       -3   -1    0    0    0  501  0.00000000000E+00  0.00000000000E+00 -0.38251633206E+03  0.38251634539E+03  0.10100000352E+00 0. -1.
    10030    2    1    2    0    0  0.00000000000E+00  0.00000000000E+00 -0.51983897185E+02  0.71304879570E+03  0.71115136186E+03 0.  0.
        4    1    3    3  502    0 -0.77684359738E+02  0.19372200690E+03  0.26264653862E+03  0.33548158348E+03  0.12699999809E+01 0.  1.
       -4    1    3    3    0  502  0.77684359738E+02 -0.19372200690E+03 -0.31463043580E+03  0.37756721222E+03  0.12699999809E+01 0. -1.
</event>
<event>
 5   0  0.3013140E-03  0.6998730E+03  0.7818609E-02  0.9717449E-01
        1   -1    0    0  501    0  0.00000000000E+00  0.00000000000E+00  0.21987323704E+03  0.21987323710E+03  0.50400001928E-02 0. -1.
       -1   -1    0    0    0  501  0.00000000000E+00  0.00000000000E+00 -0.55693709460E+03  0.55693709462E+03  0.50400001928E-02 0.  1.
    10030    2    1    2    0    0  0.00000000000E+00  0.00000000000E+00 -0.33706385756E+03  0.77681033172E+03  0.69987302234E+03 0.  0.
        2    1    3    3  502    0 -0.18526425374E+03 -0.18190248011E+03  0.91874406079E+02  0.27541289455E+03  0.25500000920E-02 0. -1.
       -2    1    3    3    0  502  0.18526425374E+03  0.18190248011E+03 -0.42893826364E+03  0.50139743718E+03  0.25500000920E-02 0.  1.
</event>
<event>
 5   0  0.5076796E-03  0.7000953E+03  0.7818609E-02  0.9717069E-01
        2   -1    0    0  501    0  0.00000000000E+00  0.00000000000E+00  0.26119946419E+03  0.26119946421E+03  0.25500000920E-02 0. -1.
       -2   -1    0    0    0  501  0.00000000000E+00  0.00000000000E+00 -0.46911792583E+03  0.46911792583E+03  0.25500000920E-02 0.  1.
    10030    2    1    2    0    0  0.00000000000E+00  0.00000000000E+00 -0.20791846163E+03  0.73031739004E+03  0.70009528173E+03 0.  0.
        5    1    3    3  502    0 -0.32396888766E+03  0.11708766183E+03 -0.16865166516E+03  0.38357637425E+03  0.46999998093E+01 0. -1.
       -5    1    3    3    0  502  0.32396888766E+03 -0.11708766183E+03 -0.39266796473E+02  0.34674101579E+03  0.46999998093E+01 0.  1.
</event>
<event>
 5   0  0.4878235E-03  0.7004228E+03  0.7818609E-02  0.9716509E-01
        2   -1    0    0  501    0  0.00000000000E+00  0.00000000000E+00  0.18996682726E+03  0.18996682728E+03  0.25500000920E-02 0. -1.
       -2   -1    0    0    0  501  0.00000000000E+00  0.00000000000E+00 -0.64562858343E+03  0.64562858343E+03  0.25500000920E-02 0.  1.
    10030    2    1    2    0    0  0.00000000000E+00  0.00000000000E+00 -0.45566175617E+03  0.83559541071E+03  0.70042276831E+03 0.  0.
        4    1    3    3  502    0  0.80261795059E+02  0.32964231594E+02 -0.63259968803E+03  0.63852374623E+03  0.12699999809E+01 0.  1.
       -4    1    3    3    0  502 -0.80261795059E+02 -0.32964231594E+02  0.17693793186E+03  0.19707166448E+03  0.12699999809E+01 0. -1.
</event>
<event>
 5   0  0.3013140E-03  0.7002726E+03  0.7818609E-02  0.9716766E-01
       -1   -1    0    0    0  501  0.00000000000E+00  0.00000000000E+00  0.40805307641E+03  0.40805307644E+03  0.50400001928E-02 0.  1.
        1   -1    0    0  501    0  0.00000000000E+00  0.00000000000E+00 -0.30043992599E+03  0.30043992603E+03  0.50400001928E-02 0. -1.
    10030    2    1    2    0    0  0.00000000000E+00  0.00000000000E+00  0.10761315042E+03  0.70849300247E+03  0.70027262149E+03 0.  0.
        2    1    3    3  502    0  0.29838890672E+03 -0.58994657795E+02 -0.12166267904E+03  0.32759443948E+03  0.25500000920E-02 0.  1.
       -2    1    3    3    0  502 -0.29838890672E+03  0.58994657795E+02  0.22927582946E+03  0.38089856299E+03  0.25500000920E-02 0. -1.
</event>
<event>
 5   0  0.2913582E-03  0.6993808E+03  0.7818609E-02  0.9718292E-01
        1   -1    0    0  501    0  0.00000000000E+00  0.00000000000E+00  0.66322963356E+03  0.66322963358E+03  0.50400001928E-02 0.  1.
       -1   -1    0    0    0  501  0.00000000000E+00  0.00000000000E+00 -0.18437564161E+03  0.18437564168E+03  0.50400001928E-02 0. -1.
    10030    2    1    2    0    0  0.00000000000E+00  0.00000000000E+00  0.47885399195E+03  0.84760527526E+03  0.69938083834E+03 0.  0.
        1    1    3    3  502    0  0.19697581236E+03 -0.50853972224E+02 -0.10527853824E+03  0.22906149346E+03  0.50400001928E-02 0. -1.
       -1    1    3    3    0  502 -0.19697581236E+03  0.50853972224E+02  0.58413253019E+03  0.61854378180E+03  0.50400001928E-02 0.  1.
</event>
<event>
 5   0  0.2937617E-03  0.7027356E+03  0.7818609E-02  0.9712565E-01
        1   -1    0    0  501    0  0.00000000000E+00  0.00000000000E+00  0.17927803969E+03  0.17927803976E+03  0.50400001928E-02 0.  1.
       -1   -1    0    0    0  501  0.00000000000E+00  0.00000000000E+00 -0.68864720316E+03  0.68864720318E+03  0.50400001928E-02 0. -1.
    10030    2    1    2    0    0  0.00000000000E+00  0.00000000000E+00 -0.50936916347E+03  0.86792524294E+03  0.70273557093E+03 0.  0.
        3    1    3    3  502    0 -0.96119425032E+02  0.12577215579E+03 -0.64211324899E+03  0.66133729198E+03  0.10100000352E+00 0. -1.
       -3    1    3    3    0  502  0.96119425032E+02 -0.12577215579E+03  0.13274408552E+03  0.20658795096E+03  0.10100000352E+00 0.  1.
</event>
<event>
 5   0  0.5023894E-03  0.6997530E+03  0.7818609E-02  0.9717655E-01
       -2   -1    0    0    0  501  0.00000000000E+00  0.00000000000E+00  0.45328379611E+03  0.45328379611E+03  0.25500000920E-02 0.  1.
        2   -1    0    0  501    0  0.00000000000E+00  0.00000000000E+00 -0.27005944173E+03  0.27005944174E+03  0.25500000920E-02 0. -1.
    10030    2    1    2    0    0  0.00000000000E+00  0.00000000000E+00  0.18322435438E+03  0.72334323786E+03  0.69975301051E+03 0.  0.
        2    1    3    3  502    0  0.30198508315E+03 -0.17442578590E+03  0.62480125644E+02  0.35429240937E+03  0.25500000920E-02 0. -1.
       -2    1    3    3    0  502 -0.30198508315E+03  0.17442578590E+03  0.12074422873E+03  0.36905082849E+03  0.25500000920E-02 0.  1.
</event>
<event>
 5   0  0.2913582E-03  0.6989569E+03  0.7818609E-02  0.9719018E-01
       -1   -1    0    0    0  501  0.00000000000E+00  0.00000000000E+00  0.37842121011E+03  0.37842121015E+03  0.50400001928E-02 0. -1.
        1   -1    0    0  501    0  0.00000000000E+00  0.00000000000E+00 -0.32274928079E+03  0.32274928083E+03  0.50400001928E-02 0.  1.
    10030    2    1    2    0    0  0.00000000000E+00  0.00000000000E+00  0.55671929318E+02  0.70117049098E+03  0.69895686112E+03 0.  0.
        1    1    3    3  502    0 -0.29513386588E+03  0.14524303032E+03  0.14625913043E+03  0.35998787466E+03  0.50400001928E-02 0. -1.
       -1    1    3    3    0  502  0.29513386588E+03 -0.14524303032E+03 -0.90587201114E+02  0.34118261632E+03  0.50400001928E-02 0.  1.
</event>
<event>
 5   0  0.5076796E-03  0.6998495E+03  0.7818609E-02  0.9717490E-01
        2   -1    0    0  501    0  0.00000000000E+00  0.00000000000E+00  0.60038156128E+03  0.60038156129E+03  0.25500000920E-02 0.  1.
       -2   -1    0    0    0  501  0.00000000000E+00  0.00000000000E+00 -0.20394921194E+03  0.20394921196E+03  0.25500000920E-02 0. -1.
    10030    2    1    2    0    0  0.00000000000E+00  0.00000000000E+00  0.39643234934E+03  0.80433077325E+03  0.69984954468E+03 0.  0.
        5    1    3    3  502    0  0.15243616988E+03 -0.25246901446E+02  0.55901129906E+03  0.57999130545E+03  0.46999998093E+01 0.  1.
       -5    1    3    3    0  502 -0.15243616988E+03  0.25246901446E+02 -0.16257894972E+03  0.22433946779E+03  0.46999998093E+01 0. -1.
</event>
<event>
 5   0  0.2913582E-03  0.6957588E+03  0.7818609E-02  0.9724513E-01
       -1   -1    0    0    0  501  0.00000000000E+00  0.00000000000E+00  0.92341565087E+02  0.92341565225E+02  0.50400001928E-02 0. -1.
        1   -1    0    0  501    0  0.00000000000E+00  0.00000000000E+00 -0.13105697870E+04  0.13105697870E+04  0.50400001928E-02 0.  1.
    10030    2    1    2    0    0  0.00000000000E+00  0.00000000000E+00 -0.12182282219E+04  0.14029113522E+04  0.69575876679E+03 0.  0.
        1    1    3    3  502    0 -0.60906000707E+02  0.86509323058E+01 -0.12995151819E+04  0.13009704407E+04  0.50400001928E-02 0.  1.
       -1    1    3    3    0  502  0.60906000707E+02 -0.86509323058E+01  0.81286959998E+02  0.10194091153E+03  0.50400001928E-02 0. -1.
</event>
<event>
 5   0  0.5023894E-03  0.6976023E+03  0.7818609E-02  0.9721341E-01
       -2   -1    0    0    0  501  0.00000000000E+00  0.00000000000E+00  0.16730628931E+03  0.16730628933E+03  0.25500000920E-02 0. -1.
        2   -1    0    0  501    0  0.00000000000E+00  0.00000000000E+00 -0.72718278587E+03  0.72718278587E+03  0.25500000920E-02 0.  1.
    10030    2    1    2    0    0  0.00000000000E+00  0.00000000000E+00 -0.55987649656E+03  0.89448907520E+03  0.69760233246E+03 0.  0.
        2    1    3    3  502    0  0.25560517671E+03 -0.23175742917E+03 -0.21434675712E+03  0.40618966584E+03  0.25500000920E-02 0. -1.
       -2    1    3    3    0  502 -0.25560517671E+03  0.23175742917E+03 -0.34552973944E+03  0.48829940936E+03  0.25500000920E-02 0.  1.
</event>
<event>
 5   0  0.2934483E-03  0.6989730E+03  0.7818609E-02  0.9718990E-01
        1   -1    0    0  501    0  0.00000000000E+00  0.00000000000E+00  0.57622654845E+03  0.57622654848E+03  0.50400001928E-02 0.  1.
       -1   -1    0    0    0  501  0.00000000000E+00  0.00000000000E+00 -0.21196664682E+03  0.21196664688E+03  0.50400001928E-02 0. -1.
    10030    2    1    2    0    0  0.00000000000E+00  0.00000000000E+00  0.36425990164E+03  0.78819319535E+03  0.69897298750E+03 0.  0.
        5    1    3    3  502    0 -0.17671563192E+03 -0.24828802562E+03 -0.10705080291E+02  0.30497876479E+03  0.46999998093E+01 0. -1.
       -5    1    3    3    0  502  0.17671563192E+03  0.24828802562E+03  0.37496498193E+03  0.48321443056E+03  0.46999998093E+01 0.  1.
</event>
<event>
 5   0  0.5076796E-03  0.7002082E+03  0.7818609E-02  0.9716876E-01
        2   -1    0    0  501    0  0.00000000000E+00  0.00000000000E+00  0.88967747229E+03  0.88967747229E+03  0.25500000920E-02 0. -1.
       -2   -1    0    0    0  501  0.00000000000E+00  0.00000000000E+00 -0.13777227171E+03  0.13777227173E+03  0.25500000920E-02 0.  1.
    10030    2    1    2    0    0  0.00000000000E+00  0.00000000000E+00  0.75190520058E+03  0.10274497440E+04  0.70020821606E+03 0.  0.
        5    1    3    3  502    0  0.17197195856E+02  0.26655987159E+03  0.70797862948E+03  0.75670716825E+03  0.46999998093E+01 0. -1.
       -5    1    3    3    0  502 -0.17197195856E+02 -0.26655987159E+03  0.43926571103E+02  0.27074257577E+03  0.46999998093E+01 0.  1.
</event>
<event>
 5   0  0.2913582E-03  0.7010308E+03  0.7818609E-02  0.9715471E-01
       -1   -1    0    0    0  501  0.00000000000E+00  0.00000000000E+00  0.74408693156E+03  0.74408693158E+03  0.50400001928E-02 0. -1.
        1   -1    0    0  501    0  0.00000000000E+00  0.00000000000E+00 -0.16511650894E+03  0.16511650901E+03  0.50400001928E-02 0.  1.
    10030    2    1    2    0    0  0.00000000000E+00  0.00000000000E+00  0.57897042262E+03  0.90920344059E+03  0.70103077401E+03 0.  0.
        1    1    3    3  502    0 -0.99361764156E+02 -0.17401247941E+02  0.72485466327E+03  0.73184004160E+03  0.50400001928E-02 0. -1.
       -1    1    3    3    0  502  0.99361764156E+02  0.17401247941E+02 -0.14588424064E+03  0.17736339899E+03  0.50400001928E-02 0.  1.
</event>
<event>
 5   0  0.3013140E-03  0.7014828E+03  0.7818609E-02  0.9714700E-01
       -1   -1    0    0    0  501  0.00000000000E+00  0.00000000000E+00  0.41763710865E+03  0.41763710869E+03  0.50400001928E-02 0. -1.
        1   -1    0    0  501    0  0.00000000000E+00  0.00000000000E+00 -0.29456080963E+03  0.29456080967E+03  0.50400001928E-02 0.  1.
    10030    2    1    2    0    0  0.00000000000E+00  0.00000000000E+00  0.12307629903E+03  0.71219791836E+03  0.70148278634E+03 0.  0.
        2    1    3    3  502    0  0.24022799715E+03  0.17784082969E+03  0.24786994110E+03  0.38829931628E+03  0.25500000920E-02 0. -1.
       -2    1    3    3    0  502 -0.24022799715E+03 -0.17784082969E+03 -0.12479364207E+03  0.32389860208E+03  0.25500000920E-02 0.  1.
</event>
<event>
 5   0  0.5113683E-03  0.6987020E+03  0.7818609E-02  0.9719455E-01
        2   -1    0    0  501    0  0.00000000000E+00  0.00000000000E+00  0.25560862711E+04  0.25560862711E+04  0.25500000920E-02 0.  1.
       -2   -1    0    0    0  501  0.00000000000E+00  0.00000000000E+00 -0.47747259438E+02  0.47747259507E+02  0.25500000920E-02 0. -1.
    10030    2    1    2    0    0  0.00000000000E+00  0.00000000000E+00  0.25083390116E+04  0.26038335306E+04  0.69870198060E+03 0.  0.
        3    1    3    3  502    0 -0.15482741698E+03 -0.16110259303E+03  0.25336167504E+03  0.33781314822E+03  0.10100000352E+00 0. -1.
       -3    1    3    3    0  502  0.15482741698E+03  0.16110259303E+03  0.22549773366E+04  0.22660203824E+04  0.10100000352E+00 0.  1.
</event>
<event>
 5   0  0.2937617E-03  0.7117261E+03  0.7818609E-02  0.9697386E-01
        1   -1    0    0  501    0  0.00000000000E+00  0.00000000000E+00  0.12072376503E+04  0.12072376503E+04  0.50400001928E-02 0.  1.
       -1   -1    0    0    0  501  0.00000000000E+00  0.00000000000E+00 -0.10489941502E+03  0.10489941515E+03  0.50400001928E-02 0. -1.
    10030    2    1    2    0    0  0.00000000000E+00  0.00000000000E+00  0.11023382353E+04  0.13121370655E+04  0.71172613666E+03 0.  0.
        3    1    3    3  502    0 -0.22468475550E+03  0.21586812915E+03  0.23421910857E+03  0.38979595888E+03  0.10100000352E+00 0. -1.
       -3    1    3    3    0  502  0.22468475550E+03 -0.21586812915E+03  0.86811912673E+03  0.92234110661E+03  0.10100000352E+00 0.  1.
</event>
<event>
 5   0  0.5072407E-03  0.7017830E+03  0.7818609E-02  0.9714188E-01
       -2   -1    0    0    0  501  0.00000000000E+00  0.00000000000E+00  0.24418672075E+03  0.24418672076E+03  0.25500000920E-02 0. -1.
        2   -1    0    0  501    0  0.00000000000E+00  0.00000000000E+00 -0.50422413560E+03  0.50422413560E+03  0.25500000920E-02 0.  1.
    10030    2    1    2    0    0  0.00000000000E+00  0.00000000000E+00 -0.26003741485E+03  0.74841085636E+03  0.70178298127E+03 0.  0.
        1    1    3    3  502    0 -0.19512665000E+02  0.10938806118E+03 -0.48496666801E+03  0.49753307541E+03  0.50400001928E-02 0.  1.
       -1    1    3    3    0  502  0.19512665000E+02 -0.10938806118E+03  0.22492925316E+03  0.25087778095E+03  0.50400001928E-02 0. -1.
</event>
<event>
 5   0  0.2913582E-03  0.6997415E+03  0.7818609E-02  0.9717674E-01
        1   -1    0    0  501    0  0.00000000000E+00  0.00000000000E+00  0.34397478716E+03  0.34397478720E+03  0.50400001928E-02 0.  1.
       -1   -1    0    0    0  501  0.00000000000E+00  0.00000000000E+00 -0.35586777717E+03  0.35586777720E+03  0.50400001928E-02 0. -1.
    10030    2    1    2    0    0  0.00000000000E+00  0.00000000000E+00 -0.11892990004E+02  0.69984256440E+03  0.69974150351E+03 0.  0.
        1    1    3    3  502    0  0.95608881090E+02  0.17139375430E+03  0.28373764345E+03  0.34499844564E+03  0.50400001928E-02 0.  1.
       -1    1    3    3    0  502 -0.95608881090E+02 -0.17139375430E+03 -0.29563063346E+03  0.35484411876E+03  0.50400001928E-02 0. -1.
</event>
<event>
 5   0  0.5023894E-03  0.6992580E+03  0.7818609E-02  0.9718502E-01
        2   -1    0    0  501    0  0.00000000000E+00  0.00000000000E+00  0.80838966891E+03  0.80838966891E+03  0.25500000920E-02 0. -1.
       -2   -1    0    0    0  501  0.00000000000E+00  0.00000000000E+00 -0.15121474886E+03  0.15121474888E+03  0.25500000920E-02 0.  1.
    10030    2    1    2    0    0  0.00000000000E+00  0.00000000000E+00  0.65717492005E+03  0.95960441779E+03  0.69925800896E+03 0.  0.
        2    1    3    3  502    0 -0.87493555370E+02 -0.29468437191E+02  0.79135975638E+03  0.79672691372E+03  0.25500000920E-02 0. -1.
       -2    1    3    3    0  502  0.87493555370E+02  0.29468437191E+02 -0.13418483633E+03  0.16287750406E+03  0.25500000920E-02 0.  1.
</event>
<event>
 5   0  0.2937617E-03  0.7002111E+03  0.7818609E-02  0.9716871E-01
        1   -1    0    0  501    0  0.00000000000E+00  0.00000000000E+00  0.45642920218E+03  0.45642920221E+03  0.50400001928E-02 0.  1.
       -1   -1    0    0    0  501  0.00000000000E+00  0.00000000000E+00 -0.26854960934E+03  0.26854960938E+03  0.50400001928E-02 0. -1.
    10030    2    1    2    0    0  0.00000000000E+00  0.00000000000E+00  0.18787959285E+03  0.72497881159E+03  0.70021106522E+03 0.  0.
        3    1    3    3  502    0 -0.21229594994E+03 -0.11823463240E+03 -0.16701678499E+03  0.29486202761E+03  0.10100000352E+00 0. -1.
       -3    1    3    3    0  502  0.21229594994E+03  0.11823463240E+03  0.35489637783E+03  0.43011678398E+03  0.10100000352E+00 0.  1.
</event>
<event>
 5   0  0.4878235E-03  0.6976618E+03  0.7818609E-02  0.9721239E-01
        2   -1    0    0  501    0  0.00000000000E+00  0.00000000000E+00  0.71005019930E+03  0.71005019930E+03  0.25500000920E-02 0. -1.
       -2   -1    0    0    0  501  0.00000000000E+00  0.00000000000E+00 -0.17137239175E+03  0.17137239177E+03  0.25500000920E-02 0.  1.
    10030    2    1    2    0    0  0.00000000000E+00  0.00000000000E+00  0.53867780755E+03  0.88142259107E+03  0.69766181185E+03 0.  0.
        4    1    3    3  502    0  0.18167084144E+02 -0.29983425065E+03  0.49339401104E+03  0.57764165695E+03  0.12699999809E+01 0. -1.
       -4    1    3    3    0  502 -0.18167084144E+02  0.29983425065E+03  0.45283796501E+02  0.30378093412E+03  0.12699999809E+01 0.  1.
</event>
<event>
 5   0  0.5072407E-03  0.6947305E+03  0.7818609E-02  0.9726286E-01
        2   -1    0    0  501    0  0.00000000000E+00  0.00000000000E+00  0.45456442567E+03  0.45456442568E+03  0.25500000920E-02 0.  1.
       -2   -1    0    0    0  501  0.00000000000E+00  0.00000000000E+00 -0.26544671106E+03  0.26544671107E+03  0.25500000920E-02 0. -1.
    10030    2    1    2    0    0  0.00000000000E+00  0.00000000000E+00  0.18911771461E+03  0.72001113675E+03  0.69473054277E+03 0.  0.
        1    1    3    3  502    0 -0.26707650264E+03  0.19729158889E+03  0.20029493698E+03  0.38777814677E+03  0.50400001928E-02 0.  1.
       -1    1    3    3    0  502  0.26707650264E+03 -0.19729158889E+03 -0.11177222369E+02  0.33223298998E+03  0.50400001928E-02 0. -1.
</event>
<event>
 5   0  0.2937617E-03  0.6969531E+03  0.7818609E-02  0.9722457E-01
        1   -1    0    0  501    0  0.00000000000E+00  0.00000000000E+00  0.40215013219E+03  0.40215013222E+03  0.50400001928E-02 0. -1.
       -1   -1    0    0    0  501  0.00000000000E+00  0.00000000000E+00 -0.30196659663E+03  0.30196659667E+03  0.50400001928E-02 0.  1.
    10030    2    1    2    0    0  0.00000000000E+00  0.00000000000E+00  0.10018353556E+03  0.70411672889E+03  0.69695310251E+03 0.  0.
        3    1    3    3  502    0 -0.97513017956E+02 -0.13302750430E+03  0.36021730199E+03  0.39618382150E+03  0.10100000352E+00 0. -1.
       -3    1    3    3    0  502  0.97513017956E+02  0.13302750430E+03 -0.26003376642E+03  0.30793290738E+03  0.10100000352E+00 0.  1.
</event>
<event>
 5   0  0.2934483E-03  0.7002683E+03  0.7818609E-02  0.9716773E-01
        1   -1    0    0  501    0  0.00000000000E+00  0.00000000000E+00  0.12008902543E+04  0.12008902543E+04  0.50400001928E-02 0.  1.
       -1   -1    0    0    0  501  0.00000000000E+00  0.00000000000E+00 -0.10208587881E+03  0.10208587893E+03  0.50400001928E-02 0. -1.
    10030    2    1    2    0    0  0.00000000000E+00  0.00000000000E+00  0.10988043755E+04  0.13029761333E+04  0.70026834013E+03 0.  0.
        5    1    3    3  502    0 -0.24763610914E+02 -0.18293722868E+03 -0.41077209980E+01  0.18471120548E+03  0.46999998093E+01 0. -1.
       -5    1    3    3    0  502  0.24763610914E+02  0.18293722868E+03  0.11029120965E+04  0.11182649278E+04  0.46999998093E+01 0.  1.
</event>
<event>
 5   0  0.2937617E-03  0.7001438E+03  0.7818609E-02  0.9716986E-01
       -1   -1    0    0    0  501  0.00000000000E+00  0.00000000000E+00  0.19012114051E+03  0.19012114058E+03  0.50400001928E-02 0.  1.
        1   -1    0    0  501    0  0.00000000000E+00  0.00000000000E+00 -0.64459070172E+03  0.64459070174E+03  0.50400001928E-02 0. -1.
    10030    2    1    2    0    0  0.00000000000E+00  0.00000000000E+00 -0.45446956121E+03  0.83471184232E+03  0.70014375499E+03 0.  0.
        3    1    3    3  502    0  0.82465283825E+02  0.62845541830E+02  0.17139587376E+03  0.20031635207E+03  0.10100000352E+00 0.  1.
       -3    1    3    3    0  502 -0.82465283825E+02 -0.62845541830E+02 -0.62586543497E+03  0.63439549025E+03  0.10100000352E+00 0. -1.
</event>
<event>
 5   0  0.2934483E-03  0.7053172E+03  0.7818609E-02  0.9708182E-01
       -1   -1    0    0    0  501  0.00000000000E+00  0.00000000000E+00  0.10240372437E+03  0.10240372449E+03  0.50400001928E-02 0.  1.
        1   -1    0    0  501    0  0.00000000000E+00  0.00000000000E+00 -0.12144878760E+04  0.12144878760E+04  0.50400001928E-02 0. -1.
    10030    2    1    2    0    0  0.00000000000E+00  0.00000000000E+00 -0.11120841516E+04  0.13168916005E+04  0.70531718195E+03 0.  0.
        5    1    3    3  502    0  0.26321904519E+03  0.10747278976E+03 -0.16657861316E+03  0.32955301645E+03  0.46999998093E+01 0.  1.
       -5    1    3    3    0  502 -0.26321904519E+03 -0.10747278976E+03 -0.94550553845E+03  0.98733858404E+03  0.46999998093E+01 0. -1.
</event>
<event>
 5   0  0.5023894E-03  0.6989511E+03  0.7818609E-02  0.9719028E-01
        2   -1    0    0  501    0  0.00000000000E+00  0.00000000000E+00  0.19084743591E+04  0.19084743591E+04  0.25500000920E-02 0. -1.
       -2   -1    0    0    0  501  0.00000000000E+00  0.00000000000E+00 -0.63995176244E+02  0.63995176295E+02  0.25500000920E-02 0.  1.
    10030    2    1    2    0    0  0.00000000000E+00  0.00000000000E+00  0.18444791829E+04  0.19724695354E+04  0.69895107990E+03 0.  0.
        2    1    3    3  502    0 -0.11424936892E+03 -0.32428583358E+03  0.74557584536E+03  0.82103444590E+03  0.25500000920E-02 0.  1.
       -2    1    3    3    0  502  0.11424936892E+03  0.32428583358E+03  0.10989033375E+04  0.11514350895E+04  0.25500000920E-02 0. -1.
</event>
<event>
 5   0  0.2913582E-03  0.7000424E+03  0.7818609E-02  0.9717160E-01
        1   -1    0    0  501    0  0.00000000000E+00  0.00000000000E+00  0.23035662042E+03  0.23035662047E+03  0.50400001928E-02 0.  1.
       -1   -1    0    0    0  501  0.00000000000E+00  0.00000000000E+00 -0.53184861440E+03  0.53184861443E+03  0.50400001928E-02 0. -1.
    10030    2    1    2    0    0  0.00000000000E+00  0.00000000000E+00 -0.30149199398E+03  0.76220523490E+03  0.70004242562E+03 0.  0.
        1    1    3    3  502    0  0.12792509659E+03 -0.24789439877E+03  0.79447731662E+02  0.29004897064E+03  0.50400001928E-02 0.  1.
       -1    1    3    3    0  502 -0.12792509659E+03  0.24789439877E+03 -0.38093972565E+03  0.47215626426E+03  0.50400001928E-02 0. -1.
</event>
<event>
 5   0  0.5072407E-03  0.6973632E+03  0.7818609E-02  0.9721752E-01
       -2   -1    0    0    0  501  0.00000000000E+00  0.00000000000E+00  0.25620821410E+03  0.25620821411E+03  0.25500000920E-02 0.  1.
        2   -1    0    0  501    0  0.00000000000E+00  0.00000000000E+00 -0.47453146045E+03  0.47453146045E+03  0.25500000920E-02 0. -1.
    10030    2    1    2    0    0  0.00000000000E+00  0.00000000000E+00 -0.21832324634E+03  0.73073967457E+03  0.69736319955E+03 0.  0.
        1    1    3    3  502    0  0.63744751850E+02 -0.17501357980E+03 -0.41803312716E+03  0.45765144153E+03  0.50400001928E-02 0. -1.
       -1    1    3    3    0  502 -0.63744751850E+02  0.17501357980E+03  0.19970988082E+03  0.27308823304E+03  0.50400001928E-02 0.  1.
</event>
<event>
 5   0  0.4878235E-03  0.6993658E+03  0.7818609E-02  0.9718317E-01
        2   -1    0    0  501    0  0.00000000000E+00  0.00000000000E+00  0.13749899372E+04  0.13749899372E+04  0.25500000920E-02 0.  1.
       -2   -1    0    0    0  501  0.00000000000E+00  0.00000000000E+00 -0.88930191127E+02  0.88930191163E+02  0.25500000920E-02 0. -1.
    10030    2    1    2    0    0  0.00000000000E+00  0.00000000000E+00  0.12860597461E+04  0.14639201283E+04  0.69936576393E+03 0.  0.
        4    1    3    3  502    0 -0.32389353891E+03 -0.35199827572E+02  0.37718010186E+03  0.49840996634E+03  0.12699999809E+01 0.  1.
       -4    1    3    3    0  502  0.32389353891E+03  0.35199827572E+02  0.90887964419E+03  0.96551016200E+03  0.12699999809E+01 0. -1.
</event>
<event>
 5   0  0.2937617E-03  0.7012778E+03  0.7818609E-02  0.9715049E-01
        1   -1    0    0  501    0  0.00000000000E+00  0.00000000000E+00  0.10651648698E+04  0.10651648698E+04  0.50400001928E-02 0. -1.
       -1   -1    0    0    0  501  0.00000000000E+00  0.00000000000E+00 -0.11542592927E+03  0.11542592938E+03  0.50400001928E-02 0.  1.
    10030    2    1    2    0    0  0.00000000000E+00  0.00000000000E+00  0.94973894055E+03  0.11805907992E+04  0.70127781940E+03 0.  0.
        3    1    3    3  502    0  0.18375328112E+03 -0.19824730974E+03  0.98881346357E+02  0.28782771757E+03  0.10100000352E+00 0.  1.
       -3    1    3    3    0  502 -0.18375328112E+03  0.19824730974E+03  0.85085759420E+03  0.89276308164E+03  0.10100000352E+00 0. -1.
</event>
<event>
 5   0  0.5113683E-03  0.7005197E+03  0.7818609E-02  0.9716344E-01
       -2   -1    0    0    0  501  0.00000000000E+00  0.00000000000E+00  0.11134700267E+03  0.11134700270E+03  0.25500000920E-02 0.  1.
        2   -1    0    0  501    0  0.00000000000E+00  0.00000000000E+00 -0.11017985513E+04  0.11017985513E+04  0.25500000920E-02 0. -1.
    10030    2    1    2    0    0  0.00000000000E+00  0.00000000000E+00 -0.99045154863E+03  0.12131455540E+04  0.70051971066E+03 0.  0.
        3    1    3    3  502    0  0.16823830516E+03 -0.37269327560E+02  0.32864213355E+02  0.17542290849E+03  0.10100000352E+00 0.  1.
       -3    1    3    3    0  502 -0.16823830516E+03  0.37269327560E+02 -0.10233157620E+04  0.10377226455E+04  0.10100000352E+00 0. -1.
</event>
<event>
 5   0  0.5113683E-03  0.6887763E+03  0.7818609E-02  0.9736621E-01
        2   -1    0    0  501    0  0.00000000000E+00  0.00000000000E+00  0.18417542192E+04  0.18417542192E+04  0.25500000920E-02 0. -1.
       -2   -1    0    0    0  501  0.00000000000E+00  0.00000000000E+00 -0.64396858336E+02  0.64396858387E+02  0.25500000920E-02 0.  1.
    10030    2    1    2    0    0  0.00000000000E+00  0.00000000000E+00  0.17773573608E+04  0.19061510776E+04  0.68877626437E+03 0.  0.
        3    1    3    3  502    0 -0.17327218745E+03  0.88444820935E+02  0.16751274057E+04  0.16863859502E+04  0.10100000352E+00 0. -1.
       -3    1    3    3    0  502  0.17327218745E+03 -0.88444820935E+02  0.10222995510E+03  0.21976512739E+03  0.10100000352E+00 0.  1.
</event>
<event>
 5   0  0.3013140E-03  0.6806052E+03  0.7818609E-02  0.9750987E-01
        1   -1    0    0  501    0  0.00000000000E+00  0.00000000000E+00  0.65080846252E+03  0.65080846254E+03  0.50400001928E-02 0.  1.
       -1   -1    0    0    0  501  0.00000000000E+00  0.00000000000E+00 -0.17794153823E+03  0.17794153830E+03  0.50400001928E-02 0. -1.
    10030    2    1    2    0    0  0.00000000000E+00  0.00000000000E+00  0.47286692429E+03  0.82875000084E+03  0.68060519818E+03 0.  0.
        2    1    3    3  502    0 -0.88567335549E+02 -0.21142931249E+03 -0.69826750936E+02  0.23962951041E+03  0.25500000920E-02 0. -1.
       -2    1    3    3    0  502  0.88567335549E+02  0.21142931249E+03  0.54269367523E+03  0.58912049043E+03  0.25500000920E-02 0.  1.
</event>
<event>
 5   0  0.2934483E-03  0.6999725E+03  0.7818609E-02  0.9717279E-01
       -1   -1    0    0    0  501  0.00000000000E+00  0.00000000000E+00  0.44061194705E+03  0.44061194708E+03  0.50400001928E-02 0.  1.
        1   -1    0    0  501    0  0.00000000000E+00  0.00000000000E+00 -0.27800056624E+03  0.27800056628E+03  0.50400001928E-02 0. -1.
    10030    2    1    2    0    0  0.00000000000E+00  0.00000000000E+00  0.16261138081E+03  0.71861251336E+03  0.69997248745E+03 0.  0.
        5    1    3    3  502    0 -0.42415694330E+02 -0.12995200910E+03  0.41203609492E+03  0.43414565449E+03  0.46999998093E+01 0.  1.
       -5    1    3    3    0  502  0.42415694330E+02  0.12995200910E+03 -0.24942471411E+03  0.28446685888E+03  0.46999998093E+01 0. -1.
</event>
<event>
 5   0  0.2913582E-03  0.6992816E+03  0.7818609E-02  0.9718462E-01
       -1   -1    0    0    0  501  0.00000000000E+00  0.00000000000E+00  0.57729367639E+03  0.57729367641E+03  0.50400001928E-02 0.  1.
        1   -1    0    0  501    0  0.00000000000E+00  0.00000000000E+00 -0.21176169008E+03  0.21176169014E+03  0.50400001928E-02 0. -1.
    10030    2    1    2    0    0  0.00000000000E+00  0.00000000000E+00  0.36553198631E+03  0.78905536656E+03  0.69928158740E+03 0.  0.
        1    1    3    3  502    0  0.29353956017E+03 -0.96607440354E+02  0.36731810217E+03  0.48002193608E+03  0.50400001928E-02 0.  1.
       -1    1    3    3    0  502 -0.29353956017E+03  0.96607440354E+02 -0.17861158600E+01  0.30903343047E+03  0.50400001928E-02 0. -1.
</event>
<event>
 5   0  0.5076796E-03  0.6993821E+03  0.7818609E-02  0.9718289E-01
        2   -1    0    0  501    0  0.00000000000E+00  0.00000000000E+00  0.10595821799E+04  0.10595821799E+04  0.25500000920E-02 0. -1.
       -2   -1    0    0    0  501  0.00000000000E+00  0.00000000000E+00 -0.11540760572E+03  0.11540760575E+03  0.25500000920E-02 0.  1.
    10030    2    1    2    0    0  0.00000000000E+00  0.00000000000E+00  0.94417457420E+03  0.11749897857E+04  0.69938213436E+03 0.  0.
        5    1    3    3  502    0 -0.12797828233E+03  0.17818160617E+03  0.92952304482E+03  0.95507188545E+03  0.46999998093E+01 0. -1.
       -5    1    3    3    0  502  0.12797828233E+03 -0.17818160617E+03  0.14651529379E+02  0.21991790022E+03  0.46999998093E+01 0.  1.
</event>
<event>
 5   0  0.5113683E-03  0.6989042E+03  0.7818609E-02  0.9719108E-01
        2   -1    0    0  501    0  0.00000000000E+00  0.00000000000E+00  0.52328406661E+03  0.52328406662E+03  0.25500000920E-02 0.  1.
       -2   -1    0    0    0  501  0.00000000000E+00  0.00000000000E+00 -0.23336611462E+03  0.23336611464E+03  0.25500000920E-02 0. -1.
    10030    2    1    2    0    0  0.00000000000E+00  0.00000000000E+00  0.28991795199E+03  0.75665018126E+03  0.69890419795E+03 0.  0.
        3    1    3    3  502    0 -0.65178346669E+02  0.15981474463E+03  0.47391944414E+03  0.50436952645E+03  0.10100000352E+00 0.  1.
       -3    1    3    3    0  502  0.65178346669E+02 -0.15981474463E+03 -0.18400149215E+03  0.25228065481E+03  0.10100000352E+00 0. -1.
</event>
<event>
 5   0  0.4878235E-03  0.7016590E+03  0.7818609E-02  0.9714399E-01
        2   -1    0    0  501    0  0.00000000000E+00  0.00000000000E+00  0.17865823205E+04  0.17865823205E+04  0.25500000920E-02 0. -1.
       -2   -1    0    0    0  501  0.00000000000E+00  0.00000000000E+00 -0.68892056881E+02  0.68892056928E+02  0.25500000920E-02 0.  1.
    10030    2    1    2    0    0  0.00000000000E+00  0.00000000000E+00  0.17176902636E+04  0.18554743774E+04  0.70165897953E+03 0.  0.
        4    1    3    3  502    0 -0.33588050665E+03 -0.90753670676E+02  0.73976516556E+03  0.81749988169E+03  0.12699999809E+01 0. -1.
       -4    1    3    3    0  502  0.33588050665E+03  0.90753670676E+02  0.97792509802E+03  0.10379744957E+04  0.12699999809E+01 0.  1.
</event>
<event>
 5   0  0.5113683E-03  0.6999143E+03  0.7818609E-02  0.9717379E-01
        2   -1    0    0  501    0  0.00000000000E+00  0.00000000000E+00  0.42395439144E+03  0.42395439145E+03  0.25500000920E-02 0. -1.
       -2   -1    0    0    0  501  0.00000000000E+00  0.00000000000E+00 -0.28887539703E+03  0.28887539705E+03  0.25500000920E-02 0.  1.
    10030    2    1    2    0    0  0.00000000000E+00  0.00000000000E+00  0.13507899441E+03  0.71282978850E+03  0.69991426092E+03 0.  0.
        3    1    3    3  502    0  0.33520479293E+03  0.82092087661E+02  0.12665031096E+03  0.36761620683E+03  0.10100000352E+00 0. -1.
       -3    1    3    3    0  502 -0.33520479293E+03 -0.82092087661E+02  0.84286834481E+01  0.34521358166E+03  0.10100000352E+00 0.  1.
</event>
<event>
 5   0  0.2934483E-03  0.7003379E+03  0.7818609E-02  0.9716654E-01
        1   -1    0    0  501    0  0.00000000000E+00  0.00000000000E+00  0.58153866154E+03  0.58153866157E+03  0.50400001928E-02 0.  1.
       -1   -1    0    0    0  501  0.00000000000E+00  0.00000000000E+00 -0.21085151970E+03  0.21085151976E+03  0.50400001928E-02 0. -1.
    10030    2    1    2    0    0  0.00000000000E+00  0.00000000000E+00  0.37068714184E+03  0.79239018133E+03  0.70033794867E+03 0.  0.
        5    1    3    3  502    0  0.29499281496E+03  0.42086477724E+02  0.39336912169E+03  0.49351128496E+03  0.46999998093E+01 0.  1.
       -5    1    3    3    0  502 -0.29499281496E+03 -0.42086477724E+02 -0.22681979852E+02  0.29887889637E+03  0.46999998093E+01 0. -1.
</event>
<event>
 5   0  0.2938783E-03  0.7000230E+03  0.7818609E-02  0.9717193E-01
        1   -1    0    0  501    0  0.00000000000E+00  0.00000000000E+00  0.19888943777E+04  0.19888943778E+04  0.50400001928E-02 0. -1.
       -1   -1    0    0    0  501  0.00000000000E+00  0.00000000000E+00 -0.61596057932E+02  0.61596058138E+02  0.50400001928E-02 0.  1.
    10030    2    1    2    0    0  0.00000000000E+00  0.00000000000E+00  0.19272983198E+04  0.20504904359E+04  0.70002300971E+03 0.  0.
        4    1    3    3  502    0  0.62060658055E+02 -0.40596852153E+01 -0.45274103046E+02  0.76937400715E+02  0.12699999809E+01 0.  1.
       -4    1    3    3    0  502 -0.62060658055E+02  0.40596852153E+01  0.19725724229E+04  0.19735530352E+04  0.12699999809E+01 0. -1.
</event>
<event>
 5   0  0.2934483E-03  0.6990034E+03  0.7818609E-02  0.9718938E-01
       -1   -1    0    0    0  501  0.00000000000E+00  0.00000000000E+00  0.52491268066E+02  0.52491268308E+02  0.50400001928E-02 0. -1.
        1   -1    0    0  501    0  0.00000000000E+00  0.00000000000E+00 -0.23270808346E+04  0.23270808346E+04  0.50400001928E-02 0.  1.
    10030    2    1    2    0    0  0.00000000000E+00  0.00000000000E+00 -0.22745895665E+04  0.23795721029E+04  0.69900335963E+03 0.  0.
        5    1    3    3  502    0  0.31853697405E+03 -0.12745299075E+03 -0.13636000456E+04  0.14061071236E+04  0.46999998093E+01 0.  1.
       -5    1    3    3    0  502 -0.31853697405E+03  0.12745299075E+03 -0.91098952090E+03  0.97346497927E+03  0.46999998093E+01 0. -1.
</event>
<event>
 5   0  0.2938783E-03  0.6985303E+03  0.7818609E-02  0.9719749E-01
       -1   -1    0    0    0  501  0.00000000000E+00  0.00000000000E+00  0.11911046689E+03  0.11911046699E+03  0.50400001928E-02 0. -1.
        1   -1    0    0  501    0  0.00000000000E+00  0.00000000000E+00 -0.10241428902E+04  0.10241428902E+04  0.50400001928E-02 0.  1.
    10030    2    1    2    0    0  0.00000000000E+00  0.00000000000E+00 -0.90503242330E+03  0.11432533572E+04  0.69853027959E+03 0.  0.
        4    1    3    3  502    0  0.17368310731E+03  0.12532076054E+03 -0.90404748912E+03  0.92907189725E+03  0.12699999809E+01 0.  1.
       -4    1    3    3    0  502 -0.17368310731E+03 -0.12532076054E+03 -0.98493418235E+00  0.21418145994E+03  0.12699999809E+01 0. -1.
</event>
<event>
 5   0  0.5113683E-03  0.7015801E+03  0.7818609E-02  0.9714534E-01
       -2   -1    0    0    0  501  0.00000000000E+00  0.00000000000E+00  0.82070629360E+02  0.82070629399E+02  0.25500000920E-02 0.  1.
        2   -1    0    0  501    0  0.00000000000E+00  0.00000000000E+00 -0.14993629191E+04  0.14993629191E+04  0.25500000920E-02 0. -1.
    10030    2    1    2    0    0  0.00000000000E+00  0.00000000000E+00 -0.14172922897E+04  0.15814335485E+04  0.70158009789E+03 0.  0.
        3    1    3    3  502    0 -0.19490486554E+03 -0.25704463019E+03 -0.39799023920E+03  0.51230468397E+03  0.10100000352E+00 0. -1.
       -3    1    3    3    0  502  0.19490486554E+03  0.25704463019E+03 -0.10193020505E+04  0.10691288645E+04  0.10100000352E+00 0.  1.
</event>
<event>
 5   0  0.2937617E-03  0.7000434E+03  0.7818609E-02  0.9717158E-01
       -1   -1    0    0    0  501  0.00000000000E+00  0.00000000000E+00  0.22956222161E+03  0.22956222167E+03  0.50400001928E-02 0. -1.
        1   -1    0    0  501    0  0.00000000000E+00  0.00000000000E+00 -0.53369057504E+03  0.53369057506E+03  0.50400001928E-02 0.  1.
    10030    2    1    2    0    0  0.00000000000E+00  0.00000000000E+00 -0.30412835342E+03  0.76325279673E+03  0.70004341034E+03 0.  0.
        3    1    3    3  502    0  0.31445542570E+02  0.24088854360E+03  0.12267912895E+03  0.27215122903E+03  0.10100000352E+00 0. -1.
       -3    1    3    3    0  502 -0.31445542570E+02 -0.24088854360E+03 -0.42680748237E+03  0.49110156769E+03  0.10100000352E+00 0.  1.
</event>
<event>
 5   0  0.1981750E-03  0.6998399E+03  0.7818609E-02  0.9717506E-01
        4   -1    0    0  501    0  0.00000000000E+00  0.00000000000E+00  0.22635325283E+03  0.22635681560E+03  0.12699999809E+01 0. -1.
       -4   -1    0    0    0  501  0.00000000000E+00  0.00000000000E+00 -0.54093334224E+03  0.54093483308E+03  0.12699999809E+01 0.  1.
    10030    2    1    2    0    0  0.00000000000E+00  0.00000000000E+00 -0.31458008940E+03  0.76729164868E+03  0.69983986846E+03 0.  0.
        2    1    3    3  502    0  0.21840107210E+03 -0.24929277145E+03 -0.28034904693E+03  0.43409849379E+03  0.25500000920E-02 0.  1.
       -2    1    3    3    0  502 -0.21840107210E+03  0.24929277145E+03 -0.34231042474E+02  0.33319315489E+03  0.25500000920E-02 0. -1.
</event>
<event>
 5   0  0.5113683E-03  0.6978668E+03  0.7818609E-02  0.9720887E-01
       -2   -1    0    0    0  501  0.00000000000E+00  0.00000000000E+00  0.27133624215E+03  0.27133624216E+03  0.25500000920E-02 0. -1.
        2   -1    0    0  501    0  0.00000000000E+00  0.00000000000E+00 -0.44872197196E+03  0.44872197196E+03  0.25500000920E-02 0.  1.
    10030    2    1    2    0    0  0.00000000000E+00  0.00000000000E+00 -0.17738572981E+03  0.72005821412E+03  0.69786684588E+03 0.  0.
        3    1    3    3  502    0 -0.27897679483E+03  0.14600248254E+02 -0.30441855148E+03  0.41317294682E+03  0.10100000352E+00 0.  1.
       -3    1    3    3    0  502  0.27897679483E+03 -0.14600248254E+02  0.12703282167E+03  0.30688526730E+03  0.10100000352E+00 0. -1.
</event>
<event>
 5   0  0.2937617E-03  0.6991654E+03  0.7818609E-02  0.9718661E-01
        1   -1    0    0  501    0  0.00000000000E+00  0.00000000000E+00  0.94893447168E+03  0.94893447170E+03  0.50400001928E-02 0.  1.
       -1   -1    0    0    0  501  0.00000000000E+00  0.00000000000E+00 -0.12878451471E+03  0.12878451480E+03  0.50400001928E-02 0. -1.
    10030    2    1    2    0    0  0.00000000000E+00  0.00000000000E+00  0.82014995698E+03  0.10777189865E+04  0.69916540384E+03 0.  0.
        3    1    3    3  502    0 -0.85799069057E+02  0.24856736789E+03  0.55006058944E+02  0.26865013187E+03  0.10100000352E+00 0. -1.
       -3    1    3    3    0  502  0.85799069057E+02 -0.24856736789E+03  0.76514389803E+03  0.80906885463E+03  0.10100000352E+00 0.  1.
</event>
<event>
 5   0  0.4878235E-03  0.7018347E+03  0.7818609E-02  0.9714100E-01
        2   -1    0    0  501    0  0.00000000000E+00  0.00000000000E+00  0.68738746707E+03  0.68738746708E+03  0.25500000920E-02 0. -1.
       -2   -1    0    0    0  501  0.00000000000E+00  0.00000000000E+00 -0.17914640539E+03  0.17914640541E+03  0.25500000920E-02 0.  1.
    10030    2    1    2    0    0  0.00000000000E+00  0.00000000000E+00  0.50824106168E+03  0.86653387249E+03  0.70183472085E+03 0.  0.
        4    1    3    3  502    0 -0.47087205443E+02 -0.22742787612E+03  0.57891307764E+03  0.62376486604E+03  0.12699999809E+01 0. -1.
       -4    1    3    3    0  502  0.47087205443E+02  0.22742787612E+03 -0.70672015954E+02  0.24276900645E+03  0.12699999809E+01 0.  1.
</event>
<event>
 5   0  0.1981750E-03  0.7003113E+03  0.7818609E-02  0.9716700E-01
        4   -1    0    0  501    0  0.00000000000E+00  0.00000000000E+00  0.48083042157E+03  0.48083209877E+03  0.12699999809E+01 0.  1.
       -4   -1    0    0    0  501  0.00000000000E+00  0.00000000000E+00 -0.25499051202E+03  0.25499367467E+03  0.12699999809E+01 0. -1.
    10030    2    1    2    0    0  0.00000000000E+00  0.00000000000E+00  0.22583990955E+03  0.73582577344E+03  0.70031129087E+03 0.  0.
        4    1    3    3  502    0 -0.28887166295E+03  0.19754847968E+03  0.12513371971E+03  0.37166153982E+03  0.12699999809E+01 0. -1.
       -4    1    3    3    0  502  0.28887166295E+03 -0.19754847968E+03  0.10070618984E+03  0.36416423362E+03  0.12699999809E+01 0.  1.
</event>
<event>
 5   0  0.3013140E-03  0.6996664E+03  0.7818609E-02  0.9717803E-01
       -1   -1    0    0    0  501  0.00000000000E+00  0.00000000000E+00  0.93395106357E+03  0.93395106359E+03  0.50400001928E-02 0.  1.
        1   -1    0    0  501    0  0.00000000000E+00  0.00000000000E+00 -0.13103819911E+03  0.13103819921E+03  0.50400001928E-02 0. -1.
    10030    2    1    2    0    0  0.00000000000E+00  0.00000000000E+00  0.80291286446E+03  0.10649892628E+04  0.69966639332E+03 0.  0.
        2    1    3    3  502    0 -0.22701316270E+03 -0.25113171721E+03  0.26718732221E+03  0.43126694817E+03  0.25500000920E-02 0. -1.
       -2    1    3    3    0  502  0.22701316270E+03  0.25113171721E+03  0.53572554225E+03  0.63372231462E+03  0.25500000920E-02 0.  1.
</event>
<event>
 5   0  0.2938783E-03  0.6978465E+03  0.7818609E-02  0.9720922E-01
       -1   -1    0    0    0  501  0.00000000000E+00  0.00000000000E+00  0.38478632897E+03  0.38478632900E+03  0.50400001928E-02 0. -1.
        1   -1    0    0  501    0  0.00000000000E+00  0.00000000000E+00 -0.31640269499E+03  0.31640269503E+03  0.50400001928E-02 0.  1.
    10030    2    1    2    0    0  0.00000000000E+00  0.00000000000E+00  0.68383633979E+02  0.70118902403E+03  0.69784649174E+03 0.  0.
        4    1    3    3  502    0  0.20296252439E+03  0.89652607620E+02 -0.23638305723E+03  0.32420663011E+03  0.12699999809E+01 0.  1.
       -4    1    3    3    0  502 -0.20296252439E+03 -0.89652607620E+02  0.30476669121E+03  0.37698239393E+03  0.12699999809E+01 0. -1.
</event>
<event>
 5   0  0.2937617E-03  0.7004121E+03  0.7818609E-02  0.9716528E-01
       -1   -1    0    0    0  501  0.00000000000E+00  0.00000000000E+00  0.35544137266E+03  0.35544137270E+03  0.50400001928E-02 0. -1.
        1   -1    0    0  501    0  0.00000000000E+00  0.00000000000E+00 -0.34504788681E+03  0.34504788685E+03  0.50400001928E-02 0.  1.
    10030    2    1    2    0    0  0.00000000000E+00  0.00000000000E+00  0.10393485852E+02  0.70048925954E+03  0.70041214880E+03 0.  0.
        3    1    3    3  502    0  0.21617595841E+03 -0.18123405302E+03 -0.20235069879E+03  0.34716515158E+03  0.10100000352E+00 0.  1.
       -3    1    3    3    0  502 -0.21617595841E+03  0.18123405302E+03  0.21274418464E+03  0.35332410796E+03  0.10100000352E+00 0. -1.
</event>
<event>
 5   0  0.2934483E-03  0.7005869E+03  0.7818609E-02  0.9716229E-01
        1   -1    0    0  501    0  0.00000000000E+00  0.00000000000E+00  0.91269471737E+03  0.91269471738E+03  0.50400001928E-02 0.  1.
       -1   -1    0    0    0  501  0.00000000000E+00  0.00000000000E+00 -0.13444310236E+03  0.13444310246E+03  0.50400001928E-02 0. -1.
    10030    2    1    2    0    0  0.00000000000E+00  0.00000000000E+00  0.77825161501E+03  0.10471378198E+04  0.70058692357E+03 0.  0.
        5    1    3    3  502    0 -0.13460771161E+03  0.14321010681E+03 -0.44209145063E+02  0.20150659846E+03  0.46999998093E+01 0. -1.
       -5    1    3    3    0  502  0.13460771161E+03 -0.14321010681E+03  0.82246076007E+03  0.84563122138E+03  0.46999998093E+01 0.  1.
</event>
<event>
 5   0  0.5113683E-03  0.6988947E+03  0.7818609E-02  0.9719124E-01
       -2   -1    0    0    0  501  0.00000000000E+00  0.00000000000E+00  0.14485572435E+03  0.14485572437E+03  0.25500000920E-02 0. -1.
        2   -1    0    0  501    0  0.00000000000E+00  0.00000000000E+00 -0.84300048093E+03  0.84300048093E+03  0.25500000920E-02 0.  1.
    10030    2    1    2    0    0  0.00000000000E+00  0.00000000000E+00 -0.69814475658E+03  0.98785620530E+03  0.69889468535E+03 0.  0.
        3    1    3    3  502    0 -0.48026861814E+01 -0.16180585733E+03  0.88663561331E+02  0.18456824909E+03  0.10100000352E+00 0. -1.
       -3    1    3    3    0  502  0.48026861814E+01  0.16180585733E+03 -0.78680831791E+03  0.80328795621E+03  0.10100000352E+00 0.  1.
</event>
<event>
 5   0  0.2913582E-03  0.6990288E+03  0.7818609E-02  0.9718894E-01
        1   -1    0    0  501    0  0.00000000000E+00  0.00000000000E+00  0.57981258196E+03  0.57981258198E+03  0.50400001928E-02 0. -1.
       -1   -1    0    0    0  501  0.00000000000E+00  0.00000000000E+00 -0.21068932350E+03  0.21068932357E+03  0.50400001928E-02 0.  1.
    10030    2    1    2    0    0  0.00000000000E+00  0.00000000000E+00  0.36912325845E+03  0.79050190555E+03  0.69902881396E+03 0.  0.
        1    1    3    3  502    0  0.15129062747E+03 -0.14983210573E+01  0.54086107923E+03  0.56162425693E+03  0.50400001928E-02 0. -1.
       -1    1    3    3    0  502 -0.15129062747E+03  0.14983210573E+01 -0.17173782077E+03  0.22887764861E+03  0.50400001928E-02 0.  1.
</event>
<event>
 5   0  0.5072407E-03  0.7014533E+03  0.7818609E-02  0.9714750E-01
        2   -1    0    0  501    0  0.00000000000E+00  0.00000000000E+00  0.44052053217E+03  0.44052053217E+03  0.25500000920E-02 0.  1.
       -2   -1    0    0    0  501  0.00000000000E+00  0.00000000000E+00 -0.27923597740E+03  0.27923597741E+03  0.25500000920E-02 0. -1.
    10030    2    1    2    0    0  0.00000000000E+00  0.00000000000E+00  0.16128455476E+03  0.71975650959E+03  0.70145329530E+03 0.  0.
        1    1    3    3  502    0 -0.43860152961E+02 -0.31763071999E+03  0.22646379339E+03  0.39255424726E+03  0.50400001928E-02 0.  1.
       -1    1    3    3    0  502  0.43860152961E+02  0.31763071999E+03 -0.65179238628E+02  0.32720226233E+03  0.50400001928E-02 0. -1.
</event>
<event>
 5   0  0.2937617E-03  0.6991016E+03  0.7818609E-02  0.9718770E-01
        1   -1    0    0  501    0  0.00000000000E+00  0.00000000000E+00  0.31578231064E+03  0.31578231068E+03  0.50400001928E-02 0. -1.
       -1   -1    0    0    0  501  0.00000000000E+00  0.00000000000E+00 -0.38693039736E+03  0.38693039739E+03  0.50400001928E-02 0.  1.
    10030    2    1    2    0    0  0.00000000000E+00  0.00000000000E+00 -0.71148086722E+02  0.70271270807E+03  0.69910163771E+03 0.  0.
        3    1    3    3  502    0 -0.14204933864E+03 -0.30499197124E+03  0.59718848479E+02  0.34170816232E+03  0.10100000352E+00 0. -1.
       -3    1    3    3    0  502  0.14204933864E+03  0.30499197124E+03 -0.13086693520E+03  0.36100454576E+03  0.10100000352E+00 0.  1.
</event>
<event>
 5   0  0.3013140E-03  0.6996678E+03  0.7818609E-02  0.9717800E-01
        1   -1    0    0  501    0  0.00000000000E+00  0.00000000000E+00  0.33758078119E+03  0.33758078123E+03  0.50400001928E-02 0.  1.
       -1   -1    0    0    0  501  0.00000000000E+00  0.00000000000E+00 -0.36253174881E+03  0.36253174885E+03  0.50400001928E-02 0. -1.
    10030    2    1    2    0    0  0.00000000000E+00  0.00000000000E+00 -0.24950967617E+02  0.70011253008E+03  0.69966778116E+03 0.  0.
        2    1    3    3  502    0  0.21627853907E+03 -0.26211722560E+03 -0.95605994782E+02  0.35301891261E+03  0.25500000920E-02 0.  1.
       -2    1    3    3    0  502 -0.21627853907E+03  0.26211722560E+03  0.70655027164E+02  0.34709361747E+03  0.25500000920E-02 0. -1.
</event>
<event>
 5   0  0.2934483E-03  0.7006656E+03  0.7818609E-02  0.9716095E-01
       -1   -1    0    0    0  501  0.00000000000E+00  0.00000000000E+00  0.54242678934E+03  0.54242678937E+03  0.50400001928E-02 0. -1.
        1   -1    0    0  501    0  0.00000000000E+00  0.00000000000E+00 -0.22626660006E+03  0.22626660012E+03  0.50400001928E-02 0.  1.
    10030    2    1    2    0    0  0.00000000000E+00  0.00000000000E+00  0.31616018928E+03  0.76869338949E+03  0.70066558482E+03 0.  0.
        5    1    3    3  502    0  0.58064304256E+02  0.32335781288E+03  0.29145323117E+03  0.43920247556E+03  0.46999998093E+01 0. -1.
       -5    1    3    3    0  502 -0.58064304256E+02 -0.32335781288E+03  0.24706958110E+02  0.32949091392E+03  0.46999998093E+01 0.  1.
</event>
<event>
 5   0  0.5076796E-03  0.7008021E+03  0.7818609E-02  0.9715862E-01
        2   -1    0    0  501    0  0.00000000000E+00  0.00000000000E+00  0.13371873226E+04  0.13371873226E+04  0.25500000920E-02 0. -1.
       -2   -1    0    0    0  501  0.00000000000E+00  0.00000000000E+00 -0.91820260663E+02  0.91820260698E+02  0.25500000920E-02 0.  1.
    10030    2    1    2    0    0  0.00000000000E+00  0.00000000000E+00  0.12453670620E+04  0.14290075833E+04  0.70080207918E+03 0.  0.
        5    1    3    3  502    0 -0.41702309770E+02  0.17177620144E+03  0.58333113917E+01  0.17692445716E+03  0.46999998093E+01 0.  1.
       -5    1    3    3    0  502  0.41702309770E+02 -0.17177620144E+03  0.12395337506E+04  0.12520831262E+04  0.46999998093E+01 0. -1.
</event>
<event>
 5   0  0.5076796E-03  0.7021354E+03  0.7818609E-02  0.9713587E-01
        2   -1    0    0  501    0  0.00000000000E+00  0.00000000000E+00  0.21147014804E+03  0.21147014805E+03  0.25500000920E-02 0.  1.
       -2   -1    0    0    0  501  0.00000000000E+00  0.00000000000E+00 -0.58281769760E+03  0.58281769760E+03  0.25500000920E-02 0. -1.
    10030    2    1    2    0    0  0.00000000000E+00  0.00000000000E+00 -0.37134754956E+03  0.79428784566E+03  0.70213544220E+03 0.  0.
        5    1    3    3  502    0 -0.17974453206E+03  0.83989223784E+02  0.14192724371E+03  0.24398303019E+03  0.46999998093E+01 0.  1.
       -5    1    3    3    0  502  0.17974453206E+03 -0.83989223784E+02 -0.51327479327E+03  0.55030481546E+03  0.46999998093E+01 0. -1.
</event>
<event>
 5   0  0.5076796E-03  0.7052070E+03  0.7818609E-02  0.9708369E-01
       -2   -1    0    0    0  501  0.00000000000E+00  0.00000000000E+00  0.40231703770E+03  0.40231703771E+03  0.25500000920E-02 0. -1.
        2   -1    0    0  501    0  0.00000000000E+00  0.00000000000E+00 -0.30903293408E+03  0.30903293409E+03  0.25500000920E-02 0.  1.
    10030    2    1    2    0    0  0.00000000000E+00  0.00000000000E+00  0.93284103620E+02  0.71134997180E+03  0.70520696139E+03 0.  0.
        5    1    3    3  502    0  0.19579925619E+03  0.13975793378E+03 -0.21335795249E+03  0.32157943757E+03  0.46999998093E+01 0. -1.
       -5    1    3    3    0  502 -0.19579925619E+03 -0.13975793378E+03  0.30664205611E+03  0.38977053423E+03  0.46999998093E+01 0.  1.
</event>
<event>
 5   0  0.2938783E-03  0.6989272E+03  0.7818609E-02  0.9719069E-01
       -1   -1    0    0    0  501  0.00000000000E+00  0.00000000000E+00  0.80366908824E+03  0.80366908826E+03  0.50400001928E-02 0. -1.
        1   -1    0    0  501    0  0.00000000000E+00  0.00000000000E+00 -0.15195907041E+03  0.15195907050E+03  0.50400001928E-02 0.  1.
    10030    2    1    2    0    0  0.00000000000E+00  0.00000000000E+00  0.65171001783E+03  0.95562815876E+03  0.69892719969E+03 0.  0.
        4    1    3    3  502    0 -0.25133440013E+03  0.46385077762E+02 -0.12643057973E-01  0.25558202047E+03  0.12699999809E+01 0.  1.
       -4    1    3    3    0  502  0.25133440013E+03 -0.46385077762E+02  0.65172266089E+03  0.70004613829E+03  0.12699999809E+01 0. -1.
</event>
<event>
 5   0  0.5023894E-03  0.6799035E+03  0.7818609E-02  0.9752231E-01
        2   -1    0    0  501    0  0.00000000000E+00  0.00000000000E+00  0.95056307736E+03  0.95056307736E+03  0.25500000920E-02 0. -1.
       -2   -1    0    0    0  501  0.00000000000E+00  0.00000000000E+00 -0.12157762079E+03  0.12157762082E+03  0.25500000920E-02 0.  1.
    10030    2    1    2    0    0  0.00000000000E+00  0.00000000000E+00  0.82898545656E+03  0.10721406982E+04  0.67990351485E+03 0.  0.
        2    1    3    3  502    0 -0.18164592048E+02 -0.31798278993E+03  0.22708552680E+03  0.39116600515E+03  0.25500000920E-02 0. -1.
       -2    1    3    3    0  502  0.18164592048E+02  0.31798278993E+03  0.60189992977E+03  0.68097469304E+03  0.25500000920E-02 0.  1.
</event>
<event>
 5   0  0.5113683E-03  0.7003296E+03  0.7818609E-02  0.9716669E-01
       -2   -1    0    0    0  501  0.00000000000E+00  0.00000000000E+00  0.84709735911E+02  0.84709735950E+02  0.25500000920E-02 0.  1.
        2   -1    0    0  501    0  0.00000000000E+00  0.00000000000E+00 -0.14474770627E+04  0.14474770627E+04  0.25500000920E-02 0. -1.
    10030    2    1    2    0    0  0.00000000000E+00  0.00000000000E+00 -0.13627673268E+04  0.15321867986E+04  0.70032963595E+03 0.  0.
        3    1    3    3  502    0 -0.12347166421E+03  0.53515339309E+02 -0.13886456806E+04  0.13951508807E+04  0.10100000352E+00 0. -1.
       -3    1    3    3    0  502  0.12347166421E+03 -0.53515339309E+02  0.25878353855E+02  0.13703591793E+03  0.10100000352E+00 0.  1.
</event>
<event>
 5   0  0.2913582E-03  0.7004412E+03  0.7818609E-02  0.9716478E-01
        1   -1    0    0  501    0  0.00000000000E+00  0.00000000000E+00  0.34460675430E+03  0.34460675433E+03  0.50400001928E-02 0. -1.
       -1   -1    0    0    0  501  0.00000000000E+00  0.00000000000E+00 -0.35592584980E+03  0.35592584984E+03  0.50400001928E-02 0.  1.
    10030    2    1    2    0    0  0.00000000000E+00  0.00000000000E+00 -0.11319095504E+02  0.70053260417E+03  0.70044115212E+03 0.  0.
        1    1    3    3  502    0 -0.15875235343E+03  0.18022197639E+03 -0.26058924095E+03  0.35438541592E+03  0.50400001928E-02 0.  1.
       -1    1    3    3    0  502  0.15875235343E+03 -0.18022197639E+03  0.24927014545E+03  0.34614718825E+03  0.50400001928E-02 0. -1.
</event>
<event>
 5   0  0.5113683E-03  0.6974477E+03  0.7818609E-02  0.9721607E-01
        2   -1    0    0  501    0  0.00000000000E+00  0.00000000000E+00  0.92501926241E+03  0.92501926241E+03  0.25500000920E-02 0.  1.
       -2   -1    0    0    0  501  0.00000000000E+00  0.00000000000E+00 -0.13146571636E+03  0.13146571639E+03  0.25500000920E-02 0. -1.
    10030    2    1    2    0    0  0.00000000000E+00  0.00000000000E+00  0.79355354605E+03  0.10564849788E+04  0.69744768978E+03 0.  0.
        3    1    3    3  502    0  0.28848638236E+03  0.18523082334E+03  0.49345604359E+03  0.60086082238E+03  0.10100000352E+00 0.  1.
       -3    1    3    3    0  502 -0.28848638236E+03 -0.18523082334E+03  0.30009750246E+03  0.45562415641E+03  0.10100000352E+00 0. -1.
</event>
<event>
 5   0  0.2938783E-03  0.6994781E+03  0.7818609E-02  0.9718125E-01
       -1   -1    0    0    0  501  0.00000000000E+00  0.00000000000E+00  0.25107376367E+03  0.25107376372E+03  0.50400001928E-02 0. -1.
        1   -1    0    0  501    0  0.00000000000E+00  0.00000000000E+00 -0.48717710423E+03  0.48717710426E+03  0.50400001928E-02 0.  1.
    10030    2    1    2    0    0  0.00000000000E+00  0.00000000000E+00 -0.23610334056E+03  0.73825086798E+03  0.69947806017E+03 0.  0.
        4    1    3    3  502    0  0.18341232453E+02 -0.79005141857E+02 -0.47711167816E+03  0.48395803494E+03  0.12699999809E+01 0.  1.
       -4    1    3    3    0  502 -0.18341232453E+02  0.79005141857E+02  0.24100833760E+03  0.25429283305E+03  0.12699999809E+01 0. -1.
</event>
<event>
 5   0  0.5076796E-03  0.7001279E+03  0.7818609E-02  0.9717013E-01
        2   -1    0    0  501    0  0.00000000000E+00  0.00000000000E+00  0.83715035357E+03  0.83715035358E+03  0.25500000920E-02 0. -1.
       -2   -1    0    0    0  501  0.00000000000E+00  0.00000000000E+00 -0.14638323945E+03  0.14638323948E+03  0.25500000920E-02 0.  1.
    10030    2    1    2    0    0  0.00000000000E+00  0.00000000000E+00  0.69076711412E+03  0.98353359305E+03  0.70012793310E+03 0.  0.
        5    1    3    3  502    0 -0.13649068402E+03 -0.25498852904E+03  0.62235849923E+03  0.68629516122E+03  0.46999998093E+01 0. -1.
       -5    1    3    3    0  502  0.13649068402E+03  0.25498852904E+03  0.68408614893E+02  0.29723843183E+03  0.46999998093E+01 0.  1.
</event>
<event>
 5   0  0.2937617E-03  0.6998579E+03  0.7818609E-02  0.9717475E-01
        1   -1    0    0  501    0  0.00000000000E+00  0.00000000000E+00  0.40793662526E+03  0.40793662529E+03  0.50400001928E-02 0.  1.
       -1   -1    0    0    0  501  0.00000000000E+00  0.00000000000E+00 -0.30016980321E+03  0.30016980326E+03  0.50400001928E-02 0. -1.
    10030    2    1    2    0    0  0.00000000000E+00  0.00000000000E+00  0.10776682205E+03  0.70810642855E+03  0.69985786144E+03 0.  0.
        3    1    3    3  502    0  0.17578256259E+03 -0.11110749820E+03  0.33863578346E+03  0.39738971993E+03  0.10100000352E+00 0.  1.
       -3    1    3    3    0  502 -0.17578256259E+03  0.11110749820E+03 -0.23086896141E+03  0.31071670861E+03  0.10100000352E+00 0. -1.
</event>
<event>
 5   0  0.5023894E-03  0.7020411E+03  0.7818609E-02  0.9713748E-01
        2   -1    0    0  501    0  0.00000000000E+00  0.00000000000E+00  0.28994587728E+03  0.28994587729E+03  0.25500000920E-02 0. -1.
       -2   -1    0    0    0  501  0.00000000000E+00  0.00000000000E+00 -0.42496009905E+03  0.42496009905E+03  0.25500000920E-02 0.  1.
    10030    2    1    2    0    0  0.00000000000E+00  0.00000000000E+00 -0.13501422176E+03  0.71490597635E+03  0.70204110630E+03 0.  0.
        2    1    3    3  502    0 -0.10260099057E+03 -0.11432391673E+03  0.25390068100E+03  0.29675322579E+03  0.25500000920E-02 0. -1.
       -2    1    3    3    0  502  0.10260099057E+03  0.11432391673E+03 -0.38891490276E+03  0.41815275055E+03  0.25500000920E-02 0.  1.
</event>
<event>
 5   0  0.2934483E-03  0.6992063E+03  0.7818609E-02  0.9718591E-01
        1   -1    0    0  501    0  0.00000000000E+00  0.00000000000E+00  0.23121494117E+03  0.23121494123E+03  0.50400001928E-02 0.  1.
       -1   -1    0    0    0  501  0.00000000000E+00  0.00000000000E+00 -0.52860920465E+03  0.52860920468E+03  0.50400001928E-02 0. -1.
    10030    2    1    2    0    0  0.00000000000E+00  0.00000000000E+00 -0.29739426348E+03  0.75982414590E+03  0.69920625337E+03 0.  0.
        5    1    3    3  502    0  0.34304998569E+03  0.63405701591E+02 -0.12447868165E+03  0.37043300050E+03  0.46999998093E+01 0.  1.
       -5    1    3    3    0  502 -0.34304998569E+03 -0.63405701591E+02 -0.17291558183E+03  0.38939114540E+03  0.46999998093E+01 0. -1.
</event>
<event>
 5   0  0.3013140E-03  0.7038158E+03  0.7818609E-02  0.9710729E-01
        1   -1    0    0  501    0  0.00000000000E+00  0.00000000000E+00  0.29615923346E+03  0.29615923351E+03  0.50400001928E-02 0.  1.
       -1   -1    0    0    0  501  0.00000000000E+00  0.00000000000E+00 -0.41815059449E+03  0.41815059452E+03  0.50400001928E-02 0. -1.
    10030    2    1    2    0    0  0.00000000000E+00  0.00000000000E+00 -0.12199136102E+03  0.71430982802E+03  0.70381577010E+03 0.  0.
        2    1    3    3  502    0 -0.29250166812E+03 -0.32266881412E+01 -0.25954367278E+03  0.39106336502E+03  0.25500000920E-02 0. -1.
       -2    1    3    3    0  502  0.29250166812E+03  0.32266881412E+01  0.13755231176E+03  0.32324646301E+03  0.25500000920E-02 0.  1.
</event>
<event>
 5   0  0.2934483E-03  0.7008615E+03  0.7818609E-02  0.9715760E-01
       -1   -1    0    0    0  501  0.00000000000E+00  0.00000000000E+00  0.24959921023E+03  0.24959921028E+03  0.50400001928E-02 0.  1.
        1   -1    0    0  501    0  0.00000000000E+00  0.00000000000E+00 -0.49199561864E+03  0.49199561866E+03  0.50400001928E-02 0. -1.
    10030    2    1    2    0    0  0.00000000000E+00  0.00000000000E+00 -0.24239640841E+03  0.74159482895E+03  0.70086152092E+03 0.  0.
        5    1    3    3  502    0 -0.63731866956E+02 -0.33219638074E+03 -0.21796514054E+03  0.40242648860E+03  0.46999998093E+01 0.  1.
       -5    1    3    3    0  502  0.63731866956E+02  0.33219638074E+03 -0.24431267868E+02  0.33916834034E+03  0.46999998093E+01 0. -1.
</event>
<event>
 5   0  0.5076796E-03  0.7003664E+03  0.7818609E-02  0.9716606E-01
       -2   -1    0    0    0  501  0.00000000000E+00  0.00000000000E+00  0.11096598596E+03  0.11096598599E+03  0.25500000920E-02 0. -1.
        2   -1    0    0  501    0  0.00000000000E+00  0.00000000000E+00 -0.11050977195E+04  0.11050977195E+04  0.25500000920E-02 0.  1.
    10030    2    1    2    0    0  0.00000000000E+00  0.00000000000E+00 -0.99413173354E+03  0.12160637055E+04  0.70036635569E+03 0.  0.
        5    1    3    3  502    0  0.49554188504E+02  0.34223705525E+03 -0.59255346413E+03  0.68609293645E+03  0.46999998093E+01 0.  1.
       -5    1    3    3    0  502 -0.49554188504E+02 -0.34223705525E+03 -0.40157826941E+03  0.52997076905E+03  0.46999998093E+01 0. -1.
</event>
<event>
 5   0  0.2934483E-03  0.7005906E+03  0.7818609E-02  0.9716223E-01
       -1   -1    0    0    0  501  0.00000000000E+00  0.00000000000E+00  0.12670578346E+03  0.12670578356E+03  0.50400001928E-02 0. -1.
        1   -1    0    0  501    0  0.00000000000E+00  0.00000000000E+00 -0.96843884577E+03  0.96843884578E+03  0.50400001928E-02 0.  1.
    10030    2    1    2    0    0  0.00000000000E+00  0.00000000000E+00 -0.84173306231E+03  0.10951446293E+04  0.70059061584E+03 0.  0.
        5    1    3    3  502    0 -0.39558651132E+02  0.40060569838E+02 -0.96127024790E+03  0.96292902938E+03  0.46999998093E+01 0.  1.
       -5    1    3    3    0  502  0.39558651132E+02 -0.40060569838E+02  0.11953718559E+03  0.13221559996E+03  0.46999998093E+01 0. -1.
</event>
<event>
 5   0  0.5072407E-03  0.7023882E+03  0.7818609E-02  0.9713157E-01
        2   -1    0    0  501    0  0.00000000000E+00  0.00000000000E+00  0.24691703770E+03  0.24691703771E+03  0.25500000920E-02 0. -1.
       -2   -1    0    0    0  501  0.00000000000E+00  0.00000000000E+00 -0.49950900335E+03  0.49950900335E+03  0.25500000920E-02 0.  1.
    10030    2    1    2    0    0  0.00000000000E+00  0.00000000000E+00 -0.25259196565E+03  0.74642604106E+03  0.70238816452E+03 0.  0.
        1    1    3    3  502    0 -0.20490824432E+03  0.20465055536E+03  0.84825488998E+02  0.30176912037E+03  0.50400001928E-02 0.  1.
       -1    1    3    3    0  502  0.20490824432E+03 -0.20465055536E+03 -0.33741745465E+03  0.44465692070E+03  0.50400001928E-02 0. -1.
</event>
<event>
 5   0  0.5076796E-03  0.7006124E+03  0.7818609E-02  0.9716185E-01
       -2   -1    0    0    0  501  0.00000000000E+00  0.00000000000E+00  0.95173966844E+03  0.95173966844E+03  0.25500000920E-02 0. -1.
        2   -1    0    0  501    0  0.00000000000E+00  0.00000000000E+00 -0.12893697352E+03  0.12893697354E+03  0.25500000920E-02 0.  1.
    10030    2    1    2    0    0  0.00000000000E+00  0.00000000000E+00  0.82280269492E+03  0.10806766420E+04  0.70061239624E+03 0.  0.
        5    1    3    3  502    0 -0.13806152954E+03  0.22137161092E+03  0.50891183035E+02  0.26585405502E+03  0.46999998093E+01 0.  1.
       -5    1    3    3    0  502  0.13806152954E+03 -0.22137161092E+03  0.77191151188E+03  0.81482258697E+03  0.46999998093E+01 0. -1.
</event>
<event>
 5   0  0.5076796E-03  0.6995728E+03  0.7818609E-02  0.9717963E-01
       -2   -1    0    0    0  501  0.00000000000E+00  0.00000000000E+00  0.78256029815E+02  0.78256029856E+02  0.25500000920E-02 0.  1.
        2   -1    0    0  501    0  0.00000000000E+00  0.00000000000E+00 -0.15634647323E+04  0.15634647323E+04  0.25500000920E-02 0. -1.
    10030    2    1    2    0    0  0.00000000000E+00  0.00000000000E+00 -0.14852087025E+04  0.16417207621E+04  0.69957284893E+03 0.  0.
        5    1    3    3  502    0  0.29024770039E+03 -0.45752527431E+02 -0.11878153699E+04  0.12236275840E+04  0.46999998093E+01 0. -1.
       -5    1    3    3    0  502 -0.29024770039E+03  0.45752527431E+02 -0.29739333254E+03  0.41809317811E+03  0.46999998093E+01 0.  1.
</event>
<event>
 5   0  0.2937617E-03  0.7025239E+03  0.7818609E-02  0.9712926E-01
        1   -1    0    0  501    0  0.00000000000E+00  0.00000000000E+00  0.59831509075E+03  0.59831509077E+03  0.50400001928E-02 0.  1.
       -1   -1    0    0    0  501  0.00000000000E+00  0.00000000000E+00 -0.20622069933E+03  0.20622069939E+03  0.50400001928E-02 0. -1.
    10030    2    1    2    0    0  0.00000000000E+00  0.00000000000E+00  0.39209439142E+03  0.80453579017E+03  0.70252389701E+03 0.  0.
        3    1    3    3  502    0 -0.12695615635E+03 -0.29551318162E+03  0.35775701453E+03  0.48107795397E+03  0.10100000352E+00 0.  1.
       -3    1    3    3    0  502  0.12695615635E+03  0.29551318162E+03  0.34337376889E+02  0.32345783620E+03  0.10100000352E+00 0. -1.
</event>
<event>
 5   0  0.2934483E-03  0.7016159E+03  0.7818609E-02  0.9714473E-01
       -1   -1    0    0    0  501  0.00000000000E+00  0.00000000000E+00  0.79367700855E+02  0.79367701015E+02  0.50400001928E-02 0.  1.
        1   -1    0    0  501    0  0.00000000000E+00  0.00000000000E+00 -0.15505833071E+04  0.15505833071E+04  0.50400001928E-02 0. -1.
    10030    2    1    2    0    0  0.00000000000E+00  0.00000000000E+00 -0.14712156062E+04  0.16299510081E+04  0.70161594111E+03 0.  0.
        5    1    3    3  502    0  0.10906832888E+03  0.32590113319E+03 -0.89883524460E+03  0.96230677848E+03  0.46999998093E+01 0. -1.
       -5    1    3    3    0  502 -0.10906832888E+03 -0.32590113319E+03 -0.57238036163E+03  0.66764422963E+03  0.46999998093E+01 0.  1.
</event>
<event>
 5   0  0.5076796E-03  0.7010575E+03  0.7818609E-02  0.9715425E-01
       -2   -1    0    0    0  501  0.00000000000E+00  0.00000000000E+00  0.11354129482E+03  0.11354129485E+03  0.25500000920E-02 0.  1.
        2   -1    0    0  501    0  0.00000000000E+00  0.00000000000E+00 -0.10821649614E+04  0.10821649614E+04  0.25500000920E-02 0. -1.
    10030    2    1    2    0    0  0.00000000000E+00  0.00000000000E+00 -0.96862366660E+03  0.11957062563E+04  0.70105751819E+03 0.  0.
        5    1    3    3  502    0  0.25808445790E+03  0.19562211823E+03 -0.71296528385E+03  0.78308185174E+03  0.46999998093E+01 0. -1.
       -5    1    3    3    0  502 -0.25808445790E+03 -0.19562211823E+03 -0.25565838276E+03  0.41262440454E+03  0.46999998093E+01 0.  1.
</event>
<event>
 5   0  0.3013140E-03  0.6982487E+03  0.7818609E-02  0.9720232E-01
        1   -1    0    0  501    0  0.00000000000E+00  0.00000000000E+00  0.86481061640E+02  0.86481061787E+02  0.50400001928E-02 0. -1.
       -1   -1    0    0    0  501  0.00000000000E+00  0.00000000000E+00 -0.14094161153E+04  0.14094161153E+04  0.50400001928E-02 0.  1.
    10030    2    1    2    0    0  0.00000000000E+00  0.00000000000E+00 -0.13229350537E+04  0.14958971771E+04  0.69824867221E+03 0.  0.
        2    1    3    3  502    0 -0.34884945461E+03 -0.10061433175E+02 -0.68186244414E+03  0.76598535701E+03  0.25500000920E-02 0.  1.
       -2    1    3    3    0  502  0.34884945461E+03  0.10061433175E+02 -0.64107260954E+03  0.72991182010E+03  0.25500000920E-02 0. -1.
</event>
<event>
 5   0  0.5072407E-03  0.7003684E+03  0.7818609E-02  0.9716602E-01
        2   -1    0    0  501    0  0.00000000000E+00  0.00000000000E+00  0.34790705963E+03  0.34790705964E+03  0.25500000920E-02 0. -1.
       -2   -1    0    0    0  501  0.00000000000E+00  0.00000000000E+00 -0.35247620650E+03  0.35247620651E+03  0.25500000920E-02 0.  1.
    10030    2    1    2    0    0  0.00000000000E+00  0.00000000000E+00 -0.45691468647E+01  0.70038326615E+03  0.70036836193E+03 0.  0.
        1    1    3    3  502    0 -0.18848480134E+03 -0.22018443481E+03  0.19424252058E+03  0.34890953340E+03  0.50400001928E-02 0. -1.
       -1    1    3    3    0  502  0.18848480134E+03  0.22018443481E+03 -0.19881166745E+03  0.35147373275E+03  0.50400001928E-02 0.  1.
</event>
<event>
 5   0  0.2934483E-03  0.7011385E+03  0.7818609E-02  0.9715287E-01
       -1   -1    0    0    0  501  0.00000000000E+00  0.00000000000E+00  0.15861333054E+03  0.15861333062E+03  0.50400001928E-02 0.  1.
        1   -1    0    0  501    0  0.00000000000E+00  0.00000000000E+00 -0.77483277780E+03  0.77483277781E+03  0.50400001928E-02 0. -1.
    10030    2    1    2    0    0  0.00000000000E+00  0.00000000000E+00 -0.61621944726E+03  0.93344610843E+03  0.70113852423E+03 0.  0.
        5    1    3    3  502    0 -0.19348518363E+03  0.91538487647E+02 -0.67768463049E+03  0.71069990812E+03  0.46999998093E+01 0. -1.
       -5    1    3    3    0  502  0.19348518363E+03 -0.91538487647E+02  0.61465183227E+02  0.22274620031E+03  0.46999998093E+01 0.  1.
</event>
<event>
 5   0  0.2913582E-03  0.7029841E+03  0.7818609E-02  0.9712142E-01
       -1   -1    0    0    0  501  0.00000000000E+00  0.00000000000E+00  0.32707954647E+03  0.32707954651E+03  0.50400001928E-02 0. -1.
        1   -1    0    0  501    0  0.00000000000E+00  0.00000000000E+00 -0.37772669293E+03  0.37772669296E+03  0.50400001928E-02 0.  1.
    10030    2    1    2    0    0  0.00000000000E+00  0.00000000000E+00 -0.50647146458E+02  0.70480623947E+03  0.70298414047E+03 0.  0.
        1    1    3    3  502    0  0.38065781212E+02 -0.33417142947E+03 -0.12770155257E+03  0.35975996794E+03  0.50400001928E-02 0.  1.
       -1    1    3    3    0  502 -0.38065781212E+02  0.33417142947E+03  0.77054406113E+02  0.34504627154E+03  0.50400001928E-02 0. -1.
</event>
<event>
 5   0  0.2913582E-03  0.6995578E+03  0.7818609E-02  0.9717989E-01
       -1   -1    0    0    0  501  0.00000000000E+00  0.00000000000E+00  0.81808093042E+02  0.81808093197E+02  0.50400001928E-02 0. -1.
        1   -1    0    0  501    0  0.00000000000E+00  0.00000000000E+00 -0.14955155852E+04  0.14955155852E+04  0.50400001928E-02 0.  1.
    10030    2    1    2    0    0  0.00000000000E+00  0.00000000000E+00 -0.14137074921E+04  0.15773236784E+04  0.69955779823E+03 0.  0.
        1    1    3    3  502    0 -0.22319243741E+03 -0.20176781418E+03 -0.30464785940E+03  0.42817687142E+03  0.50400001928E-02 0. -1.
       -1    1    3    3    0  502  0.22319243741E+03  0.20176781418E+03 -0.11090596327E+04  0.11491468070E+04  0.50400001928E-02 0.  1.
</event>
<event>
 5   0  0.2938783E-03  0.7019375E+03  0.7818609E-02  0.9713925E-01
       -1   -1    0    0    0  501  0.00000000000E+00  0.00000000000E+00  0.54040701462E+03  0.54040701464E+03  0.50400001928E-02 0. -1.
        1   -1    0    0  501    0  0.00000000000E+00  0.00000000000E+00 -0.22793758370E+03  0.22793758376E+03  0.50400001928E-02 0.  1.
    10030    2    1    2    0    0  0.00000000000E+00  0.00000000000E+00  0.31246943091E+03  0.76834459840E+03  0.70193751619E+03 0.  0.
        4    1    3    3  502    0 -0.17544474521E+03 -0.19815738682E+03 -0.96071824643E+02  0.28156458755E+03  0.12699999809E+01 0. -1.
       -4    1    3    3    0  502  0.17544474521E+03  0.19815738682E+03  0.40854125556E+03  0.48678001085E+03  0.12699999809E+01 0.  1.
</event>
<event>
 5   0  0.4878235E-03  0.6994516E+03  0.7818609E-02  0.9718170E-01
        2   -1    0    0  501    0  0.00000000000E+00  0.00000000000E+00  0.99660057349E+03  0.99660057349E+03  0.25500000920E-02 0. -1.
       -2   -1    0    0    0  501  0.00000000000E+00  0.00000000000E+00 -0.12272533777E+03  0.12272533780E+03  0.25500000920E-02 0.  1.
    10030    2    1    2    0    0  0.00000000000E+00  0.00000000000E+00  0.87387523572E+03  0.11193259113E+04  0.69945161955E+03 0.  0.
        4    1    3    3  502    0 -0.30912501991E+03  0.61018479371E+02  0.67976556166E+03  0.74924252715E+03  0.12699999809E+01 0. -1.
       -4    1    3    3    0  502  0.30912501991E+03 -0.61018479371E+02  0.19410967405E+03  0.37008338415E+03  0.12699999809E+01 0.  1.
</event>
<event>
 5   0  0.5113683E-03  0.6997742E+03  0.7818609E-02  0.9717618E-01
       -2   -1    0    0    0  501  0.00000000000E+00  0.00000000000E+00  0.10036594499E+03  0.10036594503E+03  0.25500000920E-02 0. -1.
        2   -1    0    0  501    0  0.00000000000E+00  0.00000000000E+00 -0.12197462495E+04  0.12197462495E+04  0.25500000920E-02 0.  1.
    10030    2    1    2    0    0  0.00000000000E+00  0.00000000000E+00 -0.11193803045E+04  0.13201121945E+04  0.69977420646E+03 0.  0.
        3    1    3    3  502    0 -0.19172097969E+03 -0.20654633925E+03 -0.95089166423E+03  0.99177280242E+03  0.10100000352E+00 0.  1.
       -3    1    3    3    0  502  0.19172097969E+03  0.20654633925E+03 -0.16848864028E+03  0.32833939211E+03  0.10100000352E+00 0. -1.
</event>
<event>
 5   0  0.2938783E-03  0.6998650E+03  0.7818609E-02  0.9717463E-01
        1   -1    0    0  501    0  0.00000000000E+00  0.00000000000E+00  0.11321347203E+04  0.11321347203E+04  0.50400001928E-02 0.  1.
       -1   -1    0    0    0  501  0.00000000000E+00  0.00000000000E+00 -0.10816094722E+03  0.10816094734E+03  0.50400001928E-02 0. -1.
    10030    2    1    2    0    0  0.00000000000E+00  0.00000000000E+00  0.10239737731E+04  0.12402956677E+04  0.69986502643E+03 0.  0.
        4    1    3    3  502    0  0.26184296297E+03  0.21700270517E+03  0.36585630656E+03  0.49950411535E+03  0.12699999809E+01 0.  1.
       -4    1    3    3    0  502 -0.26184296297E+03 -0.21700270517E+03  0.65811746653E+03  0.74079155230E+03  0.12699999809E+01 0. -1.
</event>
<event>
 5   0  0.5076796E-03  0.6999184E+03  0.7818609E-02  0.9717372E-01
        2   -1    0    0  501    0  0.00000000000E+00  0.00000000000E+00  0.15109899587E+04  0.15109899587E+04  0.25500000920E-02 0.  1.
       -2   -1    0    0    0  501  0.00000000000E+00  0.00000000000E+00 -0.81053771848E+02  0.81053771888E+02  0.25500000920E-02 0. -1.
    10030    2    1    2    0    0  0.00000000000E+00  0.00000000000E+00  0.14299361868E+04  0.15920437306E+04  0.69991838213E+03 0.  0.
        5    1    3    3  502    0 -0.89613356555E+02  0.26820201876E+03  0.24611918200E+03  0.37491281425E+03  0.46999998093E+01 0. -1.
       -5    1    3    3    0  502  0.89613356555E+02 -0.26820201876E+03  0.11838170048E+04  0.12171309163E+04  0.46999998093E+01 0.  1.
</event>
<event>
 5   0  0.5113683E-03  0.7022280E+03  0.7818609E-02  0.9713430E-01
       -2   -1    0    0    0  501  0.00000000000E+00  0.00000000000E+00  0.11735262192E+03  0.11735262195E+03  0.25500000920E-02 0. -1.
        2   -1    0    0  501    0  0.00000000000E+00  0.00000000000E+00 -0.10505180416E+04  0.10505180416E+04  0.25500000920E-02 0.  1.
    10030    2    1    2    0    0  0.00000000000E+00  0.00000000000E+00 -0.93316541970E+03  0.11678706636E+04  0.70222801590E+03 0.  0.
        3    1    3    3  502    0 -0.13280182166E+03  0.21676881480E+02 -0.10059349627E+04  0.10148947583E+04  0.10100000352E+00 0.  1.
       -3    1    3    3    0  502  0.13280182166E+03 -0.21676881480E+02  0.72769542960E+02  0.15297590532E+03  0.10100000352E+00 0. -1.
</event>
<event>
 5   0  0.4878235E-03  0.7000907E+03  0.7818609E-02  0.9717077E-01
       -2   -1    0    0    0  501  0.00000000000E+00  0.00000000000E+00  0.17937365062E+03  0.17937365063E+03  0.25500000920E-02 0.  1.
        2   -1    0    0  501    0  0.00000000000E+00  0.00000000000E+00 -0.68310889765E+03  0.68310889765E+03  0.25500000920E-02 0. -1.
    10030    2    1    2    0    0  0.00000000000E+00  0.00000000000E+00 -0.50373524703E+03  0.86248254828E+03  0.70009067055E+03 0.  0.
        4    1    3    3  502    0  0.27767847685E+03  0.19543397018E+03 -0.35662285132E+03  0.49242384608E+03  0.12699999809E+01 0. -1.
       -4    1    3    3    0  502 -0.27767847685E+03 -0.19543397018E+03 -0.14711239571E+03  0.37005870221E+03  0.12699999809E+01 0.  1.
</event>
<event>
 5   0  0.5023894E-03  0.6999233E+03  0.7818609E-02  0.9717363E-01
       -2   -1    0    0    0  501  0.00000000000E+00  0.00000000000E+00  0.17994978544E+03  0.17994978546E+03  0.25500000920E-02 0.  1.
        2   -1    0    0  501    0  0.00000000000E+00  0.00000000000E+00 -0.68059633550E+03  0.68059633550E+03  0.25500000920E-02 0. -1.
    10030    2    1    2    0    0  0.00000000000E+00  0.00000000000E+00 -0.50064655006E+03  0.86054612096E+03  0.69992332310E+03 0.  0.
        2    1    3    3  502    0  0.21097223087E+03 -0.24346100742E+03 -0.41841082317E+03  0.52806264902E+03  0.25500000920E-02 0. -1.
       -2    1    3    3    0  502 -0.21097223087E+03  0.24346100742E+03 -0.82235726886E+02  0.33248347195E+03  0.25500000920E-02 0.  1.
</event>
<event>
 5   0  0.5023894E-03  0.6993661E+03  0.7818609E-02  0.9718317E-01
       -2   -1    0    0    0  501  0.00000000000E+00  0.00000000000E+00  0.71220980562E+02  0.71220980607E+02  0.25500000920E-02 0. -1.
        2   -1    0    0  501    0  0.00000000000E+00  0.00000000000E+00 -0.17168852537E+04  0.17168852537E+04  0.25500000920E-02 0.  1.
    10030    2    1    2    0    0  0.00000000000E+00  0.00000000000E+00 -0.16456642731E+04  0.17881062343E+04  0.69936614537E+03 0.  0.
        2    1    3    3  502    0  0.33187363959E+03  0.28934264520E+02 -0.10946300580E+04  0.11441994005E+04  0.25500000920E-02 0.  1.
       -2    1    3    3    0  502 -0.33187363959E+03 -0.28934264520E+02 -0.55103421515E+03  0.64390683378E+03  0.25500000920E-02 0. -1.
</event>
<event>
 5   0  0.5023894E-03  0.7010097E+03  0.7818609E-02  0.9715507E-01
       -2   -1    0    0    0  501  0.00000000000E+00  0.00000000000E+00  0.26905370138E+03  0.26905370140E+03  0.25500000920E-02 0.  1.
        2   -1    0    0  501    0  0.00000000000E+00  0.00000000000E+00 -0.45661388489E+03  0.45661388490E+03  0.25500000920E-02 0. -1.
    10030    2    1    2    0    0  0.00000000000E+00  0.00000000000E+00 -0.18756018351E+03  0.72566758629E+03  0.70100971702E+03 0.  0.
        2    1    3    3  502    0  0.65894347550E+01 -0.20787199733E+03 -0.38583786459E+03  0.43832071099E+03  0.25500000920E-02 0. -1.
       -2    1    3    3    0  502 -0.65894347550E+01  0.20787199733E+03  0.19827768109E+03  0.28734687530E+03  0.25500000920E-02 0.  1.
</event>
<event>
 5   0  0.5113683E-03  0.6999301E+03  0.7818609E-02  0.9717352E-01
       -2   -1    0    0    0  501  0.00000000000E+00  0.00000000000E+00  0.79430786708E+03  0.79430786708E+03  0.25500000920E-02 0. -1.
        2   -1    0    0  501    0  0.00000000000E+00  0.00000000000E+00 -0.15419152907E+03  0.15419152909E+03  0.25500000920E-02 0.  1.
    10030    2    1    2    0    0  0.00000000000E+00  0.00000000000E+00  0.64011633801E+03  0.94849939617E+03  0.69993012390E+03 0.  0.
        3    1    3    3  502    0 -0.53341045600E+02  0.32199958644E+03  0.14893235805E+03  0.35876156188E+03  0.10100000352E+00 0.  1.
       -3    1    3    3    0  502  0.53341045600E+02 -0.32199958644E+03  0.49118397997E+03  0.58973783428E+03  0.10100000352E+00 0. -1.
</event>
<event>
 5   0  0.4878235E-03  0.6998456E+03  0.7818609E-02  0.9717496E-01
        2   -1    0    0  501    0  0.00000000000E+00  0.00000000000E+00  0.16183478066E+03  0.16183478068E+03  0.25500000920E-02 0.  1.
       -2   -1    0    0    0  501  0.00000000000E+00  0.00000000000E+00 -0.75661101887E+03  0.75661101887E+03  0.25500000920E-02 0. -1.
    10030    2    1    2    0    0  0.00000000000E+00  0.00000000000E+00 -0.59477623821E+03  0.91844579956E+03  0.69984563526E+03 0.  0.
        4    1    3    3  502    0 -0.68509332997E+02 -0.54175415032E+02 -0.74207285018E+03  0.74719624743E+03  0.12699999809E+01 0. -1.
       -4    1    3    3    0  502  0.68509332997E+02  0.54175415032E+02  0.14729661198E+03  0.17124955212E+03  0.12699999809E+01 0.  1.
</event>
<event>
 5   0  0.5072407E-03  0.6998965E+03  0.7818609E-02  0.9717409E-01
        2   -1    0    0  501    0  0.00000000000E+00  0.00000000000E+00  0.25208043009E+04  0.25208043009E+04  0.25500000920E-02 0.  1.
       -2   -1    0    0    0  501  0.00000000000E+00  0.00000000000E+00 -0.48581227556E+02  0.48581227623E+02  0.25500000920E-02 0. -1.
    10030    2    1    2    0    0  0.00000000000E+00  0.00000000000E+00  0.24722230734E+04  0.25693855285E+04  0.69989647079E+03 0.  0.
        1    1    3    3  502    0  0.20071961258E+03  0.19666075789E+03  0.47044467107E+03  0.54797993132E+03  0.50400001928E-02 0. -1.
       -1    1    3    3    0  502 -0.20071961258E+03 -0.19666075789E+03  0.20017784023E+04  0.20214055972E+04  0.50400001928E-02 0.  1.
</event>
<event>
 5   0  0.2913582E-03  0.6994021E+03  0.7818609E-02  0.9718255E-01
       -1   -1    0    0    0  501  0.00000000000E+00  0.00000000000E+00  0.50101008031E+03  0.50101008033E+03  0.50400001928E-02 0. -1.
        1   -1    0    0  501    0  0.00000000000E+00  0.00000000000E+00 -0.24408853878E+03  0.24408853884E+03  0.50400001928E-02 0.  1.
    10030    2    1    2    0    0  0.00000000000E+00  0.00000000000E+00  0.25692154152E+03  0.74509861917E+03  0.69940208306E+03 0.  0.
        1    1    3    3  502    0  0.81519169767E+02 -0.17918595994E+02 -0.23332158088E+03  0.24780115264E+03  0.50400001928E-02 0.  1.
       -1    1    3    3    0  502 -0.81519169767E+02  0.17918595994E+02  0.49024312241E+03  0.49729746653E+03  0.50400001928E-02 0. -1.
</event>
<event>
 5   0  0.2937617E-03  0.7009255E+03  0.7818609E-02  0.9715651E-01
       -1   -1    0    0    0  501  0.00000000000E+00  0.00000000000E+00  0.48860776250E+03  0.48860776253E+03  0.50400001928E-02 0.  1.
        1   -1    0    0  501    0  0.00000000000E+00  0.00000000000E+00 -0.25137577728E+03  0.25137577733E+03  0.50400001928E-02 0. -1.
    10030    2    1    2    0    0  0.00000000000E+00  0.00000000000E+00  0.23723198522E+03  0.73998353986E+03  0.70092554844E+03 0.  0.
        3    1    3    3  502    0  0.33243082074E+03 -0.84598854006E+02  0.19442935446E+03  0.39429684345E+03  0.10100000352E+00 0.  1.
       -3    1    3    3    0  502 -0.33243082074E+03  0.84598854006E+02  0.42802630758E+02  0.34568669641E+03  0.10100000352E+00 0. -1.
</event>
<event>
 5   0  0.2913582E-03  0.7008227E+03  0.7818609E-02  0.9715826E-01
        1   -1    0    0  501    0  0.00000000000E+00  0.00000000000E+00  0.16961093137E+04  0.16961093137E+04  0.50400001928E-02 0.  1.
       -1   -1    0    0    0  501  0.00000000000E+00  0.00000000000E+00 -0.72393979773E+02  0.72393979948E+02  0.50400001928E-02 0. -1.
    10030    2    1    2    0    0  0.00000000000E+00  0.00000000000E+00  0.16237153340E+04  0.17685032937E+04  0.70082266948E+03 0.  0.
        1    1    3    3  502    0 -0.14684221635E+03  0.76169982618E+02  0.32340593830E+02  0.16855389877E+03  0.50400001928E-02 0. -1.
       -1    1    3    3    0  502  0.14684221635E+03 -0.76169982618E+02  0.15913747401E+04  0.15999493949E+04  0.50400001928E-02 0.  1.
</event>
<event>
 5   0  0.4878235E-03  0.7003213E+03  0.7818609E-02  0.9716683E-01
        2   -1    0    0  501    0  0.00000000000E+00  0.00000000000E+00  0.10440592190E+04  0.10440592190E+04  0.25500000920E-02 0. -1.
       -2   -1    0    0    0  501  0.00000000000E+00  0.00000000000E+00 -0.11743823586E+03  0.11743823589E+03  0.25500000920E-02 0.  1.
    10030    2    1    2    0    0  0.00000000000E+00  0.00000000000E+00  0.92662098317E+03  0.11614974549E+04  0.70032127723E+03 0.  0.
        4    1    3    3  502    0  0.18535297199E+03 -0.26759525692E+03  0.67730412633E+03  0.75146885378E+03  0.12699999809E+01 0. -1.
       -4    1    3    3    0  502 -0.18535297199E+03  0.26759525692E+03  0.24931685684E+03  0.41002860115E+03  0.12699999809E+01 0.  1.
</event>
<event>
 5   0  0.5023894E-03  0.7006108E+03  0.7818609E-02  0.9716188E-01
        2   -1    0    0  501    0  0.00000000000E+00  0.00000000000E+00  0.65220713791E+03  0.65220713792E+03  0.25500000920E-02 0.  1.
       -2   -1    0    0    0  501  0.00000000000E+00  0.00000000000E+00 -0.18815166368E+03  0.18815166370E+03  0.25500000920E-02 0. -1.
    10030    2    1    2    0    0  0.00000000000E+00  0.00000000000E+00  0.46405547423E+03  0.84035880162E+03  0.70061075662E+03 0.  0.
        2    1    3    3  502    0  0.12335329551E+03 -0.25586090794E+03  0.47794172967E+03  0.55597584182E+03  0.25500000920E-02 0.  1.
       -2    1    3    3    0  502 -0.12335329551E+03  0.25586090794E+03 -0.13886255437E+02  0.28438295980E+03  0.25500000920E-02 0. -1.
</event>
<event>
 5   0  0.5023894E-03  0.7000247E+03  0.7818609E-02  0.9717190E-01
       -2   -1    0    0    0  501  0.00000000000E+00  0.00000000000E+00  0.19873815172E+03  0.19873815174E+03  0.25500000920E-02 0. -1.
        2   -1    0    0  501    0  0.00000000000E+00  0.00000000000E+00 -0.61643248317E+03  0.61643248317E+03  0.25500000920E-02 0.  1.
    10030    2    1    2    0    0  0.00000000000E+00  0.00000000000E+00 -0.41769433144E+03  0.81517063491E+03  0.70002472064E+03 0.  0.
        2    1    3    3  502    0 -0.19029809060E+03  0.14576274168E+03 -0.50584537692E+03  0.55976752809E+03  0.25500000920E-02 0.  1.
       -2    1    3    3    0  502  0.19029809060E+03 -0.14576274168E+03  0.88151045476E+02  0.25540310682E+03  0.25500000920E-02 0. -1.
</event>
<event>
 5   0  0.5072407E-03  0.6996392E+03  0.7818609E-02  0.9717849E-01
       -2   -1    0    0    0  501  0.00000000000E+00  0.00000000000E+00  0.58843306382E+03  0.58843306383E+03  0.25500000920E-02 0. -1.
        2   -1    0    0  501    0  0.00000000000E+00  0.00000000000E+00 -0.20796543503E+03  0.20796543505E+03  0.25500000920E-02 0.  1.
    10030    2    1    2    0    0  0.00000000000E+00  0.00000000000E+00  0.38046762879E+03  0.79639849887E+03  0.69963915874E+03 0.  0.
        1    1    3    3  502    0 -0.17560836522E+03  0.29997311987E+03  0.23507134250E+03  0.41961971673E+03  0.50400001928E-02 0.  1.
       -1    1    3    3    0  502  0.17560836522E+03 -0.29997311987E+03  0.14539628629E+03  0.37677878214E+03  0.50400001928E-02 0. -1.
</event>
<event>
 5   0  0.5076796E-03  0.7000552E+03  0.7818609E-02  0.9717138E-01
        2   -1    0    0  501    0  0.00000000000E+00  0.00000000000E+00  0.27274925653E+03  0.27274925654E+03  0.25500000920E-02 0. -1.
       -2   -1    0    0    0  501  0.00000000000E+00  0.00000000000E+00 -0.44920125067E+03  0.44920125068E+03  0.25500000920E-02 0.  1.
    10030    2    1    2    0    0  0.00000000000E+00  0.00000000000E+00 -0.17645199414E+03  0.72195050722E+03  0.70005516113E+03 0.  0.
        5    1    3    3  502    0  0.43061913127E+01 -0.25717373880E+03 -0.33301105449E+03  0.42080319345E+03  0.46999998093E+01 0.  1.
       -5    1    3    3    0  502 -0.43061913127E+01  0.25717373880E+03  0.15655906034E+03  0.30114731376E+03  0.46999998093E+01 0. -1.
</event>
<event>
 5   0  0.3013140E-03  0.7020512E+03  0.7818609E-02  0.9713731E-01
       -1   -1    0    0    0  501  0.00000000000E+00  0.00000000000E+00  0.81696398276E+03  0.81696398277E+03  0.50400001928E-02 0. -1.
        1   -1    0    0  501    0  0.00000000000E+00  0.00000000000E+00 -0.15082547725E+03  0.15082547733E+03  0.50400001928E-02 0.  1.
    10030    2    1    2    0    0  0.00000000000E+00  0.00000000000E+00  0.66613850551E+03  0.96778946010E+03  0.70205123073E+03 0.  0.
        2    1    3    3  502    0 -0.12716244426E+03 -0.26297286006E+03  0.60141649599E+03  0.66860063866E+03  0.25500000920E-02 0. -1.
       -2    1    3    3    0  502  0.12716244426E+03  0.26297286006E+03  0.64722009518E+02  0.29918882145E+03  0.25500000920E-02 0.  1.
</event>
<event>
 5   0  0.2937617E-03  0.7005936E+03  0.7818609E-02  0.9716218E-01
       -1   -1    0    0    0  501  0.00000000000E+00  0.00000000000E+00  0.10532453263E+03  0.10532453275E+03  0.50400001928E-02 0.  1.
        1   -1    0    0  501    0  0.00000000000E+00  0.00000000000E+00 -0.11650453293E+04  0.11650453293E+04  0.50400001928E-02 0. -1.
    10030    2    1    2    0    0  0.00000000000E+00  0.00000000000E+00 -0.10597207966E+04  0.12703698620E+04  0.70059361938E+03 0.  0.
        3    1    3    3  502    0 -0.14560338141E+03  0.24858162710E+03 -0.16850087134E+03  0.33374499824E+03  0.10100000352E+00 0.  1.
       -3    1    3    3    0  502  0.14560338141E+03 -0.24858162710E+03 -0.89121992530E+03  0.93662486378E+03  0.10100000352E+00 0. -1.
</event>
<event>
 5   0  0.2913582E-03  0.6998248E+03  0.7818609E-02  0.9717532E-01
        1   -1    0    0  501    0  0.00000000000E+00  0.00000000000E+00  0.69870888326E+03  0.69870888328E+03  0.50400001928E-02 0. -1.
       -1   -1    0    0    0  501  0.00000000000E+00  0.00000000000E+00 -0.17523560175E+03  0.17523560182E+03  0.50400001928E-02 0.  1.
    10030    2    1    2    0    0  0.00000000000E+00  0.00000000000E+00  0.52347328152E+03  0.87394448510E+03  0.69982475419E+03 0.  0.
        1    1    3    3  502    0  0.11538379264E+03  0.25333097059E+03 -0.30237267970E+01  0.27838667930E+03  0.50400001928E-02 0.  1.
       -1    1    3    3    0  502 -0.11538379264E+03 -0.25333097059E+03  0.52649700831E+03  0.59555780580E+03  0.50400001928E-02 0. -1.
</event>
<event>
 5   0  0.3013140E-03  0.7001220E+03  0.7818609E-02  0.9717024E-01
       -1   -1    0    0    0  501  0.00000000000E+00  0.00000000000E+00  0.11519284392E+03  0.11519284403E+03  0.50400001928E-02 0.  1.
        1   -1    0    0  501    0  0.00000000000E+00  0.00000000000E+00 -0.10638049604E+04  0.10638049604E+04  0.50400001928E-02 0. -1.
    10030    2    1    2    0    0  0.00000000000E+00  0.00000000000E+00 -0.94861211646E+03  0.11789978044E+04  0.70012204318E+03 0.  0.
        2    1    3    3  502    0 -0.21990201226E+03 -0.19624811158E+03 -0.15624827072E+03  0.33359217377E+03  0.25500000920E-02 0.  1.
       -2    1    3    3    0  502  0.21990201226E+03  0.19624811158E+03 -0.79236384575E+03  0.84540563066E+03  0.25500000920E-02 0. -1.
</event>
<event>
 5   0  0.5113683E-03  0.7000003E+03  0.7818609E-02  0.9717232E-01
        2   -1    0    0  501    0  0.00000000000E+00  0.00000000000E+00  0.15516248760E+04  0.15516248760E+04  0.25500000920E-02 0. -1.
       -2   -1    0    0    0  501  0.00000000000E+00  0.00000000000E+00 -0.78949560417E+02  0.78949560459E+02  0.25500000920E-02 0.  1.
    10030    2    1    2    0    0  0.00000000000E+00  0.00000000000E+00  0.14726753156E+04  0.16305744365E+04  0.70000029123E+03 0.  0.
        3    1    3    3  502    0  0.33200466629E+03  0.35248757097E+02  0.49169038962E+03  0.59433073516E+03  0.10100000352E+00 0.  1.
       -3    1    3    3    0  502 -0.33200466629E+03 -0.35248757097E+02  0.98098492599E+03  0.10362437013E+04  0.10100000352E+00 0. -1.
</event>
<event>
 5   0  0.3013140E-03  0.7004519E+03  0.7818609E-02  0.9716460E-01
       -1   -1    0    0    0  501  0.00000000000E+00  0.00000000000E+00  0.64944277501E+03  0.64944277503E+03  0.50400001928E-02 0.  1.
        1   -1    0    0  501    0  0.00000000000E+00  0.00000000000E+00 -0.18886683677E+03  0.18886683684E+03  0.50400001928E-02 0. -1.
    10030    2    1    2    0    0  0.00000000000E+00  0.00000000000E+00  0.46057593824E+03  0.83830961187E+03  0.70045186163E+03 0.  0.
        2    1    3    3  502    0 -0.15124824166E+03  0.20250257827E+03 -0.59861659653E+02  0.25974361034E+03  0.25500000920E-02 0. -1.
       -2    1    3    3    0  502  0.15124824166E+03 -0.20250257827E+03  0.52043759789E+03  0.57856600152E+03  0.25500000920E-02 0.  1.
</event>
<event>
 5   0  0.5076796E-03  0.7009491E+03  0.7818609E-02  0.9715610E-01
        2   -1    0    0  501    0  0.00000000000E+00  0.00000000000E+00  0.83439004690E+02  0.83439004729E+02  0.25500000920E-02 0.  1.
       -2   -1    0    0    0  501  0.00000000000E+00  0.00000000000E+00 -0.14721222693E+04  0.14721222693E+04  0.25500000920E-02 0. -1.
    10030    2    1    2    0    0  0.00000000000E+00  0.00000000000E+00 -0.13886832646E+04  0.15555612740E+04  0.70094911929E+03 0.  0.
        5    1    3    3  502    0  0.44943158141E+01 -0.10143614726E+03 -0.14386938788E+04  0.14422800206E+04  0.46999998093E+01 0. -1.
       -5    1    3    3    0  502 -0.44943158141E+01  0.10143614726E+03  0.50010614222E+02  0.11328125343E+03  0.46999998093E+01 0.  1.
</event>
<event>
 5   0  0.5072407E-03  0.6930301E+03  0.7818609E-02  0.9729226E-01
       -2   -1    0    0    0  501  0.00000000000E+00  0.00000000000E+00  0.60328932999E+02  0.60328933053E+02  0.25500000920E-02 0. -1.
        2   -1    0    0  501    0  0.00000000000E+00  0.00000000000E+00 -0.19903003202E+04  0.19903003202E+04  0.25500000920E-02 0.  1.
    10030    2    1    2    0    0  0.00000000000E+00  0.00000000000E+00 -0.19299713872E+04  0.20506292533E+04  0.69303014285E+03 0.  0.
        1    1    3    3  502    0  0.28230392779E+03  0.17232982913E+03 -0.65920302672E+03  0.73752403901E+03  0.50400001928E-02 0.  1.
       -1    1    3    3    0  502 -0.28230392779E+03 -0.17232982913E+03 -0.12707683605E+04  0.13131052143E+04  0.50400001928E-02 0. -1.
</event>
<event>
 5   0  0.2934483E-03  0.6987095E+03  0.7818609E-02  0.9719442E-01
       -1   -1    0    0    0  501  0.00000000000E+00  0.00000000000E+00  0.64399423077E+02  0.64399423274E+02  0.50400001928E-02 0. -1.
        1   -1    0    0  501    0  0.00000000000E+00  0.00000000000E+00 -0.18951836556E+04  0.18951836556E+04  0.50400001928E-02 0.  1.
    10030    2    1    2    0    0  0.00000000000E+00  0.00000000000E+00 -0.18307842325E+04  0.19595830789E+04  0.69870947967E+03 0.  0.
        5    1    3    3  502    0 -0.32910466502E+03 -0.72086721591E+02 -0.11742692432E+04  0.12216532738E+04  0.46999998093E+01 0. -1.
       -5    1    3    3    0  502  0.32910466502E+03  0.72086721591E+02 -0.65651498937E+03  0.73792980508E+03  0.46999998093E+01 0.  1.
</event>
<event>
 5   0  0.2937617E-03  0.6975540E+03  0.7818609E-02  0.9721424E-01
       -1   -1    0    0    0  501  0.00000000000E+00  0.00000000000E+00  0.32285782778E+03  0.32285782782E+03  0.50400001928E-02 0. -1.
        1   -1    0    0  501    0  0.00000000000E+00  0.00000000000E+00 -0.37677702729E+03  0.37677702732E+03  0.50400001928E-02 0.  1.
    10030    2    1    2    0    0  0.00000000000E+00  0.00000000000E+00 -0.53919199509E+02  0.69963485514E+03  0.69755404841E+03 0.  0.
        3    1    3    3  502    0 -0.17284433825E+03 -0.29759767539E+03  0.29829619902E+02  0.34544081705E+03  0.10100000352E+00 0.  1.
       -3    1    3    3    0  502  0.17284433825E+03  0.29759767539E+03 -0.83748819410E+02  0.35419403809E+03  0.10100000352E+00 0. -1.
</event>
<event>
 5   0  0.2938783E-03  0.7008802E+03  0.7818609E-02  0.9715728E-01
        1   -1    0    0  501    0  0.00000000000E+00  0.00000000000E+00  0.31305599583E+03  0.31305599587E+03  0.50400001928E-02 0.  1.
       -1   -1    0    0    0  501  0.00000000000E+00  0.00000000000E+00 -0.39228853537E+03  0.39228853540E+03  0.50400001928E-02 0. -1.
    10030    2    1    2    0    0  0.00000000000E+00  0.00000000000E+00 -0.79232539544E+02  0.70534453127E+03  0.70088024117E+03 0.  0.
        4    1    3    3  502    0  0.78252627046E+02  0.20541860467E+02  0.30352656230E+03  0.31412645319E+03  0.12699999809E+01 0.  1.
       -4    1    3    3    0  502 -0.78252627046E+02 -0.20541860467E+02 -0.38275910184E+03  0.39121807808E+03  0.12699999809E+01 0. -1.
</event>
<event>
 5   0  0.2934483E-03  0.7051211E+03  0.7818609E-02  0.9708514E-01
        1   -1    0    0  501    0  0.00000000000E+00  0.00000000000E+00  0.10776804786E+04  0.10776804786E+04  0.50400001928E-02 0. -1.
       -1   -1    0    0    0  501  0.00000000000E+00  0.00000000000E+00 -0.11533933978E+03  0.11533933989E+03  0.50400001928E-02 0.  1.
    10030    2    1    2    0    0  0.00000000000E+00  0.00000000000E+00  0.96234113886E+03  0.11930198185E+04  0.70512113845E+03 0.  0.
        5    1    3    3  502    0  0.26501473778E+03  0.16160404591E+03  0.76392231101E+03  0.82458963501E+03  0.46999998093E+01 0. -1.
       -5    1    3    3    0  502 -0.26501473778E+03 -0.16160404591E+03  0.19841882784E+03  0.36843018353E+03  0.46999998093E+01 0.  1.
</event>
<event>
 5   0  0.5023894E-03  0.6986674E+03  0.7818609E-02  0.9719514E-01
        2   -1    0    0  501    0  0.00000000000E+00  0.00000000000E+00  0.41544158302E+03  0.41544158303E+03  0.25500000920E-02 0.  1.
       -2   -1    0    0    0  501  0.00000000000E+00  0.00000000000E+00 -0.29374536848E+03  0.29374536849E+03  0.25500000920E-02 0. -1.
    10030    2    1    2    0    0  0.00000000000E+00  0.00000000000E+00  0.12169621454E+03  0.70918695152E+03  0.69866741986E+03 0.  0.
        2    1    3    3  502    0  0.14370645720E+03 -0.11364840234E+03  0.36275967614E+03  0.40640138759E+03  0.25500000920E-02 0.  1.
       -2    1    3    3    0  502 -0.14370645720E+03  0.11364840234E+03 -0.24106346160E+03  0.30278556393E+03  0.25500000920E-02 0. -1.
</event>
<event>
 5   0  0.3013140E-03  0.6989696E+03  0.7818609E-02  0.9718996E-01
        1   -1    0    0  501    0  0.00000000000E+00  0.00000000000E+00  0.51631716402E+03  0.51631716405E+03  0.50400001928E-02 0. -1.
       -1   -1    0    0    0  501  0.00000000000E+00  0.00000000000E+00 -0.23655932892E+03  0.23655932898E+03  0.50400001928E-02 0.  1.
    10030    2    1    2    0    0  0.00000000000E+00  0.00000000000E+00  0.27975783510E+03  0.75287649302E+03  0.69896964701E+03 0.  0.
        2    1    3    3  502    0  0.20850964925E+02  0.60149070225E+02  0.51001924720E+03  0.51397695075E+03  0.25500000920E-02 0. -1.
       -2    1    3    3    0  502 -0.20850964925E+02 -0.60149070225E+02 -0.23026141210E+03  0.23889954227E+03  0.25500000920E-02 0.  1.
</event>
<event>
 5   0  0.5076796E-03  0.7002756E+03  0.7818609E-02  0.9716761E-01
       -2   -1    0    0    0  501  0.00000000000E+00  0.00000000000E+00  0.12629095151E+03  0.12629095153E+03  0.25500000920E-02 0.  1.
        2   -1    0    0  501    0  0.00000000000E+00  0.00000000000E+00 -0.97074645996E+03  0.97074645996E+03  0.25500000920E-02 0. -1.
    10030    2    1    2    0    0  0.00000000000E+00  0.00000000000E+00 -0.84445550845E+03  0.10970374115E+04  0.70027564320E+03 0.  0.
        5    1    3    3  502    0 -0.19740251435E+03 -0.42701394769E+01 -0.87515189425E+03  0.89716158789E+03  0.46999998093E+01 0. -1.
       -5    1    3    3    0  502  0.19740251435E+03  0.42701394769E+01  0.30696385799E+02  0.19987582361E+03  0.46999998093E+01 0.  1.
</event>
<event>
 5   0  0.2913582E-03  0.7000097E+03  0.7818609E-02  0.9717216E-01
        1   -1    0    0  501    0  0.00000000000E+00  0.00000000000E+00  0.19168173796E+04  0.19168173796E+04  0.50400001928E-02 0. -1.
       -1   -1    0    0    0  501  0.00000000000E+00  0.00000000000E+00 -0.63909781442E+02  0.63909781641E+02  0.50400001928E-02 0.  1.
    10030    2    1    2    0    0  0.00000000000E+00  0.00000000000E+00  0.18529075982E+04  0.19807271613E+04  0.70000965707E+03 0.  0.
        1    1    3    3  502    0  0.16566678405E+03 -0.27725819870E+03  0.13080347503E+04  0.13473204890E+04  0.50400001928E-02 0. -1.
       -1    1    3    3    0  502 -0.16566678405E+03  0.27725819870E+03  0.54487284791E+03  0.63340667229E+03  0.50400001928E-02 0.  1.
</event>
<event>
 5   0  0.5113683E-03  0.7015658E+03  0.7818609E-02  0.9714558E-01
        2   -1    0    0  501    0  0.00000000000E+00  0.00000000000E+00  0.65238870254E+03  0.65238870255E+03  0.25500000920E-02 0.  1.
       -2   -1    0    0    0  501  0.00000000000E+00  0.00000000000E+00 -0.18861244747E+03  0.18861244749E+03  0.25500000920E-02 0. -1.
    10030    2    1    2    0    0  0.00000000000E+00  0.00000000000E+00  0.46377625507E+03  0.84100115004E+03  0.70156576285E+03 0.  0.
        3    1    3    3  502    0  0.32497507491E+03  0.64767513073E+02  0.36984839074E+03  0.49657977445E+03  0.10100000352E+00 0.  1.
       -3    1    3    3    0  502 -0.32497507491E+03 -0.64767513073E+02  0.93927864322E+02  0.34442137558E+03  0.10100000352E+00 0. -1.
</event>
<event>
 5   0  0.5076796E-03  0.7004169E+03  0.7818609E-02  0.9716520E-01
       -2   -1    0    0    0  501  0.00000000000E+00  0.00000000000E+00  0.10230255184E+03  0.10230255187E+03  0.25500000920E-02 0. -1.
        2   -1    0    0  501    0  0.00000000000E+00  0.00000000000E+00 -0.11988553178E+04  0.11988553178E+04  0.25500000920E-02 0.  1.
    10030    2    1    2    0    0  0.00000000000E+00  0.00000000000E+00 -0.10965527659E+04  0.13011578696E+04  0.70041689961E+03 0.  0.
        5    1    3    3  502    0  0.26575773149E+03 -0.20418300931E+03 -0.35968652036E+03  0.49164454239E+03  0.46999998093E+01 0. -1.
       -5    1    3    3    0  502 -0.26575773149E+03  0.20418300931E+03 -0.73686624556E+03  0.80951332724E+03  0.46999998093E+01 0.  1.
</event>
<event>
 5   0  0.5076796E-03  0.6992666E+03  0.7818609E-02  0.9718487E-01
        2   -1    0    0  501    0  0.00000000000E+00  0.00000000000E+00  0.91432312058E+03  0.91432312058E+03  0.25500000920E-02 0. -1.
       -2   -1    0    0    0  501  0.00000000000E+00  0.00000000000E+00 -0.13369828545E+03  0.13369828547E+03  0.25500000920E-02 0.  1.
    10030    2    1    2    0    0  0.00000000000E+00  0.00000000000E+00  0.78062483513E+03  0.10480214061E+04  0.69926656886E+03 0.  0.
        5    1    3    3  502    0  0.14736593454E+03 -0.31520425811E+03  0.44115718830E+03  0.56188272601E+03  0.46999998093E+01 0.  1.
       -5    1    3    3    0  502 -0.14736593454E+03  0.31520425811E+03  0.33946764683E+03  0.48613868005E+03  0.46999998093E+01 0. -1.
</event>
<event>
 5   0  0.5113683E-03  0.7005921E+03  0.7818609E-02  0.9716220E-01
        2   -1    0    0  501    0  0.00000000000E+00  0.00000000000E+00  0.11058627471E+04  0.11058627471E+04  0.25500000920E-02 0.  1.
       -2   -1    0    0    0  501  0.00000000000E+00  0.00000000000E+00 -0.11096072382E+03  0.11096072385E+03  0.25500000920E-02 0. -1.
    10030    2    1    2    0    0  0.00000000000E+00  0.00000000000E+00  0.99490202331E+03  0.12168234710E+04  0.70059212354E+03 0.  0.
        3    1    3    3  502    0  0.21113889845E+03 -0.25232798894E+03  0.70629430196E+03  0.77916666999E+03  0.10100000352E+00 0.  1.
       -3    1    3    3    0  502 -0.21113889845E+03  0.25232798894E+03  0.28860772135E+03  0.43765680101E+03  0.10100000352E+00 0. -1.
</event>
<event>
 5   0  0.2913582E-03  0.6998068E+03  0.7818609E-02  0.9717563E-01
        1   -1    0    0  501    0  0.00000000000E+00  0.00000000000E+00  0.88477588206E+03  0.88477588207E+03  0.50400001928E-02 0.  1.
       -1   -1    0    0    0  501  0.00000000000E+00  0.00000000000E+00 -0.13837670843E+03  0.13837670852E+03  0.50400001928E-02 0. -1.
    10030    2    1    2    0    0  0.00000000000E+00  0.00000000000E+00  0.74639917363E+03  0.10231525906E+04  0.69980675706E+03 0.  0.
        1    1    3    3  502    0  0.21814679918E+03 -0.14397712757E+03  0.71331071921E+03  0.75969047738E+03  0.50400001928E-02 0.  1.
       -1    1    3    3    0  502 -0.21814679918E+03  0.14397712757E+03  0.33088454424E+02  0.26346211321E+03  0.50400001928E-02 0. -1.
</event>
<event>
 5   0  0.3013140E-03  0.7014623E+03  0.7818609E-02  0.9714735E-01
        1   -1    0    0  501    0  0.00000000000E+00  0.00000000000E+00  0.37009251056E+03  0.37009251060E+03  0.50400001928E-02 0.  1.
       -1   -1    0    0    0  501  0.00000000000E+00  0.00000000000E+00 -0.33238271716E+03  0.33238271719E+03  0.50400001928E-02 0. -1.
    10030    2    1    2    0    0  0.00000000000E+00  0.00000000000E+00  0.37709793406E+02  0.70247522779E+03  0.70146234193E+03 0.  0.
        2    1    3    3  502    0  0.10227724644E+03 -0.33545548081E+03  0.14228752895E+02  0.35098927642E+03  0.25500000920E-02 0. -1.
       -2    1    3    3    0  502 -0.10227724644E+03  0.33545548081E+03  0.23481040511E+02  0.35148595137E+03  0.25500000920E-02 0.  1.
</event>
<event>
 5   0  0.2934483E-03  0.7005536E+03  0.7818609E-02  0.9716286E-01
       -1   -1    0    0    0  501  0.00000000000E+00  0.00000000000E+00  0.15819182661E+03  0.15819182669E+03  0.50400001928E-02 0.  1.
        1   -1    0    0  501    0  0.00000000000E+00  0.00000000000E+00 -0.77560153122E+03  0.77560153124E+03  0.50400001928E-02 0. -1.
    10030    2    1    2    0    0  0.00000000000E+00  0.00000000000E+00 -0.61740970461E+03  0.93379335794E+03  0.70055356111E+03 0.  0.
        5    1    3    3  502    0 -0.29180438324E+03  0.14894020435E+03 -0.14362106405E+03  0.35774583518E+03  0.46999998093E+01 0.  1.
       -5    1    3    3    0  502  0.29180438324E+03 -0.14894020435E+03 -0.47378864056E+03  0.57604752275E+03  0.46999998093E+01 0. -1.
</event>
<event>
 5   0  0.5023894E-03  0.7002947E+03  0.7818609E-02  0.9716728E-01
       -2   -1    0    0    0  501  0.00000000000E+00  0.00000000000E+00  0.14198120407E+03  0.14198120409E+03  0.25500000920E-02 0.  1.
        2   -1    0    0  501    0  0.00000000000E+00  0.00000000000E+00 -0.86351696667E+03  0.86351696667E+03  0.25500000920E-02 0. -1.
    10030    2    1    2    0    0  0.00000000000E+00  0.00000000000E+00 -0.72153576260E+03  0.10054981708E+04  0.70029473416E+03 0.  0.
        2    1    3    3  502    0  0.49601117945E+02 -0.19654551293E+03  0.49165464937E+02  0.20858488081E+03  0.25500000920E-02 0.  1.
       -2    1    3    3    0  502 -0.49601117945E+02  0.19654551293E+03 -0.77070122754E+03  0.79691328994E+03  0.25500000920E-02 0. -1.
</event>
<event>
 5   0  0.2937617E-03  0.6999603E+03  0.7818609E-02  0.9717300E-01
        1   -1    0    0  501    0  0.00000000000E+00  0.00000000000E+00  0.58498080910E+03  0.58498080913E+03  0.50400001928E-02 0. -1.
       -1   -1    0    0    0  501  0.00000000000E+00  0.00000000000E+00 -0.20938484493E+03  0.20938484499E+03  0.50400001928E-02 0.  1.
    10030    2    1    2    0    0  0.00000000000E+00  0.00000000000E+00  0.37559596418E+03  0.79436565411E+03  0.69996033040E+03 0.  0.
        3    1    3    3  502    0 -0.42137649795E+02 -0.34085681903E+03  0.11143908841E+03  0.36107843087E+03  0.10100000352E+00 0.  1.
       -3    1    3    3    0  502  0.42137649795E+02  0.34085681903E+03  0.26415687577E+03  0.43328722324E+03  0.10100000352E+00 0. -1.
</event>
<event>
 5   0  0.2938783E-03  0.6994271E+03  0.7818609E-02  0.9718212E-01
        1   -1    0    0  501    0  0.00000000000E+00  0.00000000000E+00  0.27167640382E+03  0.27167640387E+03  0.50400001928E-02 0. -1.
       -1   -1    0    0    0  501  0.00000000000E+00  0.00000000000E+00 -0.45016632043E+03  0.45016632046E+03  0.50400001928E-02 0.  1.
    10030    2    1    2    0    0  0.00000000000E+00  0.00000000000E+00 -0.17848991661E+03  0.72184272432E+03  0.69942710008E+03 0.  0.
        4    1    3    3  502    0  0.67558173082E+02 -0.27351680149E+03  0.12457200672E+03  0.30805088087E+03  0.12699999809E+01 0.  1.
       -4    1    3    3    0  502 -0.67558173082E+02  0.27351680149E+03 -0.30306192332E+03  0.41379184346E+03  0.12699999809E+01 0. -1.
</event>
<event>
 5   0  0.4878235E-03  0.7019101E+03  0.7818609E-02  0.9713971E-01
        2   -1    0    0  501    0  0.00000000000E+00  0.00000000000E+00  0.10926178487E+04  0.10926178487E+04  0.25500000920E-02 0.  1.
       -2   -1    0    0    0  501  0.00000000000E+00  0.00000000000E+00 -0.11272874849E+03  0.11272874852E+03  0.25500000920E-02 0. -1.
    10030    2    1    2    0    0  0.00000000000E+00  0.00000000000E+00  0.97988910024E+03  0.12053465973E+04  0.70191008736E+03 0.  0.
        4    1    3    3  502    0 -0.28674844526E+01 -0.16399551591E+03 -0.42856222653E+02  0.16953176819E+03  0.12699999809E+01 0. -1.
       -4    1    3    3    0  502  0.28674844526E+01  0.16399551591E+03  0.10227453229E+04  0.10358148291E+04  0.12699999809E+01 0.  1.
</event>
<event>
 5   0  0.1981750E-03  0.6993124E+03  0.7818609E-02  0.9718409E-01
       -3   -1    0    0    0  501  0.00000000000E+00  0.00000000000E+00  0.38039938082E+03  0.38039939422E+03  0.10100000352E+00 0.  1.
        3   -1    0    0  501    0  0.00000000000E+00  0.00000000000E+00 -0.32139758882E+03  0.32139760469E+03  0.10100000352E+00 0. -1.
    10030    2    1    2    0    0  0.00000000000E+00  0.00000000000E+00  0.59001792000E+02  0.70179699891E+03  0.69931238815E+03 0.  0.
        4    1    3    3  502    0  0.24106641805E+03  0.13897628303E+03  0.24198510936E+03  0.36876256752E+03  0.12699999809E+01 0.  1.
       -4    1    3    3    0  502 -0.24106641805E+03 -0.13897628303E+03 -0.18298331736E+03  0.33303443138E+03  0.12699999809E+01 0. -1.
</event>
<event>
 5   0  0.2938783E-03  0.6966410E+03  0.7818609E-02  0.9722994E-01
       -1   -1    0    0    0  501  0.00000000000E+00  0.00000000000E+00  0.12146426050E+03  0.12146426060E+03  0.50400001928E-02 0. -1.
        1   -1    0    0  501    0  0.00000000000E+00  0.00000000000E+00 -0.99887132679E+03  0.99887132680E+03  0.50400001928E-02 0.  1.
    10030    2    1    2    0    0  0.00000000000E+00  0.00000000000E+00 -0.87740706629E+03  0.11203355874E+04  0.69664098963E+03 0.  0.
        4    1    3    3  502    0  0.15995543301E+03  0.44341056235E+02 -0.93117332634E+03  0.94585265576E+03  0.12699999809E+01 0.  1.
       -4    1    3    3    0  502 -0.15995543301E+03 -0.44341056235E+02  0.53766260053E+02  0.17448293165E+03  0.12699999809E+01 0. -1.
</event>
<event>
 5   0  0.1981750E-03  0.7049345E+03  0.7818609E-02  0.9708831E-01
        3   -1    0    0  501    0  0.00000000000E+00  0.00000000000E+00  0.23747626059E+03  0.23747628207E+03  0.10100000352E+00 0.  1.
       -3   -1    0    0    0  501  0.00000000000E+00  0.00000000000E+00 -0.52313920444E+03  0.52313921419E+03  0.10100000352E+00 0. -1.
    10030    2    1    2    0    0  0.00000000000E+00  0.00000000000E+00 -0.28566294385E+03  0.76061549626E+03  0.70493447615E+03 0.  0.
        5    1    3    3  502    0  0.22280797628E+03  0.55614896599E+02  0.14563307553E+03  0.27196965585E+03  0.46999998093E+01 0.  1.
       -5    1    3    3    0  502 -0.22280797628E+03 -0.55614896599E+02 -0.43129601938E+03  0.48864584041E+03  0.46999998093E+01 0. -1.
</event>
<event>
 5   0  0.2938783E-03  0.7000130E+03  0.7818609E-02  0.9717210E-01
       -1   -1    0    0    0  501  0.00000000000E+00  0.00000000000E+00  0.22678001845E+03  0.22678001850E+03  0.50400001928E-02 0. -1.
        1   -1    0    0  501    0  0.00000000000E+00  0.00000000000E+00 -0.54019109939E+03  0.54019109942E+03  0.50400001928E-02 0.  1.
    10030    2    1    2    0    0  0.00000000000E+00  0.00000000000E+00 -0.31341108095E+03  0.76697111792E+03  0.70001299278E+03 0.  0.
        4    1    3    3  502    0  0.10448520901E+03  0.25752356203E+03 -0.38981808227E+03  0.47874345329E+03  0.12699999809E+01 0.  1.
       -4    1    3    3    0  502 -0.10448520901E+03 -0.25752356203E+03  0.76407001324E+02  0.28822766463E+03  0.12699999809E+01 0. -1.
</event>
<event>
 5   0  0.2913582E-03  0.7000442E+03  0.7818609E-02  0.9717157E-01
       -1   -1    0    0    0  501  0.00000000000E+00  0.00000000000E+00  0.23919662600E+03  0.23919662605E+03  0.50400001928E-02 0.  1.
        1   -1    0    0  501    0  0.00000000000E+00  0.00000000000E+00 -0.51219562516E+03  0.51219562518E+03  0.50400001928E-02 0. -1.
    10030    2    1    2    0    0  0.00000000000E+00  0.00000000000E+00 -0.27299899916E+03  0.75139225123E+03  0.70004418551E+03 0.  0.
        1    1    3    3  502    0  0.11611162486E+03 -0.16767594022E+03 -0.44182616061E+03  0.48662869478E+03  0.50400001928E-02 0. -1.
       -1    1    3    3    0  502 -0.11611162486E+03  0.16767594022E+03  0.16882716145E+03  0.26476355645E+03  0.50400001928E-02 0.  1.
</event>
<event>
 5   0  0.5072407E-03  0.7005751E+03  0.7818609E-02  0.9716249E-01
        2   -1    0    0  501    0  0.00000000000E+00  0.00000000000E+00  0.13051842352E+04  0.13051842352E+04  0.25500000920E-02 0.  1.
       -2   -1    0    0    0  501  0.00000000000E+00  0.00000000000E+00 -0.94010758461E+02  0.94010758496E+02  0.25500000920E-02 0. -1.
    10030    2    1    2    0    0  0.00000000000E+00  0.00000000000E+00  0.12111734768E+04  0.13991949937E+04  0.70057507780E+03 0.  0.
        1    1    3    3  502    0  0.69385968688E+01  0.83937344479E+02 -0.73487117663E+02  0.11177646627E+03  0.50400001928E-02 0. -1.
       -1    1    3    3    0  502 -0.69385968688E+01 -0.83937344479E+02  0.12846605944E+04  0.12874185274E+04  0.50400001928E-02 0.  1.
</event>
<event>
 5   0  0.2937617E-03  0.6991213E+03  0.7818609E-02  0.9718736E-01
        1   -1    0    0  501    0  0.00000000000E+00  0.00000000000E+00  0.35655433892E+03  0.35655433896E+03  0.50400001928E-02 0. -1.
       -1   -1    0    0    0  501  0.00000000000E+00  0.00000000000E+00 -0.34270415565E+03  0.34270415569E+03  0.50400001928E-02 0.  1.
    10030    2    1    2    0    0  0.00000000000E+00  0.00000000000E+00  0.13850183274E+02  0.69925849465E+03  0.69912131620E+03 0.  0.
        3    1    3    3  502    0 -0.33834444446E+03 -0.58390541165E+02 -0.58709618363E+02  0.34832922341E+03  0.10100000352E+00 0. -1.
       -3    1    3    3    0  502  0.33834444446E+03  0.58390541165E+02  0.72559801637E+02  0.35092927123E+03  0.10100000352E+00 0.  1.
</event>
<event>
 5   0  0.5023894E-03  0.6991462E+03  0.7818609E-02  0.9718693E-01
       -2   -1    0    0    0  501  0.00000000000E+00  0.00000000000E+00  0.22641758043E+03  0.22641758045E+03  0.25500000920E-02 0.  1.
        2   -1    0    0  501    0  0.00000000000E+00  0.00000000000E+00 -0.53971674689E+03  0.53971674690E+03  0.25500000920E-02 0. -1.
    10030    2    1    2    0    0  0.00000000000E+00  0.00000000000E+00 -0.31329916646E+03  0.76613432735E+03  0.69914622207E+03 0.  0.
        2    1    3    3  502    0 -0.28510586156E+03  0.16315758732E+03 -0.25629387909E+02  0.32948841577E+03  0.25500000920E-02 0.  1.
       -2    1    3    3    0  502  0.28510586156E+03 -0.16315758732E+03 -0.28766977855E+03  0.43664591157E+03  0.25500000920E-02 0. -1.
</event>
<event>
 5   0  0.5113683E-03  0.6993751E+03  0.7818609E-02  0.9718302E-01
        2   -1    0    0  501    0  0.00000000000E+00  0.00000000000E+00  0.13005714983E+04  0.13005714983E+04  0.25500000920E-02 0.  1.
       -2   -1    0    0    0  501  0.00000000000E+00  0.00000000000E+00 -0.94021256575E+02  0.94021256609E+02  0.25500000920E-02 0. -1.
    10030    2    1    2    0    0  0.00000000000E+00  0.00000000000E+00  0.12065502417E+04  0.13945927549E+04  0.69937505405E+03 0.  0.
        3    1    3    3  502    0 -0.21975145821E+03 -0.62215828949E+02  0.75246167762E+02  0.24046519232E+03  0.10100000352E+00 0. -1.
       -3    1    3    3    0  502  0.21975145821E+03  0.62215828949E+02  0.11313040739E+04  0.11541275625E+04  0.10100000352E+00 0.  1.
</event>
<event>
 5   0  0.2934483E-03  0.6999545E+03  0.7818609E-02  0.9717310E-01
       -1   -1    0    0    0  501  0.00000000000E+00  0.00000000000E+00  0.33676308112E+03  0.33676308115E+03  0.50400001928E-02 0.  1.
        1   -1    0    0  501    0  0.00000000000E+00  0.00000000000E+00 -0.36370997215E+03  0.36370997219E+03  0.50400001928E-02 0. -1.
    10030    2    1    2    0    0  0.00000000000E+00  0.00000000000E+00 -0.26946891035E+02  0.70047305334E+03  0.69995454390E+03 0.  0.
        5    1    3    3  502    0 -0.14024043350E+03  0.30692536995E+03 -0.10623212354E+03  0.35380491232E+03  0.46999998093E+01 0. -1.
       -5    1    3    3    0  502  0.14024043350E+03 -0.30692536995E+03  0.79285232501E+02  0.34666814102E+03  0.46999998093E+01 0.  1.
</event>
<event>
 5   0  0.2934483E-03  0.7053499E+03  0.7818609E-02  0.9708127E-01
       -1   -1    0    0    0  501  0.00000000000E+00  0.00000000000E+00  0.38327019454E+03  0.38327019458E+03  0.50400001928E-02 0. -1.
        1   -1    0    0  501    0  0.00000000000E+00  0.00000000000E+00 -0.32452198565E+03  0.32452198569E+03  0.50400001928E-02 0.  1.
    10030    2    1    2    0    0  0.00000000000E+00  0.00000000000E+00  0.58748208895E+02  0.70779218026E+03  0.70534985532E+03 0.  0.
        5    1    3    3  502    0  0.23110198801E+03  0.14883976102E+03 -0.19228919078E+03  0.33549758004E+03  0.46999998093E+01 0.  1.
       -5    1    3    3    0  502 -0.23110198801E+03 -0.14883976102E+03  0.25103739968E+03  0.37229460023E+03  0.46999998093E+01 0. -1.
</event>
<event>
 5   0  0.4878235E-03  0.6991163E+03  0.7818609E-02  0.9718745E-01
        2   -1    0    0  501    0  0.00000000000E+00  0.00000000000E+00  0.39142455554E+03  0.39142455555E+03  0.25500000920E-02 0. -1.
       -2   -1    0    0    0  501  0.00000000000E+00  0.00000000000E+00 -0.31216976789E+03  0.31216976790E+03  0.25500000920E-02 0.  1.
    10030    2    1    2    0    0  0.00000000000E+00  0.00000000000E+00  0.79254787656E+02  0.70359432345E+03  0.69911633554E+03 0.  0.
        4    1    3    3  502    0  0.42100089089E+02  0.26091371116E+03 -0.19061937431E+03  0.32586153645E+03  0.12699999809E+01 0.  1.
       -4    1    3    3    0  502 -0.42100089089E+02 -0.26091371116E+03  0.26987416197E+03  0.37773278700E+03  0.12699999809E+01 0. -1.
</event>
<event>
 5   0  0.4878235E-03  0.7001751E+03  0.7818609E-02  0.9716933E-01
       -2   -1    0    0    0  501  0.00000000000E+00  0.00000000000E+00  0.15729151726E+03  0.15729151728E+03  0.25500000920E-02 0.  1.
        2   -1    0    0  501    0  0.00000000000E+00  0.00000000000E+00 -0.77919829711E+03  0.77919829711E+03  0.25500000920E-02 0. -1.
    10030    2    1    2    0    0  0.00000000000E+00  0.00000000000E+00 -0.62190677985E+03  0.93648981440E+03  0.70017507072E+03 0.  0.
        4    1    3    3  502    0  0.30933304110E+03 -0.14205086876E+03 -0.20152029760E+03  0.39557227263E+03  0.12699999809E+01 0. -1.
       -4    1    3    3    0  502 -0.30933304110E+03  0.14205086876E+03 -0.42038648225E+03  0.54091754176E+03  0.12699999809E+01 0.  1.
</event>
<event>
 5   0  0.5023894E-03  0.7003245E+03  0.7818609E-02  0.9716677E-01
        2   -1    0    0  501    0  0.00000000000E+00  0.00000000000E+00  0.13951858545E+04  0.13951858545E+04  0.25500000920E-02 0. -1.
       -2   -1    0    0    0  501  0.00000000000E+00  0.00000000000E+00 -0.87883355628E+02  0.87883355665E+02  0.25500000920E-02 0.  1.
    10030    2    1    2    0    0  0.00000000000E+00  0.00000000000E+00  0.13073024989E+04  0.14830692102E+04  0.70032453805E+03 0.  0.
        2    1    3    3  502    0  0.21980068850E+03 -0.20927442061E+03  0.28377957817E+03  0.41549846544E+03  0.25500000920E-02 0.  1.
       -2    1    3    3    0  502 -0.21980068850E+03  0.20927442061E+03  0.10235229207E+04  0.10675707447E+04  0.25500000920E-02 0. -1.
</event>
<event>
 5   0  0.2937617E-03  0.6976377E+03  0.7818609E-02  0.9721281E-01
        1   -1    0    0  501    0  0.00000000000E+00  0.00000000000E+00  0.63093582238E+03  0.63093582240E+03  0.50400001928E-02 0. -1.
       -1   -1    0    0    0  501  0.00000000000E+00  0.00000000000E+00 -0.19284781017E+03  0.19284781023E+03  0.50400001928E-02 0.  1.
    10030    2    1    2    0    0  0.00000000000E+00  0.00000000000E+00  0.43808801221E+03  0.82378363263E+03  0.69763770465E+03 0.  0.
        3    1    3    3  502    0  0.11077616644E+03  0.17677203595E+02  0.60905527552E+03  0.61929975086E+03  0.10100000352E+00 0. -1.
       -3    1    3    3    0  502 -0.11077616644E+03 -0.17677203595E+02 -0.17096726331E+03  0.20448388177E+03  0.10100000352E+00 0.  1.
</event>
<event>
 5   0  0.5113683E-03  0.6975446E+03  0.7818609E-02  0.9721440E-01
       -2   -1    0    0    0  501  0.00000000000E+00  0.00000000000E+00  0.39603495551E+03  0.39603495552E+03  0.25500000920E-02 0. -1.
        2   -1    0    0  501    0  0.00000000000E+00  0.00000000000E+00 -0.30714994661E+03  0.30714994662E+03  0.25500000920E-02 0.  1.
    10030    2    1    2    0    0  0.00000000000E+00  0.00000000000E+00  0.88885008907E+02  0.70318490214E+03  0.69754459484E+03 0.  0.
        3    1    3    3  502    0  0.54238868969E+02  0.27631766603E+03 -0.16300972319E+03  0.32536977046E+03  0.10100000352E+00 0.  1.
       -3    1    3    3    0  502 -0.54238868969E+02 -0.27631766603E+03  0.25189473210E+03  0.37781513169E+03  0.10100000352E+00 0. -1.
</event>
<event>
 5   0  0.2934483E-03  0.6999281E+03  0.7818609E-02  0.9717355E-01
        1   -1    0    0  501    0  0.00000000000E+00  0.00000000000E+00  0.54279691614E+03  0.54279691616E+03  0.50400001928E-02 0. -1.
       -1   -1    0    0    0  501  0.00000000000E+00  0.00000000000E+00 -0.22563659554E+03  0.22563659560E+03  0.50400001928E-02 0.  1.
    10030    2    1    2    0    0  0.00000000000E+00  0.00000000000E+00  0.31716032060E+03  0.76843351176E+03  0.69992813420E+03 0.  0.
        5    1    3    3  502    0 -0.28276632422E+03  0.20029309354E+03  0.10503536283E+03  0.36211688013E+03  0.46999998093E+01 0.  1.
       -5    1    3    3    0  502  0.28276632422E+03 -0.20029309354E+03  0.21212495776E+03  0.40631663163E+03  0.46999998093E+01 0. -1.
</event>
<event>
 5   0  0.2937617E-03  0.7007197E+03  0.7818609E-02  0.9716002E-01
        1   -1    0    0  501    0  0.00000000000E+00  0.00000000000E+00  0.11564537509E+04  0.11564537509E+04  0.50400001928E-02 0.  1.
       -1   -1    0    0    0  501  0.00000000000E+00  0.00000000000E+00 -0.10614520574E+03  0.10614520586E+03  0.50400001928E-02 0. -1.
    10030    2    1    2    0    0  0.00000000000E+00  0.00000000000E+00  0.10503085451E+04  0.12625989567E+04  0.70071969117E+03 0.  0.
        3    1    3    3  502    0 -0.31418070435E+03  0.15258681324E+03  0.57482030856E+03  0.67261478418E+03  0.10100000352E+00 0. -1.
       -3    1    3    3    0  502  0.31418070435E+03 -0.15258681324E+03  0.47548823657E+03  0.58998417257E+03  0.10100000352E+00 0.  1.
</event>
<event>
 5   0  0.2934483E-03  0.7000443E+03  0.7818609E-02  0.9717156E-01
       -1   -1    0    0    0  501  0.00000000000E+00  0.00000000000E+00  0.81150368529E+03  0.81150368530E+03  0.50400001928E-02 0. -1.
        1   -1    0    0  501    0  0.00000000000E+00  0.00000000000E+00 -0.15097345199E+03  0.15097345208E+03  0.50400001928E-02 0.  1.
    10030    2    1    2    0    0  0.00000000000E+00  0.00000000000E+00  0.66053023329E+03  0.96247713738E+03  0.70004432065E+03 0.  0.
        5    1    3    3  502    0  0.16045652947E+03  0.34289019092E+02 -0.94773933432E+02  0.18954214079E+03  0.46999998093E+01 0.  1.
       -5    1    3    3    0  502 -0.16045652947E+03 -0.34289019092E+02  0.75530416673E+03  0.77293499659E+03  0.46999998093E+01 0. -1.
</event>
<event>
 5   0  0.4878235E-03  0.6982015E+03  0.7818609E-02  0.9720313E-01
       -2   -1    0    0    0  501  0.00000000000E+00  0.00000000000E+00  0.21943198980E+03  0.21943198982E+03  0.25500000920E-02 0. -1.
        2   -1    0    0  501    0  0.00000000000E+00  0.00000000000E+00 -0.55539452773E+03  0.55539452774E+03  0.25500000920E-02 0.  1.
    10030    2    1    2    0    0  0.00000000000E+00  0.00000000000E+00 -0.33596253793E+03  0.77482651756E+03  0.69820147910E+03 0.  0.
        4    1    3    3  502    0  0.18470865520E+03  0.95611000428E+01  0.16058800632E+03  0.24494657094E+03  0.12699999809E+01 0. -1.
       -4    1    3    3    0  502 -0.18470865520E+03 -0.95611000428E+01 -0.49655054425E+03  0.52987994662E+03  0.12699999809E+01 0.  1.
</event>
<event>
 5   0  0.2938783E-03  0.7060949E+03  0.7818609E-02  0.9706865E-01
        1   -1    0    0  501    0  0.00000000000E+00  0.00000000000E+00  0.30687885803E+03  0.30687885807E+03  0.50400001928E-02 0.  1.
       -1   -1    0    0    0  501  0.00000000000E+00  0.00000000000E+00 -0.40616191659E+03  0.40616191662E+03  0.50400001928E-02 0. -1.
    10030    2    1    2    0    0  0.00000000000E+00  0.00000000000E+00 -0.99283058553E+02  0.71304077469E+03  0.70609490910E+03 0.  0.
        4    1    3    3  502    0 -0.23360965559E+03  0.85014459231E+02  0.20350340713E+03  0.32127274873E+03  0.12699999809E+01 0.  1.
       -4    1    3    3    0  502  0.23360965559E+03 -0.85014459231E+02 -0.30278646568E+03  0.39176802596E+03  0.12699999809E+01 0. -1.
</event>
<event>
 5   0  0.2937617E-03  0.6974961E+03  0.7818609E-02  0.9721524E-01
       -1   -1    0    0    0  501  0.00000000000E+00  0.00000000000E+00  0.43079903703E+03  0.43079903706E+03  0.50400001928E-02 0. -1.
        1   -1    0    0  501    0  0.00000000000E+00  0.00000000000E+00 -0.28232471404E+03  0.28232471408E+03  0.50400001928E-02 0.  1.
    10030    2    1    2    0    0  0.00000000000E+00  0.00000000000E+00  0.14847432299E+03  0.71312375114E+03  0.69749613608E+03 0.  0.
        3    1    3    3  502    0  0.27228093588E+03 -0.76006796551E+02  0.28304642826E+03  0.40003653823E+03  0.10100000352E+00 0. -1.
       -3    1    3    3    0  502 -0.27228093588E+03  0.76006796551E+02 -0.13457210527E+03  0.31308721291E+03  0.10100000352E+00 0.  1.
</event>
<event>
 5   0  0.5023894E-03  0.7007724E+03  0.7818609E-02  0.9715912E-01
        2   -1    0    0  501    0  0.00000000000E+00  0.00000000000E+00  0.12042146934E+04  0.12042146934E+04  0.25500000920E-02 0. -1.
       -2   -1    0    0    0  501  0.00000000000E+00  0.00000000000E+00 -0.10195065416E+03  0.10195065419E+03  0.25500000920E-02 0.  1.
    10030    2    1    2    0    0  0.00000000000E+00  0.00000000000E+00  0.11022640392E+04  0.13061653476E+04  0.70077236179E+03 0.  0.
        2    1    3    3  502    0 -0.21959974703E+02  0.13763040365E+01  0.12029257340E+04  0.12031269494E+04  0.25500000920E-02 0. -1.
       -2    1    3    3    0  502  0.21959974703E+02 -0.13763040365E+01 -0.10066169479E+03  0.10303839822E+03  0.25500000920E-02 0.  1.
</event>
<event>
 5   0  0.2937617E-03  0.7012810E+03  0.7818609E-02  0.9715044E-01
        1   -1    0    0  501    0  0.00000000000E+00  0.00000000000E+00  0.43361067210E+03  0.43361067213E+03  0.50400001928E-02 0.  1.
       -1   -1    0    0    0  501  0.00000000000E+00  0.00000000000E+00 -0.28354642090E+03  0.28354642094E+03  0.50400001928E-02 0. -1.
    10030    2    1    2    0    0  0.00000000000E+00  0.00000000000E+00  0.15006425121E+03  0.71715709307E+03  0.70128098267E+03 0.  0.
        3    1    3    3  502    0 -0.25367536661E+03  0.48866446764E+02 -0.16742087955E+03  0.30784554951E+03  0.10100000352E+00 0. -1.
       -3    1    3    3    0  502  0.25367536661E+03 -0.48866446764E+02  0.31748513075E+03  0.40931154356E+03  0.10100000352E+00 0.  1.
</event>
<event>
 5   0  0.4878235E-03  0.7011464E+03  0.7818609E-02  0.9715274E-01
        2   -1    0    0  501    0  0.00000000000E+00  0.00000000000E+00  0.56147819955E+03  0.56147819955E+03  0.25500000920E-02 0. -1.
       -2   -1    0    0    0  501  0.00000000000E+00  0.00000000000E+00 -0.21888929973E+03  0.21888929974E+03  0.25500000920E-02 0.  1.
    10030    2    1    2    0    0  0.00000000000E+00  0.00000000000E+00  0.34258889982E+03  0.78036749930E+03  0.70114640389E+03 0.  0.
        4    1    3    3  502    0 -0.58685571722E+02  0.34184227406E+03  0.11454493769E+03  0.36527016346E+03  0.12699999809E+01 0. -1.
       -4    1    3    3    0  502  0.58685571722E+02 -0.34184227406E+03  0.22804396212E+03  0.41509733584E+03  0.12699999809E+01 0.  1.
</event>
<event>
 5   0  0.5072407E-03  0.7001152E+03  0.7818609E-02  0.9717035E-01
        2   -1    0    0  501    0  0.00000000000E+00  0.00000000000E+00  0.33072141177E+03  0.33072141178E+03  0.25500000920E-02 0. -1.
       -2   -1    0    0    0  501  0.00000000000E+00  0.00000000000E+00 -0.37052435601E+03  0.37052435602E+03  0.25500000920E-02 0.  1.
    10030    2    1    2    0    0  0.00000000000E+00  0.00000000000E+00 -0.39802944240E+02  0.70124576779E+03  0.70011524228E+03 0.  0.
        1    1    3    3  502    0 -0.87369595083E+02  0.23314020026E+03 -0.26637308059E+03  0.36461269480E+03  0.50400001928E-02 0.  1.
       -1    1    3    3    0  502  0.87369595083E+02 -0.23314020026E+03  0.22657013635E+03  0.33663307299E+03  0.50400001928E-02 0. -1.
</event>
<event>
 5   0  0.5113683E-03  0.7009268E+03  0.7818609E-02  0.9715649E-01
        2   -1    0    0  501    0  0.00000000000E+00  0.00000000000E+00  0.51658078346E+03  0.51658078347E+03  0.25500000920E-02 0.  1.
       -2   -1    0    0    0  501  0.00000000000E+00  0.00000000000E+00 -0.23776454235E+03  0.23776454236E+03  0.25500000920E-02 0. -1.
    10030    2    1    2    0    0  0.00000000000E+00  0.00000000000E+00  0.27881624112E+03  0.75434532583E+03  0.70092679667E+03 0.  0.
        3    1    3    3  502    0 -0.82633701687E+02 -0.48102339333E+02 -0.22345613915E+03  0.24305312182E+03  0.10100000352E+00 0. -1.
       -3    1    3    3    0  502  0.82633701687E+02  0.48102339333E+02  0.50227238026E+03  0.51129220401E+03  0.10100000352E+00 0.  1.
</event>
<event>
 5   0  0.5113683E-03  0.7001536E+03  0.7818609E-02  0.9716970E-01
       -2   -1    0    0    0  501  0.00000000000E+00  0.00000000000E+00  0.38649514660E+03  0.38649514661E+03  0.25500000920E-02 0. -1.
        2   -1    0    0  501    0  0.00000000000E+00  0.00000000000E+00 -0.31709007621E+03  0.31709007622E+03  0.25500000920E-02 0.  1.
    10030    2    1    2    0    0  0.00000000000E+00  0.00000000000E+00  0.69405070392E+02  0.70358522283E+03  0.70015362742E+03 0.  0.
        3    1    3    3  502    0  0.30083251166E+03 -0.14517687803E+03 -0.70583296565E+02  0.34140670459E+03  0.10100000352E+00 0.  1.
       -3    1    3    3    0  502 -0.30083251166E+03  0.14517687803E+03  0.13998836696E+03  0.36217851823E+03  0.10100000352E+00 0. -1.
</event>
<event>
 5   0  0.5076796E-03  0.6995880E+03  0.7818609E-02  0.9717937E-01
        2   -1    0    0  501    0  0.00000000000E+00  0.00000000000E+00  0.25692014158E+03  0.25692014159E+03  0.25500000920E-02 0. -1.
       -2   -1    0    0    0  501  0.00000000000E+00  0.00000000000E+00 -0.47624076821E+03  0.47624076821E+03  0.25500000920E-02 0.  1.
    10030    2    1    2    0    0  0.00000000000E+00  0.00000000000E+00 -0.21932062662E+03  0.73316090981E+03  0.69958800905E+03 0.  0.
        5    1    3    3  502    0 -0.18667850968E+03 -0.22147219625E+03 -0.31511693278E+03  0.42804155290E+03  0.46999998093E+01 0. -1.
       -5    1    3    3    0  502  0.18667850968E+03  0.22147219625E+03  0.95796306155E+02  0.30511935691E+03  0.46999998093E+01 0.  1.
</event>
<event>
 5   0  0.2937617E-03  0.6996836E+03  0.7818609E-02  0.9717773E-01
        1   -1    0    0  501    0  0.00000000000E+00  0.00000000000E+00  0.10257545751E+04  0.10257545751E+04  0.50400001928E-02 0. -1.
       -1   -1    0    0    0  501  0.00000000000E+00  0.00000000000E+00 -0.11931633594E+03  0.11931633604E+03  0.50400001928E-02 0.  1.
    10030    2    1    2    0    0  0.00000000000E+00  0.00000000000E+00  0.90643823919E+03  0.11450709112E+04  0.69968357861E+03 0.  0.
        3    1    3    3  502    0 -0.21609307360E+03  0.17905165881E+03  0.79507338010E+03  0.84314731983E+03  0.10100000352E+00 0. -1.
       -3    1    3    3    0  502  0.21609307360E+03 -0.17905165881E+03  0.11136485909E+03  0.30192359136E+03  0.10100000352E+00 0.  1.
</event>
<event>
 5   0  0.2938783E-03  0.7014568E+03  0.7818609E-02  0.9714744E-01
        1   -1    0    0  501    0  0.00000000000E+00  0.00000000000E+00  0.22233537112E+03  0.22233537118E+03  0.50400001928E-02 0.  1.
       -1   -1    0    0    0  501  0.00000000000E+00  0.00000000000E+00 -0.55326513513E+03  0.55326513515E+03  0.50400001928E-02 0. -1.
    10030    2    1    2    0    0  0.00000000000E+00  0.00000000000E+00 -0.33092976401E+03  0.77560050633E+03  0.70145679604E+03 0.  0.
        4    1    3    3  502    0  0.87815503278E+02 -0.99869455524E+02 -0.52430371723E+03  0.54090800656E+03  0.12699999809E+01 0. -1.
       -4    1    3    3    0  502 -0.87815503278E+02  0.99869455524E+02  0.19337395322E+03  0.23469249977E+03  0.12699999809E+01 0.  1.
</event>
<event>
 5   0  0.4878235E-03  0.7095243E+03  0.7818609E-02  0.9701082E-01
        2   -1    0    0  501    0  0.00000000000E+00  0.00000000000E+00  0.71160723277E+03  0.71160723277E+03  0.25500000920E-02 0.  1.
       -2   -1    0    0    0  501  0.00000000000E+00  0.00000000000E+00 -0.17686186504E+03  0.17686186506E+03  0.25500000920E-02 0. -1.
    10030    2    1    2    0    0  0.00000000000E+00  0.00000000000E+00  0.53474536773E+03  0.88846909783E+03  0.70952429803E+03 0.  0.
        4    1    3    3  502    0  0.30091624956E+03  0.84232949251E+02  0.57059117981E+02  0.31765253790E+03  0.12699999809E+01 0. -1.
       -4    1    3    3    0  502 -0.30091624956E+03 -0.84232949251E+02  0.47768624975E+03  0.57081655993E+03  0.12699999809E+01 0.  1.
</event>
<event>
 5   0  0.2937617E-03  0.7030561E+03  0.7818609E-02  0.9712020E-01
        1   -1    0    0  501    0  0.00000000000E+00  0.00000000000E+00  0.33622610927E+03  0.33622610930E+03  0.50400001928E-02 0.  1.
       -1   -1    0    0    0  501  0.00000000000E+00  0.00000000000E+00 -0.36752639597E+03  0.36752639600E+03  0.50400001928E-02 0. -1.
    10030    2    1    2    0    0  0.00000000000E+00  0.00000000000E+00 -0.31300286702E+02  0.70375250530E+03  0.70305610073E+03 0.  0.
        3    1    3    3  502    0  0.34455682364E+03 -0.18047785795E+02 -0.82998529778E+02  0.35487165770E+03  0.10100000352E+00 0. -1.
       -3    1    3    3    0  502 -0.34455682364E+03  0.18047785795E+02  0.51698243076E+02  0.34888084761E+03  0.10100000352E+00 0.  1.
</event>
<event>
 5   0  0.3013140E-03  0.6993170E+03  0.7818609E-02  0.9718401E-01
        1   -1    0    0  501    0  0.00000000000E+00  0.00000000000E+00  0.14238019098E+04  0.14238019098E+04  0.50400001928E-02 0.  1.
       -1   -1    0    0    0  501  0.00000000000E+00  0.00000000000E+00 -0.85869447827E+02  0.85869447975E+02  0.50400001928E-02 0. -1.
    10030    2    1    2    0    0  0.00000000000E+00  0.00000000000E+00  0.13379324620E+04  0.15096713578E+04  0.69931704950E+03 0.  0.
        2    1    3    3  502    0  0.82426489614E+02 -0.27438980354E+03  0.11016773918E+04  0.11383219958E+04  0.25500000920E-02 0.  1.
       -2    1    3    3    0  502 -0.82426489614E+02  0.27438980354E+03  0.23625507019E+03  0.37134936202E+03  0.25500000920E-02 0. -1.
</event>
<event>
 5   0  0.2937617E-03  0.7001836E+03  0.7818609E-02  0.9716918E-01
       -1   -1    0    0    0  501  0.00000000000E+00  0.00000000000E+00  0.24860810783E+03  0.24860810788E+03  0.50400001928E-02 0. -1.
        1   -1    0    0  501    0  0.00000000000E+00  0.00000000000E+00 -0.49300195940E+03  0.49300195943E+03  0.50400001928E-02 0.  1.
    10030    2    1    2    0    0  0.00000000000E+00  0.00000000000E+00 -0.24439385157E+03  0.74161006731E+03  0.70018364537E+03 0.  0.
        3    1    3    3  502    0 -0.23161245758E+03  0.31516231292E+02 -0.39824442617E+03  0.46177509300E+03  0.10100000352E+00 0.  1.
       -3    1    3    3    0  502  0.23161245758E+03 -0.31516231292E+02  0.15385057460E+03  0.27983497431E+03  0.10100000352E+00 0. -1.
</event>
<event>
 5   0  0.2913582E-03  0.6946284E+03  0.7818609E-02  0.9726463E-01
       -1   -1    0    0    0  501  0.00000000000E+00  0.00000000000E+00  0.30365461923E+03  0.30365461927E+03  0.50400001928E-02 0.  1.
        1   -1    0    0  501    0  0.00000000000E+00  0.00000000000E+00 -0.39725117562E+03  0.39725117565E+03  0.50400001928E-02 0. -1.
    10030    2    1    2    0    0  0.00000000000E+00  0.00000000000E+00 -0.93596556398E+02  0.70090579492E+03  0.69462840281E+03 0.  0.
        1    1    3    3  502    0 -0.33954848386E+02 -0.34517624293E+03 -0.28535430642E+02  0.34801413942E+03  0.50400001928E-02 0.  1.
       -1    1    3    3    0  502  0.33954848386E+02  0.34517624293E+03 -0.65061125755E+02  0.35289165550E+03  0.50400001928E-02 0. -1.
</event>
<event>
 5   0  0.2934483E-03  0.6983604E+03  0.7818609E-02  0.9720040E-01
        1   -1    0    0  501    0  0.00000000000E+00  0.00000000000E+00  0.83071729839E+03  0.83071729841E+03  0.50400001928E-02 0.  1.
       -1   -1    0    0    0  501  0.00000000000E+00  0.00000000000E+00 -0.14677292669E+03  0.14677292678E+03  0.50400001928E-02 0. -1.
    10030    2    1    2    0    0  0.00000000000E+00  0.00000000000E+00  0.68394437170E+03  0.97749022519E+03  0.69836039175E+03 0.  0.
        5    1    3    3  502    0  0.30950006690E+03 -0.16155565864E+03  0.33669830574E+03  0.48505500857E+03  0.46999998093E+01 0. -1.
       -5    1    3    3    0  502 -0.30950006690E+03  0.16155565864E+03  0.34724606596E+03  0.49243521662E+03  0.46999998093E+01 0.  1.
</event>
<event>
 5   0  0.3013140E-03  0.6975832E+03  0.7818609E-02  0.9721374E-01
       -1   -1    0    0    0  501  0.00000000000E+00  0.00000000000E+00  0.19227291630E+03  0.19227291637E+03  0.50400001928E-02 0.  1.
        1   -1    0    0  501    0  0.00000000000E+00  0.00000000000E+00 -0.63272348010E+03  0.63272348012E+03  0.50400001928E-02 0. -1.
    10030    2    1    2    0    0  0.00000000000E+00  0.00000000000E+00 -0.44045056380E+03  0.82499639649E+03  0.69758322448E+03 0.  0.
        2    1    3    3  502    0 -0.22245495152E+02  0.23898193295E+03 -0.51952757117E+03  0.57229024415E+03  0.25500000920E-02 0. -1.
       -2    1    3    3    0  502  0.22245495152E+02 -0.23898193295E+03  0.79077007366E+02  0.25270615235E+03  0.25500000920E-02 0.  1.
</event>
<event>
 5   0  0.1981750E-03  0.6961973E+03  0.7818609E-02  0.9723758E-01
        3   -1    0    0  501    0  0.00000000000E+00  0.00000000000E+00  0.82802751157E+03  0.82802751773E+03  0.10100000352E+00 0.  1.
       -3   -1    0    0    0  501  0.00000000000E+00  0.00000000000E+00 -0.14633891632E+03  0.14633895117E+03  0.10100000352E+00 0. -1.
    10030    2    1    2    0    0  0.00000000000E+00  0.00000000000E+00  0.68168859525E+03  0.97436646890E+03  0.69619729591E+03 0.  0.
        2    1    3    3  502    0  0.11783619195E+03 -0.32598900936E+03  0.29617970886E+03  0.45593488822E+03  0.25500000920E-02 0. -1.
       -2    1    3    3    0  502 -0.11783619195E+03  0.32598900936E+03  0.38550888639E+03  0.51843158068E+03  0.25500000920E-02 0.  1.
</event>
<event>
 5   0  0.1981750E-03  0.7003873E+03  0.7818609E-02  0.9716570E-01
        4   -1    0    0  501    0  0.00000000000E+00  0.00000000000E+00  0.73436666992E+03  0.73436776808E+03  0.12699999809E+01 0.  1.
       -4   -1    0    0    0  501  0.00000000000E+00  0.00000000000E+00 -0.16699142513E+03  0.16699625435E+03  0.12699999809E+01 0. -1.
    10030    2    1    2    0    0  0.00000000000E+00  0.00000000000E+00  0.56737524480E+03  0.90136402243E+03  0.70038734463E+03 0.  0.
        3    1    3    3  502    0  0.11036583967E+03  0.29277931877E+03  0.48609208337E+03  0.57808811767E+03  0.10100000352E+00 0.  1.
       -3    1    3    3    0  502 -0.11036583967E+03 -0.29277931877E+03  0.81283161424E+02  0.32327590476E+03  0.10100000352E+00 0. -1.
</event>
<event>
 5   0  0.5076796E-03  0.7009460E+03  0.7818609E-02  0.9715616E-01
        2   -1    0    0  501    0  0.00000000000E+00  0.00000000000E+00  0.61185466024E+03  0.61185466025E+03  0.25500000920E-02 0.  1.
       -2   -1    0    0    0  501  0.00000000000E+00  0.00000000000E+00 -0.20075242642E+03  0.20075242644E+03  0.25500000920E-02 0. -1.
    10030    2    1    2    0    0  0.00000000000E+00  0.00000000000E+00  0.41110223382E+03  0.81260708669E+03  0.70094595418E+03 0.  0.
        5    1    3    3  502    0 -0.11232131021E+03  0.13217645193E+03 -0.14746025866E+03  0.22771321668E+03  0.46999998093E+01 0. -1.
       -5    1    3    3    0  502  0.11232131021E+03 -0.13217645193E+03  0.55856249247E+03  0.58489387000E+03  0.46999998093E+01 0.  1.
</event>
<event>
 5   0  0.2913582E-03  0.6987068E+03  0.7818609E-02  0.9719446E-01
       -1   -1    0    0    0  501  0.00000000000E+00  0.00000000000E+00  0.26388982454E+03  0.26388982458E+03  0.50400001928E-02 0.  1.
        1   -1    0    0  501    0  0.00000000000E+00  0.00000000000E+00 -0.46249531691E+03  0.46249531694E+03  0.50400001928E-02 0. -1.
    10030    2    1    2    0    0  0.00000000000E+00  0.00000000000E+00 -0.19860549237E+03  0.72638514152E+03  0.69870682852E+03 0.  0.
        1    1    3    3  502    0 -0.23267820214E+03 -0.25115944767E+03 -0.27069465643E+02  0.34344281897E+03  0.50400001928E-02 0.  1.
       -1    1    3    3    0  502  0.23267820214E+03  0.25115944767E+03 -0.17153602673E+03  0.38294232255E+03  0.50400001928E-02 0. -1.
</event>
<event>
 5   0  0.5076796E-03  0.6992378E+03  0.7818609E-02  0.9718537E-01
        2   -1    0    0  501    0  0.00000000000E+00  0.00000000000E+00  0.17698100250E+04  0.17698100250E+04  0.25500000920E-02 0.  1.
       -2   -1    0    0    0  501  0.00000000000E+00  0.00000000000E+00 -0.69065817505E+02  0.69065817552E+02  0.25500000920E-02 0. -1.
    10030    2    1    2    0    0  0.00000000000E+00  0.00000000000E+00  0.17007442075E+04  0.18388758426E+04  0.69923780291E+03 0.  0.
        5    1    3    3  502    0 -0.20317149395E+03  0.28432058808E+03  0.82481624181E+03  0.89580175012E+03  0.46999998093E+01 0. -1.
       -5    1    3    3    0  502  0.20317149395E+03 -0.28432058808E+03  0.87592796573E+03  0.94307409248E+03  0.46999998093E+01 0.  1.
</event>
<event>
 5   0  0.2937617E-03  0.7043369E+03  0.7818609E-02  0.9709844E-01
       -1   -1    0    0    0  501  0.00000000000E+00  0.00000000000E+00  0.22683230786E+03  0.22683230791E+03  0.50400001928E-02 0.  1.
        1   -1    0    0  501    0  0.00000000000E+00  0.00000000000E+00 -0.54675907243E+03  0.54675907246E+03  0.50400001928E-02 0. -1.
    10030    2    1    2    0    0  0.00000000000E+00  0.00000000000E+00 -0.31992676458E+03  0.77359138037E+03  0.70433691447E+03 0.  0.
        3    1    3    3  502    0  0.22471564794E+03  0.10617399218E+03  0.11407400913E+03  0.27346467560E+03  0.10100000352E+00 0.  1.
       -3    1    3    3    0  502 -0.22471564794E+03 -0.10617399218E+03 -0.43400077370E+03  0.50012670476E+03  0.10100000352E+00 0. -1.
</event>
<event>
 5   0  0.4878235E-03  0.7001213E+03  0.7818609E-02  0.9717025E-01
       -2   -1    0    0    0  501  0.00000000000E+00  0.00000000000E+00  0.35432438062E+03  0.35432438062E+03  0.25500000920E-02 0. -1.
        2   -1    0    0  501    0  0.00000000000E+00  0.00000000000E+00 -0.34584824894E+03  0.34584824895E+03  0.25500000920E-02 0.  1.
    10030    2    1    2    0    0  0.00000000000E+00  0.00000000000E+00  0.84761316718E+01  0.70017262958E+03  0.70012132263E+03 0.  0.
        4    1    3    3  502    0  0.82362417636E+02  0.15731484199E+03 -0.29746156244E+03  0.34643400725E+03  0.12699999809E+01 0.  1.
       -4    1    3    3    0  502 -0.82362417636E+02 -0.15731484199E+03  0.30593769411E+03  0.35373862233E+03  0.12699999809E+01 0. -1.
</event>
<event>
 5   0  0.2938783E-03  0.6984507E+03  0.7818609E-02  0.9719885E-01
        1   -1    0    0  501    0  0.00000000000E+00  0.00000000000E+00  0.39425174590E+03  0.39425174593E+03  0.50400001928E-02 0. -1.
       -1   -1    0    0    0  501  0.00000000000E+00  0.00000000000E+00 -0.30934128901E+03  0.30934128905E+03  0.50400001928E-02 0.  1.
    10030    2    1    2    0    0  0.00000000000E+00  0.00000000000E+00  0.84910456892E+02  0.70359303498E+03  0.69845069488E+03 0.  0.
        4    1    3    3  502    0 -0.28423309850E+03 -0.78216334817E+02  0.23105135529E+03  0.37455652576E+03  0.12699999809E+01 0. -1.
       -4    1    3    3    0  502  0.28423309850E+03  0.78216334817E+02 -0.14614089839E+03  0.32903650921E+03  0.12699999809E+01 0.  1.
</event>
<event>
 5   0  0.4878235E-03  0.6993624E+03  0.7818609E-02  0.9718323E-01
        2   -1    0    0  501    0  0.00000000000E+00  0.00000000000E+00  0.15310636890E+04  0.15310636890E+04  0.25500000920E-02 0.  1.
       -2   -1    0    0    0  501  0.00000000000E+00  0.00000000000E+00 -0.79864056630E+02  0.79864056671E+02  0.25500000920E-02 0. -1.
    10030    2    1    2    0    0  0.00000000000E+00  0.00000000000E+00  0.14511996323E+04  0.16109277457E+04  0.69936244451E+03 0.  0.
        4    1    3    3  502    0  0.29056298208E+03  0.15406537862E+03  0.45196362968E+03  0.55895950023E+03  0.12699999809E+01 0.  1.
       -4    1    3    3    0  502 -0.29056298208E+03 -0.15406537862E+03  0.99923600267E+03  0.10519682454E+04  0.12699999809E+01 0. -1.
</event>
<event>
 5   0  0.5023894E-03  0.7016989E+03  0.7818609E-02  0.9714331E-01
       -2   -1    0    0    0  501  0.00000000000E+00  0.00000000000E+00  0.11264240388E+03  0.11264240390E+03  0.25500000920E-02 0. -1.
        2   -1    0    0  501    0  0.00000000000E+00  0.00000000000E+00 -0.10927974227E+04  0.10927974227E+04  0.25500000920E-02 0.  1.
    10030    2    1    2    0    0  0.00000000000E+00  0.00000000000E+00 -0.98015501882E+03  0.12054398266E+04  0.70169887747E+03 0.  0.
        2    1    3    3  502    0 -0.22273066578E+03  0.26647754229E+03 -0.57556030646E+03  0.67222681916E+03  0.25500000920E-02 0.  1.
       -2    1    3    3    0  502  0.22273066578E+03 -0.26647754229E+03 -0.40459471236E+03  0.53321300744E+03  0.25500000920E-02 0. -1.
</event>
<event>
 5   0  0.2913582E-03  0.7005924E+03  0.7818609E-02  0.9716220E-01
        1   -1    0    0  501    0  0.00000000000E+00  0.00000000000E+00  0.12491541887E+04  0.12491541887E+04  0.50400001928E-02 0.  1.
       -1   -1    0    0    0  501  0.00000000000E+00  0.00000000000E+00 -0.98232401080E+02  0.98232401209E+02  0.50400001928E-02 0. -1.
    10030    2    1    2    0    0  0.00000000000E+00  0.00000000000E+00  0.11509217876E+04  0.13473865899E+04  0.70059236469E+03 0.  0.
        1    1    3    3  502    0  0.13982326812E+03  0.11616221199E+03 -0.42171189340E+00  0.18178114222E+03  0.50400001928E-02 0. -1.
       -1    1    3    3    0  502 -0.13982326812E+03 -0.11616221199E+03  0.11513434995E+04  0.11656054477E+04  0.50400001928E-02 0.  1.
</event>
<event>
 5   0  0.2934483E-03  0.7004706E+03  0.7818609E-02  0.9716428E-01
       -1   -1    0    0    0  501  0.00000000000E+00  0.00000000000E+00  0.20180485173E+03  0.20180485179E+03  0.50400001928E-02 0. -1.
        1   -1    0    0  501    0  0.00000000000E+00  0.00000000000E+00 -0.60783854864E+03  0.60783854866E+03  0.50400001928E-02 0.  1.
    10030    2    1    2    0    0  0.00000000000E+00  0.00000000000E+00 -0.40603369692E+03  0.80964340045E+03  0.70047060814E+03 0.  0.
        5    1    3    3  502    0  0.49440107240E+02 -0.28405754595E+03  0.26733159328E+02  0.28960277178E+03  0.46999998093E+01 0. -1.
       -5    1    3    3    0  502 -0.49440107240E+02  0.28405754595E+03 -0.43276685624E+03  0.52004062868E+03  0.46999998093E+01 0.  1.
</event>
<event>
 5   0  0.2913582E-03  0.6950529E+03  0.7818609E-02  0.9725730E-01
        1   -1    0    0  501    0  0.00000000000E+00  0.00000000000E+00  0.99577079993E+03  0.99577079994E+03  0.50400001928E-02 0.  1.
       -1   -1    0    0    0  501  0.00000000000E+00  0.00000000000E+00 -0.12128759585E+03  0.12128759595E+03  0.50400001928E-02 0. -1.
    10030    2    1    2    0    0  0.00000000000E+00  0.00000000000E+00  0.87448320408E+03  0.11170583959E+04  0.69505293728E+03 0.  0.
        1    1    3    3  502    0  0.19855886870E+03  0.28319225542E+03  0.38271261311E+03  0.51584146995E+03  0.50400001928E-02 0.  1.
       -1    1    3    3    0  502 -0.19855886870E+03 -0.28319225542E+03  0.49177059097E+03  0.60121692594E+03  0.50400001928E-02 0. -1.
</event>
<event>
 5   0  0.5076796E-03  0.7001242E+03  0.7818609E-02  0.9717020E-01
        2   -1    0    0  501    0  0.00000000000E+00  0.00000000000E+00  0.87310050201E+03  0.87310050202E+03  0.25500000920E-02 0.  1.
       -2   -1    0    0    0  501  0.00000000000E+00  0.00000000000E+00 -0.14035438064E+03  0.14035438066E+03  0.25500000920E-02 0. -1.
    10030    2    1    2    0    0  0.00000000000E+00  0.00000000000E+00  0.73274612137E+03  0.10134548827E+04  0.70012421815E+03 0.  0.
        5    1    3    3  502    0  0.37602213903E+02  0.33196451336E+03  0.51754893354E+03  0.61603031843E+03  0.46999998093E+01 0.  1.
       -5    1    3    3    0  502 -0.37602213903E+02 -0.33196451336E+03  0.21519718783E+03  0.39742456425E+03  0.46999998093E+01 0. -1.
</event>
<event>
 5   0  0.5113683E-03  0.6993402E+03  0.7818609E-02  0.9718361E-01
        2   -1    0    0  501    0  0.00000000000E+00  0.00000000000E+00  0.74802176041E+03  0.74802176042E+03  0.25500000920E-02 0.  1.
       -2   -1    0    0    0  501  0.00000000000E+00  0.00000000000E+00 -0.16345670281E+03  0.16345670283E+03  0.25500000920E-02 0. -1.
    10030    2    1    2    0    0  0.00000000000E+00  0.00000000000E+00  0.58456505761E+03  0.91147846324E+03  0.69934017644E+03 0.  0.
        3    1    3    3  502    0 -0.11590842811E+03 -0.72732532953E+02 -0.12711048222E+03  0.18676688665E+03  0.10100000352E+00 0. -1.
       -3    1    3    3    0  502  0.11590842811E+03  0.72732532953E+02  0.71167553983E+03  0.72471157659E+03  0.10100000352E+00 0.  1.
</event>
<event>
 5   0  0.5076796E-03  0.7000710E+03  0.7818609E-02  0.9717111E-01
        2   -1    0    0  501    0  0.00000000000E+00  0.00000000000E+00  0.88757049286E+03  0.88757049286E+03  0.25500000920E-02 0. -1.
       -2   -1    0    0    0  501  0.00000000000E+00  0.00000000000E+00 -0.13804522244E+03  0.13804522247E+03  0.25500000920E-02 0.  1.
    10030    2    1    2    0    0  0.00000000000E+00  0.00000000000E+00  0.74952527042E+03  0.10256157153E+04  0.70007104249E+03 0.  0.
        5    1    3    3  502    0 -0.19128836270E+02 -0.21418838136E+03  0.77933063265E+03  0.80846824308E+03  0.46999998093E+01 0. -1.
       -5    1    3    3    0  502  0.19128836270E+02  0.21418838136E+03 -0.29805362234E+02  0.21714747225E+03  0.46999998093E+01 0.  1.
</event>
<event>
 5   0  0.3013140E-03  0.7016751E+03  0.7818609E-02  0.9714372E-01
       -1   -1    0    0    0  501  0.00000000000E+00  0.00000000000E+00  0.74624585569E+02  0.74624585739E+02  0.50400001928E-02 0. -1.
        1   -1    0    0  501    0  0.00000000000E+00  0.00000000000E+00 -0.16494160585E+04  0.16494160585E+04  0.50400001928E-02 0.  1.
    10030    2    1    2    0    0  0.00000000000E+00  0.00000000000E+00 -0.15747914730E+04  0.17240406443E+04  0.70167510987E+03 0.  0.
        2    1    3    3  502    0 -0.36914308569E+02  0.15777593310E+02  0.68962703164E+02  0.79796322359E+02  0.25500000920E-02 0. -1.
       -2    1    3    3    0  502  0.36914308569E+02 -0.15777593310E+02 -0.16437541761E+04  0.16442443219E+04  0.25500000920E-02 0.  1.
</event>
<event>
 5   0  0.4878235E-03  0.6982218E+03  0.7818609E-02  0.9720278E-01
       -2   -1    0    0    0  501  0.00000000000E+00  0.00000000000E+00  0.14129855024E+03  0.14129855027E+03  0.25500000920E-02 0. -1.
        2   -1    0    0  501    0  0.00000000000E+00  0.00000000000E+00 -0.86255953798E+03  0.86255953798E+03  0.25500000920E-02 0.  1.
    10030    2    1    2    0    0  0.00000000000E+00  0.00000000000E+00 -0.72126098774E+03  0.10038580883E+04  0.69822177631E+03 0.  0.
        4    1    3    3  502    0  0.95926689648E+02 -0.17250777229E+02  0.12133749171E+03  0.15564035112E+03  0.12699999809E+01 0. -1.
       -4    1    3    3    0  502 -0.95926689648E+02  0.17250777229E+02 -0.84259847945E+03  0.84821773713E+03  0.12699999809E+01 0.  1.
</event>
<event>
 5   0  0.2913582E-03  0.7002420E+03  0.7818609E-02  0.9716818E-01
       -1   -1    0    0    0  501  0.00000000000E+00  0.00000000000E+00  0.22167282720E+03  0.22167282725E+03  0.50400001928E-02 0. -1.
        1   -1    0    0  501    0  0.00000000000E+00  0.00000000000E+00 -0.55299840462E+03  0.55299840464E+03  0.50400001928E-02 0.  1.
    10030    2    1    2    0    0  0.00000000000E+00  0.00000000000E+00 -0.33132557742E+03  0.77467123189E+03  0.70024201478E+03 0.  0.
        1    1    3    3  502    0  0.20451594415E+02  0.24913149642E+01  0.22100163173E+03  0.22195989642E+03  0.50400001928E-02 0. -1.
       -1    1    3    3    0  502 -0.20451594415E+02 -0.24913149642E+01 -0.55232720915E+03  0.55271133547E+03  0.50400001928E-02 0.  1.
</event>
<event>
 5   0  0.5113683E-03  0.6983932E+03  0.7818609E-02  0.9719984E-01
       -2   -1    0    0    0  501  0.00000000000E+00  0.00000000000E+00  0.29871979377E+03  0.29871979378E+03  0.25500000920E-02 0. -1.
        2   -1    0    0  501    0  0.00000000000E+00  0.00000000000E+00 -0.40820286077E+03  0.40820286077E+03  0.25500000920E-02 0.  1.
    10030    2    1    2    0    0  0.00000000000E+00  0.00000000000E+00 -0.10948306699E+03  0.70692265456E+03  0.69839322560E+03 0.  0.
        3    1    3    3  502    0  0.31372255300E+03 -0.81712432574E+02  0.76610411265E+02  0.33311848825E+03  0.10100000352E+00 0. -1.
       -3    1    3    3    0  502 -0.31372255300E+03  0.81712432574E+02 -0.18609347826E+03  0.37380416631E+03  0.10100000352E+00 0.  1.
</event>
<event>
 5   0  0.2913582E-03  0.6993937E+03  0.7818609E-02  0.9718270E-01
       -1   -1    0    0    0  501  0.00000000000E+00  0.00000000000E+00  0.62675047171E+02  0.62675047374E+02  0.50400001928E-02 0. -1.
        1   -1    0    0  501    0  0.00000000000E+00  0.00000000000E+00 -0.19511415462E+04  0.19511415462E+04  0.50400001928E-02 0.  1.
    10030    2    1    2    0    0  0.00000000000E+00  0.00000000000E+00 -0.18884664990E+04  0.20138165936E+04  0.69939370502E+03 0.  0.
        1    1    3    3  502    0  0.23035133143E+03  0.36623206043E+02 -0.16944465623E+04  0.17104245518E+04  0.50400001928E-02 0.  1.
       -1    1    3    3    0  502 -0.23035133143E+03 -0.36623206043E+02 -0.19401993678E+03  0.30339204176E+03  0.50400001928E-02 0. -1.
</event>
<event>
 5   0  0.5076796E-03  0.7004354E+03  0.7818609E-02  0.9716488E-01
        2   -1    0    0  501    0  0.00000000000E+00  0.00000000000E+00  0.14522263670E+04  0.14522263670E+04  0.25500000920E-02 0.  1.
       -2   -1    0    0    0  501  0.00000000000E+00  0.00000000000E+00 -0.84458202337E+02  0.84458202375E+02  0.25500000920E-02 0. -1.
    10030    2    1    2    0    0  0.00000000000E+00  0.00000000000E+00  0.13677681647E+04  0.15366845694E+04  0.70043537425E+03 0.  0.
        5    1    3    3  502    0  0.67755111560E+02 -0.29915749154E+03  0.10545451350E+04  0.10982593007E+04  0.46999998093E+01 0.  1.
       -5    1    3    3    0  502 -0.67755111560E+02  0.29915749154E+03  0.31322302968E+03  0.43842526866E+03  0.46999998093E+01 0. -1.
</event>
<event>
 5   0  0.2934483E-03  0.7062870E+03  0.7818609E-02  0.9706541E-01
        1   -1    0    0  501    0  0.00000000000E+00  0.00000000000E+00  0.15461810857E+04  0.15461810857E+04  0.50400001928E-02 0.  1.
       -1   -1    0    0    0  501  0.00000000000E+00  0.00000000000E+00 -0.80657011130E+02  0.80657011288E+02  0.50400001928E-02 0. -1.
    10030    2    1    2    0    0  0.00000000000E+00  0.00000000000E+00  0.14655240746E+04  0.16268380970E+04  0.70628703847E+03 0.  0.
        5    1    3    3  502    0 -0.11997984330E+03  0.19435179559E+03  0.13530500789E+04  0.13722005646E+04  0.46999998093E+01 0.  1.
       -5    1    3    3    0  502  0.11997984330E+03 -0.19435179559E+03  0.11247399567E+03  0.25463753248E+03  0.46999998093E+01 0. -1.
</event>
<event>
 5   0  0.2938783E-03  0.6998225E+03  0.7818609E-02  0.9717536E-01
       -1   -1    0    0    0  501  0.00000000000E+00  0.00000000000E+00  0.23536612534E+03  0.23536612539E+03  0.50400001928E-02 0.  1.
        1   -1    0    0  501    0  0.00000000000E+00  0.00000000000E+00 -0.52020185925E+03  0.52020185927E+03  0.50400001928E-02 0. -1.
    10030    2    1    2    0    0  0.00000000000E+00  0.00000000000E+00 -0.28483573391E+03  0.75556798466E+03  0.69982253760E+03 0.  0.
        4    1    3    3  502    0 -0.30288573506E+03  0.82585536858E+01  0.46532241858E+02  0.30655315141E+03  0.12699999809E+01 0.  1.
       -4    1    3    3    0  502  0.30288573506E+03 -0.82585536858E+01 -0.33136797577E+03  0.44901483325E+03  0.12699999809E+01 0. -1.
</event>
<event>
 5   0  0.5023894E-03  0.7035391E+03  0.7818609E-02  0.9711199E-01
       -2   -1    0    0    0  501  0.00000000000E+00  0.00000000000E+00  0.58299642915E+03  0.58299642915E+03  0.25500000920E-02 0. -1.
        2   -1    0    0  501    0  0.00000000000E+00  0.00000000000E+00 -0.21225142068E+03  0.21225142069E+03  0.25500000920E-02 0.  1.
    10030    2    1    2    0    0  0.00000000000E+00  0.00000000000E+00  0.37074500847E+03  0.79524784985E+03  0.70353911148E+03 0.  0.
        2    1    3    3  502    0 -0.28400175346E+03 -0.20539655674E+03  0.21922803022E+03  0.41340739076E+03  0.25500000920E-02 0.  1.
       -2    1    3    3    0  502  0.28400175346E+03  0.20539655674E+03  0.15151697825E+03  0.38184045909E+03  0.25500000920E-02 0. -1.
</event>
<event>
 5   0  0.5113683E-03  0.7001942E+03  0.7818609E-02  0.9716900E-01
        2   -1    0    0  501    0  0.00000000000E+00  0.00000000000E+00  0.14058222314E+03  0.14058222316E+03  0.25500000920E-02 0.  1.
       -2   -1    0    0    0  501  0.00000000000E+00  0.00000000000E+00 -0.87185972606E+03  0.87185972606E+03  0.25500000920E-02 0. -1.
    10030    2    1    2    0    0  0.00000000000E+00  0.00000000000E+00 -0.73127750292E+03  0.10124419492E+04  0.70019419754E+03 0.  0.
        3    1    3    3  502    0  0.19388825973E+03  0.25912484149E+03 -0.55871229185E+03  0.64567621608E+03  0.10100000352E+00 0. -1.
       -3    1    3    3    0  502 -0.19388825973E+03 -0.25912484149E+03 -0.17256521106E+03  0.36676573315E+03  0.10100000352E+00 0.  1.
</event>
<event>
 5   0  0.2937617E-03  0.6990834E+03  0.7818609E-02  0.9718801E-01
       -1   -1    0    0    0  501  0.00000000000E+00  0.00000000000E+00  0.29460017378E+03  0.29460017383E+03  0.50400001928E-02 0.  1.
        1   -1    0    0  501    0  0.00000000000E+00  0.00000000000E+00 -0.41472954252E+03  0.41472954256E+03  0.50400001928E-02 0. -1.
    10030    2    1    2    0    0  0.00000000000E+00  0.00000000000E+00 -0.12012936874E+03  0.70932971638E+03  0.69908338652E+03 0.  0.
        3    1    3    3  502    0  0.20302652957E+03 -0.18329064461E+03  0.16075819108E+03  0.31726714029E+03  0.10100000352E+00 0.  1.
       -3    1    3    3    0  502 -0.20302652957E+03  0.18329064461E+03 -0.28088755982E+03  0.39206257609E+03  0.10100000352E+00 0. -1.
</event>
<event>
 5   0  0.1981750E-03  0.6989629E+03  0.7818609E-02  0.9719007E-01
       -4   -1    0    0    0  501  0.00000000000E+00  0.00000000000E+00  0.18334316371E+03  0.18334756224E+03  0.12699999809E+01 0.  1.
        4   -1    0    0  501    0  0.00000000000E+00  0.00000000000E+00 -0.66615473164E+03  0.66615594224E+03  0.12699999809E+01 0. -1.
    10030    2    1    2    0    0  0.00000000000E+00  0.00000000000E+00 -0.48281156793E+03  0.84950350448E+03  0.69896294180E+03 0.  0.
        4    1    3    3  502    0 -0.35316526803E+02 -0.29057462658E+03 -0.93520969703E+01  0.29286506329E+03  0.12699999809E+01 0.  1.
       -4    1    3    3    0  502  0.35316526803E+02  0.29057462658E+03 -0.47345947096E+03  0.55663844119E+03  0.12699999809E+01 0. -1.
</event>
<event>
 5   0  0.4878235E-03  0.7000723E+03  0.7818609E-02  0.9717109E-01
        2   -1    0    0  501    0  0.00000000000E+00  0.00000000000E+00  0.18092220160E+03  0.18092220162E+03  0.25500000920E-02 0.  1.
       -2   -1    0    0    0  501  0.00000000000E+00  0.00000000000E+00 -0.67722645688E+03  0.67722645689E+03  0.25500000920E-02 0. -1.
    10030    2    1    2    0    0  0.00000000000E+00  0.00000000000E+00 -0.49630425529E+03  0.85814865850E+03  0.70007228647E+03 0.  0.
        4    1    3    3  502    0 -0.16240004144E+03 -0.12810799706E+02 -0.62792429536E+03  0.64871289771E+03  0.12699999809E+01 0. -1.
       -4    1    3    3    0  502  0.16240004144E+03  0.12810799706E+02  0.13162004008E+03  0.20943576079E+03  0.12699999809E+01 0.  1.
</event>
<event>
 5   0  0.5023894E-03  0.6991933E+03  0.7818609E-02  0.9718613E-01
        2   -1    0    0  501    0  0.00000000000E+00  0.00000000000E+00  0.13164915598E+04  0.13164915598E+04  0.25500000920E-02 0.  1.
       -2   -1    0    0    0  501  0.00000000000E+00  0.00000000000E+00 -0.92836010562E+02  0.92836010597E+02  0.25500000920E-02 0. -1.
    10030    2    1    2    0    0  0.00000000000E+00  0.00000000000E+00  0.12236555492E+04  0.14093275704E+04  0.69919331911E+03 0.  0.
        2    1    3    3  502    0 -0.33002933081E+03 -0.85949202186E+02  0.45685603854E+03  0.57010881812E+03  0.25500000920E-02 0. -1.
       -2    1    3    3    0  502  0.33002933081E+03  0.85949202186E+02  0.76679951066E+03  0.83921875223E+03  0.25500000920E-02 0.  1.
</event>
<event>
 5   0  0.1981750E-03  0.7008155E+03  0.7818609E-02  0.9715839E-01
        4   -1    0    0  501    0  0.00000000000E+00  0.00000000000E+00  0.14468308665E+04  0.14468314239E+04  0.12699999809E+01 0.  1.
       -4   -1    0    0    0  501  0.00000000000E+00  0.00000000000E+00 -0.84859879660E+02  0.84869382441E+02  0.12699999809E+01 0. -1.
    10030    2    1    2    0    0  0.00000000000E+00  0.00000000000E+00  0.13619709868E+04  0.15317008063E+04  0.70081551861E+03 0.  0.
        5    1    3    3  502    0 -0.22782730577E+03 -0.16604914290E+03  0.11357049113E+04  0.11701817528E+04  0.46999998093E+01 0.  1.
       -5    1    3    3    0  502  0.22782730577E+03  0.16604914290E+03  0.22626607558E+03  0.36151905354E+03  0.46999998093E+01 0. -1.
</event>
<event>
 5   0  0.4878235E-03  0.6984267E+03  0.7818609E-02  0.9719927E-01
       -2   -1    0    0    0  501  0.00000000000E+00  0.00000000000E+00  0.17424890581E+03  0.17424890583E+03  0.25500000920E-02 0. -1.
        2   -1    0    0  501    0  0.00000000000E+00  0.00000000000E+00 -0.69986068941E+03  0.69986068942E+03  0.25500000920E-02 0.  1.
    10030    2    1    2    0    0  0.00000000000E+00  0.00000000000E+00 -0.52561178360E+03  0.87410959525E+03  0.69842668724E+03 0.  0.
        4    1    3    3  502    0 -0.88767899206E+02 -0.32672323531E+03 -0.15572389916E+03  0.37266520912E+03  0.12699999809E+01 0. -1.
       -4    1    3    3    0  502  0.88767899206E+02  0.32672323531E+03 -0.36988788444E+03  0.50144438612E+03  0.12699999809E+01 0.  1.
</event>
<event>
 5   0  0.5076796E-03  0.6998361E+03  0.7818609E-02  0.9717513E-01
        2   -1    0    0  501    0  0.00000000000E+00  0.00000000000E+00  0.10806816823E+04  0.10806816823E+04  0.25500000920E-02 0. -1.
       -2   -1    0    0    0  501  0.00000000000E+00  0.00000000000E+00 -0.11330129615E+03  0.11330129618E+03  0.25500000920E-02 0.  1.
    10030    2    1    2    0    0  0.00000000000E+00  0.00000000000E+00  0.96738038612E+03  0.11939829784E+04  0.69983608180E+03 0.  0.
        5    1    3    3  502    0  0.25356913978E+02 -0.28042266617E+03  0.12932961433E+03  0.30988398462E+03  0.46999998093E+01 0.  1.
       -5    1    3    3    0  502 -0.25356913978E+02  0.28042266617E+03  0.83805077179E+03  0.88409899383E+03  0.46999998093E+01 0. -1.
</event>
<event>
 5   0  0.4878235E-03  0.7041590E+03  0.7818609E-02  0.9710146E-01
       -2   -1    0    0    0  501  0.00000000000E+00  0.00000000000E+00  0.19353701811E+03  0.19353701813E+03  0.25500000920E-02 0.  1.
        2   -1    0    0  501    0  0.00000000000E+00  0.00000000000E+00 -0.64049741292E+03  0.64049741293E+03  0.25500000920E-02 0. -1.
    10030    2    1    2    0    0  0.00000000000E+00  0.00000000000E+00 -0.44696039481E+03  0.83403443106E+03  0.70415895767E+03 0.  0.
        4    1    3    3  502    0  0.29226447292E+03  0.91024842079E+02 -0.42949899301E+03  0.52742301989E+03  0.12699999809E+01 0. -1.
       -4    1    3    3    0  502 -0.29226447292E+03 -0.91024842079E+02 -0.17461401798E+02  0.30661141117E+03  0.12699999809E+01 0.  1.
</event>
<event>
 5   0  0.5023894E-03  0.7003427E+03  0.7818609E-02  0.9716646E-01
        2   -1    0    0  501    0  0.00000000000E+00  0.00000000000E+00  0.18593670901E+04  0.18593670901E+04  0.25500000920E-02 0. -1.
       -2   -1    0    0    0  501  0.00000000000E+00  0.00000000000E+00 -0.65947157802E+02  0.65947157851E+02  0.25500000920E-02 0.  1.
    10030    2    1    2    0    0  0.00000000000E+00  0.00000000000E+00  0.17934199323E+04  0.19253142480E+04  0.70034270169E+03 0.  0.
        2    1    3    3  502    0  0.47463994299E+02  0.18844648726E+03  0.16975207346E+04  0.17086080749E+04  0.25500000920E-02 0. -1.
       -2    1    3    3    0  502 -0.47463994299E+02 -0.18844648726E+03  0.95899197754E+02  0.21670617308E+03  0.25500000920E-02 0.  1.
</event>
<event>
 5   0  0.1981750E-03  0.6999379E+03  0.7818609E-02  0.9717338E-01
        4   -1    0    0  501    0  0.00000000000E+00  0.00000000000E+00  0.13489765086E+03  0.13490362896E+03  0.12699999809E+01 0. -1.
       -4   -1    0    0    0  501  0.00000000000E+00  0.00000000000E+00 -0.90790811659E+03  0.90790900484E+03  0.12699999809E+01 0.  1.
    10030    2    1    2    0    0  0.00000000000E+00  0.00000000000E+00 -0.77301046574E+03  0.10428126338E+04  0.69993786087E+03 0.  0.
        2    1    3    3  502    0  0.13357569074E+03  0.32268588951E+03 -0.42013804143E+03  0.54633746193E+03  0.25500000920E-02 0.  1.
       -2    1    3    3    0  502 -0.13357569074E+03 -0.32268588951E+03 -0.35287242431E+03  0.49647517187E+03  0.25500000920E-02 0. -1.
</event>
<event>
 5   0  0.2913582E-03  0.7005568E+03  0.7818609E-02  0.9716280E-01
        1   -1    0    0  501    0  0.00000000000E+00  0.00000000000E+00  0.65835624345E+03  0.65835624347E+03  0.50400001928E-02 0.  1.
       -1   -1    0    0    0  501  0.00000000000E+00  0.00000000000E+00 -0.18636559916E+03  0.18636559922E+03  0.50400001928E-02 0. -1.
    10030    2    1    2    0    0  0.00000000000E+00  0.00000000000E+00  0.47199064429E+03  0.84472184269E+03  0.70055679514E+03 0.  0.
        1    1    3    3  502    0  0.16347629920E+03 -0.28629940235E+03  0.93308920041E+02  0.34263450318E+03  0.50400001928E-02 0. -1.
       -1    1    3    3    0  502 -0.16347629920E+03  0.28629940235E+03  0.37868172425E+03  0.50208733951E+03  0.50400001928E-02 0.  1.
</event>
<event>
 5   0  0.5113683E-03  0.7012125E+03  0.7818609E-02  0.9715161E-01
       -2   -1    0    0    0  501  0.00000000000E+00  0.00000000000E+00  0.79347769510E+02  0.79347769551E+02  0.25500000920E-02 0. -1.
        2   -1    0    0  501    0  0.00000000000E+00  0.00000000000E+00 -0.15491896027E+04  0.15491896027E+04  0.25500000920E-02 0.  1.
    10030    2    1    2    0    0  0.00000000000E+00  0.00000000000E+00 -0.14698418332E+04  0.16285373723E+04  0.70121249150E+03 0.  0.
        3    1    3    3  502    0 -0.28819632656E+03 -0.13502806312E+03 -0.39331386659E+03  0.50595010458E+03  0.10100000352E+00 0. -1.
       -3    1    3    3    0  502  0.28819632656E+03  0.13502806312E+03 -0.10765279666E+04  0.11225872677E+04  0.10100000352E+00 0.  1.
</event>
<event>
 5   0  0.2913582E-03  0.7013914E+03  0.7818609E-02  0.9714856E-01
        1   -1    0    0  501    0  0.00000000000E+00  0.00000000000E+00  0.69376800539E+03  0.69376800540E+03  0.50400001928E-02 0.  1.
       -1   -1    0    0    0  501  0.00000000000E+00  0.00000000000E+00 -0.17727465852E+03  0.17727465859E+03  0.50400001928E-02 0. -1.
    10030    2    1    2    0    0  0.00000000000E+00  0.00000000000E+00  0.51649334687E+03  0.87104266399E+03  0.70139143503E+03 0.  0.
        1    1    3    3  502    0 -0.26881207280E+02 -0.34850256493E+03  0.29360966623E+03  0.45649016769E+03  0.50400001928E-02 0.  1.
       -1    1    3    3    0  502  0.26881207280E+02  0.34850256493E+03  0.22288368064E+03  0.41455249630E+03  0.50400001928E-02 0. -1.
</event>
<event>
 5   0  0.5023894E-03  0.6984864E+03  0.7818609E-02  0.9719824E-01
        2   -1    0    0  501    0  0.00000000000E+00  0.00000000000E+00  0.19346077497E+04  0.19346077497E+04  0.25500000920E-02 0. -1.
       -2   -1    0    0    0  501  0.00000000000E+00  0.00000000000E+00 -0.63046785135E+02  0.63046785187E+02  0.25500000920E-02 0.  1.
    10030    2    1    2    0    0  0.00000000000E+00  0.00000000000E+00  0.18715609646E+04  0.19976545349E+04  0.69848636113E+03 0.  0.
        2    1    3    3  502    0  0.11340062663E+03  0.21799410101E+02  0.18784275134E+04  0.18819736553E+04  0.25500000920E-02 0. -1.
       -2    1    3    3    0  502 -0.11340062663E+03 -0.21799410101E+02 -0.68665487750E+01  0.11568087958E+03  0.25500000920E-02 0.  1.
</event>
<event>
 5   0  0.5076796E-03  0.7032969E+03  0.7818609E-02  0.9711611E-01
       -2   -1    0    0    0  501  0.00000000000E+00  0.00000000000E+00  0.18374978911E+03  0.18374978913E+03  0.25500000920E-02 0. -1.
        2   -1    0    0  501    0  0.00000000000E+00  0.00000000000E+00 -0.67296204177E+03  0.67296204178E+03  0.25500000920E-02 0.  1.
    10030    2    1    2    0    0  0.00000000000E+00  0.00000000000E+00 -0.48921225266E+03  0.85671183091E+03  0.70329690250E+03 0.  0.
        5    1    3    3  502    0 -0.29655120948E+02 -0.23547256131E+03 -0.56063642753E+03  0.60882020926E+03  0.46999998093E+01 0.  1.
       -5    1    3    3    0  502  0.29655120948E+02  0.23547256131E+03  0.71424174871E+02  0.24789162165E+03  0.46999998093E+01 0. -1.
</event>
<event>
 5   0  0.2913582E-03  0.6999541E+03  0.7818609E-02  0.9717311E-01
        1   -1    0    0  501    0  0.00000000000E+00  0.00000000000E+00  0.70476121984E+03  0.70476121985E+03  0.50400001928E-02 0. -1.
       -1   -1    0    0    0  501  0.00000000000E+00  0.00000000000E+00 -0.17379494509E+03  0.17379494517E+03  0.50400001928E-02 0.  1.
    10030    2    1    2    0    0  0.00000000000E+00  0.00000000000E+00  0.53096627474E+03  0.87855616502E+03  0.69995410577E+03 0.  0.
        1    1    3    3  502    0  0.17895769175E+03  0.19858671732E+03 -0.18031928126E+02  0.26793224925E+03  0.50400001928E-02 0.  1.
       -1    1    3    3    0  502 -0.17895769175E+03 -0.19858671732E+03  0.54899820287E+03  0.61062391577E+03  0.50400001928E-02 0. -1.
</event>
<event>
 5   0  0.2938783E-03  0.6975317E+03  0.7818609E-02  0.9721463E-01
       -1   -1    0    0    0  501  0.00000000000E+00  0.00000000000E+00  0.28640313330E+03  0.28640313334E+03  0.50400001928E-02 0.  1.
        1   -1    0    0  501    0  0.00000000000E+00  0.00000000000E+00 -0.42470765815E+03  0.42470765818E+03  0.50400001928E-02 0. -1.
    10030    2    1    2    0    0  0.00000000000E+00  0.00000000000E+00 -0.13830452486E+03  0.71111079153E+03  0.69753165966E+03 0.  0.
        4    1    3    3  502    0  0.70507251602E+02 -0.23565432553E+03 -0.32121391888E+03  0.40457907540E+03  0.12699999809E+01 0. -1.
       -4    1    3    3    0  502 -0.70507251602E+02  0.23565432553E+03  0.18290939403E+03  0.30653171613E+03  0.12699999809E+01 0.  1.
</event>
<event>
 5   0  0.2937617E-03  0.6993914E+03  0.7818609E-02  0.9718273E-01
       -1   -1    0    0    0  501  0.00000000000E+00  0.00000000000E+00  0.11055846406E+03  0.11055846417E+03  0.50400001928E-02 0.  1.
        1   -1    0    0  501    0  0.00000000000E+00  0.00000000000E+00 -0.11060853157E+04  0.11060853157E+04  0.50400001928E-02 0. -1.
    10030    2    1    2    0    0  0.00000000000E+00  0.00000000000E+00 -0.99552685161E+03  0.12166437799E+04  0.69939143173E+03 0.  0.
        3    1    3    3  502    0 -0.77564027198E+02 -0.50322802672E+01 -0.10908681175E+04  0.10936337423E+04  0.10100000352E+00 0. -1.
       -3    1    3    3    0  502  0.77564027198E+02  0.50322802672E+01  0.95341265922E+02  0.12301003759E+03  0.10100000352E+00 0.  1.
</event>
<event>
 5   0  0.2934483E-03  0.6998205E+03  0.7818609E-02  0.9717539E-01
       -1   -1    0    0    0  501  0.00000000000E+00  0.00000000000E+00  0.44008966180E+03  0.44008966183E+03  0.50400001928E-02 0.  1.
        1   -1    0    0  501    0  0.00000000000E+00  0.00000000000E+00 -0.27820967157E+03  0.27820967161E+03  0.50400001928E-02 0. -1.
    10030    2    1    2    0    0  0.00000000000E+00  0.00000000000E+00  0.16187999023E+03  0.71829933344E+03  0.69982054927E+03 0.  0.
        5    1    3    3  502    0  0.20022968540E+03  0.35795556760E+02 -0.21125547354E+03  0.29329884742E+03  0.46999998093E+01 0. -1.
       -5    1    3    3    0  502 -0.20022968540E+03 -0.35795556760E+02  0.37313546377E+03  0.42500048602E+03  0.46999998093E+01 0.  1.
</event>
<event>
 5   0  0.2934483E-03  0.6975601E+03  0.7818609E-02  0.9721414E-01
       -1   -1    0    0    0  501  0.00000000000E+00  0.00000000000E+00  0.41855482893E+03  0.41855482896E+03  0.50400001928E-02 0.  1.
        1   -1    0    0  501    0  0.00000000000E+00  0.00000000000E+00 -0.29063700444E+03  0.29063700448E+03  0.50400001928E-02 0. -1.
    10030    2    1    2    0    0  0.00000000000E+00  0.00000000000E+00  0.12791782449E+03  0.70919183344E+03  0.69756009547E+03 0.  0.
        5    1    3    3  502    0  0.12583573296E+02 -0.20979658450E+03  0.34690243572E+03  0.40563079652E+03  0.46999998093E+01 0.  1.
       -5    1    3    3    0  502 -0.12583573296E+02  0.20979658450E+03 -0.21898461122E+03  0.30356103692E+03  0.46999998093E+01 0. -1.
</event>
<event>
 5   0  0.2937617E-03  0.6997339E+03  0.7818609E-02  0.9717687E-01
       -1   -1    0    0    0  501  0.00000000000E+00  0.00000000000E+00  0.32772172919E+03  0.32772172923E+03  0.50400001928E-02 0. -1.
        1   -1    0    0  501    0  0.00000000000E+00  0.00000000000E+00 -0.37350854825E+03  0.37350854829E+03  0.50400001928E-02 0.  1.
    10030    2    1    2    0    0  0.00000000000E+00  0.00000000000E+00 -0.45786819064E+02  0.70123027752E+03  0.69973385605E+03 0.  0.
        3    1    3    3  502    0  0.41266398539E+02  0.10349842315E+03  0.30946628952E+03  0.32891371785E+03  0.10100000352E+00 0. -1.
       -3    1    3    3    0  502 -0.41266398539E+02 -0.10349842315E+03 -0.35525310858E+03  0.37231655966E+03  0.10100000352E+00 0.  1.
</event>
<event>
 5   0  0.5076796E-03  0.7024604E+03  0.7818609E-02  0.9713034E-01
       -2   -1    0    0    0  501  0.00000000000E+00  0.00000000000E+00  0.13283574511E+03  0.13283574514E+03  0.25500000920E-02 0.  1.
        2   -1    0    0  501    0  0.00000000000E+00  0.00000000000E+00 -0.92868559150E+03  0.92868559150E+03  0.25500000920E-02 0. -1.
    10030    2    1    2    0    0  0.00000000000E+00  0.00000000000E+00 -0.79584984638E+03  0.10615213366E+04  0.70246036909E+03 0.  0.
        5    1    3    3  502    0 -0.16507797700E+02  0.79934582710E+02 -0.91410630185E+03  0.91775512310E+03  0.46999998093E+01 0. -1.
       -5    1    3    3    0  502  0.16507797700E+02 -0.79934582710E+02  0.11825645546E+03  0.14376621354E+03  0.46999998093E+01 0.  1.
</event>
<event>
 5   0  0.1981750E-03  0.7017601E+03  0.7818609E-02  0.9714227E-01
        3   -1    0    0  501    0  0.00000000000E+00  0.00000000000E+00  0.23562448939E+03  0.23562451103E+03  0.10100000352E+00 0. -1.
       -3   -1    0    0    0  501  0.00000000000E+00  0.00000000000E+00 -0.52251271853E+03  0.52251272829E+03  0.10100000352E+00 0.  1.
    10030    2    1    2    0    0  0.00000000000E+00  0.00000000000E+00 -0.28688822915E+03  0.75813723933E+03  0.70176008552E+03 0.  0.
        3    1    3    3  502    0  0.80479853855E+02 -0.16369495497E+02  0.22509457969E+03  0.23960915522E+03  0.10100000352E+00 0. -1.
       -3    1    3    3    0  502 -0.80479853855E+02  0.16369495497E+02 -0.51198280884E+03  0.51852808410E+03  0.10100000352E+00 0.  1.
</event>
<event>
 5   0  0.2934483E-03  0.6995408E+03  0.7818609E-02  0.9718018E-01
       -1   -1    0    0    0  501  0.00000000000E+00  0.00000000000E+00  0.58840547636E+03  0.58840547638E+03  0.50400001928E-02 0. -1.
        1   -1    0    0  501    0  0.00000000000E+00  0.00000000000E+00 -0.20791671818E+03  0.20791671824E+03  0.50400001928E-02 0.  1.
    10030    2    1    2    0    0  0.00000000000E+00  0.00000000000E+00  0.38048875817E+03  0.79632219462E+03  0.69954080835E+03 0.  0.
        5    1    3    3  502    0 -0.32924533506E+03  0.11784669730E+03  0.18433910540E+03  0.39533951295E+03  0.46999998093E+01 0. -1.
       -5    1    3    3    0  502  0.32924533506E+03 -0.11784669730E+03  0.19614965278E+03  0.40098268167E+03  0.46999998093E+01 0.  1.
</event>
<event>
 5   0  0.5076796E-03  0.7011425E+03  0.7818609E-02  0.9715280E-01
       -2   -1    0    0    0  501  0.00000000000E+00  0.00000000000E+00  0.88598557896E+02  0.88598557932E+02  0.25500000920E-02 0.  1.
        2   -1    0    0  501    0  0.00000000000E+00  0.00000000000E+00 -0.13871581455E+04  0.13871581455E+04  0.25500000920E-02 0. -1.
    10030    2    1    2    0    0  0.00000000000E+00  0.00000000000E+00 -0.12985595876E+04  0.14757567034E+04  0.70114252843E+03 0.  0.
        5    1    3    3  502    0 -0.10225213545E+03  0.12359469371E+03 -0.13053088761E+04  0.13151366847E+04  0.46999998093E+01 0. -1.
       -5    1    3    3    0  502  0.10225213545E+03 -0.12359469371E+03  0.67492884841E+01  0.16062001871E+03  0.46999998093E+01 0.  1.
</event>
<event>
 5   0  0.2938783E-03  0.6998264E+03  0.7818609E-02  0.9717529E-01
       -1   -1    0    0    0  501  0.00000000000E+00  0.00000000000E+00  0.20548006692E+03  0.20548006699E+03  0.50400001928E-02 0. -1.
        1   -1    0    0  501    0  0.00000000000E+00  0.00000000000E+00 -0.59586913848E+03  0.59586913850E+03  0.50400001928E-02 0.  1.
    10030    2    1    2    0    0  0.00000000000E+00  0.00000000000E+00 -0.39038907156E+03  0.80134920549E+03  0.69982635128E+03 0.  0.
        4    1    3    3  502    0  0.27016692423E+03 -0.71304390599E+02 -0.43637528020E+03  0.51816935565E+03  0.12699999809E+01 0.  1.
       -4    1    3    3    0  502 -0.27016692423E+03  0.71304390599E+02  0.45986208647E+02  0.28317984983E+03  0.12699999809E+01 0. -1.
</event>
<event>
 5   0  0.2934483E-03  0.7002107E+03  0.7818609E-02  0.9716872E-01
       -1   -1    0    0    0  501  0.00000000000E+00  0.00000000000E+00  0.12330145218E+03  0.12330145228E+03  0.50400001928E-02 0.  1.
        1   -1    0    0  501    0  0.00000000000E+00  0.00000000000E+00 -0.99409830460E+03  0.99409830462E+03  0.50400001928E-02 0. -1.
    10030    2    1    2    0    0  0.00000000000E+00  0.00000000000E+00 -0.87079685243E+03  0.11173997569E+04  0.70021072437E+03 0.  0.
        5    1    3    3  502    0  0.14907326520E+03  0.24867185054E+03 -0.12231488254E+03  0.31471184937E+03  0.46999998093E+01 0.  1.
       -5    1    3    3    0  502 -0.14907326520E+03 -0.24867185054E+03 -0.74848196988E+03  0.80268790752E+03  0.46999998093E+01 0. -1.
</event>
<event>
 5   0  0.5113683E-03  0.7008456E+03  0.7818609E-02  0.9715787E-01
       -2   -1    0    0    0  501  0.00000000000E+00  0.00000000000E+00  0.31031380470E+03  0.31031380471E+03  0.25500000920E-02 0. -1.
        2   -1    0    0  501    0  0.00000000000E+00  0.00000000000E+00 -0.39571598453E+03  0.39571598454E+03  0.25500000920E-02 0.  1.
    10030    2    1    2    0    0  0.00000000000E+00  0.00000000000E+00 -0.85402179832E+02  0.70602978925E+03  0.70084558284E+03 0.  0.
        3    1    3    3  502    0 -0.10569384635E+03  0.19914194867E+03 -0.31295292075E+03  0.38570486863E+03  0.10100000352E+00 0.  1.
       -3    1    3    3    0  502  0.10569384635E+03 -0.19914194867E+03  0.22755074092E+03  0.32032492062E+03  0.10100000352E+00 0. -1.
</event>
<event>
 5   0  0.5076796E-03  0.7002970E+03  0.7818609E-02  0.9716724E-01
       -2   -1    0    0    0  501  0.00000000000E+00  0.00000000000E+00  0.32257643738E+03  0.32257643739E+03  0.25500000920E-02 0. -1.
        2   -1    0    0  501    0  0.00000000000E+00  0.00000000000E+00 -0.38007731763E+03  0.38007731764E+03  0.25500000920E-02 0.  1.
    10030    2    1    2    0    0  0.00000000000E+00  0.00000000000E+00 -0.57500880253E+02  0.70265375502E+03  0.70029704284E+03 0.  0.
        5    1    3    3  502    0 -0.66384260251E+02 -0.19597880992E+03  0.25463113847E+03  0.32813666455E+03  0.46999998093E+01 0. -1.
       -5    1    3    3    0  502  0.66384260251E+02  0.19597880992E+03 -0.31213201872E+03  0.37451709047E+03  0.46999998093E+01 0.  1.
</event>
<event>
 5   0  0.2934483E-03  0.7007278E+03  0.7818609E-02  0.9715988E-01
       -1   -1    0    0    0  501  0.00000000000E+00  0.00000000000E+00  0.15329619367E+03  0.15329619375E+03  0.50400001928E-02 0. -1.
        1   -1    0    0  501    0  0.00000000000E+00  0.00000000000E+00 -0.80076918518E+03  0.80076918519E+03  0.50400001928E-02 0.  1.
    10030    2    1    2    0    0  0.00000000000E+00  0.00000000000E+00 -0.64747299151E+03  0.95406537894E+03  0.70072781632E+03 0.  0.
        5    1    3    3  502    0 -0.10042516300E+03 -0.27948605706E+02 -0.77912146083E+03  0.78607803598E+03  0.46999998093E+01 0.  1.
       -5    1    3    3    0  502  0.10042516300E+03  0.27948605706E+02  0.13164846932E+03  0.16798734297E+03  0.46999998093E+01 0. -1.
</event>
<event>
 5   0  0.4878235E-03  0.7007433E+03  0.7818609E-02  0.9715962E-01
        2   -1    0    0  501    0  0.00000000000E+00  0.00000000000E+00  0.12679643472E+04  0.12679643472E+04  0.25500000920E-02 0. -1.
       -2   -1    0    0    0  501  0.00000000000E+00  0.00000000000E+00 -0.96816826538E+02  0.96816826572E+02  0.25500000920E-02 0.  1.
    10030    2    1    2    0    0  0.00000000000E+00  0.00000000000E+00  0.11711475207E+04  0.13647811738E+04  0.70074327477E+03 0.  0.
        4    1    3    3  502    0  0.22086478399E+03 -0.12723558839E+03  0.11738079474E+03  0.28062432473E+03  0.12699999809E+01 0.  1.
       -4    1    3    3    0  502 -0.22086478399E+03  0.12723558839E+03  0.10537667259E+04  0.10841568491E+04  0.12699999809E+01 0. -1.
</event>
<event>
 5   0  0.2913582E-03  0.6996734E+03  0.7818609E-02  0.9717791E-01
        1   -1    0    0  501    0  0.00000000000E+00  0.00000000000E+00  0.36178052450E+03  0.36178052453E+03  0.50400001928E-02 0. -1.
       -1   -1    0    0    0  501  0.00000000000E+00  0.00000000000E+00 -0.33828719203E+03  0.33828719207E+03  0.50400001928E-02 0.  1.
    10030    2    1    2    0    0  0.00000000000E+00  0.00000000000E+00  0.23493332468E+02  0.70006771660E+03  0.69967340320E+03 0.  0.
        1    1    3    3  502    0  0.15877627370E+03  0.21460257176E+03  0.23797483871E+03  0.35762577197E+03  0.50400001928E-02 0. -1.
       -1    1    3    3    0  502 -0.15877627370E+03 -0.21460257176E+03 -0.21448150624E+03  0.34244194463E+03  0.50400001928E-02 0.  1.
</event>
<event>
 5   0  0.3013140E-03  0.6985013E+03  0.7818609E-02  0.9719799E-01
        1   -1    0    0  501    0  0.00000000000E+00  0.00000000000E+00  0.19428532368E+03  0.19428532375E+03  0.50400001928E-02 0. -1.
       -1   -1    0    0    0  501  0.00000000000E+00  0.00000000000E+00 -0.62781896919E+03  0.62781896921E+03  0.50400001928E-02 0.  1.
    10030    2    1    2    0    0  0.00000000000E+00  0.00000000000E+00 -0.43353364551E+03  0.82210429296E+03  0.69850128612E+03 0.  0.
        2    1    3    3  502    0 -0.30313542469E+03  0.15544755306E+03 -0.12620260136E+03  0.36329344069E+03  0.25500000920E-02 0. -1.
       -2    1    3    3    0  502  0.30313542469E+03 -0.15544755306E+03 -0.30733104415E+03  0.45881085227E+03  0.25500000920E-02 0.  1.
</event>
<event>
 5   0  0.2938783E-03  0.7003186E+03  0.7818609E-02  0.9716687E-01
       -1   -1    0    0    0  501  0.00000000000E+00  0.00000000000E+00  0.60028537866E+03  0.60028537868E+03  0.50400001928E-02 0. -1.
        1   -1    0    0  501    0  0.00000000000E+00  0.00000000000E+00 -0.20425540943E+03  0.20425540949E+03  0.50400001928E-02 0.  1.
    10030    2    1    2    0    0  0.00000000000E+00  0.00000000000E+00  0.39602996923E+03  0.80454078817E+03  0.70031860128E+03 0.  0.
        4    1    3    3  502    0  0.31469739032E+03  0.14349529084E+03  0.13525341509E+03  0.37137641977E+03  0.12699999809E+01 0.  1.
       -4    1    3    3    0  502 -0.31469739032E+03 -0.14349529084E+03  0.26077655415E+03  0.43316436841E+03  0.12699999809E+01 0. -1.
</event>
<event>
 5   0  0.2938783E-03  0.6983625E+03  0.7818609E-02  0.9720037E-01
        1   -1    0    0  501    0  0.00000000000E+00  0.00000000000E+00  0.87207778517E+03  0.87207778518E+03  0.50400001928E-02 0.  1.
       -1   -1    0    0    0  501  0.00000000000E+00  0.00000000000E+00 -0.13981268031E+03  0.13981268040E+03  0.50400001928E-02 0. -1.
    10030    2    1    2    0    0  0.00000000000E+00  0.00000000000E+00  0.73226510486E+03  0.10118904656E+04  0.69836246358E+03 0.  0.
        4    1    3    3  502    0  0.24388716792E+03 -0.98517984220E+02  0.69888348774E+03  0.74674392279E+03  0.12699999809E+01 0.  1.
       -4    1    3    3    0  502 -0.24388716792E+03  0.98517984220E+02  0.33381617113E+02  0.26514654279E+03  0.12699999809E+01 0. -1.
</event>
<event>
 5   0  0.2913582E-03  0.6983801E+03  0.7818609E-02  0.9720006E-01
       -1   -1    0    0    0  501  0.00000000000E+00  0.00000000000E+00  0.17372522997E+03  0.17372523004E+03  0.50400001928E-02 0.  1.
        1   -1    0    0  501    0  0.00000000000E+00  0.00000000000E+00 -0.70187666619E+03  0.70187666621E+03  0.50400001928E-02 0. -1.
    10030    2    1    2    0    0  0.00000000000E+00  0.00000000000E+00 -0.52815143623E+03  0.87560189625E+03  0.69838008357E+03 0.  0.
        1    1    3    3  502    0 -0.26401762230E+03 -0.11025784166E+03 -0.51505225850E+03  0.58918666444E+03  0.50400001928E-02 0. -1.
       -1    1    3    3    0  502  0.26401762230E+03  0.11025784166E+03 -0.13099177725E+02  0.28641523182E+03  0.50400001928E-02 0.  1.
</event>
<event>
 5   0  0.2934483E-03  0.6993729E+03  0.7818609E-02  0.9718305E-01
        1   -1    0    0  501    0  0.00000000000E+00  0.00000000000E+00  0.12782769309E+04  0.12782769309E+04  0.50400001928E-02 0. -1.
       -1   -1    0    0    0  501  0.00000000000E+00  0.00000000000E+00 -0.95660514494E+02  0.95660514626E+02  0.50400001928E-02 0.  1.
    10030    2    1    2    0    0  0.00000000000E+00  0.00000000000E+00  0.11826164164E+04  0.13739374456E+04  0.69937294479E+03 0.  0.
        5    1    3    3  502    0  0.11258331889E+03  0.32984474670E+03  0.53623207696E+03  0.63956195242E+03  0.46999998093E+01 0.  1.
       -5    1    3    3    0  502 -0.11258331889E+03 -0.32984474670E+03  0.64638433948E+03  0.73437549315E+03  0.46999998093E+01 0. -1.
</event>
<event>
 5   0  0.4878235E-03  0.6994053E+03  0.7818609E-02  0.9718250E-01
       -2   -1    0    0    0  501  0.00000000000E+00  0.00000000000E+00  0.68709032799E+02  0.68709032847E+02  0.25500000920E-02 0.  1.
        2   -1    0    0  501    0  0.00000000000E+00  0.00000000000E+00 -0.17798524856E+04  0.17798524856E+04  0.25500000920E-02 0. -1.
    10030    2    1    2    0    0  0.00000000000E+00  0.00000000000E+00 -0.17111434528E+04  0.18485615185E+04  0.69940529840E+03 0.  0.
        4    1    3    3  502    0 -0.30549047637E+03  0.90486860445E+02 -0.47458737127E+03  0.57161795715E+03  0.12699999809E+01 0. -1.
       -4    1    3    3    0  502  0.30549047637E+03 -0.90486860445E+02 -0.12365560815E+04  0.12769435613E+04  0.12699999809E+01 0.  1.
</event>
<event>
 5   0  0.2934483E-03  0.6999823E+03  0.7818609E-02  0.9717262E-01
        1   -1    0    0  501    0  0.00000000000E+00  0.00000000000E+00  0.75520079310E+03  0.75520079312E+03  0.50400001928E-02 0. -1.
       -1   -1    0    0    0  501  0.00000000000E+00  0.00000000000E+00 -0.16220032184E+03  0.16220032191E+03  0.50400001928E-02 0.  1.
    10030    2    1    2    0    0  0.00000000000E+00  0.00000000000E+00  0.59300047127E+03  0.91740111503E+03  0.69998231902E+03 0.  0.
        5    1    3    3  502    0 -0.19273192902E+03 -0.14234755710E+03  0.63080320262E+03  0.67479122246E+03  0.46999998093E+01 0. -1.
       -5    1    3    3    0  502  0.19273192902E+03  0.14234755710E+03 -0.37802731359E+02  0.24260989257E+03  0.46999998093E+01 0.  1.
</event>
<event>
 5   0  0.4878235E-03  0.7009655E+03  0.7818609E-02  0.9715582E-01
        2   -1    0    0  501    0  0.00000000000E+00  0.00000000000E+00  0.67073929554E+03  0.67073929555E+03  0.25500000920E-02 0.  1.
       -2   -1    0    0    0  501  0.00000000000E+00  0.00000000000E+00 -0.18313847903E+03  0.18313847905E+03  0.25500000920E-02 0. -1.
    10030    2    1    2    0    0  0.00000000000E+00  0.00000000000E+00  0.48760081651E+03  0.85387777460E+03  0.70096554672E+03 0.  0.
        4    1    3    3  502    0  0.13095262722E+03  0.27537622014E+03  0.33318786444E+02  0.30674485754E+03  0.12699999809E+01 0. -1.
       -4    1    3    3    0  502 -0.13095262722E+03 -0.27537622014E+03  0.45428203006E+03  0.54713291706E+03  0.12699999809E+01 0.  1.
</event>
<event>
 5   0  0.2913582E-03  0.7000716E+03  0.7818609E-02  0.9717110E-01
        1   -1    0    0  501    0  0.00000000000E+00  0.00000000000E+00  0.16448533584E+03  0.16448533592E+03  0.50400001928E-02 0. -1.
       -1   -1    0    0    0  501  0.00000000000E+00  0.00000000000E+00 -0.74489955140E+03  0.74489955142E+03  0.50400001928E-02 0.  1.
    10030    2    1    2    0    0  0.00000000000E+00  0.00000000000E+00 -0.58041421556E+03  0.90938488734E+03  0.70007157612E+03 0.  0.
        1    1    3    3  502    0  0.30446958353E+03  0.11600567454E+03 -0.12402790108E+03  0.34862869086E+03  0.50400001928E-02 0. -1.
       -1    1    3    3    0  502 -0.30446958353E+03 -0.11600567454E+03 -0.45638631448E+03  0.56075619648E+03  0.50400001928E-02 0.  1.
</event>
<event>
 5   0  0.1981750E-03  0.7010812E+03  0.7818609E-02  0.9715385E-01
       -3   -1    0    0    0  501  0.00000000000E+00  0.00000000000E+00  0.17068726049E+03  0.17068729038E+03  0.10100000352E+00 0. -1.
        3   -1    0    0  501    0  0.00000000000E+00  0.00000000000E+00 -0.71990547338E+03  0.71990548047E+03  0.10100000352E+00 0.  1.
    10030    2    1    2    0    0  0.00000000000E+00  0.00000000000E+00 -0.54921821289E+03  0.89059277085E+03  0.70108119224E+03 0.  0.
        4    1    3    3  502    0  0.29937598776E+03  0.61551603467E+02 -0.49265391704E+03  0.57976208639E+03  0.12699999809E+01 0.  1.
       -4    1    3    3    0  502 -0.29937598776E+03 -0.61551603467E+02 -0.56564295847E+02  0.31083068446E+03  0.12699999809E+01 0. -1.
</event>
<event>
 5   0  0.5072407E-03  0.7006618E+03  0.7818609E-02  0.9716101E-01
        2   -1    0    0  501    0  0.00000000000E+00  0.00000000000E+00  0.15252111739E+03  0.15252111741E+03  0.25500000920E-02 0.  1.
       -2   -1    0    0    0  501  0.00000000000E+00  0.00000000000E+00 -0.80468681714E+03  0.80468681714E+03  0.25500000920E-02 0. -1.
    10030    2    1    2    0    0  0.00000000000E+00  0.00000000000E+00 -0.65216569975E+03  0.95720793455E+03  0.70066178006E+03 0.  0.
        1    1    3    3  502    0  0.14570722990E+03 -0.27606880042E+03 -0.10883882989E+03  0.33059109233E+03  0.50400001928E-02 0. -1.
       -1    1    3    3    0  502 -0.14570722990E+03  0.27606880042E+03 -0.54332686987E+03  0.62661684222E+03  0.50400001928E-02 0.  1.
</event>
<event>
 5   0  0.2913582E-03  0.7002870E+03  0.7818609E-02  0.9716741E-01
       -1   -1    0    0    0  501  0.00000000000E+00  0.00000000000E+00  0.74588532283E+02  0.74588532453E+02  0.50400001928E-02 0. -1.
        1   -1    0    0  501    0  0.00000000000E+00  0.00000000000E+00 -0.16436906776E+04  0.16436906776E+04  0.50400001928E-02 0.  1.
    10030    2    1    2    0    0  0.00000000000E+00  0.00000000000E+00 -0.15691021453E+04  0.17182792101E+04  0.70028701352E+03 0.  0.
        1    1    3    3  502    0 -0.15424957707E+03 -0.37751649022E+02 -0.15502495829E+04  0.15583619247E+04  0.50400001928E-02 0.  1.
       -1    1    3    3    0  502  0.15424957707E+03  0.37751649022E+02 -0.18852562444E+02  0.15991728539E+03  0.50400001928E-02 0. -1.
</event>
<event>
 5   0  0.5023894E-03  0.7012898E+03  0.7818609E-02  0.9715029E-01
       -2   -1    0    0    0  501  0.00000000000E+00  0.00000000000E+00  0.97079682594E+02  0.97079682628E+02  0.25500000920E-02 0.  1.
        2   -1    0    0  501    0  0.00000000000E+00  0.00000000000E+00 -0.12665042303E+04  0.12665042303E+04  0.25500000920E-02 0. -1.
    10030    2    1    2    0    0  0.00000000000E+00  0.00000000000E+00 -0.11694245477E+04  0.13635839129E+04  0.70128975098E+03 0.  0.
        2    1    3    3  502    0 -0.11711588536E+03 -0.22269202882E+03 -0.10985006720E+03  0.27454490994E+03  0.25500000920E-02 0.  1.
       -2    1    3    3    0  502  0.11711588536E+03  0.22269202882E+03 -0.10595744805E+04  0.10890390030E+04  0.25500000920E-02 0. -1.
</event>
<event>
 5   0  0.2913582E-03  0.6999187E+03  0.7818609E-02  0.9717371E-01
        1   -1    0    0  501    0  0.00000000000E+00  0.00000000000E+00  0.11340774262E+04  0.11340774262E+04  0.50400001928E-02 0.  1.
       -1   -1    0    0    0  501  0.00000000000E+00  0.00000000000E+00 -0.10799222025E+03  0.10799222036E+03  0.50400001928E-02 0. -1.
    10030    2    1    2    0    0  0.00000000000E+00  0.00000000000E+00  0.10260852060E+04  0.12420696466E+04  0.69991867889E+03 0.  0.
        1    1    3    3  502    0  0.13940255791E+03  0.19059147156E+03  0.97140054679E+03  0.99968855376E+03  0.50400001928E-02 0.  1.
       -1    1    3    3    0  502 -0.13940255791E+03 -0.19059147156E+03  0.54684659170E+02  0.24238109282E+03  0.50400001928E-02 0. -1.
</event>
<event>
 5   0  0.2937617E-03  0.7008767E+03  0.7818609E-02  0.9715734E-01
       -1   -1    0    0    0  501  0.00000000000E+00  0.00000000000E+00  0.79048519911E+02  0.79048520071E+02  0.50400001928E-02 0.  1.
        1   -1    0    0  501    0  0.00000000000E+00  0.00000000000E+00 -0.15535653136E+04  0.15535653136E+04  0.50400001928E-02 0. -1.
    10030    2    1    2    0    0  0.00000000000E+00  0.00000000000E+00 -0.14745167937E+04  0.16326138337E+04  0.70087670460E+03 0.  0.
        3    1    3    3  502    0  0.19881774917E+03  0.27650845680E+03 -0.92964955760E+03  0.99006754023E+03  0.10100000352E+00 0.  1.
       -3    1    3    3    0  502 -0.19881774917E+03 -0.27650845680E+03 -0.54486723610E+03  0.64254629346E+03  0.10100000352E+00 0. -1.
</event>
<event>
 5   0  0.2913582E-03  0.6998684E+03  0.7818609E-02  0.9717457E-01
       -1   -1    0    0    0  501  0.00000000000E+00  0.00000000000E+00  0.15886837449E+03  0.15886837457E+03  0.50400001928E-02 0.  1.
        1   -1    0    0  501    0  0.00000000000E+00  0.00000000000E+00 -0.77078873037E+03  0.77078873039E+03  0.50400001928E-02 0. -1.
    10030    2    1    2    0    0  0.00000000000E+00  0.00000000000E+00 -0.61192035588E+03  0.92965710495E+03  0.69986842395E+03 0.  0.
        1    1    3    3  502    0  0.21854940724E+03  0.59321514242E+01 -0.66890082304E+03  0.70372391242E+03  0.50400001928E-02 0. -1.
       -1    1    3    3    0  502 -0.21854940724E+03 -0.59321514242E+01  0.56980467152E+02  0.22593319253E+03  0.50400001928E-02 0.  1.
</event>
<event>
 5   0  0.5076796E-03  0.6994712E+03  0.7818609E-02  0.9718137E-01
        2   -1    0    0  501    0  0.00000000000E+00  0.00000000000E+00  0.25198421343E+03  0.25198421344E+03  0.25500000920E-02 0.  1.
       -2   -1    0    0    0  501  0.00000000000E+00  0.00000000000E+00 -0.48540742042E+03  0.48540742043E+03  0.25500000920E-02 0. -1.
    10030    2    1    2    0    0  0.00000000000E+00  0.00000000000E+00 -0.23342320700E+03  0.73739163387E+03  0.69947124897E+03 0.  0.
        5    1    3    3  502    0  0.34496697899E+03 -0.40713016366E+02 -0.15931473025E+03  0.38218194563E+03  0.46999998093E+01 0. -1.
       -5    1    3    3    0  502 -0.34496697899E+03  0.40713016366E+02 -0.74108476745E+02  0.35520968824E+03  0.46999998093E+01 0.  1.
</event>
<event>
 5   0  0.5113683E-03  0.6976410E+03  0.7818609E-02  0.9721275E-01
        2   -1    0    0  501    0  0.00000000000E+00  0.00000000000E+00  0.17276138799E+03  0.17276138800E+03  0.25500000920E-02 0.  1.
       -2   -1    0    0    0  501  0.00000000000E+00  0.00000000000E+00 -0.70429948049E+03  0.70429948050E+03  0.25500000920E-02 0. -1.
    10030    2    1    2    0    0  0.00000000000E+00  0.00000000000E+00 -0.53153809251E+03  0.87706086850E+03  0.69764104185E+03 0.  0.
        3    1    3    3  502    0 -0.27390787294E+03  0.15173550059E+03 -0.45900946285E+03  0.55564276490E+03  0.10100000352E+00 0. -1.
       -3    1    3    3    0  502  0.27390787294E+03 -0.15173550059E+03 -0.72528629652E+02  0.32141810360E+03  0.10100000352E+00 0.  1.
</event>
<event>
 5   0  0.5072407E-03  0.7014906E+03  0.7818609E-02  0.9714687E-01
       -2   -1    0    0    0  501  0.00000000000E+00  0.00000000000E+00  0.82937606302E+02  0.82937606341E+02  0.25500000920E-02 0.  1.
        2   -1    0    0  501    0  0.00000000000E+00  0.00000000000E+00 -0.14833108325E+04  0.14833108325E+04  0.25500000920E-02 0. -1.
    10030    2    1    2    0    0  0.00000000000E+00  0.00000000000E+00 -0.14003732262E+04  0.15662484389E+04  0.70149055555E+03 0.  0.
        1    1    3    3  502    0  0.28164940927E+03 -0.13799823709E+03 -0.10507511300E+04  0.10965618270E+04  0.50400001928E-02 0. -1.
       -1    1    3    3    0  502 -0.28164940927E+03  0.13799823709E+03 -0.34962209620E+03  0.46968661186E+03  0.50400001928E-02 0.  1.
</event>
<event>
 5   0  0.3013140E-03  0.7035747E+03  0.7818609E-02  0.9711139E-01
       -1   -1    0    0    0  501  0.00000000000E+00  0.00000000000E+00  0.78961775663E+02  0.78961775824E+02  0.50400001928E-02 0. -1.
        1   -1    0    0  501    0  0.00000000000E+00  0.00000000000E+00 -0.15672687307E+04  0.15672687308E+04  0.50400001928E-02 0.  1.
    10030    2    1    2    0    0  0.00000000000E+00  0.00000000000E+00 -0.14883069551E+04  0.16462305066E+04  0.70357465008E+03 0.  0.
        2    1    3    3  502    0 -0.51493087632E+02 -0.19183004678E+03 -0.14235207113E+04  0.14373105164E+04  0.25500000920E-02 0.  1.
       -2    1    3    3    0  502  0.51493087632E+02  0.19183004678E+03 -0.64786243769E+02  0.20891999021E+03  0.25500000920E-02 0. -1.
</event>
<event>
 5   0  0.2913582E-03  0.6996292E+03  0.7818609E-02  0.9717867E-01
       -1   -1    0    0    0  501  0.00000000000E+00  0.00000000000E+00  0.23749713402E+03  0.23749713407E+03  0.50400001928E-02 0.  1.
        1   -1    0    0  501    0  0.00000000000E+00  0.00000000000E+00 -0.51524936345E+03  0.51524936347E+03  0.50400001928E-02 0. -1.
    10030    2    1    2    0    0  0.00000000000E+00  0.00000000000E+00 -0.27775222943E+03  0.75274649754E+03  0.69962917936E+03 0.  0.
        1    1    3    3  502    0  0.66425501709E+02 -0.32146946904E+03 -0.88039392240E+01  0.32837855621E+03  0.50400001928E-02 0.  1.
       -1    1    3    3    0  502 -0.66425501709E+02  0.32146946904E+03 -0.26894829021E+03  0.42436794134E+03  0.50400001928E-02 0. -1.
</event>
<event>
 5   0  0.5076796E-03  0.6991934E+03  0.7818609E-02  0.9718613E-01
       -2   -1    0    0    0  501  0.00000000000E+00  0.00000000000E+00  0.14977599387E+03  0.14977599389E+03  0.25500000920E-02 0. -1.
        2   -1    0    0  501    0  0.00000000000E+00  0.00000000000E+00 -0.81600426404E+03  0.81600426405E+03  0.25500000920E-02 0.  1.
    10030    2    1    2    0    0  0.00000000000E+00  0.00000000000E+00 -0.66622827017E+03  0.96578025794E+03  0.69919339146E+03 0.  0.
        5    1    3    3  502    0  0.42043157088E+02 -0.21230355205E+03 -0.71228766300E+03  0.74445700355E+03  0.46999998093E+01 0.  1.
       -5    1    3    3    0  502 -0.42043157088E+02  0.21230355205E+03  0.46059392826E+02  0.22132325440E+03  0.46999998093E+01 0. -1.
</event>
<event>
 5   0  0.2937617E-03  0.6999021E+03  0.7818609E-02  0.9717400E-01
       -1   -1    0    0    0  501  0.00000000000E+00  0.00000000000E+00  0.88091427646E+02  0.88091427790E+02  0.50400001928E-02 0. -1.
        1   -1    0    0  501    0  0.00000000000E+00  0.00000000000E+00 -0.13902118283E+04  0.13902118283E+04  0.50400001928E-02 0.  1.
    10030    2    1    2    0    0  0.00000000000E+00  0.00000000000E+00 -0.13021204007E+04  0.14783032561E+04  0.69990212116E+03 0.  0.
        3    1    3    3  502    0  0.50969403116E+02 -0.34519328342E+03 -0.70731863174E+03  0.78870523009E+03  0.10100000352E+00 0. -1.
       -3    1    3    3    0  502 -0.50969403116E+02  0.34519328342E+03 -0.59480176894E+03  0.68959802604E+03  0.10100000352E+00 0.  1.
</event>
<event>
 5   0  0.2938783E-03  0.6995774E+03  0.7818609E-02  0.9717955E-01
        1   -1    0    0  501    0  0.00000000000E+00  0.00000000000E+00  0.10351984299E+04  0.10351984299E+04  0.50400001928E-02 0.  1.
       -1   -1    0    0    0  501  0.00000000000E+00  0.00000000000E+00 -0.11819195628E+03  0.11819195639E+03  0.50400001928E-02 0. -1.
    10030    2    1    2    0    0  0.00000000000E+00  0.00000000000E+00  0.91700647358E+03  0.11533903863E+04  0.69957737996E+03 0.  0.
        4    1    3    3  502    0  0.29523485079E+03 -0.71121038370E+02  0.74467760504E+03  0.80421897986E+03  0.12699999809E+01 0.  1.
       -4    1    3    3    0  502 -0.29523485079E+03  0.71121038370E+02  0.17232886855E+03  0.34917140641E+03  0.12699999809E+01 0. -1.
</event>
<event>
 5   0  0.5076796E-03  0.6995957E+03  0.7818609E-02  0.9717924E-01
        2   -1    0    0  501    0  0.00000000000E+00  0.00000000000E+00  0.19266090346E+03  0.19266090347E+03  0.25500000920E-02 0.  1.
       -2   -1    0    0    0  501  0.00000000000E+00  0.00000000000E+00 -0.63509797428E+03  0.63509797428E+03  0.25500000920E-02 0. -1.
    10030    2    1    2    0    0  0.00000000000E+00  0.00000000000E+00 -0.44243707082E+03  0.82775887776E+03  0.69959573903E+03 0.  0.
        5    1    3    3  502    0 -0.29402136759E+03  0.51056312854E+02 -0.53666533351E+01  0.29850662078E+03  0.46999998093E+01 0.  1.
       -5    1    3    3    0  502  0.29402136759E+03 -0.51056312854E+02 -0.43707041749E+03  0.52925225698E+03  0.46999998093E+01 0. -1.
</event>
<event>
 5   0  0.2934483E-03  0.6996299E+03  0.7818609E-02  0.9717865E-01
       -1   -1    0    0    0  501  0.00000000000E+00  0.00000000000E+00  0.67959889080E+03  0.67959889082E+03  0.50400001928E-02 0. -1.
        1   -1    0    0  501    0  0.00000000000E+00  0.00000000000E+00 -0.18006280860E+03  0.18006280867E+03  0.50400001928E-02 0.  1.
    10030    2    1    2    0    0  0.00000000000E+00  0.00000000000E+00  0.49953608220E+03  0.85966169949E+03  0.69962985939E+03 0.  0.
        5    1    3    3  502    0 -0.12993767849E+02 -0.19136029122E+03 -0.10964733259E+03  0.22098014979E+03  0.46999998093E+01 0.  1.
       -5    1    3    3    0  502  0.12993767849E+02  0.19136029122E+03  0.60918341479E+03  0.63868154969E+03  0.46999998093E+01 0. -1.
</event>
<event>
 5   0  0.5076796E-03  0.6908369E+03  0.7818609E-02  0.9733032E-01
       -2   -1    0    0    0  501  0.00000000000E+00  0.00000000000E+00  0.12318361930E+03  0.12318361932E+03  0.25500000920E-02 0.  1.
        2   -1    0    0  501    0  0.00000000000E+00  0.00000000000E+00 -0.96858583833E+03  0.96858583833E+03  0.25500000920E-02 0. -1.
    10030    2    1    2    0    0  0.00000000000E+00  0.00000000000E+00 -0.84540221903E+03  0.10917694577E+04  0.69083691037E+03 0.  0.
        5    1    3    3  502    0 -0.44267077343E+02  0.33260081549E+03 -0.55214526457E+03  0.64611868863E+03  0.46999998093E+01 0. -1.
       -5    1    3    3    0  502  0.44267077343E+02 -0.33260081549E+03 -0.29325695445E+03  0.44565076903E+03  0.46999998093E+01 0.  1.
</event>
<event>
 5   0  0.4878235E-03  0.6995749E+03  0.7818609E-02  0.9717959E-01
        2   -1    0    0  501    0  0.00000000000E+00  0.00000000000E+00  0.84806430248E+03  0.84806430249E+03  0.25500000920E-02 0.  1.
       -2   -1    0    0    0  501  0.00000000000E+00  0.00000000000E+00 -0.14427121098E+03  0.14427121101E+03  0.25500000920E-02 0. -1.
    10030    2    1    2    0    0  0.00000000000E+00  0.00000000000E+00  0.70379309150E+03  0.99233551349E+03  0.69957491071E+03 0.  0.
        4    1    3    3  502    0 -0.44722028065E+02 -0.33002982545E+03  0.50354766820E+03  0.60372312572E+03  0.12699999809E+01 0. -1.
       -4    1    3    3    0  502  0.44722028065E+02  0.33002982545E+03  0.20024542330E+03  0.38861238777E+03  0.12699999809E+01 0.  1.
</event>
<event>
 5   0  0.5072407E-03  0.6988388E+03  0.7818609E-02  0.9719220E-01
       -2   -1    0    0    0  501  0.00000000000E+00  0.00000000000E+00  0.40071488142E+03  0.40071488143E+03  0.25500000920E-02 0.  1.
        2   -1    0    0  501    0  0.00000000000E+00  0.00000000000E+00 -0.30469028911E+03  0.30469028912E+03  0.25500000920E-02 0. -1.
    10030    2    1    2    0    0  0.00000000000E+00  0.00000000000E+00  0.96024592316E+02  0.70540517055E+03  0.69883884573E+03 0.  0.
        1    1    3    3  502    0  0.23699337060E+03 -0.51534163456E+02 -0.20589105334E+03  0.31813951905E+03  0.50400001928E-02 0. -1.
       -1    1    3    3    0  502 -0.23699337060E+03  0.51534163456E+02  0.30191564565E+03  0.38726565149E+03  0.50400001928E-02 0.  1.
</event>
<event>
 5   0  0.5072407E-03  0.6997638E+03  0.7818609E-02  0.9717636E-01
       -2   -1    0    0    0  501  0.00000000000E+00  0.00000000000E+00  0.11600796109E+03  0.11600796111E+03  0.25500000920E-02 0.  1.
        2   -1    0    0  501    0  0.00000000000E+00  0.00000000000E+00 -0.10552495215E+04  0.10552495215E+04  0.25500000920E-02 0. -1.
    10030    2    1    2    0    0  0.00000000000E+00  0.00000000000E+00 -0.93924156042E+03  0.11712574826E+04  0.69976380428E+03 0.  0.
        1    1    3    3  502    0  0.61300728501E+02  0.28996119152E+03 -0.15835855443E+03  0.33602485576E+03  0.50400001928E-02 0. -1.
       -1    1    3    3    0  502 -0.61300728501E+02 -0.28996119152E+03 -0.78088300600E+03  0.83523262687E+03  0.50400001928E-02 0.  1.
</event>
<event>
 5   0  0.3013140E-03  0.7004081E+03  0.7818609E-02  0.9716535E-01
       -1   -1    0    0    0  501  0.00000000000E+00  0.00000000000E+00  0.15134306607E+03  0.15134306616E+03  0.50400001928E-02 0. -1.
        1   -1    0    0  501    0  0.00000000000E+00  0.00000000000E+00 -0.81036328436E+03  0.81036328438E+03  0.50400001928E-02 0.  1.
    10030    2    1    2    0    0  0.00000000000E+00  0.00000000000E+00 -0.65902021829E+03  0.96170635053E+03  0.70040806431E+03 0.  0.
        2    1    3    3  502    0 -0.13195437335E+03 -0.27231609988E+03 -0.57155496728E+03  0.64671716812E+03  0.25500000920E-02 0.  1.
       -2    1    3    3    0  502  0.13195437335E+03  0.27231609988E+03 -0.87465251004E+02  0.31498918242E+03  0.25500000920E-02 0. -1.
</event>
<event>
 5   0  0.5072407E-03  0.6982794E+03  0.7818609E-02  0.9720179E-01
        2   -1    0    0  501    0  0.00000000000E+00  0.00000000000E+00  0.33100485726E+03  0.33100485727E+03  0.25500000920E-02 0. -1.
       -2   -1    0    0    0  501  0.00000000000E+00  0.00000000000E+00 -0.36826811890E+03  0.36826811891E+03  0.25500000920E-02 0.  1.
    10030    2    1    2    0    0  0.00000000000E+00  0.00000000000E+00 -0.37263261634E+02  0.69927297618E+03  0.69827941725E+03 0.  0.
        1    1    3    3  502    0  0.18455901156E+03  0.23122453924E+03  0.16702827922E+03  0.33974293573E+03  0.50400001928E-02 0. -1.
       -1    1    3    3    0  502 -0.18455901156E+03 -0.23122453924E+03 -0.20429154086E+03  0.35953004045E+03  0.50400001928E-02 0.  1.
</event>
<event>
 5   0  0.2934483E-03  0.6990100E+03  0.7818609E-02  0.9718927E-01
       -1   -1    0    0    0  501  0.00000000000E+00  0.00000000000E+00  0.21919973976E+03  0.21919973982E+03  0.50400001928E-02 0.  1.
        1   -1    0    0  501    0  0.00000000000E+00  0.00000000000E+00 -0.55727146577E+03  0.55727146580E+03  0.50400001928E-02 0. -1.
    10030    2    1    2    0    0  0.00000000000E+00  0.00000000000E+00 -0.33807172601E+03  0.77647120561E+03  0.69901004372E+03 0.  0.
        5    1    3    3  502    0  0.22410445368E+03 -0.69276850381E+02 -0.45679836877E+03  0.51352597585E+03  0.46999998093E+01 0. -1.
       -5    1    3    3    0  502 -0.22410445368E+03  0.69276850381E+02  0.11872664276E+03  0.26294522977E+03  0.46999998093E+01 0.  1.
</event>
<event>
 5   0  0.2937617E-03  0.6996865E+03  0.7818609E-02  0.9717768E-01
        1   -1    0    0  501    0  0.00000000000E+00  0.00000000000E+00  0.25452298199E+03  0.25452298204E+03  0.50400001928E-02 0.  1.
       -1   -1    0    0    0  501  0.00000000000E+00  0.00000000000E+00 -0.48086149636E+03  0.48086149639E+03  0.50400001928E-02 0. -1.
    10030    2    1    2    0    0  0.00000000000E+00  0.00000000000E+00 -0.22633851437E+03  0.73538447842E+03  0.69968650696E+03 0.  0.
        3    1    3    3  502    0  0.27722334050E+03  0.52559437291E+02  0.10420397085E+03  0.30078855149E+03  0.10100000352E+00 0.  1.
       -3    1    3    3    0  502 -0.27722334050E+03 -0.52559437291E+02 -0.33054248522E+03  0.43459592693E+03  0.10100000352E+00 0. -1.
</event>
<event>
 5   0  0.4878235E-03  0.7005165E+03  0.7818609E-02  0.9716349E-01
        2   -1    0    0  501    0  0.00000000000E+00  0.00000000000E+00  0.83256122410E+02  0.83256122449E+02  0.25500000920E-02 0.  1.
       -2   -1    0    0    0  501  0.00000000000E+00  0.00000000000E+00 -0.14735353979E+04  0.14735353979E+04  0.25500000920E-02 0. -1.
    10030    2    1    2    0    0  0.00000000000E+00  0.00000000000E+00 -0.13902792755E+04  0.15567915203E+04  0.70051650514E+03 0.  0.
        4    1    3    3  502    0 -0.27393111569E+03  0.67931762805E+02 -0.11561161880E+04  0.11900669029E+04  0.12699999809E+01 0. -1.
       -4    1    3    3    0  502  0.27393111569E+03 -0.67931762805E+02 -0.23416308751E+03  0.36672461738E+03  0.12699999809E+01 0.  1.
</event>
<event>
 5   0  0.2938783E-03  0.6995463E+03  0.7818609E-02  0.9718008E-01
       -1   -1    0    0    0  501  0.00000000000E+00  0.00000000000E+00  0.49572190140E+02  0.49572190396E+02  0.50400001928E-02 0.  1.
        1   -1    0    0  501    0  0.00000000000E+00  0.00000000000E+00 -0.24679415903E+04  0.24679415903E+04  0.50400001928E-02 0. -1.
    10030    2    1    2    0    0  0.00000000000E+00  0.00000000000E+00 -0.24183694002E+04  0.25175137807E+04  0.69954633898E+03 0.  0.
        4    1    3    3  502    0  0.30332799363E+03 -0.65846380509E+02 -0.62894296407E+03  0.70136615437E+03  0.12699999809E+01 0.  1.
       -4    1    3    3    0  502 -0.30332799363E+03  0.65846380509E+02 -0.17894264361E+04  0.18161476263E+04  0.12699999809E+01 0. -1.
</event>
<event>
 5   0  0.5113683E-03  0.7005009E+03  0.7818609E-02  0.9716376E-01
       -2   -1    0    0    0  501  0.00000000000E+00  0.00000000000E+00  0.77866177082E+02  0.77866177124E+02  0.25500000920E-02 0.  1.
        2   -1    0    0  501    0  0.00000000000E+00  0.00000000000E+00 -0.15754644529E+04  0.15754644529E+04  0.25500000920E-02 0. -1.
    10030    2    1    2    0    0  0.00000000000E+00  0.00000000000E+00 -0.14975982758E+04  0.16533306300E+04  0.70050094678E+03 0.  0.
        3    1    3    3  502    0  0.26438411105E+03 -0.13304698298E+03 -0.11908267173E+04  0.12270569419E+04  0.10100000352E+00 0. -1.
       -3    1    3    3    0  502 -0.26438411105E+03  0.13304698298E+03 -0.30677155849E+03  0.42627368808E+03  0.10100000352E+00 0.  1.
</event>
<event>
 5   0  0.5113683E-03  0.6996440E+03  0.7818609E-02  0.9717841E-01
       -2   -1    0    0    0  501  0.00000000000E+00  0.00000000000E+00  0.36074123039E+03  0.36074123040E+03  0.25500000920E-02 0. -1.
        2   -1    0    0  501    0  0.00000000000E+00  0.00000000000E+00 -0.33923331867E+03  0.33923331868E+03  0.25500000920E-02 0.  1.
    10030    2    1    2    0    0  0.00000000000E+00  0.00000000000E+00  0.21507911719E+02  0.69997454908E+03  0.69964403742E+03 0.  0.
        3    1    3    3  502    0  0.12177983122E+03 -0.25163423575E+01 -0.31733201135E+03  0.33990627370E+03  0.10100000352E+00 0.  1.
       -3    1    3    3    0  502 -0.12177983122E+03  0.25163423575E+01  0.33883992307E+03  0.36006827538E+03  0.10100000352E+00 0. -1.
</event>
<event>
 5   0  0.5113683E-03  0.6999270E+03  0.7818609E-02  0.9717357E-01
        2   -1    0    0  501    0  0.00000000000E+00  0.00000000000E+00  0.12198590291E+04  0.12198590291E+04  0.25500000920E-02 0.  1.
       -2   -1    0    0    0  501  0.00000000000E+00  0.00000000000E+00 -0.10040050820E+03  0.10040050823E+03  0.25500000920E-02 0. -1.
    10030    2    1    2    0    0  0.00000000000E+00  0.00000000000E+00  0.11194585209E+04  0.13202595374E+04  0.69992704329E+03 0.  0.
        3    1    3    3  502    0 -0.18528496196E+02 -0.28766268389E+03  0.93405676326E+03  0.97752502376E+03  0.10100000352E+00 0.  1.
       -3    1    3    3    0  502  0.18528496196E+02  0.28766268389E+03  0.18540175767E+03  0.34273451361E+03  0.10100000352E+00 0. -1.
</event>
<event>
 5   0  0.3013140E-03  0.7029573E+03  0.7818609E-02  0.9712188E-01
       -1   -1    0    0    0  501  0.00000000000E+00  0.00000000000E+00  0.18824902471E+03  0.18824902478E+03  0.50400001928E-02 0.  1.
        1   -1    0    0  501    0  0.00000000000E+00  0.00000000000E+00 -0.65624381704E+03  0.65624381706E+03  0.50400001928E-02 0. -1.
    10030    2    1    2    0    0  0.00000000000E+00  0.00000000000E+00 -0.46799479233E+03  0.84449284184E+03  0.70295734883E+03 0.  0.
        2    1    3    3  502    0 -0.69830064157E+02 -0.53924712280E+02 -0.64272446345E+03  0.64875176176E+03  0.25500000920E-02 0. -1.
       -2    1    3    3    0  502  0.69830064157E+02  0.53924712280E+02  0.17472967113E+03  0.19574108009E+03  0.25500000920E-02 0.  1.
</event>
<event>
 5   0  0.5076796E-03  0.7005994E+03  0.7818609E-02  0.9716208E-01
        2   -1    0    0  501    0  0.00000000000E+00  0.00000000000E+00  0.23536219708E+03  0.23536219710E+03  0.25500000920E-02 0.  1.
       -2   -1    0    0    0  501  0.00000000000E+00  0.00000000000E+00 -0.52136620048E+03  0.52136620048E+03  0.25500000920E-02 0. -1.
    10030    2    1    2    0    0  0.00000000000E+00  0.00000000000E+00 -0.28600400340E+03  0.75672839758E+03  0.70059944173E+03 0.  0.
        5    1    3    3  502    0  0.13908118137E+03  0.70134817286E+02  0.19586064601E+03  0.25029173031E+03  0.46999998093E+01 0.  1.
       -5    1    3    3    0  502 -0.13908118137E+03 -0.70134817286E+02 -0.48186464941E+03  0.50643666727E+03  0.46999998093E+01 0. -1.
</event>
<event>
 5   0  0.5076796E-03  0.6973597E+03  0.7818609E-02  0.9721758E-01
       -2   -1    0    0    0  501  0.00000000000E+00  0.00000000000E+00  0.67647858863E+02  0.67647858911E+02  0.25500000920E-02 0.  1.
        2   -1    0    0  501    0  0.00000000000E+00  0.00000000000E+00 -0.17972132353E+04  0.17972132353E+04  0.25500000920E-02 0. -1.
    10030    2    1    2    0    0  0.00000000000E+00  0.00000000000E+00 -0.17295653764E+04  0.18648610942E+04  0.69735967000E+03 0.  0.
        5    1    3    3  502    0  0.76974135375E+02 -0.30081295734E+03 -0.44075882150E+03  0.53916962224E+03  0.46999998093E+01 0.  1.
       -5    1    3    3    0  502 -0.76974135375E+02  0.30081295734E+03 -0.12888065549E+04  0.13256914720E+04  0.46999998093E+01 0. -1.
</event>
<event>
 5   0  0.4878235E-03  0.6959767E+03  0.7818609E-02  0.9724137E-01
       -2   -1    0    0    0  501  0.00000000000E+00  0.00000000000E+00  0.55548926714E+02  0.55548926773E+02  0.25500000920E-02 0. -1.
        2   -1    0    0  501    0  0.00000000000E+00  0.00000000000E+00 -0.21799864730E+04  0.21799864730E+04  0.25500000920E-02 0.  1.
    10030    2    1    2    0    0  0.00000000000E+00  0.00000000000E+00 -0.21244375462E+04  0.22355353997E+04  0.69597674930E+03 0.  0.
        4    1    3    3  502    0 -0.19080024202E+03  0.25208312290E+03 -0.59515419499E+03  0.67391450639E+03  0.12699999809E+01 0. -1.
       -4    1    3    3    0  502  0.19080024202E+03 -0.25208312290E+03 -0.15292833513E+04  0.15616208933E+04  0.12699999809E+01 0.  1.
</event>
<event>
 5   0  0.4878235E-03  0.6994902E+03  0.7818609E-02  0.9718104E-01
        2   -1    0    0  501    0  0.00000000000E+00  0.00000000000E+00  0.78755679107E+03  0.78755679108E+03  0.25500000920E-02 0. -1.
       -2   -1    0    0    0  501  0.00000000000E+00  0.00000000000E+00 -0.15531786800E+03  0.15531786802E+03  0.25500000920E-02 0.  1.
    10030    2    1    2    0    0  0.00000000000E+00  0.00000000000E+00  0.63223892307E+03  0.94287465910E+03  0.69949021931E+03 0.  0.
        4    1    3    3  502    0  0.16297460404E+03  0.22677257769E+03  0.59993642725E+03  0.66174908628E+03  0.12699999809E+01 0. -1.
       -4    1    3    3    0  502 -0.16297460404E+03 -0.22677257769E+03  0.32302495828E+02  0.28112557282E+03  0.12699999809E+01 0.  1.
</event>
<event>
 5   0  0.3013140E-03  0.7006314E+03  0.7818609E-02  0.9716153E-01
        1   -1    0    0  501    0  0.00000000000E+00  0.00000000000E+00  0.50437125092E+03  0.50437125094E+03  0.50400001928E-02 0. -1.
       -1   -1    0    0    0  501  0.00000000000E+00  0.00000000000E+00 -0.24331497403E+03  0.24331497408E+03  0.50400001928E-02 0.  1.
    10030    2    1    2    0    0  0.00000000000E+00  0.00000000000E+00  0.26105627689E+03  0.74768622502E+03  0.70063136626E+03 0.  0.
        2    1    3    3  502    0 -0.91186722490E+02 -0.32205513553E+03  0.24084668904E+03  0.41236107516E+03  0.25500000920E-02 0. -1.
       -2    1    3    3    0  502  0.91186722490E+02  0.32205513553E+03  0.20209587847E+02  0.33532514986E+03  0.25500000920E-02 0.  1.
</event>
<event>
 5   0  0.5113683E-03  0.6995085E+03  0.7818609E-02  0.9718073E-01
       -2   -1    0    0    0  501  0.00000000000E+00  0.00000000000E+00  0.13865325629E+03  0.13865325631E+03  0.25500000920E-02 0. -1.
        2   -1    0    0  501    0  0.00000000000E+00  0.00000000000E+00 -0.88225864084E+03  0.88225864084E+03  0.25500000920E-02 0.  1.
    10030    2    1    2    0    0  0.00000000000E+00  0.00000000000E+00 -0.74360538455E+03  0.10209118972E+04  0.69950849446E+03 0.  0.
        3    1    3    3  502    0 -0.24316171574E+03  0.24206678763E+03 -0.47083260583E+03  0.58258673396E+03  0.10100000352E+00 0.  1.
       -3    1    3    3    0  502  0.24316171574E+03 -0.24206678763E+03 -0.27277277872E+03  0.43832516319E+03  0.10100000352E+00 0. -1.
</event>
<event>
 5   0  0.2938783E-03  0.7007195E+03  0.7818609E-02  0.9716003E-01
        1   -1    0    0  501    0  0.00000000000E+00  0.00000000000E+00  0.56054247264E+03  0.56054247266E+03  0.50400001928E-02 0. -1.
       -1   -1    0    0    0  501  0.00000000000E+00  0.00000000000E+00 -0.21898779334E+03  0.21898779339E+03  0.50400001928E-02 0.  1.
    10030    2    1    2    0    0  0.00000000000E+00  0.00000000000E+00  0.34155467930E+03  0.77953026605E+03  0.70071951360E+03 0.  0.
        4    1    3    3  502    0 -0.34803320749E+03 -0.37352316043E+02  0.15397802091E+03  0.38240443624E+03  0.12699999809E+01 0. -1.
       -4    1    3    3    0  502  0.34803320749E+03  0.37352316043E+02  0.18757665839E+03  0.39712582981E+03  0.12699999809E+01 0.  1.
</event>
<event>
 5   0  0.5072407E-03  0.7004193E+03  0.7818609E-02  0.9716515E-01
        2   -1    0    0  501    0  0.00000000000E+00  0.00000000000E+00  0.59801309387E+03  0.59801309387E+03  0.25500000920E-02 0. -1.
       -2   -1    0    0    0  501  0.00000000000E+00  0.00000000000E+00 -0.20509046534E+03  0.20509046535E+03  0.25500000920E-02 0.  1.
    10030    2    1    2    0    0  0.00000000000E+00  0.00000000000E+00  0.39292262853E+03  0.80310355922E+03  0.70041925646E+03 0.  0.
        1    1    3    3  502    0 -0.25351166910E+03  0.24075752823E+03  0.21980336554E+03  0.41297200062E+03  0.50400001928E-02 0. -1.
       -1    1    3    3    0  502  0.25351166910E+03 -0.24075752823E+03  0.17311926299E+03  0.39013155860E+03  0.50400001928E-02 0.  1.
</event>
<event>
 5   0  0.5023894E-03  0.6993347E+03  0.7818609E-02  0.9718371E-01
        2   -1    0    0  501    0  0.00000000000E+00  0.00000000000E+00  0.25288908151E+03  0.25288908152E+03  0.25500000920E-02 0. -1.
       -2   -1    0    0    0  501  0.00000000000E+00  0.00000000000E+00 -0.48348169664E+03  0.48348169665E+03  0.25500000920E-02 0.  1.
    10030    2    1    2    0    0  0.00000000000E+00  0.00000000000E+00 -0.23059261513E+03  0.73637077817E+03  0.69933466151E+03 0.  0.
        2    1    3    3  502    0 -0.11683191207E+03 -0.31655204072E+03 -0.21187252932E+03  0.39842798452E+03  0.25500000920E-02 0.  1.
       -2    1    3    3    0  502  0.11683191207E+03  0.31655204072E+03 -0.18720085812E+02  0.33794279365E+03  0.25500000920E-02 0. -1.
</event>
<event>
 5   0  0.2938783E-03  0.7003181E+03  0.7818609E-02  0.9716688E-01
       -1   -1    0    0    0  501  0.00000000000E+00  0.00000000000E+00  0.12897609510E+03  0.12897609520E+03  0.50400001928E-02 0. -1.
        1   -1    0    0  501    0  0.00000000000E+00  0.00000000000E+00 -0.95065176142E+03  0.95065176143E+03  0.50400001928E-02 0.  1.
    10030    2    1    2    0    0  0.00000000000E+00  0.00000000000E+00 -0.82167566631E+03  0.10796278566E+04  0.70031807645E+03 0.  0.
        4    1    3    3  502    0 -0.33131616812E+03 -0.23689995663E+02 -0.58166017923E+03  0.66982221235E+03  0.12699999809E+01 0.  1.
       -4    1    3    3    0  502  0.33131616812E+03  0.23689995663E+02 -0.24001548708E+03  0.40980564429E+03  0.12699999809E+01 0. -1.
</event>
<event>
 5   0  0.3013140E-03  0.7000472E+03  0.7818609E-02  0.9717152E-01
       -1   -1    0    0    0  501  0.00000000000E+00  0.00000000000E+00  0.33856813968E+03  0.33856813972E+03  0.50400001928E-02 0.  1.
        1   -1    0    0  501    0  0.00000000000E+00  0.00000000000E+00 -0.36186664227E+03  0.36186664231E+03  0.50400001928E-02 0. -1.
    10030    2    1    2    0    0  0.00000000000E+00  0.00000000000E+00 -0.23298502589E+02  0.70043478203E+03  0.70004718673E+03 0.  0.
        2    1    3    3  502    0 -0.16064877440E+03  0.27964943864E+03 -0.14775647120E+03  0.35474471389E+03  0.25500000920E-02 0. -1.
       -2    1    3    3    0  502  0.16064877440E+03 -0.27964943864E+03  0.12445796861E+03  0.34569006813E+03  0.25500000920E-02 0.  1.
</event>
<event>
 5   0  0.4878235E-03  0.6996657E+03  0.7818609E-02  0.9717804E-01
        2   -1    0    0  501    0  0.00000000000E+00  0.00000000000E+00  0.74278092794E+03  0.74278092794E+03  0.25500000920E-02 0.  1.
       -2   -1    0    0    0  501  0.00000000000E+00  0.00000000000E+00 -0.16476328906E+03  0.16476328908E+03  0.25500000920E-02 0. -1.
    10030    2    1    2    0    0  0.00000000000E+00  0.00000000000E+00  0.57801763888E+03  0.90754421702E+03  0.69966571661E+03 0.  0.
        4    1    3    3  502    0 -0.29695124044E+03 -0.18412060137E+03  0.26650549954E+03  0.43943967644E+03  0.12699999809E+01 0. -1.
       -4    1    3    3    0  502  0.29695124044E+03  0.18412060137E+03  0.31151213934E+03  0.46810454058E+03  0.12699999809E+01 0.  1.
</event>
<event>
 5   0  0.4878235E-03  0.7015235E+03  0.7818609E-02  0.9714630E-01
        2   -1    0    0  501    0  0.00000000000E+00  0.00000000000E+00  0.26207597908E+03  0.26207597910E+03  0.25500000920E-02 0. -1.
       -2   -1    0    0    0  501  0.00000000000E+00  0.00000000000E+00 -0.46945855892E+03  0.46945855892E+03  0.25500000920E-02 0.  1.
    10030    2    1    2    0    0  0.00000000000E+00  0.00000000000E+00 -0.20738257983E+03  0.73153453802E+03  0.70152351771E+03 0.  0.
        4    1    3    3  502    0 -0.28641724748E+03 -0.20028656232E+03 -0.13467171160E+03  0.37454990255E+03  0.12699999809E+01 0.  1.
       -4    1    3    3    0  502  0.28641724748E+03  0.20028656232E+03 -0.72710868237E+02  0.35698463547E+03  0.12699999809E+01 0. -1.
</event>
<event>
 5   0  0.2938783E-03  0.7016014E+03  0.7818609E-02  0.9714497E-01
       -1   -1    0    0    0  501  0.00000000000E+00  0.00000000000E+00  0.11214909241E+03  0.11214909252E+03  0.50400001928E-02 0.  1.
        1   -1    0    0  501    0  0.00000000000E+00  0.00000000000E+00 -0.10972994977E+04  0.10972994977E+04  0.50400001928E-02 0. -1.
    10030    2    1    2    0    0  0.00000000000E+00  0.00000000000E+00 -0.98515040525E+03  0.12094485902E+04  0.70160143340E+03 0.  0.
        4    1    3    3  502    0  0.12845571856E+03  0.32638763980E+03 -0.50198030872E+03  0.61238517804E+03  0.12699999809E+01 0.  1.
       -4    1    3    3    0  502 -0.12845571856E+03 -0.32638763980E+03 -0.48317009653E+03  0.59706341215E+03  0.12699999809E+01 0. -1.
</event>
<event>
 5   0  0.3013140E-03  0.7003182E+03  0.7818609E-02  0.9716688E-01
       -1   -1    0    0    0  501  0.00000000000E+00  0.00000000000E+00  0.32171621670E+03  0.32171621674E+03  0.50400001928E-02 0. -1.
        1   -1    0    0  501    0  0.00000000000E+00  0.00000000000E+00 -0.38111661345E+03  0.38111661349E+03  0.50400001928E-02 0.  1.
    10030    2    1    2    0    0  0.00000000000E+00  0.00000000000E+00 -0.59400396756E+02  0.70283283022E+03  0.70031819918E+03 0.  0.
        2    1    3    3  502    0  0.37261959741E+02  0.34522621131E+03 -0.75048778610E+02  0.35524908135E+03  0.25500000920E-02 0. -1.
       -2    1    3    3    0  502 -0.37261959741E+02 -0.34522621131E+03  0.15648381853E+02  0.34758374888E+03  0.25500000920E-02 0.  1.
</event>
<event>
 5   0  0.5076796E-03  0.7012197E+03  0.7818609E-02  0.9715149E-01
       -2   -1    0    0    0  501  0.00000000000E+00  0.00000000000E+00  0.20882575898E+03  0.20882575900E+03  0.25500000920E-02 0.  1.
        2   -1    0    0  501    0  0.00000000000E+00  0.00000000000E+00 -0.58865949053E+03  0.58865949054E+03  0.25500000920E-02 0. -1.
    10030    2    1    2    0    0  0.00000000000E+00  0.00000000000E+00 -0.37983373155E+03  0.79748524954E+03  0.70121969425E+03 0.  0.
        5    1    3    3  502    0 -0.84494595870E+02  0.12202525783E+01 -0.57686786382E+03  0.58304326431E+03  0.46999998093E+01 0. -1.
       -5    1    3    3    0  502  0.84494595870E+02 -0.12202525783E+01  0.19703413228E+03  0.21444198523E+03  0.46999998093E+01 0.  1.
</event>
<event>
 5   0  0.1981750E-03  0.6955349E+03  0.7818609E-02  0.9724899E-01
       -4   -1    0    0    0  501  0.00000000000E+00  0.00000000000E+00  0.51117682343E+03  0.51117840107E+03  0.12699999809E+01 0.  1.
        4   -1    0    0  501    0  0.00000000000E+00  0.00000000000E+00 -0.23659196999E+03  0.23659537857E+03  0.12699999809E+01 0. -1.
    10030    2    1    2    0    0  0.00000000000E+00  0.00000000000E+00  0.27458485345E+03  0.74777377964E+03  0.69553489041E+03 0.  0.
        2    1    3    3  502    0  0.21174475394E+03  0.24446606041E+03  0.27473245064E+03  0.42435529330E+03  0.25500000920E-02 0.  1.
       -2    1    3    3    0  502 -0.21174475394E+03 -0.24446606041E+03 -0.14759718841E+00  0.32341848634E+03  0.25500000920E-02 0. -1.
</event>
<event>
 5   0  0.2937617E-03  0.7011727E+03  0.7818609E-02  0.9715229E-01
       -1   -1    0    0    0  501  0.00000000000E+00  0.00000000000E+00  0.97062730680E+02  0.97062730811E+02  0.50400001928E-02 0. -1.
        1   -1    0    0  501    0  0.00000000000E+00  0.00000000000E+00 -0.12663025921E+04  0.12663025922E+04  0.50400001928E-02 0.  1.
    10030    2    1    2    0    0  0.00000000000E+00  0.00000000000E+00 -0.11692398615E+04  0.13633653230E+04  0.70117269644E+03 0.  0.
        3    1    3    3  502    0  0.21448433455E+03 -0.27732034584E+03 -0.58302436798E+03  0.68031428608E+03  0.10100000352E+00 0. -1.
       -3    1    3    3    0  502 -0.21448433455E+03  0.27732034584E+03 -0.58621549349E+03  0.68305103689E+03  0.10100000352E+00 0.  1.
</event>
<event>
 5   0  0.5023894E-03  0.6972946E+03  0.7818609E-02  0.9721870E-01
        2   -1    0    0  501    0  0.00000000000E+00  0.00000000000E+00  0.88534744775E+03  0.88534744776E+03  0.25500000920E-02 0.  1.
       -2   -1    0    0    0  501  0.00000000000E+00  0.00000000000E+00 -0.13729629678E+03  0.13729629680E+03  0.25500000920E-02 0. -1.
    10030    2    1    2    0    0  0.00000000000E+00  0.00000000000E+00  0.74805115098E+03  0.10226437446E+04  0.69729456029E+03 0.  0.
        2    1    3    3  502    0  0.55457718240E+01  0.42307627767E+02 -0.13345247264E+03  0.14010800624E+03  0.25500000920E-02 0. -1.
       -2    1    3    3    0  502 -0.55457718240E+01 -0.42307627767E+02  0.88150362362E+03  0.88253573832E+03  0.25500000920E-02 0.  1.
</event>
<event>
 5   0  0.2938783E-03  0.6998077E+03  0.7818609E-02  0.9717561E-01
       -1   -1    0    0    0  501  0.00000000000E+00  0.00000000000E+00  0.99198109323E+02  0.99198109451E+02  0.50400001928E-02 0. -1.
        1   -1    0    0  501    0  0.00000000000E+00  0.00000000000E+00 -0.12342242883E+04  0.12342242883E+04  0.50400001928E-02 0.  1.
    10030    2    1    2    0    0  0.00000000000E+00  0.00000000000E+00 -0.11350261790E+04  0.13334223978E+04  0.69980773351E+03 0.  0.
        4    1    3    3  502    0  0.28418318847E+03  0.20412235999E+03 -0.57180793045E+03  0.67036702237E+03  0.12699999809E+01 0. -1.
       -4    1    3    3    0  502 -0.28418318847E+03 -0.20412235999E+03 -0.56321824852E+03  0.66305537538E+03  0.12699999809E+01 0.  1.
</event>
<event>
 5   0  0.5113683E-03  0.7001207E+03  0.7818609E-02  0.9717026E-01
       -2   -1    0    0    0  501  0.00000000000E+00  0.00000000000E+00  0.57982983300E+02  0.57982983356E+02  0.25500000920E-02 0. -1.
        2   -1    0    0  501    0  0.00000000000E+00  0.00000000000E+00 -0.21134172919E+04  0.21134172919E+04  0.25500000920E-02 0.  1.
    10030    2    1    2    0    0  0.00000000000E+00  0.00000000000E+00 -0.20554343086E+04  0.21714002753E+04  0.70012067418E+03 0.  0.
        3    1    3    3  502    0  0.17364221628E+03  0.27926196271E+03 -0.13999365410E+04  0.14380407477E+04  0.10100000352E+00 0.  1.
       -3    1    3    3    0  502 -0.17364221628E+03 -0.27926196271E+03 -0.65549776760E+03  0.73335952753E+03  0.10100000352E+00 0. -1.
</event>
<event>
 5   0  0.1981750E-03  0.6987566E+03  0.7818609E-02  0.9719361E-01
       -4   -1    0    0    0  501  0.00000000000E+00  0.00000000000E+00  0.10319297629E+04  0.10319305444E+04  0.12699999809E+01 0.  1.
        4   -1    0    0  501    0  0.00000000000E+00  0.00000000000E+00 -0.11828403084E+03  0.11829084855E+03  0.12699999809E+01 0. -1.
    10030    2    1    2    0    0  0.00000000000E+00  0.00000000000E+00  0.91364573207E+03  0.11502213930E+04  0.69875655924E+03 0.  0.
        4    1    3    3  502    0  0.32510045357E+01 -0.21237610771E+03  0.19949952495E+00  0.21240487955E+03  0.12699999809E+01 0. -1.
       -4    1    3    3    0  502 -0.32510045357E+01  0.21237610771E+03  0.91344623255E+03  0.93781651340E+03  0.12699999809E+01 0.  1.
</event>
<event>
 5   0  0.5023894E-03  0.7000151E+03  0.7818609E-02  0.9717206E-01
       -2   -1    0    0    0  501  0.00000000000E+00  0.00000000000E+00  0.89178130338E+02  0.89178130375E+02  0.25500000920E-02 0.  1.
        2   -1    0    0  501    0  0.00000000000E+00  0.00000000000E+00 -0.13737144844E+04  0.13737144844E+04  0.25500000920E-02 0. -1.
    10030    2    1    2    0    0  0.00000000000E+00  0.00000000000E+00 -0.12845363540E+04  0.14628926148E+04  0.70001511231E+03 0.  0.
        2    1    3    3  502    0 -0.25390290172E+03  0.22952662960E+03 -0.48932480052E+03  0.59714982844E+03  0.25500000920E-02 0.  1.
       -2    1    3    3    0  502  0.25390290172E+03 -0.22952662960E+03 -0.79521155352E+03  0.86574278632E+03  0.25500000920E-02 0. -1.
</event>
<event>
 5   0  0.2937617E-03  0.7010639E+03  0.7818609E-02  0.9715414E-01
        1   -1    0    0  501    0  0.00000000000E+00  0.00000000000E+00  0.45586758992E+03  0.45586758994E+03  0.50400001928E-02 0.  1.
       -1   -1    0    0    0  501  0.00000000000E+00  0.00000000000E+00 -0.26953583474E+03  0.26953583479E+03  0.50400001928E-02 0. -1.
    10030    2    1    2    0    0  0.00000000000E+00  0.00000000000E+00  0.18633175517E+03  0.72540342473E+03  0.70106390980E+03 0.  0.
        3    1    3    3  502    0  0.29594962223E+03  0.16940870599E+03  0.91868474309E+01  0.34113032250E+03  0.10100000352E+00 0.  1.
       -3    1    3    3    0  502 -0.29594962223E+03 -0.16940870599E+03  0.17714490774E+03  0.38427310224E+03  0.10100000352E+00 0. -1.
</event>
<event>
 5   0  0.5023894E-03  0.7001257E+03  0.7818609E-02  0.9717017E-01
        2   -1    0    0  501    0  0.00000000000E+00  0.00000000000E+00  0.11256615864E+03  0.11256615867E+03  0.25500000920E-02 0. -1.
       -2   -1    0    0    0  501  0.00000000000E+00  0.00000000000E+00 -0.10886397804E+04  0.10886397804E+04  0.25500000920E-02 0.  1.
    10030    2    1    2    0    0  0.00000000000E+00  0.00000000000E+00 -0.97607362177E+03  0.12012059391E+04  0.70012569798E+03 0.  0.
        2    1    3    3  502    0  0.26308272346E+03 -0.80904453427E+02 -0.11692979037E+03  0.29904953745E+03  0.25500000920E-02 0. -1.
       -2    1    3    3    0  502 -0.26308272346E+03  0.80904453427E+02 -0.85914383140E+03  0.90215640163E+03  0.25500000920E-02 0.  1.
</event>
<event>
 5   0  0.2937617E-03  0.7007692E+03  0.7818609E-02  0.9715918E-01
        1   -1    0    0  501    0  0.00000000000E+00  0.00000000000E+00  0.32642498541E+03  0.32642498545E+03  0.50400001928E-02 0. -1.
       -1   -1    0    0    0  501  0.00000000000E+00  0.00000000000E+00 -0.37610282509E+03  0.37610282512E+03  0.50400001928E-02 0.  1.
    10030    2    1    2    0    0  0.00000000000E+00  0.00000000000E+00 -0.49677839674E+02  0.70252781058E+03  0.70076917518E+03 0.  0.
        3    1    3    3  502    0 -0.31340731282E+03  0.42733616163E+02  0.12626772091E+03  0.34057870342E+03  0.10100000352E+00 0. -1.
       -3    1    3    3    0  502  0.31340731282E+03 -0.42733616163E+02 -0.17594556058E+03  0.36194910715E+03  0.10100000352E+00 0.  1.
</event>
<event>
 5   0  0.2938783E-03  0.7001137E+03  0.7818609E-02  0.9717038E-01
        1   -1    0    0  501    0  0.00000000000E+00  0.00000000000E+00  0.43759554213E+03  0.43759554216E+03  0.50400001928E-02 0. -1.
       -1   -1    0    0    0  501  0.00000000000E+00  0.00000000000E+00 -0.28002984117E+03  0.28002984121E+03  0.50400001928E-02 0.  1.
    10030    2    1    2    0    0  0.00000000000E+00  0.00000000000E+00  0.15756570096E+03  0.71762538337E+03  0.70011373414E+03 0.  0.
        4    1    3    3  502    0 -0.26260726421E+03  0.22626122856E+03  0.12880386877E+03  0.36979557634E+03  0.12699999809E+01 0.  1.
       -4    1    3    3    0  502  0.26260726421E+03 -0.22626122856E+03  0.28761832189E+02  0.34782980703E+03  0.12699999809E+01 0. -1.
</event>
<event>
 5   0  0.5113683E-03  0.6972229E+03  0.7818609E-02  0.9721993E-01
        2   -1    0    0  501    0  0.00000000000E+00  0.00000000000E+00  0.14807872322E+04  0.14807872322E+04  0.25500000920E-02 0. -1.
       -2   -1    0    0    0  501  0.00000000000E+00  0.00000000000E+00 -0.82071173512E+02  0.82071173552E+02  0.25500000920E-02 0.  1.
    10030    2    1    2    0    0  0.00000000000E+00  0.00000000000E+00  0.13987160587E+04  0.15628584057E+04  0.69722290811E+03 0.  0.
        3    1    3    3  502    0  0.12024902804E+03  0.90386601225E+02 -0.55735096485E+01  0.15053451643E+03  0.10100000352E+00 0.  1.
       -3    1    3    3    0  502 -0.12024902804E+03 -0.90386601225E+02  0.14042895683E+04  0.14123238893E+04  0.10100000352E+00 0. -1.
</event>
<event>
 5   0  0.2913582E-03  0.7043412E+03  0.7818609E-02  0.9709837E-01
       -1   -1    0    0    0  501  0.00000000000E+00  0.00000000000E+00  0.17559394377E+03  0.17559394384E+03  0.50400001928E-02 0. -1.
        1   -1    0    0  501    0  0.00000000000E+00  0.00000000000E+00 -0.70631220466E+03  0.70631220467E+03  0.50400001928E-02 0.  1.
    10030    2    1    2    0    0  0.00000000000E+00  0.00000000000E+00 -0.53071826089E+03  0.88190614852E+03  0.70434123999E+03 0.  0.
        1    1    3    3  502    0  0.26139082363E+03  0.15129284015E+03 -0.49215690575E+03  0.57743666844E+03  0.50400001928E-02 0.  1.
       -1    1    3    3    0  502 -0.26139082363E+03 -0.15129284015E+03 -0.38561355141E+02  0.30446948008E+03  0.50400001928E-02 0. -1.
</event>
<event>
 5   0  0.3013140E-03  0.6996351E+03  0.7818609E-02  0.9717856E-01
        1   -1    0    0  501    0  0.00000000000E+00  0.00000000000E+00  0.98306497376E+03  0.98306497377E+03  0.50400001928E-02 0. -1.
       -1   -1    0    0    0  501  0.00000000000E+00  0.00000000000E+00 -0.12448040208E+03  0.12448040219E+03  0.50400001928E-02 0.  1.
    10030    2    1    2    0    0  0.00000000000E+00  0.00000000000E+00  0.85858457168E+03  0.11075453760E+04  0.69963511425E+03 0.  0.
        2    1    3    3  502    0 -0.71469179526E+02 -0.45296721413E+01  0.97133707329E+03  0.97397334229E+03  0.25500000920E-02 0. -1.
       -2    1    3    3    0  502  0.71469179526E+02  0.45296721413E+01 -0.11275250161E+03  0.13357203367E+03  0.25500000920E-02 0.  1.
</event>
<event>
 5   0  0.3013140E-03  0.6944417E+03  0.7818609E-02  0.9726785E-01
        1   -1    0    0  501    0  0.00000000000E+00  0.00000000000E+00  0.48727903313E+03  0.48727903316E+03  0.50400001928E-02 0.  1.
       -1   -1    0    0    0  501  0.00000000000E+00  0.00000000000E+00 -0.24741946054E+03  0.24741946060E+03  0.50400001928E-02 0. -1.
    10030    2    1    2    0    0  0.00000000000E+00  0.00000000000E+00  0.23985957259E+03  0.73469849376E+03  0.69444169097E+03 0.  0.
        2    1    3    3  502    0  0.10569713462E+02 -0.19362720979E+03 -0.18479331546E+03  0.26786523600E+03  0.25500000920E-02 0. -1.
       -2    1    3    3    0  502 -0.10569713462E+02  0.19362720979E+03  0.42465288805E+03  0.46683325776E+03  0.25500000920E-02 0.  1.
</event>
<event>
 5   0  0.4878235E-03  0.7029340E+03  0.7818609E-02  0.9712228E-01
        2   -1    0    0  501    0  0.00000000000E+00  0.00000000000E+00  0.16448285784E+04  0.16448285784E+04  0.25500000920E-02 0. -1.
       -2   -1    0    0    0  501  0.00000000000E+00  0.00000000000E+00 -0.75101469207E+02  0.75101469250E+02  0.25500000920E-02 0.  1.
    10030    2    1    2    0    0  0.00000000000E+00  0.00000000000E+00  0.15697271092E+04  0.17199300476E+04  0.70293397377E+03 0.  0.
        4    1    3    3  502    0  0.10031642796E+02 -0.40741383291E+02  0.16386729679E+04  0.16392105426E+04  0.12699999809E+01 0. -1.
       -4    1    3    3    0  502 -0.10031642796E+02  0.40741383291E+02 -0.68945858714E+02  0.80719505099E+02  0.12699999809E+01 0.  1.
</event>
<event>
 5   0  0.2938783E-03  0.7002434E+03  0.7818609E-02  0.9716816E-01
        1   -1    0    0  501    0  0.00000000000E+00  0.00000000000E+00  0.48912205646E+03  0.48912205649E+03  0.50400001928E-02 0. -1.
       -1   -1    0    0    0  501  0.00000000000E+00  0.00000000000E+00 -0.25062292414E+03  0.25062292419E+03  0.50400001928E-02 0.  1.
    10030    2    1    2    0    0  0.00000000000E+00  0.00000000000E+00  0.23849913233E+03  0.73974498068E+03  0.70024338649E+03 0.  0.
        4    1    3    3  502    0 -0.14414771015E+02  0.13866194339E+02 -0.25001645400E+03  0.25081845455E+03  0.12699999809E+01 0.  1.
       -4    1    3    3    0  502  0.14414771015E+02 -0.13866194339E+02  0.48851558633E+03  0.48892652613E+03  0.12699999809E+01 0. -1.
</event>
<event>
 5   0  0.2913582E-03  0.7019124E+03  0.7818609E-02  0.9713967E-01
        1   -1    0    0  501    0  0.00000000000E+00  0.00000000000E+00  0.71679395624E+03  0.71679395626E+03  0.50400001928E-02 0. -1.
       -1   -1    0    0    0  501  0.00000000000E+00  0.00000000000E+00 -0.17183497369E+03  0.17183497376E+03  0.50400001928E-02 0.  1.
    10030    2    1    2    0    0  0.00000000000E+00  0.00000000000E+00  0.54495898255E+03  0.88862893003E+03  0.70191244654E+03 0.  0.
        1    1    3    3  502    0  0.34492932146E+03 -0.46630317574E+02  0.21558433797E+03  0.40942304542E+03  0.50400001928E-02 0.  1.
       -1    1    3    3    0  502 -0.34492932146E+03  0.46630317574E+02  0.32937464458E+03  0.47920588460E+03  0.50400001928E-02 0. -1.
</event>
<event>
 5   0  0.5076796E-03  0.6998110E+03  0.7818609E-02  0.9717555E-01
       -2   -1    0    0    0  501  0.00000000000E+00  0.00000000000E+00  0.55061549164E+02  0.55061549223E+02  0.25500000920E-02 0.  1.
        2   -1    0    0  501    0  0.00000000000E+00  0.00000000000E+00 -0.22235820542E+04  0.22235820542E+04  0.25500000920E-02 0. -1.
    10030    2    1    2    0    0  0.00000000000E+00  0.00000000000E+00 -0.21685205050E+04  0.22786436034E+04  0.69981103926E+03 0.  0.
        5    1    3    3  502    0  0.10626850953E+03  0.31139037652E+03 -0.14716497029E+04  0.15079893569E+04  0.46999998093E+01 0. -1.
       -5    1    3    3    0  502 -0.10626850953E+03 -0.31139037652E+03 -0.69687080217E+03  0.77065424648E+03  0.46999998093E+01 0.  1.
</event>
<event>
 5   0  0.5072407E-03  0.7019758E+03  0.7818609E-02  0.9713859E-01
       -2   -1    0    0    0  501  0.00000000000E+00  0.00000000000E+00  0.21655696232E+03  0.21655696234E+03  0.25500000920E-02 0. -1.
        2   -1    0    0  501    0  0.00000000000E+00  0.00000000000E+00 -0.56886882832E+03  0.56886882832E+03  0.25500000920E-02 0.  1.
    10030    2    1    2    0    0  0.00000000000E+00  0.00000000000E+00 -0.35231186599E+03  0.78542579066E+03  0.70197579852E+03 0.  0.
        1    1    3    3  502    0 -0.82450380328E+02  0.14701001691E+02 -0.55752508905E+03  0.56378046224E+03  0.50400001928E-02 0.  1.
       -1    1    3    3    0  502  0.82450380328E+02 -0.14701001691E+02  0.20521322305E+03  0.22164532841E+03  0.50400001928E-02 0. -1.
</event>
<event>
 5   0  0.5072407E-03  0.6990067E+03  0.7818609E-02  0.9718932E-01
       -2   -1    0    0    0  501  0.00000000000E+00  0.00000000000E+00  0.13890483546E+03  0.13890483549E+03  0.25500000920E-02 0. -1.
        2   -1    0    0  501    0  0.00000000000E+00  0.00000000000E+00 -0.87939759339E+03  0.87939759340E+03  0.25500000920E-02 0.  1.
    10030    2    1    2    0    0  0.00000000000E+00  0.00000000000E+00 -0.74049275793E+03  0.10183024289E+04  0.69900666100E+03 0.  0.
        1    1    3    3  502    0 -0.80124472917E+02  0.25682789470E+03 -0.45242639609E+02  0.27281384701E+03  0.50400001928E-02 0. -1.
       -1    1    3    3    0  502  0.80124472917E+02 -0.25682789470E+03 -0.69525011832E+03  0.74548858187E+03  0.50400001928E-02 0.  1.
</event>
<event>
 5   0  0.1981750E-03  0.6983691E+03  0.7818609E-02  0.9720025E-01
       -3   -1    0    0    0  501  0.00000000000E+00  0.00000000000E+00  0.49376955697E+03  0.49376956730E+03  0.10100000352E+00 0. -1.
        3   -1    0    0  501    0  0.00000000000E+00  0.00000000000E+00 -0.24693672500E+03  0.24693674565E+03  0.10100000352E+00 0.  1.
    10030    2    1    2    0    0  0.00000000000E+00  0.00000000000E+00  0.24683283197E+03  0.74070631295E+03  0.69836909661E+03 0.  0.
        3    1    3    3  502    0  0.11929639523E+03  0.15841858941E+03  0.42824499473E+03  0.47193417454E+03  0.10100000352E+00 0. -1.
       -3    1    3    3    0  502 -0.11929639523E+03 -0.15841858941E+03 -0.18141216277E+03  0.26877213841E+03  0.10100000352E+00 0.  1.
</event>
<event>
 5   0  0.2937617E-03  0.7007620E+03  0.7818609E-02  0.9715930E-01
       -1   -1    0    0    0  501  0.00000000000E+00  0.00000000000E+00  0.17785112636E+03  0.17785112643E+03  0.50400001928E-02 0. -1.
        1   -1    0    0  501    0  0.00000000000E+00  0.00000000000E+00 -0.69027869549E+03  0.69027869551E+03  0.50400001928E-02 0.  1.
    10030    2    1    2    0    0  0.00000000000E+00  0.00000000000E+00 -0.51242756913E+03  0.86812982194E+03  0.70076199535E+03 0.  0.
        3    1    3    3  502    0 -0.27667355065E+03  0.13944583267E+03 -0.45891960450E+03  0.55371527654E+03  0.10100000352E+00 0.  1.
       -3    1    3    3    0  502  0.27667355065E+03 -0.13944583267E+03 -0.53507964632E+02  0.31441454540E+03  0.10100000352E+00 0. -1.
</event>
<event>
 5   0  0.5076796E-03  0.6984296E+03  0.7818609E-02  0.9719922E-01
       -2   -1    0    0    0  501  0.00000000000E+00  0.00000000000E+00  0.11382825135E+03  0.11382825138E+03  0.25500000920E-02 0. -1.
        2   -1    0    0  501    0  0.00000000000E+00  0.00000000000E+00 -0.10713595321E+04  0.10713595322E+04  0.25500000920E-02 0.  1.
    10030    2    1    2    0    0  0.00000000000E+00  0.00000000000E+00 -0.95753128079E+03  0.11851877835E+04  0.69842961603E+03 0.  0.
        5    1    3    3  502    0  0.25296659529E+03 -0.45140999343E+02 -0.87997112846E+03  0.91673392273E+03  0.46999998093E+01 0.  1.
       -5    1    3    3    0  502 -0.25296659529E+03  0.45140999343E+02 -0.77560152333E+02  0.26845386081E+03  0.46999998093E+01 0. -1.
</event>
<event>
 5   0  0.5023894E-03  0.6981589E+03  0.7818609E-02  0.9720386E-01
       -2   -1    0    0    0  501  0.00000000000E+00  0.00000000000E+00  0.32367084108E+03  0.32367084109E+03  0.25500000920E-02 0.  1.
        2   -1    0    0  501    0  0.00000000000E+00  0.00000000000E+00 -0.37648272120E+03  0.37648272121E+03  0.25500000920E-02 0. -1.
    10030    2    1    2    0    0  0.00000000000E+00  0.00000000000E+00 -0.52811880128E+02  0.70015356230E+03  0.69815894760E+03 0.  0.
        2    1    3    3  502    0  0.28093158140E+03 -0.43126101948E+02  0.17684044834E+03  0.33474611017E+03  0.25500000920E-02 0.  1.
       -2    1    3    3    0  502 -0.28093158140E+03  0.43126101948E+02 -0.22965232847E+03  0.36540745213E+03  0.25500000920E-02 0. -1.
</event>
<event>
 5   0  0.2934483E-03  0.6938005E+03  0.7818609E-02  0.9727893E-01
       -1   -1    0    0    0  501  0.00000000000E+00  0.00000000000E+00  0.15056035699E+03  0.15056035708E+03  0.50400001928E-02 0.  1.
        1   -1    0    0  501    0  0.00000000000E+00  0.00000000000E+00 -0.79927940890E+03  0.79927940891E+03  0.50400001928E-02 0. -1.
    10030    2    1    2    0    0  0.00000000000E+00  0.00000000000E+00 -0.64871905191E+03  0.94983976599E+03  0.69380052807E+03 0.  0.
        5    1    3    3  502    0 -0.22419300214E+03 -0.26124525005E+03 -0.38254158137E+03  0.51465690936E+03  0.46999998093E+01 0. -1.
       -5    1    3    3    0  502  0.22419300214E+03  0.26124525005E+03 -0.26617747054E+03  0.43518285663E+03  0.46999998093E+01 0.  1.
</event>
<event>
 5   0  0.5072407E-03  0.6993360E+03  0.7818609E-02  0.9718368E-01
        2   -1    0    0  501    0  0.00000000000E+00  0.00000000000E+00  0.11243041880E+04  0.11243041880E+04  0.25500000920E-02 0.  1.
       -2   -1    0    0    0  501  0.00000000000E+00  0.00000000000E+00 -0.10874967393E+03  0.10874967396E+03  0.25500000920E-02 0. -1.
    10030    2    1    2    0    0  0.00000000000E+00  0.00000000000E+00  0.10155545140E+04  0.12330538619E+04  0.69933601041E+03 0.  0.
        1    1    3    3  502    0  0.18440325007E+03 -0.17339917623E+03  0.82431329244E+02  0.26620810848E+03  0.50400001928E-02 0. -1.
       -1    1    3    3    0  502 -0.18440325007E+03  0.17339917623E+03  0.93312318479E+03  0.96684575345E+03  0.50400001928E-02 0.  1.
</event>
<event>
 5   0  0.4878235E-03  0.7003930E+03  0.7818609E-02  0.9716560E-01
        2   -1    0    0  501    0  0.00000000000E+00  0.00000000000E+00  0.11125988813E+04  0.11125988813E+04  0.25500000920E-02 0. -1.
       -2   -1    0    0    0  501  0.00000000000E+00  0.00000000000E+00 -0.11022623936E+03  0.11022623939E+03  0.25500000920E-02 0.  1.
    10030    2    1    2    0    0  0.00000000000E+00  0.00000000000E+00  0.10023726420E+04  0.12228251207E+04  0.70039300576E+03 0.  0.
        4    1    3    3  502    0  0.22425505376E+03  0.72122136219E+02  0.95359018485E+03  0.98225647629E+03  0.12699999809E+01 0. -1.
       -4    1    3    3    0  502 -0.22425505376E+03 -0.72122136219E+02  0.48782457127E+02  0.24056864445E+03  0.12699999809E+01 0.  1.
</event>
<event>
 5   0  0.5072407E-03  0.6972267E+03  0.7818609E-02  0.9721987E-01
        2   -1    0    0  501    0  0.00000000000E+00  0.00000000000E+00  0.11067559333E+04  0.11067559333E+04  0.25500000920E-02 0.  1.
       -2   -1    0    0    0  501  0.00000000000E+00  0.00000000000E+00 -0.10980855049E+03  0.10980855052E+03  0.25500000920E-02 0. -1.
    10030    2    1    2    0    0  0.00000000000E+00  0.00000000000E+00  0.99694738278E+03  0.12165644838E+04  0.69722669141E+03 0.  0.
        1    1    3    3  502    0 -0.56459098796E+02 -0.27064342940E+03  0.86900851316E+03  0.91192724034E+03  0.50400001928E-02 0.  1.
       -1    1    3    3    0  502  0.56459098796E+02  0.27064342940E+03  0.12793886963E+03  0.30463724346E+03  0.50400001928E-02 0. -1.
</event>
<event>
 5   0  0.5023894E-03  0.7020201E+03  0.7818609E-02  0.9713784E-01
        2   -1    0    0  501    0  0.00000000000E+00  0.00000000000E+00  0.29696678242E+03  0.29696678243E+03  0.25500000920E-02 0.  1.
       -2   -1    0    0    0  501  0.00000000000E+00  0.00000000000E+00 -0.41488832313E+03  0.41488832314E+03  0.25500000920E-02 0. -1.
    10030    2    1    2    0    0  0.00000000000E+00  0.00000000000E+00 -0.11792154071E+03  0.71185510557E+03  0.70202008630E+03 0.  0.
        2    1    3    3  502    0  0.14748162346E+03 -0.30010318838E+03  0.49283495390E+02  0.33799647315E+03  0.25500000920E-02 0.  1.
       -2    1    3    3    0  502 -0.14748162346E+03  0.30010318838E+03 -0.16720503610E+03  0.37385863242E+03  0.25500000920E-02 0. -1.
</event>
<event>
 5   0  0.3013140E-03  0.6993944E+03  0.7818609E-02  0.9718268E-01
       -1   -1    0    0    0  501  0.00000000000E+00  0.00000000000E+00  0.43908184781E+03  0.43908184784E+03  0.50400001928E-02 0. -1.
        1   -1    0    0  501    0  0.00000000000E+00  0.00000000000E+00 -0.27850876238E+03  0.27850876243E+03  0.50400001928E-02 0.  1.
    10030    2    1    2    0    0  0.00000000000E+00  0.00000000000E+00  0.16057308543E+03  0.71759061027E+03  0.69939442962E+03 0.  0.
        2    1    3    3  502    0 -0.20891929183E+03  0.19170564388E+02 -0.20676611325E+03  0.29456239853E+03  0.25500000920E-02 0.  1.
       -2    1    3    3    0  502  0.20891929183E+03 -0.19170564388E+02  0.36733919867E+03  0.42302821174E+03  0.25500000920E-02 0. -1.
</event>
<event>
 5   0  0.3013140E-03  0.6995333E+03  0.7818609E-02  0.9718031E-01
        1   -1    0    0  501    0  0.00000000000E+00  0.00000000000E+00  0.96363426757E+03  0.96363426758E+03  0.50400001928E-02 0.  1.
       -1   -1    0    0    0  501  0.00000000000E+00  0.00000000000E+00 -0.12695347215E+03  0.12695347225E+03  0.50400001928E-02 0. -1.
    10030    2    1    2    0    0  0.00000000000E+00  0.00000000000E+00  0.83668079542E+03  0.10905877398E+04  0.69953331932E+03 0.  0.
        2    1    3    3  502    0 -0.10684425252E+03  0.11122247287E+03  0.90776050273E+03  0.92076884346E+03  0.25500000920E-02 0.  1.
       -2    1    3    3    0  502  0.10684425252E+03 -0.11122247287E+03 -0.71079707304E+02  0.16981889637E+03  0.25500000920E-02 0. -1.
</event>
<event>
 5   0  0.5072407E-03  0.6991950E+03  0.7818609E-02  0.9718610E-01
        2   -1    0    0  501    0  0.00000000000E+00  0.00000000000E+00  0.63046284487E+03  0.63046284487E+03  0.25500000920E-02 0. -1.
       -2   -1    0    0    0  501  0.00000000000E+00  0.00000000000E+00 -0.19385508054E+03  0.19385508056E+03  0.25500000920E-02 0.  1.
    10030    2    1    2    0    0  0.00000000000E+00  0.00000000000E+00  0.43660776432E+03  0.82431792543E+03  0.69919503883E+03 0.  0.
        1    1    3    3  502    0 -0.33218499449E+03 -0.32466086167E+02  0.95684245964E+02  0.34721231583E+03  0.50400001928E-02 0.  1.
       -1    1    3    3    0  502  0.33218499449E+03  0.32466086167E+02  0.34092351836E+03  0.47710560960E+03  0.50400001928E-02 0. -1.
</event>
<event>
 5   0  0.2913582E-03  0.6984665E+03  0.7818609E-02  0.9719858E-01
        1   -1    0    0  501    0  0.00000000000E+00  0.00000000000E+00  0.69904755961E+03  0.69904755963E+03  0.50400001928E-02 0.  1.
       -1   -1    0    0    0  501  0.00000000000E+00  0.00000000000E+00 -0.17447146539E+03  0.17447146547E+03  0.50400001928E-02 0. -1.
    10030    2    1    2    0    0  0.00000000000E+00  0.00000000000E+00  0.52457609421E+03  0.87351902509E+03  0.69846646919E+03 0.  0.
        1    1    3    3  502    0 -0.18775097794E+03  0.12049177644E+03  0.59832019691E+03  0.63855755885E+03  0.50400001928E-02 0.  1.
       -1    1    3    3    0  502  0.18775097794E+03 -0.12049177644E+03 -0.73744102699E+02  0.23496146624E+03  0.50400001928E-02 0. -1.
</event>
<event>
 5   0  0.2934483E-03  0.6992294E+03  0.7818609E-02  0.9718551E-01
        1   -1    0    0  501    0  0.00000000000E+00  0.00000000000E+00  0.19407721807E+04  0.19407721807E+04  0.50400001928E-02 0.  1.
       -1   -1    0    0    0  501  0.00000000000E+00  0.00000000000E+00 -0.62980310766E+02  0.62980310967E+02  0.50400001928E-02 0. -1.
    10030    2    1    2    0    0  0.00000000000E+00  0.00000000000E+00  0.18777918699E+04  0.20037524916E+04  0.69922939089E+03 0.  0.
        5    1    3    3  502    0 -0.29478391615E+03 -0.14781562568E+03  0.60641375935E+03  0.69029468631E+03  0.46999998093E+01 0. -1.
       -5    1    3    3    0  502  0.29478391615E+03  0.14781562568E+03  0.12713781105E+04  0.13134578053E+04  0.46999998093E+01 0.  1.
</event>
<event>
 5   0  0.5113683E-03  0.7034000E+03  0.7818609E-02  0.9711435E-01
        2   -1    0    0  501    0  0.00000000000E+00  0.00000000000E+00  0.32010233082E+03  0.32010233083E+03  0.25500000920E-02 0.  1.
       -2   -1    0    0    0  501  0.00000000000E+00  0.00000000000E+00 -0.38641667678E+03  0.38641667679E+03  0.25500000920E-02 0. -1.
    10030    2    1    2    0    0  0.00000000000E+00  0.00000000000E+00 -0.66314345956E+02  0.70651900762E+03  0.70339996847E+03 0.  0.
        3    1    3    3  502    0 -0.10443919317E+03  0.21114960426E+03  0.22915437646E+03  0.32863876658E+03  0.10100000352E+00 0.  1.
       -3    1    3    3    0  502  0.10443919317E+03 -0.21114960426E+03 -0.29546872241E+03  0.37788024104E+03  0.10100000352E+00 0. -1.
</event>
<event>
 5   0  0.2938783E-03  0.6998644E+03  0.7818609E-02  0.9717464E-01
       -1   -1    0    0    0  501  0.00000000000E+00  0.00000000000E+00  0.22316536739E+03  0.22316536745E+03  0.50400001928E-02 0. -1.
        1   -1    0    0  501    0  0.00000000000E+00  0.00000000000E+00 -0.54870772873E+03  0.54870772876E+03  0.50400001928E-02 0.  1.
    10030    2    1    2    0    0  0.00000000000E+00  0.00000000000E+00 -0.32554236134E+03  0.77187309621E+03  0.69986444946E+03 0.  0.
        4    1    3    3  502    0  0.29601096246E+03 -0.16048029762E+03 -0.57709554959E+02  0.34162614282E+03  0.12699999809E+01 0. -1.
       -4    1    3    3    0  502 -0.29601096246E+03  0.16048029762E+03 -0.26783280638E+03  0.43024695339E+03  0.12699999809E+01 0.  1.
</event>
<event>
 5   0  0.5023894E-03  0.6991827E+03  0.7818609E-02  0.9718631E-01
        2   -1    0    0  501    0  0.00000000000E+00  0.00000000000E+00  0.19312038707E+03  0.19312038709E+03  0.25500000920E-02 0. -1.
       -2   -1    0    0    0  501  0.00000000000E+00  0.00000000000E+00 -0.63283903570E+03  0.63283903570E+03  0.25500000920E-02 0.  1.
    10030    2    1    2    0    0  0.00000000000E+00  0.00000000000E+00 -0.43971864863E+03  0.82595942279E+03  0.69918272157E+03 0.  0.
        2    1    3    3  502    0 -0.79026445132E+02 -0.33839232489E+03 -0.26499097579E+03  0.43700659244E+03  0.25500000920E-02 0.  1.
       -2    1    3    3    0  502  0.79026445132E+02  0.33839232489E+03 -0.17472767283E+03  0.38895283035E+03  0.25500000920E-02 0. -1.
</event>
<event>
 5   0  0.2938783E-03  0.7001425E+03  0.7818609E-02  0.9716989E-01
       -1   -1    0    0    0  501  0.00000000000E+00  0.00000000000E+00  0.24573842220E+03  0.24573842225E+03  0.50400001928E-02 0.  1.
        1   -1    0    0  501    0  0.00000000000E+00  0.00000000000E+00 -0.49870049784E+03  0.49870049786E+03  0.50400001928E-02 0. -1.
    10030    2    1    2    0    0  0.00000000000E+00  0.00000000000E+00 -0.25296207563E+03  0.74443892012E+03  0.70014248127E+03 0.  0.
        4    1    3    3  502    0 -0.24450067654E+03 -0.22577278881E+03 -0.11008360646E+02  0.33298157592E+03  0.12699999809E+01 0.  1.
       -4    1    3    3    0  502  0.24450067654E+03  0.22577278881E+03 -0.24195371499E+03  0.41145734420E+03  0.12699999809E+01 0. -1.
</event>
<event>
 5   0  0.2913582E-03  0.7010754E+03  0.7818609E-02  0.9715395E-01
       -1   -1    0    0    0  501  0.00000000000E+00  0.00000000000E+00  0.41248382655E+03  0.41248382658E+03  0.50400001928E-02 0. -1.
        1   -1    0    0  501    0  0.00000000000E+00  0.00000000000E+00 -0.29789454912E+03  0.29789454916E+03  0.50400001928E-02 0.  1.
    10030    2    1    2    0    0  0.00000000000E+00  0.00000000000E+00  0.11458927743E+03  0.71037837575E+03  0.70107541265E+03 0.  0.
        1    1    3    3  502    0 -0.29851577379E+03 -0.14117051135E+03 -0.61892323741E+02  0.33596345075E+03  0.50400001928E-02 0. -1.
       -1    1    3    3    0  502  0.29851577379E+03  0.14117051135E+03  0.17648160117E+03  0.37441492499E+03  0.50400001928E-02 0.  1.
</event>
<event>
 5   0  0.5076796E-03  0.7005020E+03  0.7818609E-02  0.9716374E-01
        2   -1    0    0  501    0  0.00000000000E+00  0.00000000000E+00  0.38193736287E+03  0.38193736288E+03  0.25500000920E-02 0. -1.
       -2   -1    0    0    0  501  0.00000000000E+00  0.00000000000E+00 -0.32119343630E+03  0.32119343631E+03  0.25500000920E-02 0.  1.
    10030    2    1    2    0    0  0.00000000000E+00  0.00000000000E+00  0.60743926575E+02  0.70313079919E+03  0.70050203151E+03 0.  0.
        5    1    3    3  502    0 -0.13829729507E+03  0.18937074437E+03 -0.23073161285E+03  0.32900849201E+03  0.46999998093E+01 0.  1.
       -5    1    3    3    0  502  0.13829729507E+03 -0.18937074437E+03  0.29147553942E+03  0.37412230718E+03  0.46999998093E+01 0. -1.
</event>
<event>
 5   0  0.2937617E-03  0.7110093E+03  0.7818609E-02  0.9698588E-01
       -1   -1    0    0    0  501  0.00000000000E+00  0.00000000000E+00  0.47743564229E+03  0.47743564231E+03  0.50400001928E-02 0.  1.
        1   -1    0    0  501    0  0.00000000000E+00  0.00000000000E+00 -0.26471329240E+03  0.26471329245E+03  0.50400001928E-02 0. -1.
    10030    2    1    2    0    0  0.00000000000E+00  0.00000000000E+00  0.21272234989E+03  0.74214893476E+03  0.71100931304E+03 0.  0.
        3    1    3    3  502    0 -0.29807671633E+02 -0.34655209908E+03  0.29681589902E+02  0.34909577718E+03  0.10100000352E+00 0.  1.
       -3    1    3    3    0  502  0.29807671633E+02  0.34655209908E+03  0.18304075999E+03  0.39305315758E+03  0.10100000352E+00 0. -1.
</event>
<event>
 5   0  0.1981750E-03  0.7002340E+03  0.7818609E-02  0.9716832E-01
        3   -1    0    0  501    0  0.00000000000E+00  0.00000000000E+00  0.16173521799E+03  0.16173524953E+03  0.10100000352E+00 0. -1.
       -3   -1    0    0    0  501  0.00000000000E+00  0.00000000000E+00 -0.75791708849E+03  0.75791709522E+03  0.10100000352E+00 0.  1.
    10030    2    1    2    0    0  0.00000000000E+00  0.00000000000E+00 -0.59618187049E+03  0.91965234474E+03  0.70023396982E+03 0.  0.
        5    1    3    3  502    0  0.19969114736E+03 -0.23145470617E+03 -0.52217778050E+03  0.60509467010E+03  0.46999998093E+01 0.  1.
       -5    1    3    3    0  502 -0.19969114736E+03  0.23145470617E+03 -0.74004089992E+02  0.31455767464E+03  0.46999998093E+01 0. -1.
</event>
<event>
 5   0  0.2937617E-03  0.6996029E+03  0.7818609E-02  0.9717912E-01
        1   -1    0    0  501    0  0.00000000000E+00  0.00000000000E+00  0.40429765111E+03  0.40429765115E+03  0.50400001928E-02 0. -1.
       -1   -1    0    0    0  501  0.00000000000E+00  0.00000000000E+00 -0.30265092970E+03  0.30265092974E+03  0.50400001928E-02 0.  1.
    10030    2    1    2    0    0  0.00000000000E+00  0.00000000000E+00  0.10164672142E+03  0.70694858088E+03  0.69960291597E+03 0.  0.
        3    1    3    3  502    0  0.80081403658E+02 -0.75874126254E+02  0.38625926403E+03  0.40170404964E+03  0.10100000352E+00 0. -1.
       -3    1    3    3    0  502 -0.80081403658E+02  0.75874126254E+02 -0.28461254261E+03  0.30524453125E+03  0.10100000352E+00 0.  1.
</event>
<event>
 5   0  0.5023894E-03  0.6997932E+03  0.7818609E-02  0.9717586E-01
       -2   -1    0    0    0  501  0.00000000000E+00  0.00000000000E+00  0.22077556966E+03  0.22077556968E+03  0.25500000920E-02 0. -1.
        2   -1    0    0  501    0  0.00000000000E+00  0.00000000000E+00 -0.55453426822E+03  0.55453426823E+03  0.25500000920E-02 0.  1.
    10030    2    1    2    0    0  0.00000000000E+00  0.00000000000E+00 -0.33375869856E+03  0.77530983790E+03  0.69979316650E+03 0.  0.
        2    1    3    3  502    0 -0.25552584474E+03  0.17300813726E+03  0.15850198005E+02  0.30899272107E+03  0.25500000920E-02 0. -1.
       -2    1    3    3    0  502  0.25552584474E+03 -0.17300813726E+03 -0.34960889656E+03  0.46631711683E+03  0.25500000920E-02 0.  1.
</event>
<event>
 5   0  0.4878235E-03  0.6987271E+03  0.7818609E-02  0.9719412E-01
       -2   -1    0    0    0  501  0.00000000000E+00  0.00000000000E+00  0.75629091986E+03  0.75629091986E+03  0.25500000920E-02 0. -1.
        2   -1    0    0  501    0  0.00000000000E+00  0.00000000000E+00 -0.16138615076E+03  0.16138615078E+03  0.25500000920E-02 0.  1.
    10030    2    1    2    0    0  0.00000000000E+00  0.00000000000E+00  0.59490476910E+03  0.91767707064E+03  0.69872707238E+03 0.  0.
        4    1    3    3  502    0  0.18612519343E+03 -0.29409291325E+03  0.33728925890E+03  0.48466368372E+03  0.12699999809E+01 0.  1.
       -4    1    3    3    0  502 -0.18612519343E+03  0.29409291325E+03  0.25761551021E+03  0.43301338692E+03  0.12699999809E+01 0. -1.
</event>
<event>
 5   0  0.2937617E-03  0.6993135E+03  0.7818609E-02  0.9718407E-01
       -1   -1    0    0    0  501  0.00000000000E+00  0.00000000000E+00  0.13351821225E+03  0.13351821234E+03  0.50400001928E-02 0. -1.
        1   -1    0    0  501    0  0.00000000000E+00  0.00000000000E+00 -0.91567904229E+03  0.91567904230E+03  0.50400001928E-02 0.  1.
    10030    2    1    2    0    0  0.00000000000E+00  0.00000000000E+00 -0.78216083004E+03  0.10491972546E+04  0.69931345984E+03 0.  0.
        3    1    3    3  502    0 -0.17998223745E+02 -0.34423722734E+03 -0.47903340845E+03  0.59016626586E+03  0.10100000352E+00 0.  1.
       -3    1    3    3    0  502  0.17998223745E+02  0.34423722734E+03 -0.30312742159E+03  0.45903098879E+03  0.10100000352E+00 0. -1.
</event>
<event>
 5   0  0.5023894E-03  0.6999428E+03  0.7818609E-02  0.9717330E-01
        2   -1    0    0  501    0  0.00000000000E+00  0.00000000000E+00  0.13356438690E+03  0.13356438692E+03  0.25500000920E-02 0. -1.
       -2   -1    0    0    0  501  0.00000000000E+00  0.00000000000E+00 -0.91701067645E+03  0.91701067645E+03  0.25500000920E-02 0.  1.
    10030    2    1    2    0    0  0.00000000000E+00  0.00000000000E+00 -0.78344628956E+03  0.10505750634E+04  0.69994276564E+03 0.  0.
        2    1    3    3  502    0  0.19542985656E+03 -0.90502648700E+02  0.22320997403E+02  0.21652202010E+03  0.25500000920E-02 0. -1.
       -2    1    3    3    0  502 -0.19542985656E+03  0.90502648700E+02 -0.80576728696E+03  0.83405304327E+03  0.25500000920E-02 0.  1.
</event>
<event>
 5   0  0.4878235E-03  0.6997043E+03  0.7818609E-02  0.9717738E-01
       -2   -1    0    0    0  501  0.00000000000E+00  0.00000000000E+00  0.25931709393E+03  0.25931709394E+03  0.25500000920E-02 0.  1.
        2   -1    0    0  501    0  0.00000000000E+00  0.00000000000E+00 -0.47199555008E+03  0.47199555008E+03  0.25500000920E-02 0. -1.
    10030    2    1    2    0    0  0.00000000000E+00  0.00000000000E+00 -0.21267845615E+03  0.73131264402E+03  0.69970426438E+03 0.  0.
        4    1    3    3  502    0 -0.14616006287E+03  0.77495830608E+02 -0.42852844809E+03  0.45935455964E+03  0.12699999809E+01 0. -1.
       -4    1    3    3    0  502  0.14616006287E+03 -0.77495830608E+02  0.21584999194E+03  0.27195808438E+03  0.12699999809E+01 0.  1.
</event>
<event>
 5   0  0.5113683E-03  0.6995026E+03  0.7818609E-02  0.9718083E-01
       -2   -1    0    0    0  501  0.00000000000E+00  0.00000000000E+00  0.68433986920E+02  0.68433986967E+02  0.25500000920E-02 0.  1.
        2   -1    0    0  501    0  0.00000000000E+00  0.00000000000E+00 -0.17875030099E+04  0.17875030099E+04  0.25500000920E-02 0. -1.
    10030    2    1    2    0    0  0.00000000000E+00  0.00000000000E+00 -0.17190690230E+04  0.18559369969E+04  0.69950255938E+03 0.  0.
        3    1    3    3  502    0  0.30285825206E+03 -0.60061583867E+02 -0.12954668310E+04  0.13317525428E+04  0.10100000352E+00 0. -1.
       -3    1    3    3    0  502 -0.30285825206E+03  0.60061583867E+02 -0.42360219200E+03  0.52418445414E+03  0.10100000352E+00 0.  1.
</event>
<event>
 5   0  0.2937617E-03  0.6991856E+03  0.7818609E-02  0.9718626E-01
        1   -1    0    0  501    0  0.00000000000E+00  0.00000000000E+00  0.77374546123E+03  0.77374546125E+03  0.50400001928E-02 0.  1.
       -1   -1    0    0    0  501  0.00000000000E+00  0.00000000000E+00 -0.15795263113E+03  0.15795263121E+03  0.50400001928E-02 0. -1.
    10030    2    1    2    0    0  0.00000000000E+00  0.00000000000E+00  0.61579283010E+03  0.93169809246E+03  0.69918561619E+03 0.  0.
        3    1    3    3  502    0  0.11154307155E+03 -0.32860414417E+03  0.25147784134E+03  0.42855997860E+03  0.10100000352E+00 0. -1.
       -3    1    3    3    0  502 -0.11154307155E+03  0.32860414417E+03  0.36431498876E+03  0.50313811385E+03  0.10100000352E+00 0.  1.
</event>
<event>
 5   0  0.5023894E-03  0.6998799E+03  0.7818609E-02  0.9717438E-01
        2   -1    0    0  501    0  0.00000000000E+00  0.00000000000E+00  0.68754632958E+03  0.68754632959E+03  0.25500000920E-02 0. -1.
       -2   -1    0    0    0  501  0.00000000000E+00  0.00000000000E+00 -0.17810866365E+03  0.17810866367E+03  0.25500000920E-02 0.  1.
    10030    2    1    2    0    0  0.00000000000E+00  0.00000000000E+00  0.50943766593E+03  0.86565499325E+03  0.69987986960E+03 0.  0.
        2    1    3    3  502    0  0.83007428040E+02 -0.29583839468E+03  0.46186046850E+03  0.55473027793E+03  0.25500000920E-02 0. -1.
       -2    1    3    3    0  502 -0.83007428040E+02  0.29583839468E+03  0.47577197437E+02  0.31092471533E+03  0.25500000920E-02 0.  1.
</event>
<event>
 5   0  0.2934483E-03  0.6993917E+03  0.7818609E-02  0.9718273E-01
        1   -1    0    0  501    0  0.00000000000E+00  0.00000000000E+00  0.85985836961E+03  0.85985836963E+03  0.50400001928E-02 0.  1.
       -1   -1    0    0    0  501  0.00000000000E+00  0.00000000000E+00 -0.14221783282E+03  0.14221783291E+03  0.50400001928E-02 0. -1.
    10030    2    1    2    0    0  0.00000000000E+00  0.00000000000E+00  0.71764053679E+03  0.10020762025E+04  0.69939171831E+03 0.  0.
        5    1    3    3  502    0  0.23567996993E+03 -0.33718348607E+01  0.72887968310E+03  0.76605750432E+03  0.46999998093E+01 0.  1.
       -5    1    3    3    0  502 -0.23567996993E+03  0.33718348607E+01 -0.11239146305E+02  0.23601869821E+03  0.46999998093E+01 0. -1.
</event>
<event>
 5   0  0.2938783E-03  0.7010795E+03  0.7818609E-02  0.9715388E-01
       -1   -1    0    0    0  501  0.00000000000E+00  0.00000000000E+00  0.46881329435E+03  0.46881329438E+03  0.50400001928E-02 0. -1.
        1   -1    0    0  501    0  0.00000000000E+00  0.00000000000E+00 -0.26210456801E+03  0.26210456806E+03  0.50400001928E-02 0.  1.
    10030    2    1    2    0    0  0.00000000000E+00  0.00000000000E+00  0.20670872634E+03  0.73091786243E+03  0.70107947059E+03 0.  0.
        4    1    3    3  502    0 -0.34798310024E+03 -0.41080423424E+02  0.93104667509E+02  0.36256024500E+03  0.12699999809E+01 0. -1.
       -4    1    3    3    0  502  0.34798310024E+03  0.41080423424E+02  0.11360405883E+03  0.36835761744E+03  0.12699999809E+01 0.  1.
</event>
<event>
 5   0  0.5023894E-03  0.7000916E+03  0.7818609E-02  0.9717076E-01
       -2   -1    0    0    0  501  0.00000000000E+00  0.00000000000E+00  0.58589161894E+03  0.58589161894E+03  0.25500000920E-02 0. -1.
        2   -1    0    0  501    0  0.00000000000E+00  0.00000000000E+00 -0.20913774871E+03  0.20913774872E+03  0.25500000920E-02 0.  1.
    10030    2    1    2    0    0  0.00000000000E+00  0.00000000000E+00  0.37675387023E+03  0.79502936766E+03  0.70009157738E+03 0.  0.
        2    1    3    3  502    0 -0.28334508999E+03 -0.20551898108E+03  0.19188862033E+03  0.39917882487E+03  0.25500000920E-02 0.  1.
       -2    1    3    3    0  502  0.28334508999E+03  0.20551898108E+03  0.18486524990E+03  0.39585054280E+03  0.25500000920E-02 0. -1.
</event>
<event>
 5   0  0.2937617E-03  0.6991614E+03  0.7818609E-02  0.9718667E-01
       -1   -1    0    0    0  501  0.00000000000E+00  0.00000000000E+00  0.63352892382E+02  0.63352892582E+02  0.50400001928E-02 0.  1.
        1   -1    0    0  501    0  0.00000000000E+00  0.00000000000E+00 -0.19289829961E+04  0.19289829961E+04  0.50400001928E-02 0. -1.
    10030    2    1    2    0    0  0.00000000000E+00  0.00000000000E+00 -0.18656301037E+04  0.19923358887E+04  0.69916136153E+03 0.  0.
        3    1    3    3  502    0  0.17635621632E+03  0.11827610469E+03 -0.14148606073E+03  0.25516478510E+03  0.10100000352E+00 0.  1.
       -3    1    3    3    0  502 -0.17635621632E+03 -0.11827610469E+03 -0.17241440430E+04  0.17371711036E+04  0.10100000352E+00 0. -1.
</event>
<event>
 5   0  0.2937617E-03  0.6999017E+03  0.7818609E-02  0.9717400E-01
       -1   -1    0    0    0  501  0.00000000000E+00  0.00000000000E+00  0.17370005700E+03  0.17370005707E+03  0.50400001928E-02 0. -1.
        1   -1    0    0  501    0  0.00000000000E+00  0.00000000000E+00 -0.70504069415E+03  0.70504069416E+03  0.50400001928E-02 0.  1.
    10030    2    1    2    0    0  0.00000000000E+00  0.00000000000E+00 -0.53134063715E+03  0.87874075123E+03  0.69990173252E+03 0.  0.
        3    1    3    3  502    0  0.33078976636E+03  0.32808069681E+02 -0.12832215100E+03  0.35632123653E+03  0.10100000352E+00 0.  1.
       -3    1    3    3    0  502 -0.33078976636E+03 -0.32808069681E+02 -0.40301848615E+03  0.52241951470E+03  0.10100000352E+00 0. -1.
</event>
<event>
 5   0  0.2937617E-03  0.7010596E+03  0.7818609E-02  0.9715422E-01
       -1   -1    0    0    0  501  0.00000000000E+00  0.00000000000E+00  0.77275528191E+02  0.77275528356E+02  0.50400001928E-02 0. -1.
        1   -1    0    0  501    0  0.00000000000E+00  0.00000000000E+00 -0.15900393839E+04  0.15900393839E+04  0.50400001928E-02 0.  1.
    10030    2    1    2    0    0  0.00000000000E+00  0.00000000000E+00 -0.15127638557E+04  0.16673149122E+04  0.70105957915E+03 0.  0.
        3    1    3    3  502    0  0.56953633479E+02  0.24591165961E+01 -0.15789409565E+04  0.15799697206E+04  0.10100000352E+00 0.  1.
       -3    1    3    3    0  502 -0.56953633479E+02 -0.24591165961E+01  0.66177100857E+02  0.87345191623E+02  0.10100000352E+00 0. -1.
</event>
<event>
 5   0  0.3013140E-03  0.7000981E+03  0.7818609E-02  0.9717064E-01
        1   -1    0    0  501    0  0.00000000000E+00  0.00000000000E+00  0.10799275050E+04  0.10799275051E+04  0.50400001928E-02 0.  1.
       -1   -1    0    0    0  501  0.00000000000E+00  0.00000000000E+00 -0.11346532636E+03  0.11346532648E+03  0.50400001928E-02 0. -1.
    10030    2    1    2    0    0  0.00000000000E+00  0.00000000000E+00  0.96646217868E+03  0.11933928315E+04  0.70009806993E+03 0.  0.
        2    1    3    3  502    0  0.19454032249E+03 -0.28457476298E+03  0.37946547397E+03  0.51266244132E+03  0.25500000920E-02 0.  1.
       -2    1    3    3    0  502 -0.19454032249E+03  0.28457476298E+03  0.58699670471E+03  0.68073039020E+03  0.25500000920E-02 0. -1.
</event>
<event>
 5   0  0.5076796E-03  0.7043806E+03  0.7818609E-02  0.9709770E-01
       -2   -1    0    0    0  501  0.00000000000E+00  0.00000000000E+00  0.36532940660E+03  0.36532940660E+03  0.25500000920E-02 0. -1.
        2   -1    0    0  501    0  0.00000000000E+00  0.00000000000E+00 -0.33952378935E+03  0.33952378936E+03  0.25500000920E-02 0.  1.
    10030    2    1    2    0    0  0.00000000000E+00  0.00000000000E+00  0.25805617245E+02  0.70485319596E+03  0.70438064850E+03 0.  0.
        5    1    3    3  502    0 -0.22714328469E+03 -0.26906639124E+03  0.17920134830E+02  0.35261028900E+03  0.46999998093E+01 0.  1.
       -5    1    3    3    0  502  0.22714328469E+03  0.26906639124E+03  0.78854824143E+01  0.35224290697E+03  0.46999998093E+01 0. -1.
</event>
<event>
 5   0  0.2938783E-03  0.7005071E+03  0.7818609E-02  0.9716365E-01
       -1   -1    0    0    0  501  0.00000000000E+00  0.00000000000E+00  0.11270352662E+03  0.11270352673E+03  0.50400001928E-02 0. -1.
        1   -1    0    0  501    0  0.00000000000E+00  0.00000000000E+00 -0.10884979214E+04  0.10884979214E+04  0.50400001928E-02 0.  1.
    10030    2    1    2    0    0  0.00000000000E+00  0.00000000000E+00 -0.97579439480E+03  0.12012014482E+04  0.70050711498E+03 0.  0.
        4    1    3    3  502    0 -0.26644473147E+03 -0.45573716934E+02 -0.10597825234E+03  0.29034937829E+03  0.12699999809E+01 0. -1.
       -4    1    3    3    0  502  0.26644473147E+03  0.45573716934E+02 -0.86981614247E+03  0.91085206988E+03  0.12699999809E+01 0.  1.
</event>
<event>
 5   0  0.2937617E-03  0.6994773E+03  0.7818609E-02  0.9718127E-01
        1   -1    0    0  501    0  0.00000000000E+00  0.00000000000E+00  0.13685048470E+04  0.13685048471E+04  0.50400001928E-02 0. -1.
       -1   -1    0    0    0  501  0.00000000000E+00  0.00000000000E+00 -0.89380105517E+02  0.89380105659E+02  0.50400001928E-02 0.  1.
    10030    2    1    2    0    0  0.00000000000E+00  0.00000000000E+00  0.12791247415E+04  0.14578849527E+04  0.69947725550E+03 0.  0.
        3    1    3    3  502    0  0.64005742828E+02  0.94591982272E+01 -0.76797726502E+02  0.10041968205E+03  0.10100000352E+00 0.  1.
       -3    1    3    3    0  502 -0.64005742828E+02 -0.94591982272E+01  0.13559224680E+04  0.13574652707E+04  0.10100000352E+00 0. -1.
</event>
<event>
 5   0  0.5023894E-03  0.7014424E+03  0.7818609E-02  0.9714769E-01
       -2   -1    0    0    0  501  0.00000000000E+00  0.00000000000E+00  0.51813269770E+03  0.51813269771E+03  0.25500000920E-02 0.  1.
        2   -1    0    0  501    0  0.00000000000E+00  0.00000000000E+00 -0.23740125198E+03  0.23740125199E+03  0.25500000920E-02 0. -1.
    10030    2    1    2    0    0  0.00000000000E+00  0.00000000000E+00  0.28073144572E+03  0.75553394970E+03  0.70144237435E+03 0.  0.
        2    1    3    3  502    0 -0.23104380528E+02  0.16999518493E+03  0.46985225741E+03  0.50019328174E+03  0.25500000920E-02 0.  1.
       -2    1    3    3    0  502  0.23104380528E+02 -0.16999518493E+03 -0.18912081169E+03  0.25534066796E+03  0.25500000920E-02 0. -1.
</event>
<event>
 5   0  0.1981750E-03  0.7144405E+03  0.7818609E-02  0.9692851E-01
        4   -1    0    0  501    0  0.00000000000E+00  0.00000000000E+00  0.89144897283E+03  0.89144987748E+03  0.12699999809E+01 0.  1.
       -4   -1    0    0    0  501  0.00000000000E+00  0.00000000000E+00 -0.14314103771E+03  0.14314667155E+03  0.12699999809E+01 0. -1.
    10030    2    1    2    0    0  0.00000000000E+00  0.00000000000E+00  0.74830793512E+03  0.10345965490E+04  0.71444051781E+03 0.  0.
        3    1    3    3  502    0 -0.34244971271E+03 -0.52071603217E+02  0.50058951899E+03  0.60874718424E+03  0.10100000352E+00 0.  1.
       -3    1    3    3    0  502  0.34244971271E+03  0.52071603217E+02  0.24771841613E+03  0.42584936479E+03  0.10100000352E+00 0. -1.
</event>
<event>
 5   0  0.5076796E-03  0.6993747E+03  0.7818609E-02  0.9718302E-01
       -2   -1    0    0    0  501  0.00000000000E+00  0.00000000000E+00  0.28267425514E+03  0.28267425515E+03  0.25500000920E-02 0. -1.
        2   -1    0    0  501    0  0.00000000000E+00  0.00000000000E+00 -0.43258717275E+03  0.43258717276E+03  0.25500000920E-02 0.  1.
    10030    2    1    2    0    0  0.00000000000E+00  0.00000000000E+00 -0.14991291761E+03  0.71526142791E+03  0.69937474031E+03 0.  0.
        5    1    3    3  502    0  0.18848691856E+03 -0.79250586066E+02  0.21512575892E+03  0.29683186488E+03  0.46999998093E+01 0. -1.
       -5    1    3    3    0  502 -0.18848691856E+03  0.79250586066E+02 -0.36503867653E+03  0.41842956303E+03  0.46999998093E+01 0.  1.
</event>
<event>
 5   0  0.2913582E-03  0.6994521E+03  0.7818609E-02  0.9718170E-01
       -1   -1    0    0    0  501  0.00000000000E+00  0.00000000000E+00  0.17560143531E+03  0.17560143538E+03  0.50400001928E-02 0. -1.
        1   -1    0    0  501    0  0.00000000000E+00  0.00000000000E+00 -0.69651092310E+03  0.69651092311E+03  0.50400001928E-02 0.  1.
    10030    2    1    2    0    0  0.00000000000E+00  0.00000000000E+00 -0.52090948779E+03  0.87211235849E+03  0.69945212228E+03 0.  0.
        1    1    3    3  502    0 -0.11222079301E+03 -0.57636552031E+02 -0.66715144352E+03  0.67897461450E+03  0.50400001928E-02 0.  1.
       -1    1    3    3    0  502  0.11222079301E+03  0.57636552031E+02  0.14624195573E+03  0.19313774400E+03  0.50400001928E-02 0. -1.
</event>
<event>
 5   0  0.5113683E-03  0.7010617E+03  0.7818609E-02  0.9715418E-01
       -2   -1    0    0    0  501  0.00000000000E+00  0.00000000000E+00  0.32760491998E+03  0.32760491999E+03  0.25500000920E-02 0.  1.
        2   -1    0    0  501    0  0.00000000000E+00  0.00000000000E+00 -0.37506119072E+03  0.37506119073E+03  0.25500000920E-02 0. -1.
    10030    2    1    2    0    0  0.00000000000E+00  0.00000000000E+00 -0.47456270740E+02  0.70266611072E+03  0.70106174159E+03 0.  0.
        3    1    3    3  502    0  0.25781974279E+03  0.21235511130E+03  0.82845666803E+02  0.34413533352E+03  0.10100000352E+00 0.  1.
       -3    1    3    3    0  502 -0.25781974279E+03 -0.21235511130E+03 -0.13030193754E+03  0.35853077720E+03  0.10100000352E+00 0. -1.
</event>
<event>
 5   0  0.5076796E-03  0.6993700E+03  0.7818609E-02  0.9718310E-01
       -2   -1    0    0    0  501  0.00000000000E+00  0.00000000000E+00  0.94633513730E+02  0.94633513765E+02  0.25500000920E-02 0. -1.
        2   -1    0    0  501    0  0.00000000000E+00  0.00000000000E+00 -0.12921382528E+04  0.12921382528E+04  0.25500000920E-02 0.  1.
    10030    2    1    2    0    0  0.00000000000E+00  0.00000000000E+00 -0.11975047390E+04  0.13867717665E+04  0.69936995392E+03 0.  0.
        5    1    3    3  502    0 -0.29790560713E+02  0.10912981526E+03  0.57282811025E+02  0.12688658134E+03  0.46999998093E+01 0. -1.
       -5    1    3    3    0  502  0.29790560713E+02 -0.10912981526E+03 -0.12547875501E+04  0.12598851852E+04  0.46999998093E+01 0.  1.
</event>
<event>
 5   0  0.2913582E-03  0.7002899E+03  0.7818609E-02  0.9716737E-01
       -1   -1    0    0    0  501  0.00000000000E+00  0.00000000000E+00  0.60871596012E+03  0.60871596014E+03  0.50400001928E-02 0.  1.
        1   -1    0    0  501    0  0.00000000000E+00  0.00000000000E+00 -0.20141000857E+03  0.20141000863E+03  0.50400001928E-02 0. -1.
    10030    2    1    2    0    0  0.00000000000E+00  0.00000000000E+00  0.40730595156E+03  0.81012596877E+03  0.70028990219E+03 0.  0.
        1    1    3    3  502    0 -0.22792927382E+03  0.12729226516E+01 -0.10383275846E+03  0.25046879237E+03  0.50400001928E-02 0. -1.
       -1    1    3    3    0  502  0.22792927382E+03 -0.12729226516E+01  0.51113871002E+03  0.55965717640E+03  0.50400001928E-02 0.  1.
</event>
<event>
 5   0  0.5023894E-03  0.6991337E+03  0.7818609E-02  0.9718715E-01
       -2   -1    0    0    0  501  0.00000000000E+00  0.00000000000E+00  0.10803027919E+03  0.10803027922E+03  0.25500000920E-02 0. -1.
        2   -1    0    0  501    0  0.00000000000E+00  0.00000000000E+00 -0.11311364066E+04  0.11311364066E+04  0.25500000920E-02 0.  1.
    10030    2    1    2    0    0  0.00000000000E+00  0.00000000000E+00 -0.10231061274E+04  0.12391666858E+04  0.69913369772E+03 0.  0.
        2    1    3    3  502    0 -0.31951458500E+03 -0.14111326735E+03 -0.48683685125E+03  0.59917663839E+03  0.25500000920E-02 0. -1.
       -2    1    3    3    0  502  0.31951458500E+03  0.14111326735E+03 -0.53626927613E+03  0.63999004740E+03  0.25500000920E-02 0.  1.
</event>
<event>
 5   0  0.5076796E-03  0.6989949E+03  0.7818609E-02  0.9718953E-01
       -2   -1    0    0    0  501  0.00000000000E+00  0.00000000000E+00  0.83551221064E+02  0.83551221103E+02  0.25500000920E-02 0.  1.
        2   -1    0    0  501    0  0.00000000000E+00  0.00000000000E+00 -0.14619592422E+04  0.14619592422E+04  0.25500000920E-02 0. -1.
    10030    2    1    2    0    0  0.00000000000E+00  0.00000000000E+00 -0.13784080211E+04  0.15455104633E+04  0.69899493521E+03 0.  0.
        5    1    3    3  502    0 -0.13770765359E+03  0.27262140796E+03 -0.31371280949E+03  0.43786258892E+03  0.46999998093E+01 0.  1.
       -5    1    3    3    0  502  0.13770765359E+03 -0.27262140796E+03 -0.10646952116E+04  0.11076478744E+04  0.46999998093E+01 0. -1.
</event>
<event>
 5   0  0.3013140E-03  0.7020132E+03  0.7818609E-02  0.9713795E-01
        1   -1    0    0  501    0  0.00000000000E+00  0.00000000000E+00  0.76817547498E+03  0.76817547499E+03  0.50400001928E-02 0. -1.
       -1   -1    0    0    0  501  0.00000000000E+00  0.00000000000E+00 -0.16038737111E+03  0.16038737119E+03  0.50400001928E-02 0.  1.
    10030    2    1    2    0    0  0.00000000000E+00  0.00000000000E+00  0.60778810386E+03  0.92856284619E+03  0.70201323358E+03 0.  0.
        2    1    3    3  502    0 -0.49474668839E+02 -0.22955186131E+03  0.64897759118E+03  0.69015484766E+03  0.25500000920E-02 0. -1.
       -2    1    3    3    0  502  0.49474668839E+02  0.22955186131E+03 -0.41189487319E+02  0.23840799852E+03  0.25500000920E-02 0.  1.
</event>
<event>
 5   0  0.5076796E-03  0.6990372E+03  0.7818609E-02  0.9718880E-01
       -2   -1    0    0    0  501  0.00000000000E+00  0.00000000000E+00  0.10967140404E+03  0.10967140407E+03  0.25500000920E-02 0.  1.
        2   -1    0    0  501    0  0.00000000000E+00  0.00000000000E+00 -0.11139024816E+04  0.11139024816E+04  0.25500000920E-02 0. -1.
    10030    2    1    2    0    0  0.00000000000E+00  0.00000000000E+00 -0.10042310775E+04  0.12235738856E+04  0.69903719252E+03 0.  0.
        5    1    3    3  502    0 -0.60457069442E+02 -0.33882773872E+03 -0.39590591564E+03  0.52461688670E+03  0.46999998093E+01 0. -1.
       -5    1    3    3    0  502  0.60457069442E+02  0.33882773872E+03 -0.60832516190E+03  0.69895699894E+03  0.46999998093E+01 0.  1.
</event>
<event>
 5   0  0.2938783E-03  0.7006555E+03  0.7818609E-02  0.9716112E-01
        1   -1    0    0  501    0  0.00000000000E+00  0.00000000000E+00  0.59088488263E+03  0.59088488265E+03  0.50400001928E-02 0.  1.
       -1   -1    0    0    0  501  0.00000000000E+00  0.00000000000E+00 -0.20770466505E+03  0.20770466511E+03  0.50400001928E-02 0. -1.
    10030    2    1    2    0    0  0.00000000000E+00  0.00000000000E+00  0.38318021758E+03  0.79858954776E+03  0.70065554066E+03 0.  0.
        4    1    3    3  502    0  0.19060809458E+03  0.27913998856E+03  0.29653208584E+03  0.44964816219E+03  0.12699999809E+01 0.  1.
       -4    1    3    3    0  502 -0.19060809458E+03 -0.27913998856E+03  0.86648131744E+02  0.34894138557E+03  0.12699999809E+01 0. -1.
</event>
<event>
 5   0  0.2934483E-03  0.7014225E+03  0.7818609E-02  0.9714803E-01
       -1   -1    0    0    0  501  0.00000000000E+00  0.00000000000E+00  0.56376741189E+03  0.56376741192E+03  0.50400001928E-02 0.  1.
        1   -1    0    0  501    0  0.00000000000E+00  0.00000000000E+00 -0.21817219006E+03  0.21817219011E+03  0.50400001928E-02 0. -1.
    10030    2    1    2    0    0  0.00000000000E+00  0.00000000000E+00  0.34559522184E+03  0.78193960203E+03  0.70142247174E+03 0.  0.
        5    1    3    3  502    0  0.60650718684E+02 -0.34392614581E+03  0.13732381407E+03  0.37529138460E+03  0.46999998093E+01 0. -1.
       -5    1    3    3    0  502 -0.60650718684E+02  0.34392614581E+03  0.20827140777E+03  0.40664821743E+03  0.46999998093E+01 0.  1.
</event>
<event>
 5   0  0.2934483E-03  0.6994156E+03  0.7818609E-02  0.9718232E-01
        1   -1    0    0  501    0  0.00000000000E+00  0.00000000000E+00  0.75615906295E+03  0.75615906297E+03  0.50400001928E-02 0.  1.
       -1   -1    0    0    0  501  0.00000000000E+00  0.00000000000E+00 -0.16173255736E+03  0.16173255743E+03  0.50400001928E-02 0. -1.
    10030    2    1    2    0    0  0.00000000000E+00  0.00000000000E+00  0.59442650560E+03  0.91789162040E+03  0.69941558193E+03 0.  0.
        5    1    3    3  502    0 -0.79681181987E+01 -0.34452658479E+03  0.21944619499E+03  0.40858387270E+03  0.46999998093E+01 0. -1.
       -5    1    3    3    0  502  0.79681181987E+01  0.34452658479E+03  0.37498031061E+03  0.50930774771E+03  0.46999998093E+01 0.  1.
</event>
<event>
 5   0  0.2934483E-03  0.7006388E+03  0.7818609E-02  0.9716140E-01
       -1   -1    0    0    0  501  0.00000000000E+00  0.00000000000E+00  0.10257076229E+03  0.10257076242E+03  0.50400001928E-02 0.  1.
        1   -1    0    0  501    0  0.00000000000E+00  0.00000000000E+00 -0.11964782993E+04  0.11964782993E+04  0.50400001928E-02 0. -1.
    10030    2    1    2    0    0  0.00000000000E+00  0.00000000000E+00 -0.10939075370E+04  0.12990490617E+04  0.70063882654E+03 0.  0.
        5    1    3    3  502    0 -0.12865370429E+03  0.25152078358E+03 -0.93092156392E+03  0.97285740392E+03  0.46999998093E+01 0. -1.
       -5    1    3    3    0  502  0.12865370429E+03 -0.25152078358E+03 -0.16298597309E+03  0.32619165780E+03  0.46999998093E+01 0.  1.
</event>
<event>
 5   0  0.5113683E-03  0.6992035E+03  0.7818609E-02  0.9718595E-01
       -2   -1    0    0    0  501  0.00000000000E+00  0.00000000000E+00  0.26431268860E+03  0.26431268861E+03  0.25500000920E-02 0.  1.
        2   -1    0    0  501    0  0.00000000000E+00  0.00000000000E+00 -0.46241206532E+03  0.46241206533E+03  0.25500000920E-02 0. -1.
    10030    2    1    2    0    0  0.00000000000E+00  0.00000000000E+00 -0.19809937672E+03  0.72672475394E+03  0.69920347892E+03 0.  0.
        3    1    3    3  502    0 -0.17495172208E+03  0.29467288705E+03 -0.17091719626E+03  0.38295288692E+03  0.10100000352E+00 0.  1.
       -3    1    3    3    0  502  0.17495172208E+03 -0.29467288705E+03 -0.27182180466E+02  0.34377186702E+03  0.10100000352E+00 0. -1.
</event>
<event>
 5   0  0.2934483E-03  0.6990481E+03  0.7818609E-02  0.9718861E-01
        1   -1    0    0  501    0  0.00000000000E+00  0.00000000000E+00  0.10446873477E+03  0.10446873489E+03  0.50400001928E-02 0. -1.
       -1   -1    0    0    0  501  0.00000000000E+00  0.00000000000E+00 -0.11694127488E+04  0.11694127488E+04  0.50400001928E-02 0.  1.
    10030    2    1    2    0    0  0.00000000000E+00  0.00000000000E+00 -0.10649440140E+04  0.12738814837E+04  0.69904812530E+03 0.  0.
        5    1    3    3  502    0 -0.58921186157E+02 -0.19373452680E+03 -0.10515588321E+04  0.10708888086E+04  0.46999998093E+01 0.  1.
       -5    1    3    3    0  502  0.58921186157E+02  0.19373452680E+03 -0.13385181954E+02  0.20299267510E+03  0.46999998093E+01 0. -1.
</event>
<event>
 5   0  0.2934483E-03  0.7000529E+03  0.7818609E-02  0.9717142E-01
        1   -1    0    0  501    0  0.00000000000E+00  0.00000000000E+00  0.23696583773E+03  0.23696583778E+03  0.50400001928E-02 0.  1.
       -1   -1    0    0    0  501  0.00000000000E+00  0.00000000000E+00 -0.51703026850E+03  0.51703026853E+03  0.50400001928E-02 0. -1.
    10030    2    1    2    0    0  0.00000000000E+00  0.00000000000E+00 -0.28006443078E+03  0.75399610631E+03  0.70005288582E+03 0.  0.
        5    1    3    3  502    0  0.23583391926E+03  0.53334037816E+02 -0.41258113380E+03  0.47823366572E+03  0.46999998093E+01 0. -1.
       -5    1    3    3    0  502 -0.23583391926E+03 -0.53334037816E+02  0.13251670302E+03  0.27576244059E+03  0.46999998093E+01 0.  1.
</event>
<event>
 5   0  0.5113683E-03  0.7005903E+03  0.7818609E-02  0.9716223E-01
        2   -1    0    0  501    0  0.00000000000E+00  0.00000000000E+00  0.41862073522E+03  0.41862073523E+03  0.25500000920E-02 0. -1.
       -2   -1    0    0    0  501  0.00000000000E+00  0.00000000000E+00 -0.29312141475E+03  0.29312141476E+03  0.25500000920E-02 0.  1.
    10030    2    1    2    0    0  0.00000000000E+00  0.00000000000E+00  0.12549932047E+03  0.71174214999E+03  0.70059032867E+03 0.  0.
        3    1    3    3  502    0 -0.39678614065E+02 -0.12324749991E+03 -0.26791924380E+03  0.29756523662E+03  0.10100000352E+00 0.  1.
       -3    1    3    3    0  502  0.39678614065E+02  0.12324749991E+03  0.39341856427E+03  0.41417691336E+03  0.10100000352E+00 0. -1.
</event>
<event>
 5   0  0.5072407E-03  0.6980625E+03  0.7818609E-02  0.9720551E-01
       -2   -1    0    0    0  501  0.00000000000E+00  0.00000000000E+00  0.54105503279E+03  0.54105503279E+03  0.25500000920E-02 0. -1.
        2   -1    0    0  501    0  0.00000000000E+00  0.00000000000E+00 -0.22515786602E+03  0.22515786604E+03  0.25500000920E-02 0.  1.
    10030    2    1    2    0    0  0.00000000000E+00  0.00000000000E+00  0.31589716677E+03  0.76621289883E+03  0.69806245162E+03 0.  0.
        1    1    3    3  502    0 -0.32159900902E+03 -0.13409851623E+03  0.13560270198E+03  0.37389360448E+03  0.50400001928E-02 0.  1.
       -1    1    3    3    0  502  0.32159900902E+03  0.13409851623E+03  0.18029446478E+03  0.39231929435E+03  0.50400001928E-02 0. -1.
</event>
<event>
 5   0  0.4878235E-03  0.6996244E+03  0.7818609E-02  0.9717875E-01
        2   -1    0    0  501    0  0.00000000000E+00  0.00000000000E+00  0.72649958129E+03  0.72649958130E+03  0.25500000920E-02 0.  1.
       -2   -1    0    0    0  501  0.00000000000E+00  0.00000000000E+00 -0.16843586322E+03  0.16843586324E+03  0.25500000920E-02 0. -1.
    10030    2    1    2    0    0  0.00000000000E+00  0.00000000000E+00  0.55806371807E+03  0.89493544453E+03  0.69962442528E+03 0.  0.
        4    1    3    3  502    0  0.15044916701E+03  0.15669073659E+03  0.62976596557E+03  0.66617844687E+03  0.12699999809E+01 0.  1.
       -4    1    3    3    0  502 -0.15044916701E+03 -0.15669073659E+03 -0.71702247491E+02  0.22875699767E+03  0.12699999809E+01 0. -1.
</event>
<event>
 5   0  0.3013140E-03  0.6996712E+03  0.7818609E-02  0.9717795E-01
        1   -1    0    0  501    0  0.00000000000E+00  0.00000000000E+00  0.74548370354E+03  0.74548370356E+03  0.50400001928E-02 0. -1.
       -1   -1    0    0    0  501  0.00000000000E+00  0.00000000000E+00 -0.16416850989E+03  0.16416850997E+03  0.50400001928E-02 0.  1.
    10030    2    1    2    0    0  0.00000000000E+00  0.00000000000E+00  0.58131519365E+03  0.90965221352E+03  0.69967120507E+03 0.  0.
        2    1    3    3  502    0  0.94107153816E+02  0.21639195804E+03 -0.45122601908E+02  0.24024505221E+03  0.25500000920E-02 0.  1.
       -2    1    3    3    0  502 -0.94107153816E+02 -0.21639195804E+03  0.62643779556E+03  0.66940716131E+03  0.25500000920E-02 0. -1.
</event>
<event>
 5   0  0.5076796E-03  0.6994188E+03  0.7818609E-02  0.9718227E-01
        2   -1    0    0  501    0  0.00000000000E+00  0.00000000000E+00  0.68962331368E+03  0.68962331369E+03  0.25500000920E-02 0.  1.
       -2   -1    0    0    0  501  0.00000000000E+00  0.00000000000E+00 -0.17733833192E+03  0.17733833194E+03  0.25500000920E-02 0. -1.
    10030    2    1    2    0    0  0.00000000000E+00  0.00000000000E+00  0.51228498176E+03  0.86696164562E+03  0.69941875328E+03 0.  0.
        5    1    3    3  502    0 -0.13353368085E+03  0.30685278321E+03  0.38184909092E+03  0.50776046786E+03  0.46999998093E+01 0.  1.
       -5    1    3    3    0  502  0.13353368085E+03 -0.30685278321E+03  0.13043589084E+03  0.35920117776E+03  0.46999998093E+01 0. -1.
</event>
<event>
 5   0  0.2938783E-03  0.7004785E+03  0.7818609E-02  0.9716414E-01
       -1   -1    0    0    0  501  0.00000000000E+00  0.00000000000E+00  0.39695625348E+03  0.39695625351E+03  0.50400001928E-02 0.  1.
        1   -1    0    0  501    0  0.00000000000E+00  0.00000000000E+00 -0.30902029590E+03  0.30902029594E+03  0.50400001928E-02 0. -1.
    10030    2    1    2    0    0  0.00000000000E+00  0.00000000000E+00  0.87935957583E+02  0.70597654945E+03  0.70047851911E+03 0.  0.
        4    1    3    3  502    0  0.93237573969E+02 -0.26648386727E+03 -0.16492444225E+03  0.32696877721E+03  0.12699999809E+01 0. -1.
       -4    1    3    3    0  502 -0.93237573969E+02  0.26648386727E+03  0.25286039984E+03  0.37900777224E+03  0.12699999809E+01 0.  1.
</event>
<event>
 5   0  0.5072407E-03  0.7001854E+03  0.7818609E-02  0.9716915E-01
        2   -1    0    0  501    0  0.00000000000E+00  0.00000000000E+00  0.62492472543E+03  0.62492472544E+03  0.25500000920E-02 0. -1.
       -2   -1    0    0    0  501  0.00000000000E+00  0.00000000000E+00 -0.19612746154E+03  0.19612746156E+03  0.25500000920E-02 0.  1.
    10030    2    1    2    0    0  0.00000000000E+00  0.00000000000E+00  0.42879726389E+03  0.82105218700E+03  0.70018540420E+03 0.  0.
        1    1    3    3  502    0 -0.25307014901E+03  0.68880889595E+01 -0.69155007545E+02  0.26243925236E+03  0.50400001928E-02 0.  1.
       -1    1    3    3    0  502  0.25307014901E+03 -0.68880889595E+01  0.49795227143E+03  0.55861293463E+03  0.50400001928E-02 0. -1.
</event>
<event>
 5   0  0.5076796E-03  0.6997320E+03  0.7818609E-02  0.9717691E-01
       -2   -1    0    0    0  501  0.00000000000E+00  0.00000000000E+00  0.37520329878E+03  0.37520329879E+03  0.25500000920E-02 0. -1.
        2   -1    0    0  501    0  0.00000000000E+00  0.00000000000E+00 -0.32623974845E+03  0.32623974846E+03  0.25500000920E-02 0.  1.
    10030    2    1    2    0    0  0.00000000000E+00  0.00000000000E+00  0.48963550328E+02  0.70144304725E+03  0.69973203391E+03 0.  0.
        5    1    3    3  502    0 -0.10154439485E+03 -0.61280783750E+02 -0.30543929697E+03  0.32769170377E+03  0.46999998093E+01 0.  1.
       -5    1    3    3    0  502  0.10154439485E+03  0.61280783750E+02  0.35440284730E+03  0.37375134348E+03  0.46999998093E+01 0. -1.
</event>
<event>
 5   0  0.5023894E-03  0.6995821E+03  0.7818609E-02  0.9717947E-01
       -2   -1    0    0    0  501  0.00000000000E+00  0.00000000000E+00  0.12023651595E+03  0.12023651598E+03  0.25500000920E-02 0.  1.
        2   -1    0    0  501    0  0.00000000000E+00  0.00000000000E+00 -0.10176092861E+04  0.10176092861E+04  0.25500000920E-02 0. -1.
    10030    2    1    2    0    0  0.00000000000E+00  0.00000000000E+00 -0.89737277011E+03  0.11378458020E+04  0.69958214720E+03 0.  0.
        2    1    3    3  502    0 -0.33716893215E+03  0.60728090850E+01 -0.59981663597E+03  0.68811319171E+03  0.25500000920E-02 0. -1.
       -2    1    3    3    0  502  0.33716893215E+03 -0.60728090850E+01 -0.29755613415E+03  0.44973261033E+03  0.25500000920E-02 0.  1.
</event>
<event>
 5   0  0.2913582E-03  0.7000516E+03  0.7818609E-02  0.9717144E-01
       -1   -1    0    0    0  501  0.00000000000E+00  0.00000000000E+00  0.37852422431E+03  0.37852422434E+03  0.50400001928E-02 0. -1.
        1   -1    0    0  501    0  0.00000000000E+00  0.00000000000E+00 -0.32367299431E+03  0.32367299435E+03  0.50400001928E-02 0.  1.
    10030    2    1    2    0    0  0.00000000000E+00  0.00000000000E+00  0.54851230001E+02  0.70219721869E+03  0.70005162417E+03 0.  0.
        1    1    3    3  502    0  0.32178583569E+03  0.10845553012E+03 -0.57742470110E+02  0.34444581423E+03  0.50400001928E-02 0. -1.
       -1    1    3    3    0  502 -0.32178583569E+03 -0.10845553012E+03  0.11259370011E+03  0.35775140446E+03  0.50400001928E-02 0.  1.
</event>
<event>
 5   0  0.2938783E-03  0.7006204E+03  0.7818609E-02  0.9716172E-01
       -1   -1    0    0    0  501  0.00000000000E+00  0.00000000000E+00  0.78960047234E+02  0.78960047395E+02  0.50400001928E-02 0. -1.
        1   -1    0    0  501    0  0.00000000000E+00  0.00000000000E+00 -0.15541687553E+04  0.15541687553E+04  0.50400001928E-02 0.  1.
    10030    2    1    2    0    0  0.00000000000E+00  0.00000000000E+00 -0.14752087081E+04  0.16331288027E+04  0.70062040640E+03 0.  0.
        4    1    3    3  502    0 -0.17006154235E+03  0.94686491417E+02 -0.58697405388E+02  0.20330631604E+03  0.12699999809E+01 0. -1.
       -4    1    3    3    0  502  0.17006154235E+03 -0.94686491417E+02 -0.14165113027E+04  0.14298224866E+04  0.12699999809E+01 0.  1.
</event>
<event>
 5   0  0.5023894E-03  0.7002504E+03  0.7818609E-02  0.9716804E-01
       -2   -1    0    0    0  501  0.00000000000E+00  0.00000000000E+00  0.76711859126E+02  0.76711859168E+02  0.25500000920E-02 0. -1.
        2   -1    0    0  501    0  0.00000000000E+00  0.00000000000E+00 -0.15980275027E+04  0.15980275027E+04  0.25500000920E-02 0.  1.
    10030    2    1    2    0    0  0.00000000000E+00  0.00000000000E+00 -0.15213156436E+04  0.16747393619E+04  0.70025041436E+03 0.  0.
        2    1    3    3  502    0 -0.32933680718E+03  0.11264060469E+03 -0.66999575642E+03  0.75501321314E+03  0.25500000920E-02 0.  1.
       -2    1    3    3    0  502  0.32933680718E+03 -0.11264060469E+03 -0.85131988715E+03  0.91972614873E+03  0.25500000920E-02 0. -1.
</event>
<event>
 5   0  0.5076796E-03  0.7044714E+03  0.7818609E-02  0.9709616E-01
       -2   -1    0    0    0  501  0.00000000000E+00  0.00000000000E+00  0.16052816043E+03  0.16052816046E+03  0.25500000920E-02 0. -1.
        2   -1    0    0  501    0  0.00000000000E+00  0.00000000000E+00 -0.77288609838E+03  0.77288609838E+03  0.25500000920E-02 0.  1.
    10030    2    1    2    0    0  0.00000000000E+00  0.00000000000E+00 -0.61235793794E+03  0.93341425884E+03  0.70447138653E+03 0.  0.
        5    1    3    3  502    0  0.24640594266E+03 -0.24726347786E+03 -0.36822419358E+03  0.50741133491E+03  0.46999998093E+01 0.  1.
       -5    1    3    3    0  502 -0.24640594266E+03  0.24726347786E+03 -0.24413374436E+03  0.42600292393E+03  0.46999998093E+01 0. -1.
</event>
<event>
 5   0  0.2938783E-03  0.6998307E+03  0.7818609E-02  0.9717522E-01
        1   -1    0    0  501    0  0.00000000000E+00  0.00000000000E+00  0.43408170115E+03  0.43408170118E+03  0.50400001928E-02 0.  1.
       -1   -1    0    0    0  501  0.00000000000E+00  0.00000000000E+00 -0.28206845942E+03  0.28206845946E+03  0.50400001928E-02 0. -1.
    10030    2    1    2    0    0  0.00000000000E+00  0.00000000000E+00  0.15201324173E+03  0.71615016064E+03  0.69983071305E+03 0.  0.
        4    1    3    3  502    0 -0.34886240306E+03 -0.94180335741E+01  0.50008107110E+02  0.35255651931E+03  0.12699999809E+01 0. -1.
       -4    1    3    3    0  502  0.34886240306E+03  0.94180335741E+01  0.10200513462E+03  0.36359364133E+03  0.12699999809E+01 0.  1.
</event>
<event>
 5   0  0.3013140E-03  0.7005722E+03  0.7818609E-02  0.9716254E-01
        1   -1    0    0  501    0  0.00000000000E+00  0.00000000000E+00  0.35207612042E+03  0.35207612046E+03  0.50400001928E-02 0.  1.
       -1   -1    0    0    0  501  0.00000000000E+00  0.00000000000E+00 -0.34850513238E+03  0.34850513242E+03  0.50400001928E-02 0. -1.
    10030    2    1    2    0    0  0.00000000000E+00  0.00000000000E+00  0.35709880378E+01  0.70058125288E+03  0.70057215184E+03 0.  0.
        2    1    3    3  502    0  0.31788149946E+03  0.33830495964E+02  0.14499065327E+03  0.35102056877E+03  0.25500000920E-02 0.  1.
       -2    1    3    3    0  502 -0.31788149946E+03 -0.33830495964E+02 -0.14141966523E+03  0.34956068411E+03  0.25500000920E-02 0. -1.
</event>
<event>
 5   0  0.1981750E-03  0.6988773E+03  0.7818609E-02  0.9719154E-01
       -3   -1    0    0    0  501  0.00000000000E+00  0.00000000000E+00  0.90887261625E+02  0.90887317744E+02  0.10100000352E+00 0.  1.
        3   -1    0    0  501    0  0.00000000000E+00  0.00000000000E+00 -0.13435030502E+04  0.13435030540E+04  0.10100000352E+00 0. -1.
    10030    2    1    2    0    0  0.00000000000E+00  0.00000000000E+00 -0.12526157885E+04  0.14343903717E+04  0.69887726014E+03 0.  0.
        1    1    3    3  502    0 -0.21997507790E+02 -0.21626880326E+03 -0.11878289422E+04  0.12075569061E+04  0.50400001928E-02 0. -1.
       -1    1    3    3    0  502  0.21997507790E+02  0.21626880326E+03 -0.64786846332E+02  0.22683346556E+03  0.50400001928E-02 0.  1.
</event>
<event>
 5   0  0.4878235E-03  0.7003228E+03  0.7818609E-02  0.9716680E-01
       -2   -1    0    0    0  501  0.00000000000E+00  0.00000000000E+00  0.10260193225E+03  0.10260193228E+03  0.25500000920E-02 0.  1.
        2   -1    0    0  501    0  0.00000000000E+00  0.00000000000E+00 -0.11950358944E+04  0.11950358944E+04  0.25500000920E-02 0. -1.
    10030    2    1    2    0    0  0.00000000000E+00  0.00000000000E+00 -0.10924339621E+04  0.12976378267E+04  0.70032275958E+03 0.  0.
        4    1    3    3  502    0 -0.29738662571E+03  0.13239996113E+03 -0.30717797828E+03  0.44758069451E+03  0.12699999809E+01 0.  1.
       -4    1    3    3    0  502  0.29738662571E+03 -0.13239996113E+03 -0.78525598387E+03  0.85005713217E+03  0.12699999809E+01 0. -1.
</event>
<event>
 5   0  0.2934483E-03  0.6994845E+03  0.7818609E-02  0.9718114E-01
        1   -1    0    0  501    0  0.00000000000E+00  0.00000000000E+00  0.21019061281E+03  0.21019061287E+03  0.50400001928E-02 0. -1.
       -1   -1    0    0    0  501  0.00000000000E+00  0.00000000000E+00 -0.58194631461E+03  0.58194631464E+03  0.50400001928E-02 0.  1.
    10030    2    1    2    0    0  0.00000000000E+00  0.00000000000E+00 -0.37175570181E+03  0.79213692750E+03  0.69948453170E+03 0.  0.
        5    1    3    3  502    0  0.53034766303E+02 -0.26447530283E+03  0.66174075626E+02  0.27777863584E+03  0.46999998093E+01 0. -1.
       -5    1    3    3    0  502 -0.53034766303E+02  0.26447530283E+03 -0.43792977743E+03  0.51435829167E+03  0.46999998093E+01 0.  1.
</event>
<event>
 5   0  0.4878235E-03  0.7001513E+03  0.7818609E-02  0.9716973E-01
        2   -1    0    0  501    0  0.00000000000E+00  0.00000000000E+00  0.29505191399E+03  0.29505191400E+03  0.25500000920E-02 0. -1.
       -2   -1    0    0    0  501  0.00000000000E+00  0.00000000000E+00 -0.41536066819E+03  0.41536066819E+03  0.25500000920E-02 0.  1.
    10030    2    1    2    0    0  0.00000000000E+00  0.00000000000E+00 -0.12030875420E+03  0.71041258219E+03  0.70015129836E+03 0.  0.
        4    1    3    3  502    0  0.82724171014E+01 -0.11451080686E+03 -0.39571286478E+03  0.41203330208E+03  0.12699999809E+01 0.  1.
       -4    1    3    3    0  502 -0.82724171014E+01  0.11451080686E+03  0.27540411058E+03  0.29837928011E+03  0.12699999809E+01 0. -1.
</event>
<event>
 5   0  0.4878235E-03  0.6850465E+03  0.7818609E-02  0.9743152E-01
        2   -1    0    0  501    0  0.00000000000E+00  0.00000000000E+00  0.92682489537E+02  0.92682489572E+02  0.25500000920E-02 0. -1.
       -2   -1    0    0    0  501  0.00000000000E+00  0.00000000000E+00 -0.12658503906E+04  0.12658503906E+04  0.25500000920E-02 0.  1.
    10030    2    1    2    0    0  0.00000000000E+00  0.00000000000E+00 -0.11731679011E+04  0.13585328802E+04  0.68504646736E+03 0.  0.
        4    1    3    3  502    0  0.23029486222E+03  0.24930152566E+03 -0.67818583988E+03  0.75836971233E+03  0.12699999809E+01 0. -1.
       -4    1    3    3    0  502 -0.23029486222E+03 -0.24930152566E+03 -0.49498206123E+03  0.60016316789E+03  0.12699999809E+01 0.  1.
</event>
<event>
 5   0  0.5113683E-03  0.7035642E+03  0.7818609E-02  0.9711156E-01
        2   -1    0    0  501    0  0.00000000000E+00  0.00000000000E+00  0.19183233653E+03  0.19183233655E+03  0.25500000920E-02 0. -1.
       -2   -1    0    0    0  501  0.00000000000E+00  0.00000000000E+00 -0.64509796835E+03  0.64509796835E+03  0.25500000920E-02 0.  1.
    10030    2    1    2    0    0  0.00000000000E+00  0.00000000000E+00 -0.45326563182E+03  0.83693030490E+03  0.70356421333E+03 0.  0.
        3    1    3    3  502    0 -0.16237572544E+03 -0.11603453104E+03  0.11797112165E+03  0.23183417425E+03  0.10100000352E+00 0. -1.
       -3    1    3    3    0  502  0.16237572544E+03  0.11603453104E+03 -0.57123675347E+03  0.60509613065E+03  0.10100000352E+00 0.  1.
</event>
<event>
 5   0  0.3013140E-03  0.7018000E+03  0.7818609E-02  0.9714159E-01
        1   -1    0    0  501    0  0.00000000000E+00  0.00000000000E+00  0.14762930093E+03  0.14762930102E+03  0.50400001928E-02 0. -1.
       -1   -1    0    0    0  501  0.00000000000E+00  0.00000000000E+00 -0.83405406629E+03  0.83405406631E+03  0.50400001928E-02 0.  1.
    10030    2    1    2    0    0  0.00000000000E+00  0.00000000000E+00 -0.68642476536E+03  0.98168336733E+03  0.70180002507E+03 0.  0.
        2    1    3    3  502    0  0.34290305004E+03 -0.17990194642E+02 -0.24210392538E+03  0.42014337972E+03  0.25500000920E-02 0.  1.
       -2    1    3    3    0  502 -0.34290305004E+03  0.17990194642E+02 -0.44432083998E+03  0.56153998761E+03  0.25500000920E-02 0. -1.
</event>
<event>
 5   0  0.2938783E-03  0.6999366E+03  0.7818609E-02  0.9717341E-01
        1   -1    0    0  501    0  0.00000000000E+00  0.00000000000E+00  0.37345078953E+03  0.37345078956E+03  0.50400001928E-02 0. -1.
       -1   -1    0    0    0  501  0.00000000000E+00  0.00000000000E+00 -0.32796236212E+03  0.32796236216E+03  0.50400001928E-02 0.  1.
    10030    2    1    2    0    0  0.00000000000E+00  0.00000000000E+00  0.45488427412E+02  0.70141315172E+03  0.69993657739E+03 0.  0.
        4    1    3    3  502    0 -0.17679451292E+03  0.18505239483E+03  0.26194317739E+03  0.36621923722E+03  0.12699999809E+01 0. -1.
       -4    1    3    3    0  502  0.17679451292E+03 -0.18505239483E+03 -0.21645474998E+03  0.33519391450E+03  0.12699999809E+01 0.  1.
</event>
<event>
 5   0  0.2934483E-03  0.7005057E+03  0.7818609E-02  0.9716368E-01
       -1   -1    0    0    0  501  0.00000000000E+00  0.00000000000E+00  0.25524596115E+03  0.25524596120E+03  0.50400001928E-02 0. -1.
        1   -1    0    0  501    0  0.00000000000E+00  0.00000000000E+00 -0.48062296287E+03  0.48062296289E+03  0.50400001928E-02 0.  1.
    10030    2    1    2    0    0  0.00000000000E+00  0.00000000000E+00 -0.22537700172E+03  0.73586892409E+03  0.70050573198E+03 0.  0.
        5    1    3    3  502    0  0.67187053740E+02  0.30642346388E+03  0.50881895789E+02  0.31783721733E+03  0.46999998093E+01 0. -1.
       -5    1    3    3    0  502 -0.67187053740E+02 -0.30642346388E+03 -0.27625889751E+03  0.41803170676E+03  0.46999998093E+01 0.  1.
</event>
<event>
 5   0  0.5072407E-03  0.6965389E+03  0.7818609E-02  0.9723170E-01
       -2   -1    0    0    0  501  0.00000000000E+00  0.00000000000E+00  0.26316789590E+03  0.26316789592E+03  0.25500000920E-02 0. -1.
        2   -1    0    0  501    0  0.00000000000E+00  0.00000000000E+00 -0.46089055014E+03  0.46089055015E+03  0.25500000920E-02 0.  1.
    10030    2    1    2    0    0  0.00000000000E+00  0.00000000000E+00 -0.19772265424E+03  0.72405844607E+03  0.69653886131E+03 0.  0.
        1    1    3    3  502    0 -0.28319862329E+03  0.10422350224E+03 -0.27959126060E+03  0.41138214798E+03  0.50400001928E-02 0.  1.
       -1    1    3    3    0  502  0.28319862329E+03 -0.10422350224E+03  0.81868606361E+02  0.31267629808E+03  0.50400001928E-02 0. -1.
</event>
<event>
 5   0  0.5076796E-03  0.6984866E+03  0.7818609E-02  0.9719824E-01
       -2   -1    0    0    0  501  0.00000000000E+00  0.00000000000E+00  0.15246444733E+03  0.15246444735E+03  0.25500000920E-02 0. -1.
        2   -1    0    0  501    0  0.00000000000E+00  0.00000000000E+00 -0.79999563155E+03  0.79999563155E+03  0.25500000920E-02 0.  1.
    10030    2    1    2    0    0  0.00000000000E+00  0.00000000000E+00 -0.64753118422E+03  0.95246007891E+03  0.69848662649E+03 0.  0.
        5    1    3    3  502    0  0.13429378902E+02 -0.76715916009E+02  0.14042761386E+03  0.16064770375E+03  0.46999998093E+01 0. -1.
       -5    1    3    3    0  502 -0.13429378902E+02  0.76715916009E+02 -0.78795879808E+03  0.79181237516E+03  0.46999998093E+01 0.  1.
</event>
<event>
 5   0  0.4878235E-03  0.6987887E+03  0.7818609E-02  0.9719306E-01
       -2   -1    0    0    0  501  0.00000000000E+00  0.00000000000E+00  0.12023686906E+03  0.12023686909E+03  0.25500000920E-02 0. -1.
        2   -1    0    0  501    0  0.00000000000E+00  0.00000000000E+00 -0.10152991802E+04  0.10152991802E+04  0.25500000920E-02 0.  1.
    10030    2    1    2    0    0  0.00000000000E+00  0.00000000000E+00 -0.89506231112E+03  0.11355360493E+04  0.69878865075E+03 0.  0.
        4    1    3    3  502    0 -0.71157346956E+01  0.25232246084E+02 -0.10136948730E+04  0.10140346190E+04  0.12699999809E+01 0.  1.
       -4    1    3    3    0  502  0.71157346956E+01 -0.25232246084E+02  0.11863256192E+03  0.12150143032E+03  0.12699999809E+01 0. -1.
</event>
<event>
 5   0  0.2934483E-03  0.6982486E+03  0.7818609E-02  0.9720232E-01
        1   -1    0    0  501    0  0.00000000000E+00  0.00000000000E+00  0.15198249890E+04  0.15198249890E+04  0.50400001928E-02 0.  1.
       -1   -1    0    0    0  501  0.00000000000E+00  0.00000000000E+00 -0.80198551180E+02  0.80198551339E+02  0.50400001928E-02 0. -1.
    10030    2    1    2    0    0  0.00000000000E+00  0.00000000000E+00  0.14396264378E+04  0.16000235404E+04  0.69824855833E+03 0.  0.
        5    1    3    3  502    0  0.32171539668E+03  0.49075266716E+02  0.10092708888E+04  0.10604522598E+04  0.46999998093E+01 0.  1.
       -5    1    3    3    0  502 -0.32171539668E+03 -0.49075266716E+02  0.43035554903E+03  0.53957128059E+03  0.46999998093E+01 0. -1.
</event>
<event>
 5   0  0.2913582E-03  0.7026157E+03  0.7818609E-02  0.9712769E-01
        1   -1    0    0  501    0  0.00000000000E+00  0.00000000000E+00  0.52441313734E+03  0.52441313736E+03  0.50400001928E-02 0. -1.
       -1   -1    0    0    0  501  0.00000000000E+00  0.00000000000E+00 -0.23534349463E+03  0.23534349468E+03  0.50400001928E-02 0.  1.
    10030    2    1    2    0    0  0.00000000000E+00  0.00000000000E+00  0.28906964271E+03  0.75975663205E+03  0.70261574249E+03 0.  0.
        1    1    3    3  502    0  0.18779748462E+03 -0.86407304167E+02 -0.16261333983E+03  0.26301561885E+03  0.50400001928E-02 0.  1.
       -1    1    3    3    0  502 -0.18779748462E+03  0.86407304167E+02  0.45168298254E+03  0.49674101319E+03  0.50400001928E-02 0. -1.
</event>
<event>
 5   0  0.1981750E-03  0.7011368E+03  0.7818609E-02  0.9715290E-01
        4   -1    0    0  501    0  0.00000000000E+00  0.00000000000E+00  0.20774907316E+03  0.20775295497E+03  0.12699999809E+01 0. -1.
       -4   -1    0    0    0  501  0.00000000000E+00  0.00000000000E+00 -0.59156028249E+03  0.59156164574E+03  0.12699999809E+01 0.  1.
    10030    2    1    2    0    0  0.00000000000E+00  0.00000000000E+00 -0.38381120933E+03  0.79931460071E+03  0.70113678159E+03 0.  0.
        5    1    3    3  502    0 -0.64128609087E+02  0.89924497263E+02 -0.57117177154E+03  0.58177158431E+03  0.46999998093E+01 0.  1.
       -5    1    3    3    0  502  0.64128609087E+02 -0.89924497263E+02  0.18736056221E+03  0.21754301640E+03  0.46999998093E+01 0. -1.
</event>
<event>
 5   0  0.3013140E-03  0.7003101E+03  0.7818609E-02  0.9716702E-01
        1   -1    0    0  501    0  0.00000000000E+00  0.00000000000E+00  0.95020359760E+03  0.95020359762E+03  0.50400001928E-02 0.  1.
       -1   -1    0    0    0  501  0.00000000000E+00  0.00000000000E+00 -0.12903398492E+03  0.12903398502E+03  0.50400001928E-02 0. -1.
    10030    2    1    2    0    0  0.00000000000E+00  0.00000000000E+00  0.82116961268E+03  0.10792375826E+04  0.70031009345E+03 0.  0.
        2    1    3    3  502    0 -0.13168476756E+03  0.30876157145E+03  0.25698590382E+03  0.42274855503E+03  0.25500000920E-02 0.  1.
       -2    1    3    3    0  502  0.13168476756E+03 -0.30876157145E+03  0.56418370886E+03  0.65648902760E+03  0.25500000920E-02 0. -1.
</event>
<event>
 5   0  0.2937617E-03  0.6997202E+03  0.7818609E-02  0.9717711E-01
        1   -1    0    0  501    0  0.00000000000E+00  0.00000000000E+00  0.50259294918E+03  0.50259294921E+03  0.50400001928E-02 0.  1.
       -1   -1    0    0    0  501  0.00000000000E+00  0.00000000000E+00 -0.24354116853E+03  0.24354116858E+03  0.50400001928E-02 0. -1.
    10030    2    1    2    0    0  0.00000000000E+00  0.00000000000E+00  0.25905178065E+03  0.74613411779E+03  0.69972015597E+03 0.  0.
        3    1    3    3  502    0 -0.32128786701E+02  0.23437268969E+03  0.40438166557E+03  0.46849477933E+03  0.10100000352E+00 0.  1.
       -3    1    3    3    0  502  0.32128786701E+02 -0.23437268969E+03 -0.14532988492E+03  0.27763933846E+03  0.10100000352E+00 0. -1.
</event>
<event>
 5   0  0.5072407E-03  0.6981612E+03  0.7818609E-02  0.9720382E-01
       -2   -1    0    0    0  501  0.00000000000E+00  0.00000000000E+00  0.72381171151E+03  0.72381171151E+03  0.25500000920E-02 0. -1.
        2   -1    0    0  501    0  0.00000000000E+00  0.00000000000E+00 -0.16835493723E+03  0.16835493725E+03  0.25500000920E-02 0.  1.
    10030    2    1    2    0    0  0.00000000000E+00  0.00000000000E+00  0.55545677428E+03  0.89216664876E+03  0.69816122856E+03 0.  0.
        1    1    3    3  502    0  0.28339406159E+03  0.96691170865E+02  0.50702124769E+03  0.58883947074E+03  0.50400001928E-02 0. -1.
       -1    1    3    3    0  502 -0.28339406159E+03 -0.96691170865E+02  0.48435526591E+02  0.30332717802E+03  0.50400001928E-02 0.  1.
</event>
<event>
 5   0  0.3013140E-03  0.6988185E+03  0.7818609E-02  0.9719255E-01
        1   -1    0    0  501    0  0.00000000000E+00  0.00000000000E+00  0.61601972261E+03  0.61601972263E+03  0.50400001928E-02 0.  1.
       -1   -1    0    0    0  501  0.00000000000E+00  0.00000000000E+00 -0.19818652899E+03  0.19818652905E+03  0.50400001928E-02 0. -1.
    10030    2    1    2    0    0  0.00000000000E+00  0.00000000000E+00  0.41783319362E+03  0.81420625168E+03  0.69881846182E+03 0.  0.
        2    1    3    3  502    0  0.26348439425E+03  0.99384919920E+02 -0.32083920230E+02  0.28342682700E+03  0.25500000920E-02 0. -1.
       -2    1    3    3    0  502 -0.26348439425E+03 -0.99384919920E+02  0.44991711385E+03  0.53077942468E+03  0.25500000920E-02 0.  1.
</event>
<event>
 5   0  0.2938783E-03  0.7035676E+03  0.7818609E-02  0.9711150E-01
        1   -1    0    0  501    0  0.00000000000E+00  0.00000000000E+00  0.10887377049E+04  0.10887377049E+04  0.50400001928E-02 0. -1.
       -1   -1    0    0    0  501  0.00000000000E+00  0.00000000000E+00 -0.11366543926E+03  0.11366543937E+03  0.50400001928E-02 0.  1.
    10030    2    1    2    0    0  0.00000000000E+00  0.00000000000E+00  0.97507226567E+03  0.12024031443E+04  0.70356762160E+03 0.  0.
        4    1    3    3  502    0 -0.35972443905E+02 -0.23078940919E+03  0.93708164954E+03  0.96575431602E+03  0.12699999809E+01 0. -1.
       -4    1    3    3    0  502  0.35972443905E+02  0.23078940919E+03  0.37990616133E+02  0.23664882829E+03  0.12699999809E+01 0.  1.
</event>
<event>
 5   0  0.4878235E-03  0.6979921E+03  0.7818609E-02  0.9720672E-01
       -2   -1    0    0    0  501  0.00000000000E+00  0.00000000000E+00  0.11602744614E+03  0.11602744617E+03  0.25500000920E-02 0. -1.
        2   -1    0    0  501    0  0.00000000000E+00  0.00000000000E+00 -0.10497365033E+04  0.10497365033E+04  0.25500000920E-02 0.  1.
    10030    2    1    2    0    0  0.00000000000E+00  0.00000000000E+00 -0.93370905712E+03  0.11657639494E+04  0.69799210774E+03 0.  0.
        4    1    3    3  502    0 -0.10322098686E+03 -0.15907512893E+03 -0.95617996137E+03  0.97480315972E+03  0.12699999809E+01 0.  1.
       -4    1    3    3    0  502  0.10322098686E+03  0.15907512893E+03  0.22470904251E+02  0.19096078972E+03  0.12699999809E+01 0. -1.
</event>
<event>
 5   0  0.2934483E-03  0.7004859E+03  0.7818609E-02  0.9716402E-01
       -1   -1    0    0    0  501  0.00000000000E+00  0.00000000000E+00  0.30938266821E+03  0.30938266826E+03  0.50400001928E-02 0.  1.
        1   -1    0    0  501    0  0.00000000000E+00  0.00000000000E+00 -0.39649967171E+03  0.39649967174E+03  0.50400001928E-02 0. -1.
    10030    2    1    2    0    0  0.00000000000E+00  0.00000000000E+00 -0.87117003495E+02  0.70588234000E+03  0.70048590680E+03 0.  0.
        5    1    3    3  502    0  0.31649717605E+03 -0.94632603473E+02  0.73622526310E+02  0.33847918469E+03  0.46999998093E+01 0. -1.
       -5    1    3    3    0  502 -0.31649717605E+03  0.94632603473E+02 -0.16073952980E+03  0.36740315531E+03  0.46999998093E+01 0.  1.
</event>
<event>
 5   0  0.2934483E-03  0.6992322E+03  0.7818609E-02  0.9718546E-01
        1   -1    0    0  501    0  0.00000000000E+00  0.00000000000E+00  0.89817694915E+03  0.89817694917E+03  0.50400001928E-02 0.  1.
       -1   -1    0    0    0  501  0.00000000000E+00  0.00000000000E+00 -0.13608834251E+03  0.13608834260E+03  0.50400001928E-02 0. -1.
    10030    2    1    2    0    0  0.00000000000E+00  0.00000000000E+00  0.76208860665E+03  0.10342652918E+04  0.69923218559E+03 0.  0.
        5    1    3    3  502    0 -0.32366197162E+03 -0.23928829350E+02  0.57321732016E+03  0.65873351734E+03  0.46999998093E+01 0.  1.
       -5    1    3    3    0  502  0.32366197162E+03  0.23928829350E+02  0.18887128649E+03  0.37553177443E+03  0.46999998093E+01 0. -1.
</event>
<event>
 5   0  0.1981750E-03  0.7021207E+03  0.7818609E-02  0.9713612E-01
       -3   -1    0    0    0  501  0.00000000000E+00  0.00000000000E+00  0.10994840209E+04  0.10994840256E+04  0.10100000352E+00 0.  1.
        3   -1    0    0  501    0  0.00000000000E+00  0.00000000000E+00 -0.11209199081E+03  0.11209203631E+03  0.10100000352E+00 0. -1.
    10030    2    1    2    0    0  0.00000000000E+00  0.00000000000E+00  0.98739203011E+03  0.12115760619E+04  0.70212073930E+03 0.  0.
        1    1    3    3  502    0 -0.95659767022E+02  0.11343520839E+03  0.10427093247E+04  0.10532146378E+04  0.50400001928E-02 0.  1.
       -1    1    3    3    0  502  0.95659767022E+02 -0.11343520839E+03 -0.55317294548E+02  0.15836142406E+03  0.50400001928E-02 0. -1.
</event>
<event>
 5   0  0.3013140E-03  0.6987872E+03  0.7818609E-02  0.9719309E-01
       -1   -1    0    0    0  501  0.00000000000E+00  0.00000000000E+00  0.68666472348E+03  0.68666472350E+03  0.50400001928E-02 0. -1.
        1   -1    0    0  501    0  0.00000000000E+00  0.00000000000E+00 -0.17778091275E+03  0.17778091283E+03  0.50400001928E-02 0.  1.
    10030    2    1    2    0    0  0.00000000000E+00  0.00000000000E+00  0.50888381073E+03  0.86444563633E+03  0.69878718172E+03 0.  0.
        2    1    3    3  502    0  0.17094649143E+03 -0.28145357764E+03  0.10998005792E+03  0.34718069134E+03  0.25500000920E-02 0.  1.
       -2    1    3    3    0  502 -0.17094649143E+03  0.28145357764E+03  0.39890375281E+03  0.51726494498E+03  0.25500000920E-02 0. -1.
</event>
<event>
 5   0  0.5072407E-03  0.6996885E+03  0.7818609E-02  0.9717765E-01
       -2   -1    0    0    0  501  0.00000000000E+00  0.00000000000E+00  0.36478368724E+03  0.36478368725E+03  0.25500000920E-02 0. -1.
        2   -1    0    0  501    0  0.00000000000E+00  0.00000000000E+00 -0.33551663326E+03  0.33551663327E+03  0.25500000920E-02 0.  1.
    10030    2    1    2    0    0  0.00000000000E+00  0.00000000000E+00  0.29267053980E+02  0.70030032051E+03  0.69968848673E+03 0.  0.
        1    1    3    3  502    0  0.17072098802E+03  0.28470454898E+03 -0.95865271124E+02  0.34553217824E+03  0.50400001928E-02 0.  1.
       -1    1    3    3    0  502 -0.17072098802E+03 -0.28470454898E+03  0.12513232510E+03  0.35476814228E+03  0.50400001928E-02 0. -1.
</event>
<event>
 5   0  0.3013140E-03  0.7001796E+03  0.7818609E-02  0.9716925E-01
        1   -1    0    0  501    0  0.00000000000E+00  0.00000000000E+00  0.74647821746E+03  0.74647821748E+03  0.50400001928E-02 0.  1.
       -1   -1    0    0    0  501  0.00000000000E+00  0.00000000000E+00 -0.16418813926E+03  0.16418813933E+03  0.50400001928E-02 0. -1.
    10030    2    1    2    0    0  0.00000000000E+00  0.00000000000E+00  0.58229007820E+03  0.91066635681E+03  0.70017960428E+03 0.  0.
        2    1    3    3  502    0  0.40625642534E+02  0.59046730138E+02  0.73683392528E+03  0.74031155105E+03  0.25500000920E-02 0.  1.
       -2    1    3    3    0  502 -0.40625642534E+02 -0.59046730138E+02 -0.15454384707E+03  0.17035480576E+03  0.25500000920E-02 0. -1.
</event>
<event>
 5   0  0.5072407E-03  0.6979483E+03  0.7818609E-02  0.9720747E-01
       -2   -1    0    0    0  501  0.00000000000E+00  0.00000000000E+00  0.33167582857E+03  0.33167582858E+03  0.25500000920E-02 0.  1.
        2   -1    0    0  501    0  0.00000000000E+00  0.00000000000E+00 -0.36717466587E+03  0.36717466588E+03  0.25500000920E-02 0. -1.
    10030    2    1    2    0    0  0.00000000000E+00  0.00000000000E+00 -0.35498837305E+02  0.69885049446E+03  0.69794831195E+03 0.  0.
        1    1    3    3  502    0  0.28567104568E+03 -0.18943831467E+03  0.47819119166E+02  0.34609462520E+03  0.50400001928E-02 0.  1.
       -1    1    3    3    0  502 -0.28567104568E+03  0.18943831467E+03 -0.83317956471E+02  0.35275586927E+03  0.50400001928E-02 0. -1.
</event>
<event>
 5   0  0.5113683E-03  0.7007288E+03  0.7818609E-02  0.9715987E-01
       -2   -1    0    0    0  501  0.00000000000E+00  0.00000000000E+00  0.12636325437E+03  0.12636325440E+03  0.25500000920E-02 0.  1.
        2   -1    0    0  501    0  0.00000000000E+00  0.00000000000E+00 -0.97144713287E+03  0.97144713287E+03  0.25500000920E-02 0. -1.
    10030    2    1    2    0    0  0.00000000000E+00  0.00000000000E+00 -0.84508387850E+03  0.10978103873E+04  0.70072882394E+03 0.  0.
        3    1    3    3  502    0  0.32434945165E+03 -0.12051386465E+03 -0.33631742387E+03  0.48253039091E+03  0.10100000352E+00 0.  1.
       -3    1    3    3    0  502 -0.32434945165E+03  0.12051386465E+03 -0.50876645463E+03  0.61527999636E+03  0.10100000352E+00 0. -1.
</event>
<event>
 5   0  0.5113683E-03  0.7013261E+03  0.7818609E-02  0.9714967E-01
        2   -1    0    0  501    0  0.00000000000E+00  0.00000000000E+00  0.22812748502E+03  0.22812748503E+03  0.25500000920E-02 0.  1.
       -2   -1    0    0    0  501  0.00000000000E+00  0.00000000000E+00 -0.53901691756E+03  0.53901691757E+03  0.25500000920E-02 0. -1.
    10030    2    1    2    0    0  0.00000000000E+00  0.00000000000E+00 -0.31088943254E+03  0.76714440260E+03  0.70132609760E+03 0.  0.
        3    1    3    3  502    0  0.12811211838E+03 -0.38954985834E+02 -0.50995008180E+03  0.52723742463E+03  0.10100000352E+00 0. -1.
       -3    1    3    3    0  502 -0.12811211838E+03  0.38954985834E+02  0.19906064926E+03  0.23990697798E+03  0.10100000352E+00 0.  1.
</event>
<event>
 5   0  0.2913582E-03  0.7056425E+03  0.7818609E-02  0.9707631E-01
        1   -1    0    0  501    0  0.00000000000E+00  0.00000000000E+00  0.65791377976E+03  0.65791377978E+03  0.50400001928E-02 0.  1.
       -1   -1    0    0    0  501  0.00000000000E+00  0.00000000000E+00 -0.18920841551E+03  0.18920841558E+03  0.50400001928E-02 0. -1.
    10030    2    1    2    0    0  0.00000000000E+00  0.00000000000E+00  0.46870536425E+03  0.84712219536E+03  0.70564246995E+03 0.  0.
        1    1    3    3  502    0  0.16400365710E+03 -0.19503470593E+03 -0.58596043175E+02  0.26147510849E+03  0.50400001928E-02 0. -1.
       -1    1    3    3    0  502 -0.16400365710E+03  0.19503470593E+03  0.52730140742E+03  0.58564708687E+03  0.50400001928E-02 0.  1.
</event>
<event>
 5   0  0.2937617E-03  0.7004464E+03  0.7818609E-02  0.9716469E-01
        1   -1    0    0  501    0  0.00000000000E+00  0.00000000000E+00  0.96987344256E+03  0.96987344257E+03  0.50400001928E-02 0.  1.
       -1   -1    0    0    0  501  0.00000000000E+00  0.00000000000E+00 -0.12646628393E+03  0.12646628403E+03  0.50400001928E-02 0. -1.
    10030    2    1    2    0    0  0.00000000000E+00  0.00000000000E+00  0.84340715863E+03  0.10963397266E+04  0.70044640116E+03 0.  0.
        3    1    3    3  502    0  0.19990073146E+03  0.26586659445E+02  0.86987935055E+03  0.89294862541E+03  0.10100000352E+00 0.  1.
       -3    1    3    3    0  502 -0.19990073146E+03 -0.26586659445E+02 -0.26472191928E+02  0.20339110119E+03  0.10100000352E+00 0. -1.
</event>
<event>
 5   0  0.5113683E-03  0.6967015E+03  0.7818609E-02  0.9722890E-01
        2   -1    0    0  501    0  0.00000000000E+00  0.00000000000E+00  0.42031027926E+03  0.42031027927E+03  0.25500000920E-02 0. -1.
       -2   -1    0    0    0  501  0.00000000000E+00  0.00000000000E+00 -0.28871106350E+03  0.28871106351E+03  0.25500000920E-02 0.  1.
    10030    2    1    2    0    0  0.00000000000E+00  0.00000000000E+00  0.13159921576E+03  0.70902134278E+03  0.69670145036E+03 0.  0.
        3    1    3    3  502    0  0.31564946249E+03 -0.10249529249E+03 -0.41941992893E+02  0.33451309260E+03  0.10100000352E+00 0.  1.
       -3    1    3    3    0  502 -0.31564946249E+03  0.10249529249E+03  0.17354120865E+03  0.37450825018E+03  0.10100000352E+00 0. -1.
</event>
<event>
 5   0  0.2934483E-03  0.7001769E+03  0.7818609E-02  0.9716930E-01
        1   -1    0    0  501    0  0.00000000000E+00  0.00000000000E+00  0.12229804867E+04  0.12229804867E+04  0.50400001928E-02 0.  1.
       -1   -1    0    0    0  501  0.00000000000E+00  0.00000000000E+00 -0.10021576013E+03  0.10021576026E+03  0.50400001928E-02 0. -1.
    10030    2    1    2    0    0  0.00000000000E+00  0.00000000000E+00  0.11227647266E+04  0.13231962470E+04  0.70017688963E+03 0.  0.
        5    1    3    3  502    0  0.28162377519E+03  0.15565658233E+03  0.30089851782E+03  0.44057114113E+03  0.46999998093E+01 0.  1.
       -5    1    3    3    0  502 -0.28162377519E+03 -0.15565658233E+03  0.82186620874E+03  0.88262510583E+03  0.46999998093E+01 0. -1.
</event>
<event>
 5   0  0.5023894E-03  0.7002858E+03  0.7818609E-02  0.9716744E-01
       -2   -1    0    0    0  501  0.00000000000E+00  0.00000000000E+00  0.13762244777E+03  0.13762244779E+03  0.25500000920E-02 0.  1.
        2   -1    0    0  501    0  0.00000000000E+00  0.00000000000E+00 -0.89084337742E+03  0.89084337742E+03  0.25500000920E-02 0. -1.
    10030    2    1    2    0    0  0.00000000000E+00  0.00000000000E+00 -0.75322092965E+03  0.10284658252E+04  0.70028578792E+03 0.  0.
        2    1    3    3  502    0 -0.31709121366E+03 -0.71457780821E+02 -0.18542235041E+03  0.37421183874E+03  0.25500000920E-02 0.  1.
       -2    1    3    3    0  502  0.31709121366E+03  0.71457780821E+02 -0.56779857924E+03  0.65425398647E+03  0.25500000920E-02 0. -1.
</event>
<event>
 5   0  0.2913582E-03  0.6990223E+03  0.7818609E-02  0.9718906E-01
        1   -1    0    0  501    0  0.00000000000E+00  0.00000000000E+00  0.16339459920E+04  0.16339459920E+04  0.50400001928E-02 0.  1.
       -1   -1    0    0    0  501  0.00000000000E+00  0.00000000000E+00 -0.74762603112E+02  0.74762603282E+02  0.50400001928E-02 0. -1.
    10030    2    1    2    0    0  0.00000000000E+00  0.00000000000E+00  0.15591833889E+04  0.17087085953E+04  0.69902233400E+03 0.  0.
        1    1    3    3  502    0 -0.24203588318E+03 -0.19367291459E+03  0.38492856643E+03  0.49422724316E+03  0.50400001928E-02 0. -1.
       -1    1    3    3    0  502  0.24203588318E+03  0.19367291459E+03  0.11742548225E+04  0.12144813521E+04  0.50400001928E-02 0.  1.
</event>
<event>
 5   0  0.2913582E-03  0.7005657E+03  0.7818609E-02  0.9716265E-01
       -1   -1    0    0    0  501  0.00000000000E+00  0.00000000000E+00  0.89304745775E+02  0.89304745917E+02  0.50400001928E-02 0. -1.
        1   -1    0    0  501    0  0.00000000000E+00  0.00000000000E+00 -0.13739254494E+04  0.13739254494E+04  0.50400001928E-02 0.  1.
    10030    2    1    2    0    0  0.00000000000E+00  0.00000000000E+00 -0.12846207036E+04  0.14632301953E+04  0.70056566597E+03 0.  0.
        1    1    3    3  502    0  0.27446360766E+03  0.11584671645E+03 -0.10271383068E+04  0.10694689500E+04  0.50400001928E-02 0.  1.
       -1    1    3    3    0  502 -0.27446360766E+03 -0.11584671645E+03 -0.25748239682E+03  0.39376124535E+03  0.50400001928E-02 0. -1.
</event>
<event>
 5   0  0.3013140E-03  0.7014643E+03  0.7818609E-02  0.9714731E-01
       -1   -1    0    0    0  501  0.00000000000E+00  0.00000000000E+00  0.47726331603E+03  0.47726331606E+03  0.50400001928E-02 0.  1.
        1   -1    0    0  501    0  0.00000000000E+00  0.00000000000E+00 -0.25774665734E+03  0.25774665739E+03  0.50400001928E-02 0. -1.
    10030    2    1    2    0    0  0.00000000000E+00  0.00000000000E+00  0.21951665870E+03  0.73500997345E+03  0.70146425256E+03 0.  0.
        2    1    3    3  502    0  0.98885032160E+02 -0.33488886833E+03  0.14426050895E+03  0.37780934103E+03  0.25500000920E-02 0.  1.
       -2    1    3    3    0  502 -0.98885032160E+02  0.33488886833E+03  0.75256149742E+02  0.35720063242E+03  0.25500000920E-02 0. -1.
</event>
<event>
 5   0  0.4878235E-03  0.6990586E+03  0.7818609E-02  0.9718844E-01
       -2   -1    0    0    0  501  0.00000000000E+00  0.00000000000E+00  0.13975881252E+03  0.13975881254E+03  0.25500000920E-02 0. -1.
        2   -1    0    0  501    0  0.00000000000E+00  0.00000000000E+00 -0.87415393409E+03  0.87415393409E+03  0.25500000920E-02 0.  1.
    10030    2    1    2    0    0  0.00000000000E+00  0.00000000000E+00 -0.73439512157E+03  0.10139127466E+04  0.69905855492E+03 0.  0.
        4    1    3    3  502    0  0.31452741435E+03  0.13011904033E+03 -0.48241649777E+03  0.59041150840E+03  0.12699999809E+01 0. -1.
       -4    1    3    3    0  502 -0.31452741435E+03 -0.13011904033E+03 -0.25197862380E+03  0.42350123823E+03  0.12699999809E+01 0.  1.
</event>
<event>
 5   0  0.2937617E-03  0.6992863E+03  0.7818609E-02  0.9718453E-01
        1   -1    0    0  501    0  0.00000000000E+00  0.00000000000E+00  0.36721696560E+03  0.36721696564E+03  0.50400001928E-02 0.  1.
       -1   -1    0    0    0  501  0.00000000000E+00  0.00000000000E+00 -0.33291036216E+03  0.33291036220E+03  0.50400001928E-02 0. -1.
    10030    2    1    2    0    0  0.00000000000E+00  0.00000000000E+00  0.34306603440E+02  0.70012732783E+03  0.69928630198E+03 0.  0.
        3    1    3    3  502    0  0.30256453630E+03  0.11908967347E+03  0.14584844983E+03  0.35636979315E+03  0.10100000352E+00 0.  1.
       -3    1    3    3    0  502 -0.30256453630E+03 -0.11908967347E+03 -0.11154184639E+03  0.34375753468E+03  0.10100000352E+00 0. -1.
</event>
<event>
 5   0  0.2934483E-03  0.6991213E+03  0.7818609E-02  0.9718736E-01
        1   -1    0    0  501    0  0.00000000000E+00  0.00000000000E+00  0.39408006341E+03  0.39408006345E+03  0.50400001928E-02 0.  1.
       -1   -1    0    0    0  501  0.00000000000E+00  0.00000000000E+00 -0.31007065241E+03  0.31007065245E+03  0.50400001928E-02 0. -1.
    10030    2    1    2    0    0  0.00000000000E+00  0.00000000000E+00  0.84009411005E+02  0.70415071590E+03  0.69912134109E+03 0.  0.
        5    1    3    3  502    0  0.24473827707E+03 -0.22511408918E+03 -0.66461210927E+02  0.33913472245E+03  0.46999998093E+01 0. -1.
       -5    1    3    3    0  502 -0.24473827707E+03  0.22511408918E+03  0.15047062193E+03  0.36501599345E+03  0.46999998093E+01 0.  1.
</event>
<event>
 5   0  0.3013140E-03  0.6996921E+03  0.7818609E-02  0.9717759E-01
        1   -1    0    0  501    0  0.00000000000E+00  0.00000000000E+00  0.77680988226E+03  0.77680988227E+03  0.50400001928E-02 0.  1.
       -1   -1    0    0    0  501  0.00000000000E+00  0.00000000000E+00 -0.15755752461E+03  0.15755752469E+03  0.50400001928E-02 0. -1.
    10030    2    1    2    0    0  0.00000000000E+00  0.00000000000E+00  0.61925235765E+03  0.93436740696E+03  0.69969205279E+03 0.  0.
        2    1    3    3  502    0 -0.32768161493E+03 -0.38186074540E+02  0.15412926664E+03  0.36412806524E+03  0.25500000920E-02 0. -1.
       -2    1    3    3    0  502  0.32768161493E+03  0.38186074540E+02  0.46512309100E+03  0.57023934172E+03  0.25500000920E-02 0.  1.
</event>
<event>
 5   0  0.5023894E-03  0.7042774E+03  0.7818609E-02  0.9709945E-01
       -2   -1    0    0    0  501  0.00000000000E+00  0.00000000000E+00  0.50470229796E+02  0.50470229860E+02  0.25500000920E-02 0. -1.
        2   -1    0    0  501    0  0.00000000000E+00  0.00000000000E+00 -0.24569266242E+04  0.24569266242E+04  0.25500000920E-02 0.  1.
    10030    2    1    2    0    0  0.00000000000E+00  0.00000000000E+00 -0.24064563944E+04  0.25073968541E+04  0.70427736411E+03 0.  0.
        2    1    3    3  502    0  0.95504004363E+02 -0.30453537390E+03 -0.67349547257E+03  0.74529119167E+03  0.25500000920E-02 0. -1.
       -2    1    3    3    0  502 -0.95504004363E+02  0.30453537390E+03 -0.17329609219E+04  0.17621056624E+04  0.25500000920E-02 0.  1.
</event>
<event>
 5   0  0.1981750E-03  0.7005999E+03  0.7818609E-02  0.9716207E-01
       -3   -1    0    0    0  501  0.00000000000E+00  0.00000000000E+00  0.57421191068E+03  0.57421191956E+03  0.10100000352E+00 0.  1.
        3   -1    0    0  501    0  0.00000000000E+00  0.00000000000E+00 -0.21370165306E+03  0.21370167693E+03  0.10100000352E+00 0. -1.
    10030    2    1    2    0    0  0.00000000000E+00  0.00000000000E+00  0.36051025762E+03  0.78791359649E+03  0.70059987845E+03 0.  0.
        4    1    3    3  502    0  0.18815940472E+03 -0.26833923356E+03  0.41153130324E+02  0.33031060971E+03  0.12699999809E+01 0. -1.
       -4    1    3    3    0  502 -0.18815940472E+03  0.26833923356E+03  0.31935712730E+03  0.45760298678E+03  0.12699999809E+01 0.  1.
</event>
<event>
 5   0  0.4878235E-03  0.6979581E+03  0.7818609E-02  0.9720730E-01
       -2   -1    0    0    0  501  0.00000000000E+00  0.00000000000E+00  0.41435881366E+03  0.41435881367E+03  0.25500000920E-02 0.  1.
        2   -1    0    0  501    0  0.00000000000E+00  0.00000000000E+00 -0.29391529749E+03  0.29391529750E+03  0.25500000920E-02 0. -1.
    10030    2    1    2    0    0  0.00000000000E+00  0.00000000000E+00  0.12044351616E+03  0.70827411117E+03  0.69795814772E+03 0.  0.
        4    1    3    3  502    0 -0.88968431525E+02  0.11013492697E+03  0.38390275766E+03  0.40917969669E+03  0.12699999809E+01 0.  1.
       -4    1    3    3    0  502  0.88968431525E+02 -0.11013492697E+03 -0.26345924149E+03  0.29909441448E+03  0.12699999809E+01 0. -1.
</event>
<event>
 5   0  0.4878235E-03  0.7002817E+03  0.7818609E-02  0.9716750E-01
        2   -1    0    0  501    0  0.00000000000E+00  0.00000000000E+00  0.17499452430E+04  0.17499452430E+04  0.25500000920E-02 0.  1.
       -2   -1    0    0    0  501  0.00000000000E+00  0.00000000000E+00 -0.70058552526E+02  0.70058552572E+02  0.25500000920E-02 0. -1.
    10030    2    1    2    0    0  0.00000000000E+00  0.00000000000E+00  0.16798866904E+04  0.18200037955E+04  0.70028174548E+03 0.  0.
        4    1    3    3  502    0  0.19735252875E+03  0.18782481319E+02  0.89855507723E+02  0.21766126751E+03  0.12699999809E+01 0. -1.
       -4    1    3    3    0  502 -0.19735252875E+03 -0.18782481319E+02  0.15900311827E+04  0.16023425280E+04  0.12699999809E+01 0.  1.
</event>
<event>
 5   0  0.2938783E-03  0.7001103E+03  0.7818609E-02  0.9717044E-01
        1   -1    0    0  501    0  0.00000000000E+00  0.00000000000E+00  0.12668835383E+03  0.12668835393E+03  0.50400001928E-02 0.  1.
       -1   -1    0    0    0  501  0.00000000000E+00  0.00000000000E+00 -0.96724444182E+03  0.96724444184E+03  0.50400001928E-02 0. -1.
    10030    2    1    2    0    0  0.00000000000E+00  0.00000000000E+00 -0.84055608799E+03  0.10939327958E+04  0.70011029460E+03 0.  0.
        4    1    3    3  502    0  0.22249573683E+03 -0.16102201833E+03 -0.75939976557E+03  0.80754074828E+03  0.12699999809E+01 0. -1.
       -4    1    3    3    0  502 -0.22249573683E+03  0.16102201833E+03 -0.81156322422E+02  0.28639204749E+03  0.12699999809E+01 0.  1.
</event>
<event>
 5   0  0.5023894E-03  0.7021754E+03  0.7818609E-02  0.9713519E-01
        2   -1    0    0  501    0  0.00000000000E+00  0.00000000000E+00  0.10126690373E+04  0.10126690373E+04  0.25500000920E-02 0.  1.
       -2   -1    0    0    0  501  0.00000000000E+00  0.00000000000E+00 -0.12172048704E+03  0.12172048707E+03  0.25500000920E-02 0. -1.
    10030    2    1    2    0    0  0.00000000000E+00  0.00000000000E+00  0.89094855022E+03  0.11343895243E+04  0.70217538675E+03 0.  0.
        2    1    3    3  502    0  0.15905445208E+03 -0.57578082750E+02  0.94249517624E+03  0.95755454758E+03  0.25500000920E-02 0.  1.
       -2    1    3    3    0  502 -0.15905445208E+03  0.57578082750E+02 -0.51546626022E+02  0.17683497675E+03  0.25500000920E-02 0. -1.
</event>
<event>
 5   0  0.1981750E-03  0.6997530E+03  0.7818609E-02  0.9717655E-01
        3   -1    0    0  501    0  0.00000000000E+00  0.00000000000E+00  0.27146944115E+03  0.27146945994E+03  0.10100000352E+00 0.  1.
       -3   -1    0    0    0  501  0.00000000000E+00  0.00000000000E+00 -0.45092934887E+03  0.45092936018E+03  0.10100000352E+00 0. -1.
    10030    2    1    2    0    0  0.00000000000E+00  0.00000000000E+00 -0.17945990772E+03  0.72239882012E+03  0.69975295415E+03 0.  0.
        1    1    3    3  502    0  0.23383506616E+03  0.17786747089E+03  0.10641317490E+03  0.31247310154E+03  0.50400001928E-02 0.  1.
       -1    1    3    3    0  502 -0.23383506616E+03 -0.17786747089E+03 -0.28587308261E+03  0.40992571858E+03  0.50400001928E-02 0. -1.
</event>
<event>
 5   0  0.4878235E-03  0.7019891E+03  0.7818609E-02  0.9713837E-01
       -2   -1    0    0    0  501  0.00000000000E+00  0.00000000000E+00  0.18240037658E+03  0.18240037660E+03  0.25500000920E-02 0. -1.
        2   -1    0    0  501    0  0.00000000000E+00  0.00000000000E+00 -0.67542174589E+03  0.67542174589E+03  0.25500000920E-02 0.  1.
    10030    2    1    2    0    0  0.00000000000E+00  0.00000000000E+00 -0.49302136931E+03  0.85782212249E+03  0.70198911903E+03 0.  0.
        4    1    3    3  502    0 -0.19552086496E+01 -0.26446059551E+03 -0.52850230532E+03  0.59098183479E+03  0.12699999809E+01 0.  1.
       -4    1    3    3    0  502  0.19552086496E+01  0.26446059551E+03  0.35480936015E+02  0.26684028770E+03  0.12699999809E+01 0. -1.
</event>
<event>
 5   0  0.5076796E-03  0.7018832E+03  0.7818609E-02  0.9714017E-01
       -2   -1    0    0    0  501  0.00000000000E+00  0.00000000000E+00  0.10701562113E+03  0.10701562116E+03  0.25500000920E-02 0.  1.
        2   -1    0    0  501    0  0.00000000000E+00  0.00000000000E+00 -0.11508600444E+04  0.11508600444E+04  0.25500000920E-02 0. -1.
    10030    2    1    2    0    0  0.00000000000E+00  0.00000000000E+00 -0.10438444233E+04  0.12578756656E+04  0.70188318832E+03 0.  0.
        5    1    3    3  502    0  0.10103386814E+03  0.15613102872E+03  0.11381905097E+02  0.18637697928E+03  0.46999998093E+01 0.  1.
       -5    1    3    3    0  502 -0.10103386814E+03 -0.15613102872E+03 -0.10552263284E+04  0.10714986863E+04  0.46999998093E+01 0. -1.
</event>
<event>
 5   0  0.1981750E-03  0.6998847E+03  0.7818609E-02  0.9717429E-01
       -4   -1    0    0    0  501  0.00000000000E+00  0.00000000000E+00  0.84143247965E+03  0.84143343808E+03  0.12699999809E+01 0.  1.
        4   -1    0    0  501    0  0.00000000000E+00  0.00000000000E+00 -0.14553328433E+03  0.14553882557E+03  0.12699999809E+01 0. -1.
    10030    2    1    2    0    0  0.00000000000E+00  0.00000000000E+00  0.69589919532E+03  0.98697226365E+03  0.69988467562E+03 0.  0.
        1    1    3    3  502    0 -0.47169123322E+02 -0.10415544046E+03 -0.11845201630E+03  0.16463341751E+03  0.50400001928E-02 0. -1.
       -1    1    3    3    0  502  0.47169123322E+02  0.10415544046E+03  0.81435121162E+03  0.82233884614E+03  0.50400001928E-02 0.  1.
</event>
<event>
 5   0  0.5076796E-03  0.6952790E+03  0.7818609E-02  0.9725340E-01
        2   -1    0    0  501    0  0.00000000000E+00  0.00000000000E+00  0.38197927847E+03  0.38197927847E+03  0.25500000920E-02 0. -1.
       -2   -1    0    0    0  501  0.00000000000E+00  0.00000000000E+00 -0.31638688131E+03  0.31638688132E+03  0.25500000920E-02 0.  1.
    10030    2    1    2    0    0  0.00000000000E+00  0.00000000000E+00  0.65592397153E+02  0.69836615980E+03  0.69527903074E+03 0.  0.
        5    1    3    3  502    0  0.15929949817E+03 -0.19694261118E+03 -0.20631207796E+03  0.32672539804E+03  0.46999998093E+01 0.  1.
       -5    1    3    3    0  502 -0.15929949817E+03  0.19694261118E+03  0.27190447511E+03  0.37164076176E+03  0.46999998093E+01 0. -1.
</event>
<event>
 5   0  0.2934483E-03  0.6997128E+03  0.7818609E-02  0.9717724E-01
        1   -1    0    0  501    0  0.00000000000E+00  0.00000000000E+00  0.43080184457E+03  0.43080184460E+03  0.50400001928E-02 0.  1.
       -1   -1    0    0    0  501  0.00000000000E+00  0.00000000000E+00 -0.28412015068E+03  0.28412015073E+03  0.50400001928E-02 0. -1.
    10030    2    1    2    0    0  0.00000000000E+00  0.00000000000E+00  0.14668169389E+03  0.71492199533E+03  0.69971275541E+03 0.  0.
        5    1    3    3  502    0 -0.38644433493E+02  0.34766095506E+03  0.69271422624E+02  0.35662606734E+03  0.46999998093E+01 0.  1.
       -5    1    3    3    0  502  0.38644433493E+02 -0.34766095506E+03  0.77410271264E+02  0.35829592799E+03  0.46999998093E+01 0. -1.
</event>
<event>
 5   0  0.3013140E-03  0.7013195E+03  0.7818609E-02  0.9714978E-01
       -1   -1    0    0    0  501  0.00000000000E+00  0.00000000000E+00  0.58793761007E+03  0.58793761009E+03  0.50400001928E-02 0. -1.
        1   -1    0    0  501    0  0.00000000000E+00  0.00000000000E+00 -0.20914171082E+03  0.20914171088E+03  0.50400001928E-02 0.  1.
    10030    2    1    2    0    0  0.00000000000E+00  0.00000000000E+00  0.37879589925E+03  0.79707932098E+03  0.70131954959E+03 0.  0.
        2    1    3    3  502    0 -0.23043529992E+03 -0.12371266768E+02  0.48947266745E+03  0.54114412856E+03  0.25500000920E-02 0. -1.
       -2    1    3    3    0  502  0.23043529992E+03  0.12371266768E+02 -0.11067676820E+03  0.25593519241E+03  0.25500000920E-02 0.  1.
</event>
<event>
 5   0  0.5072407E-03  0.6991834E+03  0.7818609E-02  0.9718630E-01
        2   -1    0    0  501    0  0.00000000000E+00  0.00000000000E+00  0.95604111420E+03  0.95604111421E+03  0.25500000920E-02 0. -1.
       -2   -1    0    0    0  501  0.00000000000E+00  0.00000000000E+00 -0.12783379855E+03  0.12783379857E+03  0.25500000920E-02 0.  1.
    10030    2    1    2    0    0  0.00000000000E+00  0.00000000000E+00  0.82820731566E+03  0.10838749128E+04  0.69918343005E+03 0.  0.
        1    1    3    3  502    0  0.11789775234E+03  0.23937878824E+03  0.76423050795E+03  0.80947535699E+03  0.50400001928E-02 0. -1.
       -1    1    3    3    0  502 -0.11789775234E+03 -0.23937878824E+03  0.63976807701E+02  0.27439955579E+03  0.50400001928E-02 0.  1.
</event>
<event>
 5   0  0.2938783E-03  0.6976255E+03  0.7818609E-02  0.9721301E-01
        1   -1    0    0  501    0  0.00000000000E+00  0.00000000000E+00  0.10573770780E+04  0.10573770780E+04  0.50400001928E-02 0. -1.
       -1   -1    0    0    0  501  0.00000000000E+00  0.00000000000E+00 -0.11506808150E+03  0.11506808161E+03  0.50400001928E-02 0.  1.
    10030    2    1    2    0    0  0.00000000000E+00  0.00000000000E+00  0.94230899646E+03  0.11724451596E+04  0.69762554959E+03 0.  0.
        4    1    3    3  502    0 -0.23009740883E+03  0.77018451697E+02  0.50018279561E+02  0.24775007697E+03  0.12699999809E+01 0.  1.
       -4    1    3    3    0  502  0.23009740883E+03 -0.77018451697E+02  0.89229071690E+03  0.92469508262E+03  0.12699999809E+01 0. -1.
</event>
<event>
 5   0  0.5113683E-03  0.7007013E+03  0.7818609E-02  0.9716034E-01
        2   -1    0    0  501    0  0.00000000000E+00  0.00000000000E+00  0.48837232307E+03  0.48837232308E+03  0.25500000920E-02 0. -1.
       -2   -1    0    0    0  501  0.00000000000E+00  0.00000000000E+00 -0.25133609936E+03  0.25133609937E+03  0.25500000920E-02 0.  1.
    10030    2    1    2    0    0  0.00000000000E+00  0.00000000000E+00  0.23703622372E+03  0.73970842245E+03  0.70070134786E+03 0.  0.
        3    1    3    3  502    0 -0.19623522769E+03 -0.22034321356E+03  0.31794223511E+03  0.43375877099E+03  0.10100000352E+00 0. -1.
       -3    1    3    3    0  502  0.19623522769E+03  0.22034321356E+03 -0.80906011390E+02  0.30594965146E+03  0.10100000352E+00 0.  1.
</event>
<event>
 5   0  0.2937617E-03  0.6999291E+03  0.7818609E-02  0.9717353E-01
       -1   -1    0    0    0  501  0.00000000000E+00  0.00000000000E+00  0.13439628793E+04  0.13439628793E+04  0.50400001928E-02 0. -1.
        1   -1    0    0  501    0  0.00000000000E+00  0.00000000000E+00 -0.91129890158E+02  0.91129890297E+02  0.50400001928E-02 0.  1.
    10030    2    1    2    0    0  0.00000000000E+00  0.00000000000E+00  0.12528329891E+04  0.14350927696E+04  0.69992910976E+03 0.  0.
        3    1    3    3  502    0 -0.54882946279E+02  0.14426787319E+03  0.12703990073E+04  0.12797417728E+04  0.10100000352E+00 0. -1.
       -3    1    3    3    0  502  0.54882946279E+02 -0.14426787319E+03 -0.17566018148E+02  0.15535099684E+03  0.10100000352E+00 0.  1.
</event>
<event>
 5   0  0.2937617E-03  0.7007490E+03  0.7818609E-02  0.9715952E-01
       -1   -1    0    0    0  501  0.00000000000E+00  0.00000000000E+00  0.62081511638E+02  0.62081511842E+02  0.50400001928E-02 0.  1.
        1   -1    0    0  501    0  0.00000000000E+00  0.00000000000E+00 -0.19774369522E+04  0.19774369522E+04  0.50400001928E-02 0. -1.
    10030    2    1    2    0    0  0.00000000000E+00  0.00000000000E+00 -0.19153554405E+04  0.20395184640E+04  0.70074895754E+03 0.  0.
        3    1    3    3  502    0 -0.10953542006E+03  0.13753977237E+03 -0.75618326633E+02  0.19139837709E+03  0.10100000352E+00 0.  1.
       -3    1    3    3    0  502  0.10953542006E+03 -0.13753977237E+03 -0.18397371139E+04  0.18481200869E+04  0.10100000352E+00 0. -1.
</event>
<event>
 5   0  0.2934483E-03  0.7008697E+03  0.7818609E-02  0.9715746E-01
        1   -1    0    0  501    0  0.00000000000E+00  0.00000000000E+00  0.47453271627E+03  0.47453271630E+03  0.50400001928E-02 0.  1.
       -1   -1    0    0    0  501  0.00000000000E+00  0.00000000000E+00 -0.25879055731E+03  0.25879055736E+03  0.50400001928E-02 0. -1.
    10030    2    1    2    0    0  0.00000000000E+00  0.00000000000E+00  0.21574215897E+03  0.73332327366E+03  0.70086970582E+03 0.  0.
        5    1    3    3  502    0  0.89980316486E+02  0.32982463836E+03  0.27490994076E+02  0.34301398540E+03  0.46999998093E+01 0.  1.
       -5    1    3    3    0  502 -0.89980316486E+02 -0.32982463836E+03  0.18825116489E+03  0.39030928826E+03  0.46999998093E+01 0. -1.
</event>
<event>
 5   0  0.5023894E-03  0.6989077E+03  0.7818609E-02  0.9719102E-01
        2   -1    0    0  501    0  0.00000000000E+00  0.00000000000E+00  0.14974307064E+04  0.14974307064E+04  0.25500000920E-02 0. -1.
       -2   -1    0    0    0  501  0.00000000000E+00  0.00000000000E+00 -0.81551685477E+02  0.81551685517E+02  0.25500000920E-02 0.  1.
    10030    2    1    2    0    0  0.00000000000E+00  0.00000000000E+00  0.14158790209E+04  0.15789823919E+04  0.69890771358E+03 0.  0.
        2    1    3    3  502    0  0.65643798707E+02  0.72256132881E+02 -0.50120158891E+02  0.10973644509E+03  0.25500000920E-02 0.  1.
       -2    1    3    3    0  502 -0.65643798707E+02 -0.72256132881E+02  0.14659991798E+04  0.14692459468E+04  0.25500000920E-02 0. -1.
</event>
<event>
 5   0  0.5076796E-03  0.6911696E+03  0.7818609E-02  0.9732454E-01
        2   -1    0    0  501    0  0.00000000000E+00  0.00000000000E+00  0.35864082258E+03  0.35864082259E+03  0.25500000920E-02 0.  1.
       -2   -1    0    0    0  501  0.00000000000E+00  0.00000000000E+00 -0.33300407579E+03  0.33300407580E+03  0.25500000920E-02 0. -1.
    10030    2    1    2    0    0  0.00000000000E+00  0.00000000000E+00  0.25636746791E+02  0.69164489839E+03  0.69116960486E+03 0.  0.
        5    1    3    3  502    0 -0.13047453566E+03 -0.55323456320E+02 -0.30255303409E+03  0.33413278455E+03  0.46999998093E+01 0. -1.
       -5    1    3    3    0  502  0.13047453566E+03  0.55323456320E+02  0.32818978088E+03  0.35751211385E+03  0.46999998093E+01 0.  1.
</event>
<event>
 5   0  0.2938783E-03  0.7001608E+03  0.7818609E-02  0.9716957E-01
        1   -1    0    0  501    0  0.00000000000E+00  0.00000000000E+00  0.15725718527E+04  0.15725718527E+04  0.50400001928E-02 0.  1.
       -1   -1    0    0    0  501  0.00000000000E+00  0.00000000000E+00 -0.77933668803E+02  0.77933668966E+02  0.50400001928E-02 0. -1.
    10030    2    1    2    0    0  0.00000000000E+00  0.00000000000E+00  0.14946381839E+04  0.16505055217E+04  0.70016082176E+03 0.  0.
        4    1    3    3  502    0 -0.34865565550E+03  0.26491585221E+02  0.70702947671E+03  0.78876794054E+03  0.12699999809E+01 0. -1.
       -4    1    3    3    0  502  0.34865565550E+03 -0.26491585221E+02  0.78760870722E+03  0.86173758116E+03  0.12699999809E+01 0.  1.
</event>
<event>
 5   0  0.4878235E-03  0.7010979E+03  0.7818609E-02  0.9715356E-01
       -2   -1    0    0    0  501  0.00000000000E+00  0.00000000000E+00  0.10953348954E+03  0.10953348957E+03  0.25500000920E-02 0.  1.
        2   -1    0    0  501    0  0.00000000000E+00  0.00000000000E+00 -0.11218905035E+04  0.11218905035E+04  0.25500000920E-02 0. -1.
    10030    2    1    2    0    0  0.00000000000E+00  0.00000000000E+00 -0.10123570140E+04  0.12314239931E+04  0.70109794394E+03 0.  0.
        4    1    3    3  502    0  0.19695856405E+03 -0.78386716252E+02 -0.15806895038E+02  0.21257616063E+03  0.12699999809E+01 0.  1.
       -4    1    3    3    0  502 -0.19695856405E+03  0.78386716252E+02 -0.99655011892E+03  0.10188478324E+04  0.12699999809E+01 0. -1.
</event>
<event>
 5   0  0.2934483E-03  0.7002635E+03  0.7818609E-02  0.9716782E-01
        1   -1    0    0  501    0  0.00000000000E+00  0.00000000000E+00  0.89327674855E+03  0.89327674857E+03  0.50400001928E-02 0.  1.
       -1   -1    0    0    0  501  0.00000000000E+00  0.00000000000E+00 -0.13723879740E+03  0.13723879749E+03  0.50400001928E-02 0. -1.
    10030    2    1    2    0    0  0.00000000000E+00  0.00000000000E+00  0.75603795116E+03  0.10305155461E+04  0.70026345548E+03 0.  0.
        5    1    3    3  502    0 -0.16651233986E+03 -0.18135428034E+03  0.74431244147E+03  0.78398905276E+03  0.46999998093E+01 0.  1.
       -5    1    3    3    0  502  0.16651233986E+03  0.18135428034E+03  0.11725509681E+02  0.24652649330E+03  0.46999998093E+01 0. -1.
</event>
<event>
 5   0  0.5023894E-03  0.7001109E+03  0.7818609E-02  0.9717043E-01
        2   -1    0    0  501    0  0.00000000000E+00  0.00000000000E+00  0.29431736319E+04  0.29431736319E+04  0.25500000920E-02 0. -1.
       -2   -1    0    0    0  501  0.00000000000E+00  0.00000000000E+00 -0.41634924371E+02  0.41634924449E+02  0.25500000920E-02 0.  1.
    10030    2    1    2    0    0  0.00000000000E+00  0.00000000000E+00  0.29015387075E+04  0.29848085564E+04  0.70011088177E+03 0.  0.
        2    1    3    3  502    0  0.23048586640E+01 -0.10961091580E+03  0.33449008978E+02  0.11462417478E+03  0.25500000920E-02 0.  1.
       -2    1    3    3    0  502 -0.23048586640E+01  0.10961091580E+03  0.28680896986E+04  0.28701843816E+04  0.25500000920E-02 0. -1.
</event>
<event>
 5   0  0.5113683E-03  0.6999461E+03  0.7818609E-02  0.9717324E-01
        2   -1    0    0  501    0  0.00000000000E+00  0.00000000000E+00  0.55830696433E+03  0.55830696434E+03  0.25500000920E-02 0.  1.
       -2   -1    0    0    0  501  0.00000000000E+00  0.00000000000E+00 -0.21937955175E+03  0.21937955176E+03  0.25500000920E-02 0. -1.
    10030    2    1    2    0    0  0.00000000000E+00  0.00000000000E+00  0.33892741258E+03  0.77768651610E+03  0.69994608815E+03 0.  0.
        3    1    3    3  502    0  0.28472956663E+03  0.19083211295E+03  0.90952110413E+02  0.35462673057E+03  0.10100000352E+00 0.  1.
       -3    1    3    3    0  502 -0.28472956663E+03 -0.19083211295E+03  0.24797530217E+03  0.42305978553E+03  0.10100000352E+00 0. -1.
</event>
<event>
 5   0  0.3013140E-03  0.6959483E+03  0.7818609E-02  0.9724186E-01
        1   -1    0    0  501    0  0.00000000000E+00  0.00000000000E+00  0.64849932613E+03  0.64849932615E+03  0.50400001928E-02 0.  1.
       -1   -1    0    0    0  501  0.00000000000E+00  0.00000000000E+00 -0.18671722883E+03  0.18671722890E+03  0.50400001928E-02 0. -1.
    10030    2    1    2    0    0  0.00000000000E+00  0.00000000000E+00  0.46178209731E+03  0.83521655505E+03  0.69594826563E+03 0.  0.
        2    1    3    3  502    0  0.23090204726E+03 -0.24675815651E+03  0.13134202779E+03  0.36256871280E+03  0.25500000920E-02 0. -1.
       -2    1    3    3    0  502 -0.23090204726E+03  0.24675815651E+03  0.33044006951E+03  0.47264784225E+03  0.25500000920E-02 0.  1.
</event>
<event>
 5   0  0.2934483E-03  0.6997929E+03  0.7818609E-02  0.9717586E-01
        1   -1    0    0  501    0  0.00000000000E+00  0.00000000000E+00  0.18595414647E+04  0.18595414647E+04  0.50400001928E-02 0. -1.
       -1   -1    0    0    0  501  0.00000000000E+00  0.00000000000E+00 -0.65837487724E+02  0.65837487917E+02  0.50400001928E-02 0.  1.
    10030    2    1    2    0    0  0.00000000000E+00  0.00000000000E+00  0.17937039769E+04  0.19253789526E+04  0.69979293665E+03 0.  0.
        5    1    3    3  502    0  0.32470564499E+03 -0.61463640977E+02  0.58081822604E+03  0.66826898533E+03  0.46999998093E+01 0. -1.
       -5    1    3    3    0  502 -0.32470564499E+03  0.61463640977E+02  0.12128857509E+04  0.12571099673E+04  0.46999998093E+01 0.  1.
</event>
<event>
 5   0  0.5113683E-03  0.6993956E+03  0.7818609E-02  0.9718266E-01
        2   -1    0    0  501    0  0.00000000000E+00  0.00000000000E+00  0.16919728637E+03  0.16919728639E+03  0.25500000920E-02 0. -1.
       -2   -1    0    0    0  501  0.00000000000E+00  0.00000000000E+00 -0.72275721986E+03  0.72275721986E+03  0.25500000920E-02 0.  1.
    10030    2    1    2    0    0  0.00000000000E+00  0.00000000000E+00 -0.55355993348E+03  0.89195450625E+03  0.69939562571E+03 0.  0.
        3    1    3    3  502    0  0.22050061066E+03 -0.25474585164E+03 -0.39622923884E+03  0.52010920790E+03  0.10100000352E+00 0. -1.
       -3    1    3    3    0  502 -0.22050061066E+03  0.25474585164E+03 -0.15733069464E+03  0.37184529835E+03  0.10100000352E+00 0.  1.
</event>
<event>
 5   0  0.5113683E-03  0.7002939E+03  0.7818609E-02  0.9716730E-01
        2   -1    0    0  501    0  0.00000000000E+00  0.00000000000E+00  0.44807963498E+03  0.44807963499E+03  0.25500000920E-02 0.  1.
       -2   -1    0    0    0  501  0.00000000000E+00  0.00000000000E+00 -0.27361854593E+03  0.27361854595E+03  0.25500000920E-02 0. -1.
    10030    2    1    2    0    0  0.00000000000E+00  0.00000000000E+00  0.17446108905E+03  0.72169818093E+03  0.70029393312E+03 0.  0.
        3    1    3    3  502    0 -0.23600112815E+02 -0.17288608460E+03  0.40008174024E+03  0.43647677217E+03  0.10100000352E+00 0.  1.
       -3    1    3    3    0  502  0.23600112815E+02  0.17288608460E+03 -0.22562065119E+03  0.28522140876E+03  0.10100000352E+00 0. -1.
</event>
<event>
 5   0  0.5023894E-03  0.6997774E+03  0.7818609E-02  0.9717613E-01
        2   -1    0    0  501    0  0.00000000000E+00  0.00000000000E+00  0.11576226582E+04  0.11576226582E+04  0.25500000920E-02 0.  1.
       -2   -1    0    0    0  501  0.00000000000E+00  0.00000000000E+00 -0.10575304246E+03  0.10575304249E+03  0.25500000920E-02 0. -1.
    10030    2    1    2    0    0  0.00000000000E+00  0.00000000000E+00  0.10518696158E+04  0.12633757007E+04  0.69977744503E+03 0.  0.
        2    1    3    3  502    0 -0.10347687538E+03  0.33050509795E+01  0.11293363543E+04  0.11340718621E+04  0.25500000920E-02 0.  1.
       -2    1    3    3    0  502  0.10347687538E+03 -0.33050509795E+01 -0.77466738564E+02  0.12930383865E+03  0.25500000920E-02 0. -1.
</event>
<event>
 5   0  0.2913582E-03  0.7006327E+03  0.7818609E-02  0.9716151E-01
        1   -1    0    0  501    0  0.00000000000E+00  0.00000000000E+00  0.97903675127E+03  0.97903675129E+03  0.50400001928E-02 0.  1.
       -1   -1    0    0    0  501  0.00000000000E+00  0.00000000000E+00 -0.12534926998E+03  0.12534927008E+03  0.50400001928E-02 0. -1.
    10030    2    1    2    0    0  0.00000000000E+00  0.00000000000E+00  0.85368748130E+03  0.11043860214E+04  0.70063269154E+03 0.  0.
        1    1    3    3  502    0 -0.30645187854E+03  0.68138391770E+02  0.67188116555E+03  0.74160629375E+03  0.50400001928E-02 0.  1.
       -1    1    3    3    0  502  0.30645187854E+03 -0.68138391770E+02  0.18180631575E+03  0.36277972761E+03  0.50400001928E-02 0. -1.
</event>
<event>
 5   0  0.4878235E-03  0.6983494E+03  0.7818609E-02  0.9720059E-01
       -2   -1    0    0    0  501  0.00000000000E+00  0.00000000000E+00  0.86253433117E+02  0.86253433154E+02  0.25500000920E-02 0.  1.
        2   -1    0    0  501    0  0.00000000000E+00  0.00000000000E+00 -0.14135433667E+04  0.14135433667E+04  0.25500000920E-02 0. -1.
    10030    2    1    2    0    0  0.00000000000E+00  0.00000000000E+00 -0.13272899336E+04  0.14997967999E+04  0.69834939184E+03 0.  0.
        4    1    3    3  502    0 -0.33542168155E+03  0.72252040643E+02 -0.80271619678E+03  0.87297363494E+03  0.12699999809E+01 0.  1.
       -4    1    3    3    0  502  0.33542168155E+03 -0.72252040643E+02 -0.52457373684E+03  0.62682316494E+03  0.12699999809E+01 0. -1.
</event>
<event>
 5   0  0.5113683E-03  0.7005854E+03  0.7818609E-02  0.9716232E-01
        2   -1    0    0  501    0  0.00000000000E+00  0.00000000000E+00  0.15473807069E+04  0.15473807069E+04  0.25500000920E-02 0.  1.
       -2   -1    0    0    0  501  0.00000000000E+00  0.00000000000E+00 -0.79298504739E+02  0.79298504780E+02  0.25500000920E-02 0. -1.
    10030    2    1    2    0    0  0.00000000000E+00  0.00000000000E+00  0.14680822021E+04  0.16266792116E+04  0.70058540194E+03 0.  0.
        3    1    3    3  502    0  0.27172166308E+03 -0.19871782812E+03  0.95895895309E+03  0.10163285499E+04  0.10100000352E+00 0.  1.
       -3    1    3    3    0  502 -0.27172166308E+03  0.19871782812E+03  0.50912324903E+03  0.61035066176E+03  0.10100000352E+00 0. -1.
</event>
<event>
 5   0  0.1981750E-03  0.6873229E+03  0.7818609E-02  0.9739161E-01
       -4   -1    0    0    0  501  0.00000000000E+00  0.00000000000E+00  0.19000561051E+03  0.19000985481E+03  0.12699999809E+01 0. -1.
        4   -1    0    0  501    0  0.00000000000E+00  0.00000000000E+00 -0.62156554071E+03  0.62156683816E+03  0.12699999809E+01 0.  1.
    10030    2    1    2    0    0  0.00000000000E+00  0.00000000000E+00 -0.43155993020E+03  0.81157669297E+03  0.68732289007E+03 0.  0.
        5    1    3    3  502    0 -0.14739492725E+03 -0.20310940984E+03  0.61395014153E+02  0.25839917706E+03  0.46999998093E+01 0. -1.
       -5    1    3    3    0  502  0.14739492725E+03  0.20310940984E+03 -0.49295494435E+03  0.55317751591E+03  0.46999998093E+01 0.  1.
</event>
<event>
 5   0  0.2913582E-03  0.7001247E+03  0.7818609E-02  0.9717019E-01
        1   -1    0    0  501    0  0.00000000000E+00  0.00000000000E+00  0.96282072822E+03  0.96282072823E+03  0.50400001928E-02 0. -1.
       -1   -1    0    0    0  501  0.00000000000E+00  0.00000000000E+00 -0.12727568104E+03  0.12727568114E+03  0.50400001928E-02 0.  1.
    10030    2    1    2    0    0  0.00000000000E+00  0.00000000000E+00  0.83554504718E+03  0.10900964094E+04  0.70012474308E+03 0.  0.
        1    1    3    3  502    0 -0.22609972569E+03  0.25642977679E+03  0.30056888688E+03  0.45521310632E+03  0.50400001928E-02 0. -1.
       -1    1    3    3    0  502  0.22609972569E+03 -0.25642977679E+03  0.53497616030E+03  0.63488330305E+03  0.50400001928E-02 0.  1.
</event>
<event>
 5   0  0.5072407E-03  0.6997330E+03  0.7818609E-02  0.9717689E-01
       -2   -1    0    0    0  501  0.00000000000E+00  0.00000000000E+00  0.17461930599E+03  0.17461930601E+03  0.25500000920E-02 0.  1.
        2   -1    0    0  501    0  0.00000000000E+00  0.00000000000E+00 -0.70099100214E+03  0.70099100214E+03  0.25500000920E-02 0. -1.
    10030    2    1    2    0    0  0.00000000000E+00  0.00000000000E+00 -0.52637169615E+03  0.87561030816E+03  0.69973298425E+03 0.  0.
        1    1    3    3  502    0  0.28624324810E+03 -0.15588595155E+03 -0.42231365934E+03  0.53346457601E+03  0.50400001928E-02 0. -1.
       -1    1    3    3    0  502 -0.28624324810E+03  0.15588595155E+03 -0.10405803681E+03  0.34214573214E+03  0.50400001928E-02 0.  1.
</event>
<event>
 5   0  0.2934483E-03  0.7000115E+03  0.7818609E-02  0.9717213E-01
        1   -1    0    0  501    0  0.00000000000E+00  0.00000000000E+00  0.97769033298E+03  0.97769033300E+03  0.50400001928E-02 0.  1.
       -1   -1    0    0    0  501  0.00000000000E+00  0.00000000000E+00 -0.12529940521E+03  0.12529940531E+03  0.50400001928E-02 0. -1.
    10030    2    1    2    0    0  0.00000000000E+00  0.00000000000E+00  0.85239092778E+03  0.11029897383E+04  0.70001147780E+03 0.  0.
        5    1    3    3  502    0  0.19799379322E+03 -0.13168303803E+03  0.21581693481E+02  0.23880917937E+03  0.46999998093E+01 0. -1.
       -5    1    3    3    0  502 -0.19799379322E+03  0.13168303803E+03  0.83080923430E+03  0.86418055894E+03  0.46999998093E+01 0.  1.
</event>
<event>
 5   0  0.2938783E-03  0.6983809E+03  0.7818609E-02  0.9720005E-01
       -1   -1    0    0    0  501  0.00000000000E+00  0.00000000000E+00  0.95244572143E+03  0.95244572145E+03  0.50400001928E-02 0.  1.
        1   -1    0    0  501    0  0.00000000000E+00  0.00000000000E+00 -0.12802197776E+03  0.12802197786E+03  0.50400001928E-02 0. -1.
    10030    2    1    2    0    0  0.00000000000E+00  0.00000000000E+00  0.82442374367E+03  0.10804676993E+04  0.69838094197E+03 0.  0.
        4    1    3    3  502    0  0.26238474633E+03  0.77790448029E+02  0.76681994526E+02  0.28421620309E+03  0.12699999809E+01 0. -1.
       -4    1    3    3    0  502 -0.26238474633E+03 -0.77790448029E+02  0.74774174915E+03  0.79625149622E+03  0.12699999809E+01 0.  1.
</event>
<event>
 5   0  0.5113683E-03  0.7019074E+03  0.7818609E-02  0.9713976E-01
       -2   -1    0    0    0  501  0.00000000000E+00  0.00000000000E+00  0.14236596928E+03  0.14236596930E+03  0.25500000920E-02 0.  1.
        2   -1    0    0  501    0  0.00000000000E+00  0.00000000000E+00 -0.86515398358E+03  0.86515398358E+03  0.25500000920E-02 0. -1.
    10030    2    1    2    0    0  0.00000000000E+00  0.00000000000E+00 -0.72278801430E+03  0.10075199529E+04  0.70190735987E+03 0.  0.
        3    1    3    3  502    0  0.51856846601E+02  0.24899926956E+03 -0.14279521201E+02  0.25474238695E+03  0.10100000352E+00 0.  1.
       -3    1    3    3    0  502 -0.51856846601E+02 -0.24899926956E+03 -0.70850849310E+03  0.75277756594E+03  0.10100000352E+00 0. -1.
</event>
<event>
 5   0  0.2938783E-03  0.7005937E+03  0.7818609E-02  0.9716217E-01
        1   -1    0    0  501    0  0.00000000000E+00  0.00000000000E+00  0.25360200052E+03  0.25360200057E+03  0.50400001928E-02 0.  1.
       -1   -1    0    0    0  501  0.00000000000E+00  0.00000000000E+00 -0.48386009376E+03  0.48386009379E+03  0.50400001928E-02 0. -1.
    10030    2    1    2    0    0  0.00000000000E+00  0.00000000000E+00 -0.23025809324E+03  0.73746209436E+03  0.70059371330E+03 0.  0.
        4    1    3    3  502    0 -0.16662900757E+02 -0.26605938041E+03 -0.35433440780E+03  0.44341823555E+03  0.12699999809E+01 0. -1.
       -4    1    3    3    0  502  0.16662900757E+02  0.26605938041E+03  0.12407631456E+03  0.29404385881E+03  0.12699999809E+01 0.  1.
</event>
<event>
 5   0  0.2913582E-03  0.7022365E+03  0.7818609E-02  0.9713415E-01
       -1   -1    0    0    0  501  0.00000000000E+00  0.00000000000E+00  0.54142711209E+03  0.54142711212E+03  0.50400001928E-02 0. -1.
        1   -1    0    0  501    0  0.00000000000E+00  0.00000000000E+00 -0.22770196284E+03  0.22770196289E+03  0.50400001928E-02 0.  1.
    10030    2    1    2    0    0  0.00000000000E+00  0.00000000000E+00  0.31372514926E+03  0.76912907501E+03  0.70223647352E+03 0.  0.
        1    1    3    3  502    0 -0.70897344664E+02 -0.23221803825E+03 -0.12093637959E+03  0.27125128332E+03  0.50400001928E-02 0.  1.
       -1    1    3    3    0  502  0.70897344664E+02  0.23221803825E+03  0.43466152885E+03  0.49787779169E+03  0.50400001928E-02 0. -1.
</event>
<event>
 5   0  0.3013140E-03  0.6968857E+03  0.7818609E-02  0.9722573E-01
        1   -1    0    0  501    0  0.00000000000E+00  0.00000000000E+00  0.19436028441E+04  0.19436028441E+04  0.50400001928E-02 0.  1.
       -1   -1    0    0    0  501  0.00000000000E+00  0.00000000000E+00 -0.62467715981E+02  0.62467716184E+02  0.50400001928E-02 0. -1.
    10030    2    1    2    0    0  0.00000000000E+00  0.00000000000E+00  0.18811351281E+04  0.20060705603E+04  0.69688573139E+03 0.  0.
        2    1    3    3  502    0 -0.31015186993E+03 -0.22007908807E+02  0.48784625790E+03  0.57850886063E+03  0.25500000920E-02 0. -1.
       -2    1    3    3    0  502  0.31015186993E+03  0.22007908807E+02  0.13932888702E+04  0.14275616997E+04  0.25500000920E-02 0.  1.
</event>
<event>
 5   0  0.5072407E-03  0.6991899E+03  0.7818609E-02  0.9718619E-01
        2   -1    0    0  501    0  0.00000000000E+00  0.00000000000E+00  0.10730962101E+04  0.10730962101E+04  0.25500000920E-02 0. -1.
       -2   -1    0    0    0  501  0.00000000000E+00  0.00000000000E+00 -0.11389158354E+03  0.11389158357E+03  0.25500000920E-02 0.  1.
    10030    2    1    2    0    0  0.00000000000E+00  0.00000000000E+00  0.95920462658E+03  0.11869877937E+04  0.69918989319E+03 0.  0.
        1    1    3    3  502    0  0.78976959030E+02 -0.24311987551E+03  0.74746542667E+02  0.26633002007E+03  0.50400001928E-02 0. -1.
       -1    1    3    3    0  502 -0.78976959030E+02  0.24311987551E+03  0.88445808391E+03  0.92065777363E+03  0.50400001928E-02 0.  1.
</event>
<event>
 5   0  0.2934483E-03  0.7006162E+03  0.7818609E-02  0.9716179E-01
        1   -1    0    0  501    0  0.00000000000E+00  0.00000000000E+00  0.96969608618E+03  0.96969608619E+03  0.50400001928E-02 0.  1.
       -1   -1    0    0    0  501  0.00000000000E+00  0.00000000000E+00 -0.12655074486E+03  0.12655074496E+03  0.50400001928E-02 0. -1.
    10030    2    1    2    0    0  0.00000000000E+00  0.00000000000E+00  0.84314534132E+03  0.10962468312E+04  0.70061619182E+03 0.  0.
        5    1    3    3  502    0  0.23829316470E+03  0.37477136780E+02  0.81897148514E+03  0.85377078400E+03  0.46999998093E+01 0.  1.
       -5    1    3    3    0  502 -0.23829316470E+03 -0.37477136780E+02  0.24173856172E+02  0.24247604716E+03  0.46999998093E+01 0. -1.
</event>
<event>
 5   0  0.5113683E-03  0.7009895E+03  0.7818609E-02  0.9715542E-01
        2   -1    0    0  501    0  0.00000000000E+00  0.00000000000E+00  0.34663781973E+03  0.34663781974E+03  0.25500000920E-02 0. -1.
       -2   -1    0    0    0  501  0.00000000000E+00  0.00000000000E+00 -0.35439456031E+03  0.35439456032E+03  0.25500000920E-02 0.  1.
    10030    2    1    2    0    0  0.00000000000E+00  0.00000000000E+00 -0.77567405779E+01  0.70103238006E+03  0.70098946559E+03 0.  0.
        3    1    3    3  502    0 -0.36686569694E+02  0.10017662487E+03  0.33000624323E+03  0.34682184380E+03  0.10100000352E+00 0. -1.
       -3    1    3    3    0  502  0.36686569694E+02 -0.10017662487E+03 -0.33776298381E+03  0.35421053626E+03  0.10100000352E+00 0.  1.
</event>
<event>
 5   0  0.5023894E-03  0.6982295E+03  0.7818609E-02  0.9720265E-01
        2   -1    0    0  501    0  0.00000000000E+00  0.00000000000E+00  0.20956187412E+04  0.20956187412E+04  0.25500000920E-02 0. -1.
       -2   -1    0    0    0  501  0.00000000000E+00  0.00000000000E+00 -0.58159960935E+02  0.58159960991E+02  0.25500000920E-02 0.  1.
    10030    2    1    2    0    0  0.00000000000E+00  0.00000000000E+00  0.20374587803E+04  0.21537787022E+04  0.69822948717E+03 0.  0.
        2    1    3    3  502    0  0.34538352914E+03  0.10192127505E+02  0.11725729849E+04  0.12224242580E+04  0.25500000920E-02 0. -1.
       -2    1    3    3    0  502 -0.34538352914E+03 -0.10192127505E+02  0.86488579543E+03  0.93135444424E+03  0.25500000920E-02 0.  1.
</event>
<event>
 5   0  0.4878235E-03  0.6998209E+03  0.7818609E-02  0.9717538E-01
        2   -1    0    0  501    0  0.00000000000E+00  0.00000000000E+00  0.25132884661E+03  0.25132884662E+03  0.25500000920E-02 0. -1.
       -2   -1    0    0    0  501  0.00000000000E+00  0.00000000000E+00 -0.48715989248E+03  0.48715989248E+03  0.25500000920E-02 0.  1.
    10030    2    1    2    0    0  0.00000000000E+00  0.00000000000E+00 -0.23583104586E+03  0.73848873911E+03  0.69982093109E+03 0.  0.
        4    1    3    3  502    0  0.23379312479E+03  0.23673019979E+03 -0.23223078108E+03  0.40575012172E+03  0.12699999809E+01 0.  1.
       -4    1    3    3    0  502 -0.23379312479E+03 -0.23673019979E+03 -0.36002647822E+01  0.33273861739E+03  0.12699999809E+01 0. -1.
</event>
<event>
 5   0  0.5113683E-03  0.6986472E+03  0.7818609E-02  0.9719549E-01
       -2   -1    0    0    0  501  0.00000000000E+00  0.00000000000E+00  0.22665306905E+03  0.22665306907E+03  0.25500000920E-02 0.  1.
        2   -1    0    0  501    0  0.00000000000E+00  0.00000000000E+00 -0.53838654986E+03  0.53838654986E+03  0.25500000920E-02 0. -1.
    10030    2    1    2    0    0  0.00000000000E+00  0.00000000000E+00 -0.31173348080E+03  0.76503961893E+03  0.69864716093E+03 0.  0.
        3    1    3    3  502    0 -0.10507638984E+03  0.33176365495E+03 -0.18905867416E+03  0.39604464764E+03  0.10100000352E+00 0. -1.
       -3    1    3    3    0  502  0.10507638984E+03 -0.33176365495E+03 -0.12267480665E+03  0.36899497129E+03  0.10100000352E+00 0.  1.
</event>
<event>
 5   0  0.2913582E-03  0.6985780E+03  0.7818609E-02  0.9719667E-01
        1   -1    0    0  501    0  0.00000000000E+00  0.00000000000E+00  0.18152192231E+04  0.18152192231E+04  0.50400001928E-02 0.  1.
       -1   -1    0    0    0  501  0.00000000000E+00  0.00000000000E+00 -0.67211066266E+02  0.67211066455E+02  0.50400001928E-02 0. -1.
    10030    2    1    2    0    0  0.00000000000E+00  0.00000000000E+00  0.17480081568E+04  0.18824302896E+04  0.69857804052E+03 0.  0.
        1    1    3    3  502    0  0.28113876193E+03  0.60297811695E+02  0.14083898036E+04  0.14374410140E+04  0.50400001928E-02 0.  1.
       -1    1    3    3    0  502 -0.28113876193E+03 -0.60297811695E+02  0.33961835318E+03  0.44498927560E+03  0.50400001928E-02 0. -1.
</event>
<event>
 5   0  0.2934483E-03  0.7011889E+03  0.7818609E-02  0.9715201E-01
       -1   -1    0    0    0  501  0.00000000000E+00  0.00000000000E+00  0.62439862708E+03  0.62439862710E+03  0.50400001928E-02 0.  1.
        1   -1    0    0  501    0  0.00000000000E+00  0.00000000000E+00 -0.19685574445E+03  0.19685574452E+03  0.50400001928E-02 0. -1.
    10030    2    1    2    0    0  0.00000000000E+00  0.00000000000E+00  0.42754288263E+03  0.82125437162E+03  0.70118886644E+03 0.  0.
        5    1    3    3  502    0 -0.27884004812E+03 -0.66953236964E+02  0.44994192155E+03  0.53357692148E+03  0.46999998093E+01 0.  1.
       -5    1    3    3    0  502  0.27884004812E+03  0.66953236964E+02 -0.22399038915E+02  0.28767745014E+03  0.46999998093E+01 0. -1.
</event>
<event>
 5   0  0.2934483E-03  0.6982687E+03  0.7818609E-02  0.9720198E-01
       -1   -1    0    0    0  501  0.00000000000E+00  0.00000000000E+00  0.12392478220E+04  0.12392478220E+04  0.50400001928E-02 0. -1.
        1   -1    0    0  501    0  0.00000000000E+00  0.00000000000E+00 -0.98361909086E+02  0.98361909215E+02  0.50400001928E-02 0.  1.
    10030    2    1    2    0    0  0.00000000000E+00  0.00000000000E+00  0.11408859129E+04  0.13376097313E+04  0.69826866376E+03 0.  0.
        5    1    3    3  502    0  0.28790915897E+03  0.10941997695E+03  0.25562803929E+03  0.40029014433E+03  0.46999998093E+01 0.  1.
       -5    1    3    3    0  502 -0.28790915897E+03 -0.10941997695E+03  0.88525787365E+03  0.93731958692E+03  0.46999998093E+01 0. -1.
</event>
<event>
 5   0  0.4878235E-03  0.6995599E+03  0.7818609E-02  0.9717985E-01
        2   -1    0    0  501    0  0.00000000000E+00  0.00000000000E+00  0.11171020453E+04  0.11171020453E+04  0.25500000920E-02 0.  1.
       -2   -1    0    0    0  501  0.00000000000E+00  0.00000000000E+00 -0.10952089611E+03  0.10952089614E+03  0.25500000920E-02 0. -1.
    10030    2    1    2    0    0  0.00000000000E+00  0.00000000000E+00  0.10075811492E+04  0.12266229414E+04  0.69955991041E+03 0.  0.
        4    1    3    3  502    0 -0.31851019823E+03 -0.11823654679E+02  0.75640405659E+03  0.82081499433E+03  0.12699999809E+01 0.  1.
       -4    1    3    3    0  502  0.31851019823E+03  0.11823654679E+02  0.25117709259E+03  0.40580794710E+03  0.12699999809E+01 0. -1.
</event>
<event>
 5   0  0.5023894E-03  0.7006889E+03  0.7818609E-02  0.9716055E-01
       -2   -1    0    0    0  501  0.00000000000E+00  0.00000000000E+00  0.21624879481E+03  0.21624879483E+03  0.25500000920E-02 0.  1.
        2   -1    0    0  501    0  0.00000000000E+00  0.00000000000E+00 -0.56759267253E+03  0.56759267254E+03  0.25500000920E-02 0. -1.
    10030    2    1    2    0    0  0.00000000000E+00  0.00000000000E+00 -0.35134387772E+03  0.78384146736E+03  0.70068889355E+03 0.  0.
        2    1    3    3  502    0 -0.23760582375E+03 -0.23623404393E+03 -0.61161273819E+02  0.34059323600E+03  0.25500000920E-02 0. -1.
       -2    1    3    3    0  502  0.23760582375E+03  0.23623404393E+03 -0.29018260390E+03  0.44324823136E+03  0.25500000920E-02 0.  1.
</event>
<event>
 5   0  0.3013140E-03  0.7006795E+03  0.7818609E-02  0.9716071E-01
        1   -1    0    0  501    0  0.00000000000E+00  0.00000000000E+00  0.77173620937E+03  0.77173620939E+03  0.50400001928E-02 0.  1.
       -1   -1    0    0    0  501  0.00000000000E+00  0.00000000000E+00 -0.15904131058E+03  0.15904131066E+03  0.50400001928E-02 0. -1.
    10030    2    1    2    0    0  0.00000000000E+00  0.00000000000E+00  0.61269489879E+03  0.93077752004E+03  0.70067949364E+03 0.  0.
        2    1    3    3  502    0 -0.32751531659E+03  0.20975921156E+02  0.14348159511E+03  0.35818045733E+03  0.25500000920E-02 0. -1.
       -2    1    3    3    0  502  0.32751531659E+03 -0.20975921156E+02  0.46921330368E+03  0.57259706272E+03  0.25500000920E-02 0.  1.
</event>
<event>
 5   0  0.1981750E-03  0.7011596E+03  0.7818609E-02  0.9715251E-01
       -4   -1    0    0    0  501  0.00000000000E+00  0.00000000000E+00  0.40222109295E+03  0.40222309794E+03  0.12699999809E+01 0.  1.
        4   -1    0    0  501    0  0.00000000000E+00  0.00000000000E+00 -0.30556466555E+03  0.30556730475E+03  0.12699999809E+01 0. -1.
    10030    2    1    2    0    0  0.00000000000E+00  0.00000000000E+00  0.96656427399E+02  0.70779040270E+03  0.70115960322E+03 0.  0.
        1    1    3    3  502    0  0.61860379333E+02  0.26429412545E+03  0.27230053257E+03  0.38448104158E+03  0.50400001928E-02 0.  1.
       -1    1    3    3    0  502 -0.61860379333E+02 -0.26429412545E+03 -0.17564410517E+03  0.32330936111E+03  0.50400001928E-02 0. -1.
</event>
<event>
 5   0  0.5072407E-03  0.7004893E+03  0.7818609E-02  0.9716396E-01
       -2   -1    0    0    0  501  0.00000000000E+00  0.00000000000E+00  0.12992304009E+03  0.12992304012E+03  0.25500000920E-02 0.  1.
        2   -1    0    0  501    0  0.00000000000E+00  0.00000000000E+00 -0.94418435794E+03  0.94418435794E+03  0.25500000920E-02 0. -1.
    10030    2    1    2    0    0  0.00000000000E+00  0.00000000000E+00 -0.81426131785E+03  0.10741073981E+04  0.70048926389E+03 0.  0.
        1    1    3    3  502    0  0.13588549388E+03  0.26549026183E+03 -0.68870866999E+03  0.75051287712E+03  0.50400001928E-02 0. -1.
       -1    1    3    3    0  502 -0.13588549388E+03 -0.26549026183E+03 -0.12555264786E+03  0.32359452094E+03  0.50400001928E-02 0.  1.
</event>
<event>
 5   0  0.2938783E-03  0.6992609E+03  0.7818609E-02  0.9718497E-01
        1   -1    0    0  501    0  0.00000000000E+00  0.00000000000E+00  0.35074487435E+03  0.35074487439E+03  0.50400001928E-02 0. -1.
       -1   -1    0    0    0  501  0.00000000000E+00  0.00000000000E+00 -0.34851956270E+03  0.34851956274E+03  0.50400001928E-02 0.  1.
    10030    2    1    2    0    0  0.00000000000E+00  0.00000000000E+00  0.22253116481E+01  0.69926443713E+03  0.69926089625E+03 0.  0.
        4    1    3    3  502    0 -0.30379830233E+03  0.15744260896E+03  0.72934003496E+02  0.34986078000E+03  0.12699999809E+01 0. -1.
       -4    1    3    3    0  502  0.30379830233E+03 -0.15744260896E+03 -0.70708691848E+02  0.34940365713E+03  0.12699999809E+01 0.  1.
</event>
<event>
 5   0  0.2934483E-03  0.7002340E+03  0.7818609E-02  0.9716832E-01
        1   -1    0    0  501    0  0.00000000000E+00  0.00000000000E+00  0.42819153917E+03  0.42819153920E+03  0.50400001928E-02 0. -1.
       -1   -1    0    0    0  501  0.00000000000E+00  0.00000000000E+00 -0.28627826119E+03  0.28627826123E+03  0.50400001928E-02 0.  1.
    10030    2    1    2    0    0  0.00000000000E+00  0.00000000000E+00  0.14191327798E+03  0.71446980043E+03  0.70023404463E+03 0.  0.
        5    1    3    3  502    0 -0.20178312908E+03  0.28584073463E+03  0.58949537152E+02  0.35484996081E+03  0.46999998093E+01 0.  1.
       -5    1    3    3    0  502  0.20178312908E+03 -0.28584073463E+03  0.82963740830E+02  0.35961983962E+03  0.46999998093E+01 0. -1.
</event>
<event>
 5   0  0.2913582E-03  0.7025137E+03  0.7818609E-02  0.9712943E-01
       -1   -1    0    0    0  501  0.00000000000E+00  0.00000000000E+00  0.17154258260E+03  0.17154258267E+03  0.50400001928E-02 0.  1.
        1   -1    0    0  501    0  0.00000000000E+00  0.00000000000E+00 -0.71924626417E+03  0.71924626419E+03  0.50400001928E-02 0. -1.
    10030    2    1    2    0    0  0.00000000000E+00  0.00000000000E+00 -0.54770368157E+03  0.89078884686E+03  0.70251366313E+03 0.  0.
        1    1    3    3  502    0 -0.21230982532E+03 -0.26624876071E+03 -0.38305839166E+03  0.51254033593E+03  0.50400001928E-02 0.  1.
       -1    1    3    3    0  502  0.21230982532E+03  0.26624876071E+03 -0.16464528991E+03  0.37824851093E+03  0.50400001928E-02 0. -1.
</event>
<event>
 5   0  0.2937617E-03  0.7013456E+03  0.7818609E-02  0.9714934E-01
       -1   -1    0    0    0  501  0.00000000000E+00  0.00000000000E+00  0.11651061280E+04  0.11651061280E+04  0.50400001928E-02 0.  1.
        1   -1    0    0  501    0  0.00000000000E+00  0.00000000000E+00 -0.10554524931E+03  0.10554524943E+03  0.50400001928E-02 0. -1.
    10030    2    1    2    0    0  0.00000000000E+00  0.00000000000E+00  0.10595608787E+04  0.12706513775E+04  0.70134561193E+03 0.  0.
        3    1    3    3  502    0  0.25169848806E+03  0.23621529753E+03  0.41778055749E+03  0.54193209916E+03  0.10100000352E+00 0.  1.
       -3    1    3    3    0  502 -0.25169848806E+03 -0.23621529753E+03  0.64178032122E+03  0.72871927831E+03  0.10100000352E+00 0. -1.
</event>
<event>
 5   0  0.5113683E-03  0.6993118E+03  0.7818609E-02  0.9718410E-01
        2   -1    0    0  501    0  0.00000000000E+00  0.00000000000E+00  0.14558569023E+04  0.14558569023E+04  0.25500000920E-02 0. -1.
       -2   -1    0    0    0  501  0.00000000000E+00  0.00000000000E+00 -0.83977519924E+02  0.83977519962E+02  0.25500000920E-02 0.  1.
    10030    2    1    2    0    0  0.00000000000E+00  0.00000000000E+00  0.13718793824E+04  0.15398344222E+04  0.69931181042E+03 0.  0.
        3    1    3    3  502    0 -0.12749800934E+03  0.30668847629E+03  0.92660226799E+03  0.98432989242E+03  0.10100000352E+00 0. -1.
       -3    1    3    3    0  502  0.12749800934E+03 -0.30668847629E+03  0.44527711437E+03  0.55550452982E+03  0.10100000352E+00 0.  1.
</event>
<event>
 5   0  0.5072407E-03  0.7004588E+03  0.7818609E-02  0.9716448E-01
       -2   -1    0    0    0  501  0.00000000000E+00  0.00000000000E+00  0.83072505560E+02  0.83072505600E+02  0.25500000920E-02 0.  1.
        2   -1    0    0  501    0  0.00000000000E+00  0.00000000000E+00 -0.14765489190E+04  0.14765489190E+04  0.25500000920E-02 0. -1.
    10030    2    1    2    0    0  0.00000000000E+00  0.00000000000E+00 -0.13934764135E+04  0.15596214246E+04  0.70045875915E+03 0.  0.
        1    1    3    3  502    0  0.10629128678E+03  0.82485937528E+02 -0.14167125537E+04  0.14230868657E+04  0.50400001928E-02 0. -1.
       -1    1    3    3    0  502 -0.10629128678E+03 -0.82485937528E+02  0.23236140243E+02  0.13653455890E+03  0.50400001928E-02 0.  1.
</event>
<event>
 5   0  0.2934483E-03  0.7001584E+03  0.7818609E-02  0.9716961E-01
        1   -1    0    0  501    0  0.00000000000E+00  0.00000000000E+00  0.96161441880E+03  0.96161441881E+03  0.50400001928E-02 0.  1.
       -1   -1    0    0    0  501  0.00000000000E+00  0.00000000000E+00 -0.12744758689E+03  0.12744758699E+03  0.50400001928E-02 0. -1.
    10030    2    1    2    0    0  0.00000000000E+00  0.00000000000E+00  0.83416683191E+03  0.10890620058E+04  0.70015837424E+03 0.  0.
        5    1    3    3  502    0  0.11671443300E+03  0.31789642026E+03  0.27924418020E+03  0.43895306704E+03  0.46999998093E+01 0.  1.
       -5    1    3    3    0  502 -0.11671443300E+03 -0.31789642026E+03  0.55492265170E+03  0.65010893876E+03  0.46999998093E+01 0. -1.
</event>
<event>
 5   0  0.4878235E-03  0.7019576E+03  0.7818609E-02  0.9713890E-01
        2   -1    0    0  501    0  0.00000000000E+00  0.00000000000E+00  0.19940484533E+04  0.19940484533E+04  0.25500000920E-02 0. -1.
       -2   -1    0    0    0  501  0.00000000000E+00  0.00000000000E+00 -0.61776885698E+02  0.61776885751E+02  0.25500000920E-02 0.  1.
    10030    2    1    2    0    0  0.00000000000E+00  0.00000000000E+00  0.19322715676E+04  0.20558253391E+04  0.70195755836E+03 0.  0.
        4    1    3    3  502    0  0.30523326146E+03  0.13923504888E+03  0.66417032515E+03  0.74409513938E+03  0.12699999809E+01 0.  1.
       -4    1    3    3    0  502 -0.30523326146E+03 -0.13923504888E+03  0.12681012425E+04  0.13117301997E+04  0.12699999809E+01 0. -1.
</event>
<event>
 5   0  0.3013140E-03  0.6998913E+03  0.7818609E-02  0.9717418E-01
        1   -1    0    0  501    0  0.00000000000E+00  0.00000000000E+00  0.51318980640E+03  0.51318980642E+03  0.50400001928E-02 0. -1.
       -1   -1    0    0    0  501  0.00000000000E+00  0.00000000000E+00 -0.23862898838E+03  0.23862898843E+03  0.50400001928E-02 0.  1.
    10030    2    1    2    0    0  0.00000000000E+00  0.00000000000E+00  0.27456081802E+03  0.75181879485E+03  0.69989131835E+03 0.  0.
        2    1    3    3  502    0 -0.16712117550E+03 -0.13933645737E+03  0.43169144478E+03  0.48342697396E+03  0.25500000920E-02 0. -1.
       -2    1    3    3    0  502  0.16712117550E+03  0.13933645737E+03 -0.15713062675E+03  0.26839182089E+03  0.25500000920E-02 0.  1.
</event>
<event>
 5   0  0.5076796E-03  0.7006884E+03  0.7818609E-02  0.9716056E-01
        2   -1    0    0  501    0  0.00000000000E+00  0.00000000000E+00  0.93669743014E+03  0.93669743014E+03  0.25500000920E-02 0. -1.
       -2   -1    0    0    0  501  0.00000000000E+00  0.00000000000E+00 -0.13103596164E+03  0.13103596167E+03  0.25500000920E-02 0.  1.
    10030    2    1    2    0    0  0.00000000000E+00  0.00000000000E+00  0.80566146849E+03  0.10677333918E+04  0.70068837165E+03 0.  0.
        5    1    3    3  502    0 -0.29327226172E+03 -0.13312633442E+03  0.61280897984E+03  0.69230641784E+03  0.46999998093E+01 0. -1.
       -5    1    3    3    0  502  0.29327226172E+03  0.13312633442E+03  0.19285248865E+03  0.37542697397E+03  0.46999998093E+01 0.  1.
</event>
<event>
 5   0  0.5076796E-03  0.7035355E+03  0.7818609E-02  0.9711205E-01
       -2   -1    0    0    0  501  0.00000000000E+00  0.00000000000E+00  0.14731199890E+03  0.14731199892E+03  0.25500000920E-02 0. -1.
        2   -1    0    0  501    0  0.00000000000E+00  0.00000000000E+00 -0.83998953286E+03  0.83998953287E+03  0.25500000920E-02 0.  1.
    10030    2    1    2    0    0  0.00000000000E+00  0.00000000000E+00 -0.69267753396E+03  0.98730153178E+03  0.70353546364E+03 0.  0.
        5    1    3    3  502    0  0.27574715303E+03 -0.77752228663E+02 -0.59986145995E+02  0.29274960149E+03  0.46999998093E+01 0. -1.
       -5    1    3    3    0  502 -0.27574715303E+03  0.77752228663E+02 -0.63269138797E+03  0.69455193029E+03  0.46999998093E+01 0.  1.
</event>
<event>
 5   0  0.5113683E-03  0.6988190E+03  0.7818609E-02  0.9719254E-01
        2   -1    0    0  501    0  0.00000000000E+00  0.00000000000E+00  0.90330322252E+03  0.90330322253E+03  0.25500000920E-02 0. -1.
       -2   -1    0    0    0  501  0.00000000000E+00  0.00000000000E+00 -0.13515616463E+03  0.13515616466E+03  0.25500000920E-02 0.  1.
    10030    2    1    2    0    0  0.00000000000E+00  0.00000000000E+00  0.76814705789E+03  0.10384593872E+04  0.69881900109E+03 0.  0.
        3    1    3    3  502    0 -0.37755435437E+01 -0.34383900185E+02  0.90075259420E+03  0.90141652607E+03  0.10100000352E+00 0. -1.
       -3    1    3    3    0  502  0.37755435437E+01  0.34383900185E+02 -0.13260553631E+03  0.13704286111E+03  0.10100000352E+00 0.  1.
</event>
<event>
 5   0  0.5076796E-03  0.6997312E+03  0.7818609E-02  0.9717692E-01
       -2   -1    0    0    0  501  0.00000000000E+00  0.00000000000E+00  0.40643942025E+03  0.40643942026E+03  0.25500000920E-02 0.  1.
        2   -1    0    0  501    0  0.00000000000E+00  0.00000000000E+00 -0.30116646827E+03  0.30116646828E+03  0.25500000920E-02 0. -1.
    10030    2    1    2    0    0  0.00000000000E+00  0.00000000000E+00  0.10527295198E+03  0.70760588854E+03  0.69973116200E+03 0.  0.
        5    1    3    3  502    0 -0.21685365202E+03 -0.21336493991E+03  0.22730474095E+03  0.37978894038E+03  0.46999998093E+01 0.  1.
       -5    1    3    3    0  502  0.21685365202E+03  0.21336493991E+03 -0.12203178897E+03  0.32781694815E+03  0.46999998093E+01 0. -1.
</event>
<event>
 5   0  0.5023894E-03  0.7002403E+03  0.7818609E-02  0.9716821E-01
       -2   -1    0    0    0  501  0.00000000000E+00  0.00000000000E+00  0.37362576824E+03  0.37362576825E+03  0.25500000920E-02 0.  1.
        2   -1    0    0  501    0  0.00000000000E+00  0.00000000000E+00 -0.32809328526E+03  0.32809328527E+03  0.25500000920E-02 0. -1.
    10030    2    1    2    0    0  0.00000000000E+00  0.00000000000E+00  0.45532482981E+02  0.70171905352E+03  0.70024026096E+03 0.  0.
        2    1    3    3  502    0 -0.32605556418E+03  0.50269055248E+02 -0.94719979610E+02  0.34323619184E+03  0.25500000920E-02 0. -1.
       -2    1    3    3    0  502  0.32605556418E+03 -0.50269055248E+02  0.14025246259E+03  0.35848286168E+03  0.25500000920E-02 0.  1.
</event>
<event>
 5   0  0.5076796E-03  0.6988873E+03  0.7818609E-02  0.9719137E-01
        2   -1    0    0  501    0  0.00000000000E+00  0.00000000000E+00  0.18811312024E+04  0.18811312024E+04  0.25500000920E-02 0. -1.
       -2   -1    0    0    0  501  0.00000000000E+00  0.00000000000E+00 -0.64913533193E+02  0.64913533243E+02  0.25500000920E-02 0.  1.
    10030    2    1    2    0    0  0.00000000000E+00  0.00000000000E+00  0.18162176692E+04  0.19460447357E+04  0.69888732368E+03 0.  0.
        5    1    3    3  502    0  0.30128739880E+03  0.15554773394E+03  0.67316010263E+03  0.75374784111E+03  0.46999998093E+01 0.  1.
       -5    1    3    3    0  502 -0.30128739880E+03 -0.15554773394E+03  0.11430575666E+04  0.11922968946E+04  0.46999998093E+01 0. -1.
</event>
<event>
 5   0  0.5023894E-03  0.6989890E+03  0.7818609E-02  0.9718963E-01
       -2   -1    0    0    0  501  0.00000000000E+00  0.00000000000E+00  0.33562347849E+03  0.33562347850E+03  0.25500000920E-02 0. -1.
        2   -1    0    0  501    0  0.00000000000E+00  0.00000000000E+00 -0.36393877866E+03  0.36393877867E+03  0.25500000920E-02 0.  1.
    10030    2    1    2    0    0  0.00000000000E+00  0.00000000000E+00 -0.28315300169E+02  0.69956225717E+03  0.69898898091E+03 0.  0.
        2    1    3    3  502    0  0.11892011939E+02 -0.34011999242E+03 -0.93742486213E+02  0.35300238373E+03  0.25500000920E-02 0.  1.
       -2    1    3    3    0  502 -0.11892011939E+02  0.34011999242E+03  0.65427186044E+02  0.34655987343E+03  0.25500000920E-02 0. -1.
</event>
<event>
 5   0  0.4878235E-03  0.6999257E+03  0.7818609E-02  0.9717359E-01
       -2   -1    0    0    0  501  0.00000000000E+00  0.00000000000E+00  0.36532451873E+03  0.36532451874E+03  0.25500000920E-02 0. -1.
        2   -1    0    0  501    0  0.00000000000E+00  0.00000000000E+00 -0.33524717233E+03  0.33524717234E+03  0.25500000920E-02 0.  1.
    10030    2    1    2    0    0  0.00000000000E+00  0.00000000000E+00  0.30077346393E+02  0.70057169108E+03  0.69992574433E+03 0.  0.
        4    1    3    3  502    0 -0.99406171228E+02  0.28249975703E+03  0.19627123080E+03  0.35806662584E+03  0.12699999809E+01 0.  1.
       -4    1    3    3    0  502  0.99406171228E+02 -0.28249975703E+03 -0.16619388441E+03  0.34250506524E+03  0.12699999809E+01 0. -1.
</event>
<event>
 5   0  0.5072407E-03  0.7001676E+03  0.7818609E-02  0.9716946E-01
        2   -1    0    0  501    0  0.00000000000E+00  0.00000000000E+00  0.74259990198E+03  0.74259990198E+03  0.25500000920E-02 0. -1.
       -2   -1    0    0    0  501  0.00000000000E+00  0.00000000000E+00 -0.16503996190E+03  0.16503996192E+03  0.25500000920E-02 0.  1.
    10030    2    1    2    0    0  0.00000000000E+00  0.00000000000E+00  0.57755994007E+03  0.90763986391E+03  0.70016757864E+03 0.  0.
        1    1    3    3  502    0 -0.30585825641E+03  0.60485701265E+02  0.49517915066E+03  0.58515825581E+03  0.50400001928E-02 0.  1.
       -1    1    3    3    0  502  0.30585825641E+03 -0.60485701265E+02  0.82380789410E+02  0.32248160809E+03  0.50400001928E-02 0. -1.
</event>
<event>
 5   0  0.2913582E-03  0.7008250E+03  0.7818609E-02  0.9715822E-01
       -1   -1    0    0    0  501  0.00000000000E+00  0.00000000000E+00  0.19192142784E+04  0.19192142784E+04  0.50400001928E-02 0.  1.
        1   -1    0    0  501    0  0.00000000000E+00  0.00000000000E+00 -0.63978738450E+02  0.63978738648E+02  0.50400001928E-02 0. -1.
    10030    2    1    2    0    0  0.00000000000E+00  0.00000000000E+00  0.18552355400E+04  0.19831930171E+04  0.70082496689E+03 0.  0.
        1    1    3    3  502    0  0.29547555494E+03 -0.46595821900E+02  0.14440999542E+04  0.14747547769E+04  0.50400001928E-02 0.  1.
       -1    1    3    3    0  502 -0.29547555494E+03  0.46595821900E+02  0.41113558580E+03  0.50843824022E+03  0.50400001928E-02 0. -1.
</event>
<event>
 5   0  0.2934483E-03  0.7002546E+03  0.7818609E-02  0.9716797E-01
        1   -1    0    0  501    0  0.00000000000E+00  0.00000000000E+00  0.11225058857E+04  0.11225058857E+04  0.50400001928E-02 0. -1.
       -1   -1    0    0    0  501  0.00000000000E+00  0.00000000000E+00 -0.10921024041E+03  0.10921024052E+03  0.50400001928E-02 0.  1.
    10030    2    1    2    0    0  0.00000000000E+00  0.00000000000E+00  0.10132956453E+04  0.12317161262E+04  0.70025463288E+03 0.  0.
        5    1    3    3  502    0 -0.84537216723E+02  0.20041765579E+03  0.24125594469E+02  0.21890160363E+03  0.46999998093E+01 0.  1.
       -5    1    3    3    0  502  0.84537216723E+02 -0.20041765579E+03  0.98917005084E+03  0.10128145226E+04  0.46999998093E+01 0. -1.
</event>
<event>
 5   0  0.3013140E-03  0.7002378E+03  0.7818609E-02  0.9716826E-01
       -1   -1    0    0    0  501  0.00000000000E+00  0.00000000000E+00  0.31517201152E+03  0.31517201156E+03  0.50400001928E-02 0.  1.
        1   -1    0    0  501    0  0.00000000000E+00  0.00000000000E+00 -0.38894074656E+03  0.38894074659E+03  0.50400001928E-02 0. -1.
    10030    2    1    2    0    0  0.00000000000E+00  0.00000000000E+00 -0.73768735043E+02  0.70411275815E+03  0.70023778098E+03 0.  0.
        2    1    3    3  502    0  0.22105484603E+03 -0.49603532487E+02 -0.30530253714E+03  0.38017810902E+03  0.25500000920E-02 0. -1.
       -2    1    3    3    0  502 -0.22105484603E+03  0.49603532487E+02  0.23153380210E+03  0.32393464913E+03  0.25500000920E-02 0.  1.
</event>
<event>
 5   0  0.2934483E-03  0.7003800E+03  0.7818609E-02  0.9716583E-01
       -1   -1    0    0    0  501  0.00000000000E+00  0.00000000000E+00  0.20797411271E+03  0.20797411277E+03  0.50400001928E-02 0.  1.
        1   -1    0    0  501    0  0.00000000000E+00  0.00000000000E+00 -0.58965524123E+03  0.58965524125E+03  0.50400001928E-02 0. -1.
    10030    2    1    2    0    0  0.00000000000E+00  0.00000000000E+00 -0.38168112852E+03  0.79762935402E+03  0.70037997010E+03 0.  0.
        5    1    3    3  502    0 -0.30130401461E+03 -0.16205082726E+03 -0.10587305409E+03  0.35815607410E+03  0.46999998093E+01 0.  1.
       -5    1    3    3    0  502  0.30130401461E+03  0.16205082726E+03 -0.27580807444E+03  0.43947327992E+03  0.46999998093E+01 0. -1.
</event>
<event>
 5   0  0.5072407E-03  0.6930081E+03  0.7818609E-02  0.9729265E-01
       -2   -1    0    0    0  501  0.00000000000E+00  0.00000000000E+00  0.68124007539E+02  0.68124007587E+02  0.25500000920E-02 0. -1.
        2   -1    0    0  501    0  0.00000000000E+00  0.00000000000E+00 -0.17624484007E+04  0.17624484007E+04  0.25500000920E-02 0.  1.
    10030    2    1    2    0    0  0.00000000000E+00  0.00000000000E+00 -0.16943243932E+04  0.18305724083E+04  0.69300807552E+03 0.  0.
        1    1    3    3  502    0  0.26796173652E+03 -0.19203324517E+03 -0.56531669782E+03  0.65441823656E+03  0.50400001928E-02 0. -1.
       -1    1    3    3    0  502 -0.26796173652E+03  0.19203324517E+03 -0.11290076954E+04  0.11761541718E+04  0.50400001928E-02 0.  1.
</event>
<event>
 5   0  0.4878235E-03  0.7009398E+03  0.7818609E-02  0.9715626E-01
        2   -1    0    0  501    0  0.00000000000E+00  0.00000000000E+00  0.16502185740E+04  0.16502185740E+04  0.25500000920E-02 0.  1.
       -2   -1    0    0    0  501  0.00000000000E+00  0.00000000000E+00 -0.74432051568E+02  0.74432051611E+02  0.25500000920E-02 0. -1.
    10030    2    1    2    0    0  0.00000000000E+00  0.00000000000E+00  0.15757865225E+04  0.17246506256E+04  0.70093980923E+03 0.  0.
        4    1    3    3  502    0  0.94128390359E+02 -0.29517929506E+02 -0.39561346385E+02  0.10629287399E+03  0.12699999809E+01 0. -1.
       -4    1    3    3    0  502 -0.94128390359E+02  0.29517929506E+02  0.16153478688E+04  0.16183577516E+04  0.12699999809E+01 0.  1.
</event>
<event>
 5   0  0.2938783E-03  0.7001022E+03  0.7818609E-02  0.9717057E-01
        1   -1    0    0  501    0  0.00000000000E+00  0.00000000000E+00  0.13007220454E+04  0.13007220454E+04  0.50400001928E-02 0. -1.
       -1   -1    0    0    0  501  0.00000000000E+00  0.00000000000E+00 -0.94205955979E+02  0.94205956114E+02  0.50400001928E-02 0.  1.
    10030    2    1    2    0    0  0.00000000000E+00  0.00000000000E+00  0.12065160894E+04  0.13949280015E+04  0.70010217497E+03 0.  0.
        4    1    3    3  502    0  0.29242511246E+02 -0.17603012374E+03  0.32240365773E+01  0.17847615033E+03  0.12699999809E+01 0.  1.
       -4    1    3    3    0  502 -0.29242511246E+02  0.17603012374E+03  0.12032920528E+04  0.12164518512E+04  0.12699999809E+01 0. -1.
</event>
<event>
 5   0  0.3013140E-03  0.6992323E+03  0.7818609E-02  0.9718546E-01
        1   -1    0    0  501    0  0.00000000000E+00  0.00000000000E+00  0.94772548806E+03  0.94772548807E+03  0.50400001928E-02 0.  1.
       -1   -1    0    0    0  501  0.00000000000E+00  0.00000000000E+00 -0.12897346166E+03  0.12897346175E+03  0.50400001928E-02 0. -1.
    10030    2    1    2    0    0  0.00000000000E+00  0.00000000000E+00  0.81875202640E+03  0.10766989498E+04  0.69923225599E+03 0.  0.
        2    1    3    3  502    0  0.30874536386E+03  0.16364226161E+03  0.42686156021E+03  0.55164597441E+03  0.25500000920E-02 0.  1.
       -2    1    3    3    0  502 -0.30874536386E+03 -0.16364226161E+03  0.39189046619E+03  0.52505297541E+03  0.25500000920E-02 0. -1.
</event>
<event>
 5   0  0.3013140E-03  0.7021097E+03  0.7818609E-02  0.9713631E-01
       -1   -1    0    0    0  501  0.00000000000E+00  0.00000000000E+00  0.88046487014E+02  0.88046487158E+02  0.50400001928E-02 0. -1.
        1   -1    0    0  501    0  0.00000000000E+00  0.00000000000E+00 -0.13997097089E+04  0.13997097089E+04  0.50400001928E-02 0.  1.
    10030    2    1    2    0    0  0.00000000000E+00  0.00000000000E+00 -0.13116632219E+04  0.14877561960E+04  0.70210974305E+03 0.  0.
        2    1    3    3  502    0 -0.24206659075E+03  0.20127493651E+03 -0.98500189499E+03  0.10340873114E+04  0.25500000920E-02 0.  1.
       -2    1    3    3    0  502  0.24206659075E+03 -0.20127493651E+03 -0.32666132687E+03  0.45366888466E+03  0.25500000920E-02 0. -1.
</event>
<event>
 5   0  0.5023894E-03  0.7015807E+03  0.7818609E-02  0.9714533E-01
        2   -1    0    0  501    0  0.00000000000E+00  0.00000000000E+00  0.15425063564E+04  0.15425063564E+04  0.25500000920E-02 0.  1.
       -2   -1    0    0    0  501  0.00000000000E+00  0.00000000000E+00 -0.79775264263E+02  0.79775264303E+02  0.25500000920E-02 0. -1.
    10030    2    1    2    0    0  0.00000000000E+00  0.00000000000E+00  0.14627310922E+04  0.16222816207E+04  0.70158065038E+03 0.  0.
        2    1    3    3  502    0  0.11363943687E+03 -0.32172492032E+03  0.54304233558E+03  0.64133908676E+03  0.25500000920E-02 0.  1.
       -2    1    3    3    0  502 -0.11363943687E+03  0.32172492032E+03  0.91968875659E+03  0.98094253398E+03  0.25500000920E-02 0. -1.
</event>
<event>
 5   0  0.2938783E-03  0.7001488E+03  0.7818609E-02  0.9716978E-01
       -1   -1    0    0    0  501  0.00000000000E+00  0.00000000000E+00  0.24676915094E+03  0.24676915099E+03  0.50400001928E-02 0.  1.
        1   -1    0    0  501    0  0.00000000000E+00  0.00000000000E+00 -0.49662646891E+03  0.49662646894E+03  0.50400001928E-02 0. -1.
    10030    2    1    2    0    0  0.00000000000E+00  0.00000000000E+00 -0.24985731797E+03  0.74339561993E+03  0.70014881875E+03 0.  0.
        4    1    3    3  502    0  0.18319708391E+03 -0.29362447925E+03 -0.69006910854E+02  0.35290235620E+03  0.12699999809E+01 0.  1.
       -4    1    3    3    0  502 -0.18319708391E+03  0.29362447925E+03 -0.18085040712E+03  0.39049326373E+03  0.12699999809E+01 0. -1.
</event>
<event>
 5   0  0.3013140E-03  0.6997434E+03  0.7818609E-02  0.9717671E-01
        1   -1    0    0  501    0  0.00000000000E+00  0.00000000000E+00  0.82590018522E+03  0.82590018524E+03  0.50400001928E-02 0.  1.
       -1   -1    0    0    0  501  0.00000000000E+00  0.00000000000E+00 -0.14821429936E+03  0.14821429945E+03  0.50400001928E-02 0. -1.
    10030    2    1    2    0    0  0.00000000000E+00  0.00000000000E+00  0.67768588586E+03  0.97411448469E+03  0.69974343111E+03 0.  0.
        2    1    3    3  502    0 -0.27088960193E+03 -0.27044068248E+02  0.32904386824E+02  0.27421753544E+03  0.25500000920E-02 0. -1.
       -2    1    3    3    0  502  0.27088960193E+03  0.27044068248E+02  0.64478149904E+03  0.69989694925E+03  0.25500000920E-02 0.  1.
</event>
<event>
 5   0  0.2937617E-03  0.6973848E+03  0.7818609E-02  0.9721715E-01
       -1   -1    0    0    0  501  0.00000000000E+00  0.00000000000E+00  0.11147585560E+03  0.11147585572E+03  0.50400001928E-02 0.  1.
        1   -1    0    0  501    0  0.00000000000E+00  0.00000000000E+00 -0.10906970941E+04  0.10906970941E+04  0.50400001928E-02 0. -1.
    10030    2    1    2    0    0  0.00000000000E+00  0.00000000000E+00 -0.97922123846E+03  0.12021729498E+04  0.69738480580E+03 0.  0.
        3    1    3    3  502    0 -0.11760093449E+03  0.25233469852E+03 -0.85154763887E+03  0.89589964357E+03  0.10100000352E+00 0. -1.
       -3    1    3    3    0  502  0.11760093449E+03 -0.25233469852E+03 -0.12767359958E+03  0.30627330622E+03  0.10100000352E+00 0.  1.
</event>
<event>
 5   0  0.2938783E-03  0.6994951E+03  0.7818609E-02  0.9718096E-01
       -1   -1    0    0    0  501  0.00000000000E+00  0.00000000000E+00  0.23895212326E+03  0.23895212331E+03  0.50400001928E-02 0. -1.
        1   -1    0    0  501    0  0.00000000000E+00  0.00000000000E+00 -0.51191579135E+03  0.51191579138E+03  0.50400001928E-02 0.  1.
    10030    2    1    2    0    0  0.00000000000E+00  0.00000000000E+00 -0.27296366810E+03  0.75086791469E+03  0.69949514738E+03 0.  0.
        4    1    3    3  502    0 -0.27718173805E+03  0.76544568068E+01  0.92323781412E+02  0.29225605234E+03  0.12699999809E+01 0. -1.
       -4    1    3    3    0  502  0.27718173805E+03 -0.76544568068E+01 -0.36528744951E+03  0.45861186235E+03  0.12699999809E+01 0.  1.
</event>
<event>
 5   0  0.4878235E-03  0.6974360E+03  0.7818609E-02  0.9721627E-01
       -2   -1    0    0    0  501  0.00000000000E+00  0.00000000000E+00  0.14784232314E+03  0.14784232317E+03  0.25500000920E-02 0. -1.
        2   -1    0    0  501    0  0.00000000000E+00  0.00000000000E+00 -0.82252663605E+03  0.82252663605E+03  0.25500000920E-02 0.  1.
    10030    2    1    2    0    0  0.00000000000E+00  0.00000000000E+00 -0.67468431290E+03  0.97036895922E+03  0.69743601494E+03 0.  0.
        4    1    3    3  502    0 -0.30807751568E+03 -0.35548242306E+01 -0.56459594947E+03  0.64319094482E+03  0.12699999809E+01 0.  1.
       -4    1    3    3    0  502  0.30807751568E+03  0.35548242306E+01 -0.11008836343E+03  0.32717801439E+03  0.12699999809E+01 0. -1.
</event>
<event>
 5   0  0.5023894E-03  0.7007862E+03  0.7818609E-02  0.9715889E-01
        2   -1    0    0  501    0  0.00000000000E+00  0.00000000000E+00  0.57709262512E+03  0.57709262512E+03  0.25500000920E-02 0. -1.
       -2   -1    0    0    0  501  0.00000000000E+00  0.00000000000E+00 -0.21274801914E+03  0.21274801915E+03  0.25500000920E-02 0.  1.
    10030    2    1    2    0    0  0.00000000000E+00  0.00000000000E+00  0.36434460598E+03  0.78984064427E+03  0.70078616670E+03 0.  0.
        2    1    3    3  502    0 -0.72511025732E+02  0.29010103584E+03 -0.23681792936E+02  0.29996214290E+03  0.25500000920E-02 0.  1.
       -2    1    3    3    0  502  0.72511025732E+02 -0.29010103584E+03  0.38802639892E+03  0.48987850138E+03  0.25500000920E-02 0. -1.
</event>
<event>
 5   0  0.5076796E-03  0.7006005E+03  0.7818609E-02  0.9716206E-01
        2   -1    0    0  501    0  0.00000000000E+00  0.00000000000E+00  0.17612524155E+04  0.17612524155E+04  0.25500000920E-02 0. -1.
       -2   -1    0    0    0  501  0.00000000000E+00  0.00000000000E+00 -0.69672170538E+02  0.69672170585E+02  0.25500000920E-02 0.  1.
    10030    2    1    2    0    0  0.00000000000E+00  0.00000000000E+00  0.16915802449E+04  0.18309245861E+04  0.70060053867E+03 0.  0.
        5    1    3    3  502    0  0.29727194756E+03 -0.12764819125E+03  0.11966387337E+04  0.12396092209E+04  0.46999998093E+01 0. -1.
       -5    1    3    3    0  502 -0.29727194756E+03  0.12764819125E+03  0.49494151123E+03  0.59131536516E+03  0.46999998093E+01 0.  1.
</event>
<event>
 5   0  0.5113683E-03  0.7008127E+03  0.7818609E-02  0.9715843E-01
       -2   -1    0    0    0  501  0.00000000000E+00  0.00000000000E+00  0.96681607924E+02  0.96681607958E+02  0.25500000920E-02 0.  1.
        2   -1    0    0  501    0  0.00000000000E+00  0.00000000000E+00 -0.12699893100E+04  0.12699893100E+04  0.25500000920E-02 0. -1.
    10030    2    1    2    0    0  0.00000000000E+00  0.00000000000E+00 -0.11733077020E+04  0.13666709179E+04  0.70081269554E+03 0.  0.
        3    1    3    3  502    0 -0.14087919666E+03 -0.21579892310E+03 -0.12365476318E+03  0.28584372290E+03  0.10100000352E+00 0.  1.
       -3    1    3    3    0  502  0.14087919666E+03  0.21579892310E+03 -0.10496529389E+04  0.10808271950E+04  0.10100000352E+00 0. -1.
</event>
<event>
 5   0  0.5072407E-03  0.7000555E+03  0.7818609E-02  0.9717137E-01
       -2   -1    0    0    0  501  0.00000000000E+00  0.00000000000E+00  0.40639194058E+03  0.40639194058E+03  0.25500000920E-02 0. -1.
        2   -1    0    0  501    0  0.00000000000E+00  0.00000000000E+00 -0.30148090159E+03  0.30148090160E+03  0.25500000920E-02 0.  1.
    10030    2    1    2    0    0  0.00000000000E+00  0.00000000000E+00  0.10491103899E+03  0.70787284218E+03  0.70005545109E+03 0.  0.
        1    1    3    3  502    0  0.18759911363E+03 -0.50564860599E+02  0.34685822047E+03  0.39756868299E+03  0.50400001928E-02 0. -1.
       -1    1    3    3    0  502 -0.18759911363E+03  0.50564860599E+02 -0.24194718148E+03  0.31030415920E+03  0.50400001928E-02 0.  1.
</event>
<event>
 5   0  0.2937617E-03  0.7036474E+03  0.7818609E-02  0.9711015E-01
       -1   -1    0    0    0  501  0.00000000000E+00  0.00000000000E+00  0.35512800928E+03  0.35512800932E+03  0.50400001928E-02 0. -1.
        1   -1    0    0  501    0  0.00000000000E+00  0.00000000000E+00 -0.34855011045E+03  0.34855011049E+03  0.50400001928E-02 0.  1.
    10030    2    1    2    0    0  0.00000000000E+00  0.00000000000E+00  0.65778988330E+01  0.70367811981E+03  0.70364737443E+03 0.  0.
        3    1    3    3  502    0  0.12587036436E+03  0.51093349144E+01 -0.32522265328E+03  0.34876817277E+03  0.10100000352E+00 0.  1.
       -3    1    3    3    0  502 -0.12587036436E+03 -0.51093349144E+01  0.33180055211E+03  0.35490994704E+03  0.10100000352E+00 0. -1.
</event>
<event>
 5   0  0.2913582E-03  0.6989420E+03  0.7818609E-02  0.9719043E-01
        1   -1    0    0  501    0  0.00000000000E+00  0.00000000000E+00  0.11240956283E+04  0.11240956283E+04  0.50400001928E-02 0. -1.
       -1   -1    0    0    0  501  0.00000000000E+00  0.00000000000E+00 -0.10864733720E+03  0.10864733732E+03  0.50400001928E-02 0.  1.
    10030    2    1    2    0    0  0.00000000000E+00  0.00000000000E+00  0.10154482911E+04  0.12327429656E+04  0.69894204869E+03 0.  0.
        1    1    3    3  502    0  0.20683603322E+03 -0.22488716110E+03  0.20854167784E+03  0.36992568347E+03  0.50400001928E-02 0.  1.
       -1    1    3    3    0  502 -0.20683603322E+03  0.22488716110E+03  0.80690661326E+03  0.86281728217E+03  0.50400001928E-02 0. -1.
</event>
<event>
 5   0  0.5076796E-03  0.6997540E+03  0.7818609E-02  0.9717653E-01
        2   -1    0    0  501    0  0.00000000000E+00  0.00000000000E+00  0.77478379653E+03  0.77478379653E+03  0.25500000920E-02 0. -1.
       -2   -1    0    0    0  501  0.00000000000E+00  0.00000000000E+00 -0.15799752293E+03  0.15799752295E+03  0.25500000920E-02 0.  1.
    10030    2    1    2    0    0  0.00000000000E+00  0.00000000000E+00  0.61678627360E+03  0.93278131948E+03  0.69975401583E+03 0.  0.
        5    1    3    3  502    0 -0.30528180831E+03  0.10900455807E+03  0.48378877142E+03  0.58236813230E+03  0.46999998093E+01 0. -1.
       -5    1    3    3    0  502  0.30528180831E+03 -0.10900455807E+03  0.13299750218E+03  0.35041318718E+03  0.46999998093E+01 0.  1.
</event>
<event>
 5   0  0.2938783E-03  0.7002015E+03  0.7818609E-02  0.9716888E-01
        1   -1    0    0  501    0  0.00000000000E+00  0.00000000000E+00  0.10640449820E+04  0.10640449820E+04  0.50400001928E-02 0.  1.
       -1   -1    0    0    0  501  0.00000000000E+00  0.00000000000E+00 -0.11519298525E+03  0.11519298536E+03  0.50400001928E-02 0. -1.
    10030    2    1    2    0    0  0.00000000000E+00  0.00000000000E+00  0.94885199677E+03  0.11792379674E+04  0.70020145100E+03 0.  0.
        4    1    3    3  502    0  0.29135276348E+03  0.65396635190E+01  0.14768656373E+03  0.32671414722E+03  0.12699999809E+01 0. -1.
       -4    1    3    3    0  502 -0.29135276348E+03 -0.65396635190E+01  0.80116543304E+03  0.85252382018E+03  0.12699999809E+01 0.  1.
</event>
<event>
 5   0  0.5072407E-03  0.7008548E+03  0.7818609E-02  0.9715772E-01
       -2   -1    0    0    0  501  0.00000000000E+00  0.00000000000E+00  0.35049832984E+03  0.35049832985E+03  0.25500000920E-02 0. -1.
        2   -1    0    0  501    0  0.00000000000E+00  0.00000000000E+00 -0.35035646499E+03  0.35035646500E+03  0.25500000920E-02 0.  1.
    10030    2    1    2    0    0  0.00000000000E+00  0.00000000000E+00  0.14186484910E+00  0.70085479484E+03  0.70085478049E+03 0.  0.
        1    1    3    3  502    0 -0.12745078728E+03  0.64160744194E+02 -0.31999008634E+03  0.35036261167E+03  0.50400001928E-02 0.  1.
       -1    1    3    3    0  502  0.12745078728E+03 -0.64160744194E+02  0.32013195118E+03  0.35049218318E+03  0.50400001928E-02 0. -1.
</event>
<event>
 5   0  0.1981750E-03  0.6999880E+03  0.7818609E-02  0.9717253E-01
        3   -1    0    0  501    0  0.00000000000E+00  0.00000000000E+00  0.21435052427E+03  0.21435054806E+03  0.10100000352E+00 0.  1.
       -3   -1    0    0    0  501  0.00000000000E+00  0.00000000000E+00 -0.57147410530E+03  0.57147411423E+03  0.10100000352E+00 0. -1.
    10030    2    1    2    0    0  0.00000000000E+00  0.00000000000E+00 -0.35712358103E+03  0.78582466229E+03  0.69998796256E+03 0.  0.
        5    1    3    3  502    0  0.10933594612E+03 -0.38919348590E+02  0.19208270921E+03  0.22447031426E+03  0.46999998093E+01 0.  1.
       -5    1    3    3    0  502 -0.10933594612E+03  0.38919348590E+02 -0.54920629025E+03  0.56135434803E+03  0.46999998093E+01 0. -1.
</event>
<event>
 5   0  0.5113683E-03  0.6985417E+03  0.7818609E-02  0.9719729E-01
       -2   -1    0    0    0  501  0.00000000000E+00  0.00000000000E+00  0.18938528862E+03  0.18938528863E+03  0.25500000920E-02 0. -1.
        2   -1    0    0  501    0  0.00000000000E+00  0.00000000000E+00 -0.64413734930E+03  0.64413734930E+03  0.25500000920E-02 0.  1.
    10030    2    1    2    0    0  0.00000000000E+00  0.00000000000E+00 -0.45475206068E+03  0.83352263793E+03  0.69854173194E+03 0.  0.
        3    1    3    3  502    0  0.14163844156E+03  0.27469569152E+03 -0.42151372153E+03  0.52267867634E+03  0.10100000352E+00 0.  1.
       -3    1    3    3    0  502 -0.14163844156E+03 -0.27469569152E+03 -0.33238339154E+02  0.31084396159E+03  0.10100000352E+00 0. -1.
</event>
<event>
 5   0  0.1981750E-03  0.6971513E+03  0.7818609E-02  0.9722116E-01
        3   -1    0    0  501    0  0.00000000000E+00  0.00000000000E+00  0.15373640782E+03  0.15373644100E+03  0.10100000352E+00 0. -1.
       -3   -1    0    0    0  501  0.00000000000E+00  0.00000000000E+00 -0.79034611266E+03  0.79034611911E+03  0.10100000352E+00 0.  1.
    10030    2    1    2    0    0  0.00000000000E+00  0.00000000000E+00 -0.63660970484E+03  0.94408256011E+03  0.69715132074E+03 0.  0.
        1    1    3    3  502    0  0.31946389957E+03 -0.91140910887E+02 -0.17536682662E+03  0.37565592324E+03  0.50400001928E-02 0. -1.
       -1    1    3    3    0  502 -0.31946389957E+03  0.91140910887E+02 -0.46124287822E+03  0.56842663687E+03  0.50400001928E-02 0.  1.
</event>
<event>
 5   0  0.2913582E-03  0.7017097E+03  0.7818609E-02  0.9714313E-01
       -1   -1    0    0    0  501  0.00000000000E+00  0.00000000000E+00  0.22692090012E+03  0.22692090018E+03  0.50400001928E-02 0. -1.
        1   -1    0    0  501    0  0.00000000000E+00  0.00000000000E+00 -0.54247596399E+03  0.54247596401E+03  0.50400001928E-02 0.  1.
    10030    2    1    2    0    0  0.00000000000E+00  0.00000000000E+00 -0.31555506387E+03  0.76939686419E+03  0.70170972367E+03 0.  0.
        1    1    3    3  502    0  0.29822003755E+03  0.15546972159E+03 -0.26738577787E+03  0.42965239364E+03  0.50400001928E-02 0. -1.
       -1    1    3    3    0  502 -0.29822003755E+03 -0.15546972159E+03 -0.48169286001E+02  0.33974447055E+03  0.50400001928E-02 0.  1.
</event>
<event>
 5   0  0.5113683E-03  0.6976543E+03  0.7818609E-02  0.9721252E-01
        2   -1    0    0  501    0  0.00000000000E+00  0.00000000000E+00  0.24042164114E+03  0.24042164116E+03  0.25500000920E-02 0.  1.
       -2   -1    0    0    0  501  0.00000000000E+00  0.00000000000E+00 -0.50611238067E+03  0.50611238067E+03  0.25500000920E-02 0. -1.
    10030    2    1    2    0    0  0.00000000000E+00  0.00000000000E+00 -0.26569073953E+03  0.74653402183E+03  0.69765426730E+03 0.  0.
        3    1    3    3  502    0 -0.15572306126E+03  0.33156567102E+02  0.19927317482E+03  0.25506634070E+03  0.10100000352E+00 0.  1.
       -3    1    3    3    0  502  0.15572306126E+03 -0.33156567102E+02 -0.46496391435E+03  0.49146768113E+03  0.10100000352E+00 0. -1.
</event>
<event>
 5   0  0.5072407E-03  0.7002351E+03  0.7818609E-02  0.9716830E-01
        2   -1    0    0  501    0  0.00000000000E+00  0.00000000000E+00  0.12221482332E+04  0.12221482332E+04  0.25500000920E-02 0. -1.
       -2   -1    0    0    0  501  0.00000000000E+00  0.00000000000E+00 -0.10030066813E+03  0.10030066816E+03  0.25500000920E-02 0.  1.
    10030    2    1    2    0    0  0.00000000000E+00  0.00000000000E+00  0.11218475651E+04  0.13224489014E+04  0.70023505872E+03 0.  0.
        1    1    3    3  502    0 -0.34297737709E+03  0.19959379180E+02  0.43352622752E+03  0.55315174047E+03  0.50400001928E-02 0. -1.
       -1    1    3    3    0  502  0.34297737709E+03 -0.19959379180E+02  0.68832133756E+03  0.76929716090E+03  0.50400001928E-02 0.  1.
</event>
<event>
 5   0  0.3013140E-03  0.7005927E+03  0.7818609E-02  0.9716219E-01
       -1   -1    0    0    0  501  0.00000000000E+00  0.00000000000E+00  0.12900226507E+04  0.12900226507E+04  0.50400001928E-02 0.  1.
        1   -1    0    0  501    0  0.00000000000E+00  0.00000000000E+00 -0.95120438464E+02  0.95120438597E+02  0.50400001928E-02 0. -1.
    10030    2    1    2    0    0  0.00000000000E+00  0.00000000000E+00  0.11949022122E+04  0.13851430893E+04  0.70059266414E+03 0.  0.
        2    1    3    3  502    0  0.21016256218E+03 -0.27904868563E+03  0.64866715768E+03  0.73675338679E+03  0.25500000920E-02 0. -1.
       -2    1    3    3    0  502 -0.21016256218E+03  0.27904868563E+03  0.54623505455E+03  0.64838970251E+03  0.25500000920E-02 0.  1.
</event>
<event>
 5   0  0.4878235E-03  0.7016875E+03  0.7818609E-02  0.9714351E-01
       -2   -1    0    0    0  501  0.00000000000E+00  0.00000000000E+00  0.21715242382E+03  0.21715242383E+03  0.25500000920E-02 0. -1.
        2   -1    0    0  501    0  0.00000000000E+00  0.00000000000E+00 -0.56684304431E+03  0.56684304432E+03  0.25500000920E-02 0.  1.
    10030    2    1    2    0    0  0.00000000000E+00  0.00000000000E+00 -0.34969062050E+03  0.78399546815E+03  0.70168751166E+03 0.  0.
        4    1    3    3  502    0 -0.82391428451E+02  0.32400523769E+03 -0.29373142183E+03  0.44502528311E+03  0.12699999809E+01 0.  1.
       -4    1    3    3    0  502  0.82391428451E+02 -0.32400523769E+03 -0.55959198664E+02  0.33897018504E+03  0.12699999809E+01 0. -1.
</event>
<event>
 5   0  0.5023894E-03  0.7015160E+03  0.7818609E-02  0.9714643E-01
       -2   -1    0    0    0  501  0.00000000000E+00  0.00000000000E+00  0.12256227068E+03  0.12256227071E+03  0.25500000920E-02 0.  1.
        2   -1    0    0  501    0  0.00000000000E+00  0.00000000000E+00 -0.10038258845E+04  0.10038258845E+04  0.25500000920E-02 0. -1.
    10030    2    1    2    0    0  0.00000000000E+00  0.00000000000E+00 -0.88126361379E+03  0.11263881552E+04  0.70151601489E+03 0.  0.
        2    1    3    3  502    0  0.18819686907E+03  0.21951221986E+03 -0.12180845390E+03  0.31375304882E+03  0.25500000920E-02 0.  1.
       -2    1    3    3    0  502 -0.18819686907E+03 -0.21951221986E+03 -0.75945515989E+03  0.81263510636E+03  0.25500000920E-02 0. -1.
</event>
<event>
 5   0  0.2937617E-03  0.6975866E+03  0.7818609E-02  0.9721368E-01
       -1   -1    0    0    0  501  0.00000000000E+00  0.00000000000E+00  0.94069645383E+02  0.94069645518E+02  0.50400001928E-02 0. -1.
        1   -1    0    0  501    0  0.00000000000E+00  0.00000000000E+00 -0.12932626051E+04  0.12932626051E+04  0.50400001928E-02 0.  1.
    10030    2    1    2    0    0  0.00000000000E+00  0.00000000000E+00 -0.11991929598E+04  0.13873322507E+04  0.69758656739E+03 0.  0.
        3    1    3    3  502    0 -0.49214831656E+02 -0.20818530809E+02 -0.12850734180E+04  0.12861839724E+04  0.10100000352E+00 0.  1.
       -3    1    3    3    0  502  0.49214831656E+02  0.20818530809E+02  0.85880458290E+02  0.10114827827E+03  0.10100000352E+00 0. -1.
</event>
<event>
 5   0  0.2938783E-03  0.7015450E+03  0.7818609E-02  0.9714594E-01
       -1   -1    0    0    0  501  0.00000000000E+00  0.00000000000E+00  0.19625931447E+03  0.19625931454E+03  0.50400001928E-02 0.  1.
        1   -1    0    0  501    0  0.00000000000E+00  0.00000000000E+00 -0.62693253159E+03  0.62693253161E+03  0.50400001928E-02 0. -1.
    10030    2    1    2    0    0  0.00000000000E+00  0.00000000000E+00 -0.43067321711E+03  0.82319184615E+03  0.70154500613E+03 0.  0.
        4    1    3    3  502    0  0.11817237036E+03  0.11958367689E+03 -0.57657333220E+03  0.60058586830E+03  0.12699999809E+01 0. -1.
       -4    1    3    3    0  502 -0.11817237036E+03 -0.11958367689E+03  0.14590011508E+03  0.22260597785E+03  0.12699999809E+01 0.  1.
</event>
<event>
 5   0  0.2934483E-03  0.6993101E+03  0.7818609E-02  0.9718413E-01
       -1   -1    0    0    0  501  0.00000000000E+00  0.00000000000E+00  0.11713810475E+03  0.11713810486E+03  0.50400001928E-02 0.  1.
        1   -1    0    0  501    0  0.00000000000E+00  0.00000000000E+00 -0.10437137172E+04  0.10437137172E+04  0.50400001928E-02 0. -1.
    10030    2    1    2    0    0  0.00000000000E+00  0.00000000000E+00 -0.92657561243E+03  0.11608518220E+04  0.69931007944E+03 0.  0.
        5    1    3    3  502    0  0.10484870375E+02  0.30166892051E+03 -0.75613707530E+03  0.81417408258E+03  0.46999998093E+01 0. -1.
       -5    1    3    3    0  502 -0.10484870375E+02 -0.30166892051E+03 -0.17043853713E+03  0.34667773947E+03  0.46999998093E+01 0.  1.
</event>
<event>
 5   0  0.2938783E-03  0.7011534E+03  0.7818609E-02  0.9715262E-01
        1   -1    0    0  501    0  0.00000000000E+00  0.00000000000E+00  0.56478569602E+03  0.56478569605E+03  0.50400001928E-02 0. -1.
       -1   -1    0    0    0  501  0.00000000000E+00  0.00000000000E+00 -0.21761178247E+03  0.21761178253E+03  0.50400001928E-02 0.  1.
    10030    2    1    2    0    0  0.00000000000E+00  0.00000000000E+00  0.34717391355E+03  0.78239747857E+03  0.70115339850E+03 0.  0.
        4    1    3    3  502    0  0.13953582673E+03 -0.22418490084E+03 -0.83725715399E+02  0.27702116350E+03  0.12699999809E+01 0.  1.
       -4    1    3    3    0  502 -0.13953582673E+03  0.22418490084E+03  0.43089962895E+03  0.50537631508E+03  0.12699999809E+01 0. -1.
</event>
<event>
 5   0  0.2913582E-03  0.6988225E+03  0.7818609E-02  0.9719248E-01
        1   -1    0    0  501    0  0.00000000000E+00  0.00000000000E+00  0.98189806630E+02  0.98189806759E+02  0.50400001928E-02 0.  1.
       -1   -1    0    0    0  501  0.00000000000E+00  0.00000000000E+00 -0.12433901099E+04  0.12433901099E+04  0.50400001928E-02 0. -1.
    10030    2    1    2    0    0  0.00000000000E+00  0.00000000000E+00 -0.11452003032E+04  0.13415799166E+04  0.69882253697E+03 0.  0.
        1    1    3    3  502    0 -0.98364812731E+02 -0.30668853415E+03 -0.31251007776E+03  0.44877170375E+03  0.50400001928E-02 0.  1.
       -1    1    3    3    0  502  0.98364812731E+02  0.30668853415E+03 -0.83269022546E+03  0.89280821287E+03  0.50400001928E-02 0. -1.
</event>
<event>
 5   0  0.5076796E-03  0.6993647E+03  0.7818609E-02  0.9718319E-01
       -2   -1    0    0    0  501  0.00000000000E+00  0.00000000000E+00  0.20411901650E+03  0.20411901651E+03  0.25500000920E-02 0.  1.
        2   -1    0    0  501    0  0.00000000000E+00  0.00000000000E+00 -0.59905116267E+03  0.59905116267E+03  0.25500000920E-02 0. -1.
    10030    2    1    2    0    0  0.00000000000E+00  0.00000000000E+00 -0.39493214617E+03  0.80317017919E+03  0.69936466643E+03 0.  0.
        5    1    3    3  502    0  0.69228865812E+02 -0.21141783749E+03  0.11232340718E+03  0.24925644559E+03  0.46999998093E+01 0.  1.
       -5    1    3    3    0  502 -0.69228865812E+02  0.21141783749E+03 -0.50725555335E+03  0.55391373360E+03  0.46999998093E+01 0. -1.
</event>
<event>
 5   0  0.2938783E-03  0.6993280E+03  0.7818609E-02  0.9718382E-01
        1   -1    0    0  501    0  0.00000000000E+00  0.00000000000E+00  0.27195770478E+03  0.27195770483E+03  0.50400001928E-02 0. -1.
       -1   -1    0    0    0  501  0.00000000000E+00  0.00000000000E+00 -0.44957322432E+03  0.44957322435E+03  0.50400001928E-02 0.  1.
    10030    2    1    2    0    0  0.00000000000E+00  0.00000000000E+00 -0.17761551954E+03  0.72153092918E+03  0.69932796954E+03 0.  0.
        4    1    3    3  502    0  0.26630566320E+03 -0.11210620424E+03  0.11436240699E+03  0.31075212037E+03  0.12699999809E+01 0. -1.
       -4    1    3    3    0  502 -0.26630566320E+03  0.11210620424E+03 -0.29197792653E+03  0.41077880881E+03  0.12699999809E+01 0.  1.
</event>
<event>
 5   0  0.1981750E-03  0.7000802E+03  0.7818609E-02  0.9717095E-01
        4   -1    0    0  501    0  0.00000000000E+00  0.00000000000E+00  0.36985884345E+03  0.36986102387E+03  0.12699999809E+01 0. -1.
       -4   -1    0    0    0  501  0.00000000000E+00  0.00000000000E+00 -0.33127900337E+03  0.33128143771E+03  0.12699999809E+01 0.  1.
    10030    2    1    2    0    0  0.00000000000E+00  0.00000000000E+00  0.38579840080E+02  0.70114246158E+03  0.70008024352E+03 0.  0.
        4    1    3    3  502    0  0.19253626076E+03 -0.18572560386E+03  0.24538067110E+03  0.36301170544E+03  0.12699999809E+01 0. -1.
       -4    1    3    3    0  502 -0.19253626076E+03  0.18572560386E+03 -0.20680083102E+03  0.33813075614E+03  0.12699999809E+01 0.  1.
</event>
<event>
 5   0  0.5113683E-03  0.7002256E+03  0.7818609E-02  0.9716846E-01
        2   -1    0    0  501    0  0.00000000000E+00  0.00000000000E+00  0.59730006157E+03  0.59730006157E+03  0.25500000920E-02 0. -1.
       -2   -1    0    0    0  501  0.00000000000E+00  0.00000000000E+00 -0.20522177015E+03  0.20522177017E+03  0.25500000920E-02 0.  1.
    10030    2    1    2    0    0  0.00000000000E+00  0.00000000000E+00  0.39207829141E+03  0.80252183174E+03  0.70022560923E+03 0.  0.
        3    1    3    3  502    0  0.90247289209E+01  0.26170399459E+03 -0.70309247534E+02  0.27113433387E+03  0.10100000352E+00 0.  1.
       -3    1    3    3    0  502 -0.90247289209E+01 -0.26170399459E+03  0.46238753895E+03  0.53138749787E+03  0.10100000352E+00 0. -1.
</event>
<event>
 5   0  0.5113683E-03  0.6995368E+03  0.7818609E-02  0.9718025E-01
        2   -1    0    0  501    0  0.00000000000E+00  0.00000000000E+00  0.40758181228E+03  0.40758181228E+03  0.25500000920E-02 0. -1.
       -2   -1    0    0    0  501  0.00000000000E+00  0.00000000000E+00 -0.30015554175E+03  0.30015554176E+03  0.25500000920E-02 0.  1.
    10030    2    1    2    0    0  0.00000000000E+00  0.00000000000E+00  0.10742627052E+03  0.70773735405E+03  0.69953681727E+03 0.  0.
        3    1    3    3  502    0  0.61396079750E+02  0.16567938769E+03  0.35911066267E+03  0.40022445747E+03  0.10100000352E+00 0. -1.
       -3    1    3    3    0  502 -0.61396079750E+02 -0.16567938769E+03 -0.25168439214E+03  0.30751289658E+03  0.10100000352E+00 0.  1.
</event>
<event>
 5   0  0.2934483E-03  0.7020719E+03  0.7818609E-02  0.9713696E-01
        1   -1    0    0  501    0  0.00000000000E+00  0.00000000000E+00  0.40671859591E+03  0.40671859594E+03  0.50400001928E-02 0. -1.
       -1   -1    0    0    0  501  0.00000000000E+00  0.00000000000E+00 -0.30297662476E+03  0.30297662480E+03  0.50400001928E-02 0.  1.
    10030    2    1    2    0    0  0.00000000000E+00  0.00000000000E+00  0.10374197115E+03  0.70969522074E+03  0.70207186937E+03 0.  0.
        5    1    3    3  502    0  0.30403395156E+03 -0.16319236271E+03 -0.13137083060E+02  0.34534484780E+03  0.46999998093E+01 0.  1.
       -5    1    3    3    0  502 -0.30403395156E+03  0.16319236271E+03  0.11687905421E+03  0.36435037294E+03  0.46999998093E+01 0. -1.
</event>
<event>
 5   0  0.5076796E-03  0.7002169E+03  0.7818609E-02  0.9716861E-01
       -2   -1    0    0    0  501  0.00000000000E+00  0.00000000000E+00  0.94375552141E+02  0.94375552176E+02  0.25500000920E-02 0.  1.
        2   -1    0    0  501    0  0.00000000000E+00  0.00000000000E+00 -0.12988100845E+04  0.12988100845E+04  0.25500000920E-02 0. -1.
    10030    2    1    2    0    0  0.00000000000E+00  0.00000000000E+00 -0.12044345323E+04  0.13931856367E+04  0.70021687747E+03 0.  0.
        5    1    3    3  502    0  0.15953143235E+03  0.27307806148E+03 -0.90087622455E+03  0.95478896491E+03  0.46999998093E+01 0. -1.
       -5    1    3    3    0  502 -0.15953143235E+03 -0.27307806148E+03 -0.30355830779E+03  0.43839667174E+03  0.46999998093E+01 0.  1.
</event>
<event>
 5   0  0.5113683E-03  0.7003671E+03  0.7818609E-02  0.9716605E-01
        2   -1    0    0  501    0  0.00000000000E+00  0.00000000000E+00  0.19748414385E+04  0.19748414385E+04  0.25500000920E-02 0. -1.
       -2   -1    0    0    0  501  0.00000000000E+00  0.00000000000E+00 -0.62095379666E+02  0.62095379718E+02  0.25500000920E-02 0.  1.
    10030    2    1    2    0    0  0.00000000000E+00  0.00000000000E+00  0.19127460588E+04  0.20369368182E+04  0.70036712932E+03 0.  0.
        3    1    3    3  502    0 -0.29102892120E+03  0.15990841626E+03  0.12797140173E+04  0.13220954999E+04  0.10100000352E+00 0. -1.
       -3    1    3    3    0  502  0.29102892120E+03 -0.15990841626E+03  0.63303204150E+03  0.71484131829E+03  0.10100000352E+00 0.  1.
</event>
<event>
 5   0  0.2913582E-03  0.6934228E+03  0.7818609E-02  0.9728547E-01
        1   -1    0    0  501    0  0.00000000000E+00  0.00000000000E+00  0.10108742470E+04  0.10108742470E+04  0.50400001928E-02 0.  1.
       -1   -1    0    0    0  501  0.00000000000E+00  0.00000000000E+00 -0.11891566487E+03  0.11891566497E+03  0.50400001928E-02 0. -1.
    10030    2    1    2    0    0  0.00000000000E+00  0.00000000000E+00  0.89195858209E+03  0.11297899119E+04  0.69342276640E+03 0.  0.
        1    1    3    3  502    0 -0.16754952045E+03 -0.60036961399E+02  0.93076356034E+03  0.94762760820E+03  0.50400001928E-02 0.  1.
       -1    1    3    3    0  502  0.16754952045E+03  0.60036961399E+02 -0.38804978258E+02  0.18216230373E+03  0.50400001928E-02 0. -1.
</event>
<event>
 5   0  0.2937617E-03  0.6969431E+03  0.7818609E-02  0.9722474E-01
        1   -1    0    0  501    0  0.00000000000E+00  0.00000000000E+00  0.93366679300E+03  0.93366679301E+03  0.50400001928E-02 0. -1.
       -1   -1    0    0    0  501  0.00000000000E+00  0.00000000000E+00 -0.13005969209E+03  0.13005969219E+03  0.50400001928E-02 0.  1.
    10030    2    1    2    0    0  0.00000000000E+00  0.00000000000E+00  0.80360710091E+03  0.10637264852E+04  0.69694308426E+03 0.  0.
        3    1    3    3  502    0 -0.51555036068E+02 -0.13550945762E+03  0.88544638309E+03  0.89723800765E+03  0.10100000352E+00 0. -1.
       -3    1    3    3    0  502  0.51555036068E+02  0.13550945762E+03 -0.81839282183E+02  0.16648847755E+03  0.10100000352E+00 0.  1.
</event>
<event>
 5   0  0.2938783E-03  0.7001692E+03  0.7818609E-02  0.9716943E-01
        1   -1    0    0  501    0  0.00000000000E+00  0.00000000000E+00  0.55891869691E+03  0.55891869693E+03  0.50400001928E-02 0.  1.
       -1   -1    0    0    0  501  0.00000000000E+00  0.00000000000E+00 -0.21927919708E+03  0.21927919713E+03  0.50400001928E-02 0. -1.
    10030    2    1    2    0    0  0.00000000000E+00  0.00000000000E+00  0.33963949983E+03  0.77819789407E+03  0.70016924560E+03 0.  0.
        4    1    3    3  502    0  0.75431120415E+02  0.32127194380E+03  0.39956286795E+02  0.33242086811E+03  0.12699999809E+01 0. -1.
       -4    1    3    3    0  502 -0.75431120415E+02 -0.32127194380E+03  0.29968321304E+03  0.44577702596E+03  0.12699999809E+01 0.  1.
</event>
<event>
 5   0  0.1981750E-03  0.7000103E+03  0.7818609E-02  0.9717215E-01
       -3   -1    0    0    0  501  0.00000000000E+00  0.00000000000E+00  0.55702213325E+03  0.55702214241E+03  0.10100000352E+00 0. -1.
        3   -1    0    0  501    0  0.00000000000E+00  0.00000000000E+00 -0.21992586687E+03  0.21992589007E+03  0.10100000352E+00 0.  1.
    10030    2    1    2    0    0  0.00000000000E+00  0.00000000000E+00  0.33709626638E+03  0.77694803247E+03  0.70001025161E+03 0.  0.
        1    1    3    3  502    0 -0.28964207204E+03  0.12270622044E+03 -0.17940205404E+01  0.31456726620E+03  0.50400001928E-02 0.  1.
       -1    1    3    3    0  502  0.28964207204E+03 -0.12270622044E+03  0.33889028692E+03  0.46238076627E+03  0.50400001928E-02 0. -1.
</event>
<event>
 5   0  0.5072407E-03  0.7003080E+03  0.7818609E-02  0.9716706E-01
       -2   -1    0    0    0  501  0.00000000000E+00  0.00000000000E+00  0.14411207325E+03  0.14411207328E+03  0.25500000920E-02 0.  1.
        2   -1    0    0  501    0  0.00000000000E+00  0.00000000000E+00 -0.85078102399E+03  0.85078102400E+03  0.25500000920E-02 0. -1.
    10030    2    1    2    0    0  0.00000000000E+00  0.00000000000E+00 -0.70666895074E+03  0.99489309727E+03  0.70030798158E+03 0.  0.
        1    1    3    3  502    0 -0.10628147855E+03  0.14730092165E+03 -0.77861597620E+03  0.79952245286E+03  0.50400001928E-02 0. -1.
       -1    1    3    3    0  502  0.10628147855E+03 -0.14730092165E+03  0.71947025460E+02  0.19537064442E+03  0.50400001928E-02 0.  1.
</event>
<event>
 5   0  0.1981750E-03  0.6993779E+03  0.7818609E-02  0.9718297E-01
        4   -1    0    0  501    0  0.00000000000E+00  0.00000000000E+00  0.19071683644E+03  0.19072106491E+03  0.12699999809E+01 0. -1.
       -4   -1    0    0    0  501  0.00000000000E+00  0.00000000000E+00 -0.64116042528E+03  0.64116168308E+03  0.12699999809E+01 0.  1.
    10030    2    1    2    0    0  0.00000000000E+00  0.00000000000E+00 -0.45044358884E+03  0.83188274799E+03  0.69937792336E+03 0.  0.
        2    1    3    3  502    0  0.82199044604E+02 -0.14490002640E+03  0.14048604317E+03  0.21791977633E+03  0.25500000920E-02 0. -1.
       -2    1    3    3    0  502 -0.82199044604E+02  0.14490002640E+03 -0.59092963201E+03  0.61396297166E+03  0.25500000920E-02 0.  1.
</event>
<event>
 5   0  0.5023894E-03  0.7002742E+03  0.7818609E-02  0.9716763E-01
        2   -1    0    0  501    0  0.00000000000E+00  0.00000000000E+00  0.62184922953E+03  0.62184922954E+03  0.25500000920E-02 0. -1.
       -2   -1    0    0    0  501  0.00000000000E+00  0.00000000000E+00 -0.19714747620E+03  0.19714747622E+03  0.25500000920E-02 0.  1.
    10030    2    1    2    0    0  0.00000000000E+00  0.00000000000E+00  0.42470175333E+03  0.81899670575E+03  0.70027424967E+03 0.  0.
        2    1    3    3  502    0 -0.12761522162E+03  0.32535170154E+03  0.23734264716E+03  0.42245817148E+03  0.25500000920E-02 0. -1.
       -2    1    3    3    0  502  0.12761522162E+03 -0.32535170154E+03  0.18735910618E+03  0.39653853427E+03  0.25500000920E-02 0.  1.
</event>
<event>
 5   0  0.5113683E-03  0.6963738E+03  0.7818609E-02  0.9723454E-01
        2   -1    0    0  501    0  0.00000000000E+00  0.00000000000E+00  0.64417661197E+03  0.64417661198E+03  0.25500000920E-02 0.  1.
       -2   -1    0    0    0  501  0.00000000000E+00  0.00000000000E+00 -0.18820013438E+03  0.18820013440E+03  0.25500000920E-02 0. -1.
    10030    2    1    2    0    0  0.00000000000E+00  0.00000000000E+00  0.45597647759E+03  0.83237674637E+03  0.69637382187E+03 0.  0.
        3    1    3    3  502    0 -0.32771519576E+03  0.10238806406E+03  0.29720796326E+03  0.45410697949E+03  0.10100000352E+00 0.  1.
       -3    1    3    3    0  502  0.32771519576E+03 -0.10238806406E+03  0.15876851433E+03  0.37826976688E+03  0.10100000352E+00 0. -1.
</event>
<event>
 5   0  0.3013140E-03  0.7023961E+03  0.7818609E-02  0.9713143E-01
        1   -1    0    0  501    0  0.00000000000E+00  0.00000000000E+00  0.26366337841E+03  0.26366337846E+03  0.50400001928E-02 0. -1.
       -1   -1    0    0    0  501  0.00000000000E+00  0.00000000000E+00 -0.46779370499E+03  0.46779370501E+03  0.50400001928E-02 0.  1.
    10030    2    1    2    0    0  0.00000000000E+00  0.00000000000E+00 -0.20413032658E+03  0.73145708347E+03  0.70239609533E+03 0.  0.
        2    1    3    3  502    0  0.64318389308E+02  0.27948525171E+03  0.10903142454E+03  0.30681706711E+03  0.25500000920E-02 0.  1.
       -2    1    3    3    0  502 -0.64318389308E+02 -0.27948525171E+03 -0.31316175112E+03  0.42464001636E+03  0.25500000920E-02 0. -1.
</event>
<event>
 5   0  0.2913582E-03  0.7022623E+03  0.7818609E-02  0.9713371E-01
        1   -1    0    0  501    0  0.00000000000E+00  0.00000000000E+00  0.12487432218E+04  0.12487432218E+04  0.50400001928E-02 0. -1.
       -1   -1    0    0    0  501  0.00000000000E+00  0.00000000000E+00 -0.98733737501E+02  0.98733737629E+02  0.50400001928E-02 0.  1.
    10030    2    1    2    0    0  0.00000000000E+00  0.00000000000E+00  0.11500094843E+04  0.13474769595E+04  0.70226230303E+03 0.  0.
        1    1    3    3  502    0  0.10318242319E+03 -0.80598452687E+02  0.12001525784E+04  0.12072733470E+04  0.50400001928E-02 0. -1.
       -1    1    3    3    0  502 -0.10318242319E+03  0.80598452687E+02 -0.50143094063E+02  0.14020361243E+03  0.50400001928E-02 0.  1.
</event>
<event>
 5   0  0.5113683E-03  0.6999065E+03  0.7818609E-02  0.9717392E-01
       -2   -1    0    0    0  501  0.00000000000E+00  0.00000000000E+00  0.16671354677E+03  0.16671354679E+03  0.25500000920E-02 0. -1.
        2   -1    0    0  501    0  0.00000000000E+00  0.00000000000E+00 -0.73459703713E+03  0.73459703714E+03  0.25500000920E-02 0.  1.
    10030    2    1    2    0    0  0.00000000000E+00  0.00000000000E+00 -0.56788349037E+03  0.90131058392E+03  0.69990650094E+03 0.  0.
        3    1    3    3  502    0 -0.33583463870E+03 -0.10078594702E+02 -0.15789402828E+03  0.37123714387E+03  0.10100000352E+00 0. -1.
       -3    1    3    3    0  502  0.33583463870E+03  0.10078594702E+02 -0.40998946208E+03  0.53007344005E+03  0.10100000352E+00 0.  1.
</event>
<event>
 5   0  0.5076796E-03  0.6986960E+03  0.7818609E-02  0.9719465E-01
        2   -1    0    0  501    0  0.00000000000E+00  0.00000000000E+00  0.38388764532E+03  0.38388764533E+03  0.25500000920E-02 0.  1.
       -2   -1    0    0    0  501  0.00000000000E+00  0.00000000000E+00 -0.31791601093E+03  0.31791601094E+03  0.25500000920E-02 0. -1.
    10030    2    1    2    0    0  0.00000000000E+00  0.00000000000E+00  0.65971634392E+02  0.70180365628E+03  0.69869601074E+03 0.  0.
        5    1    3    3  502    0  0.23576253187E+03 -0.59763110705E+02 -0.21886098716E+03  0.32722747827E+03  0.46999998093E+01 0. -1.
       -5    1    3    3    0  502 -0.23576253187E+03  0.59763110705E+02  0.28483262155E+03  0.37457617801E+03  0.46999998093E+01 0.  1.
</event>
<event>
 5   0  0.2937617E-03  0.6993892E+03  0.7818609E-02  0.9718277E-01
        1   -1    0    0  501    0  0.00000000000E+00  0.00000000000E+00  0.13550486002E+03  0.13550486012E+03  0.50400001928E-02 0. -1.
       -1   -1    0    0    0  501  0.00000000000E+00  0.00000000000E+00 -0.90244968330E+03  0.90244968332E+03  0.50400001928E-02 0.  1.
    10030    2    1    2    0    0  0.00000000000E+00  0.00000000000E+00 -0.76694482328E+03  0.10379545434E+04  0.69938921373E+03 0.  0.
        3    1    3    3  502    0  0.12509288508E+03  0.15237785063E+03  0.45166972614E+02  0.20225554350E+03  0.10100000352E+00 0. -1.
       -3    1    3    3    0  502 -0.12509288508E+03 -0.15237785063E+03 -0.81211179589E+03  0.83569899993E+03  0.10100000352E+00 0.  1.
</event>
<event>
 5   0  0.3013140E-03  0.7008581E+03  0.7818609E-02  0.9715766E-01
        1   -1    0    0  501    0  0.00000000000E+00  0.00000000000E+00  0.33596831912E+03  0.33596831916E+03  0.50400001928E-02 0.  1.
       -1   -1    0    0    0  501  0.00000000000E+00  0.00000000000E+00 -0.36551223887E+03  0.36551223890E+03  0.50400001928E-02 0. -1.
    10030    2    1    2    0    0  0.00000000000E+00  0.00000000000E+00 -0.29543919745E+02  0.70148055806E+03  0.70085813838E+03 0.  0.
        2    1    3    3  502    0 -0.55787661956E+02  0.54759874666E+02 -0.35667395962E+03  0.36514000134E+03  0.25500000920E-02 0. -1.
       -2    1    3    3    0  502  0.55787661956E+02 -0.54759874666E+02  0.32713003987E+03  0.33634055672E+03  0.25500000920E-02 0.  1.
</event>
<event>
 5   0  0.3013140E-03  0.6986790E+03  0.7818609E-02  0.9719494E-01
        1   -1    0    0  501    0  0.00000000000E+00  0.00000000000E+00  0.50315142628E+03  0.50315142630E+03  0.50400001928E-02 0.  1.
       -1   -1    0    0    0  501  0.00000000000E+00  0.00000000000E+00 -0.24254744196E+03  0.24254744201E+03  0.50400001928E-02 0. -1.
    10030    2    1    2    0    0  0.00000000000E+00  0.00000000000E+00  0.26060398432E+03  0.74569886831E+03  0.69867901469E+03 0.  0.
        2    1    3    3  502    0 -0.52051971550E+02 -0.22602552056E+03 -0.14850839278E+03  0.27541184873E+03  0.25500000920E-02 0. -1.
       -2    1    3    3    0  502  0.52051971550E+02  0.22602552056E+03  0.40911237710E+03  0.47028701959E+03  0.25500000920E-02 0.  1.
</event>
<event>
 5   0  0.4878235E-03  0.6995328E+03  0.7818609E-02  0.9718032E-01
       -2   -1    0    0    0  501  0.00000000000E+00  0.00000000000E+00  0.19507307758E+03  0.19507307760E+03  0.25500000920E-02 0. -1.
        2   -1    0    0  501    0  0.00000000000E+00  0.00000000000E+00 -0.62713180540E+03  0.62713180541E+03  0.25500000920E-02 0.  1.
    10030    2    1    2    0    0  0.00000000000E+00  0.00000000000E+00 -0.43205872782E+03  0.82220488301E+03  0.69953279076E+03 0.  0.
        4    1    3    3  502    0  0.13567337350E+02 -0.25941437086E+03  0.59254149900E+02  0.26644428242E+03  0.12699999809E+01 0. -1.
       -4    1    3    3    0  502 -0.13567337350E+02  0.25941437086E+03 -0.49131287772E+03  0.55576060059E+03  0.12699999809E+01 0.  1.
</event>
<event>
 5   0  0.1981750E-03  0.6919193E+03  0.7818609E-02  0.9731152E-01
       -3   -1    0    0    0  501  0.00000000000E+00  0.00000000000E+00  0.79341054819E+03  0.79341055461E+03  0.10100000352E+00 0.  1.
        3   -1    0    0  501    0  0.00000000000E+00  0.00000000000E+00 -0.15085260139E+03  0.15085263520E+03  0.10100000352E+00 0. -1.
    10030    2    1    2    0    0  0.00000000000E+00  0.00000000000E+00  0.64255794679E+03  0.94426318982E+03  0.69191925588E+03 0.  0.
        3    1    3    3  502    0  0.17695885050E+03 -0.28891112561E+03  0.41684686805E+03  0.53716421593E+03  0.10100000352E+00 0.  1.
       -3    1    3    3    0  502 -0.17695885050E+03  0.28891112561E+03  0.22571107875E+03  0.40709897389E+03  0.10100000352E+00 0. -1.
</event>
<event>
 5   0  0.2934483E-03  0.7005399E+03  0.7818609E-02  0.9716309E-01
       -1   -1    0    0    0  501  0.00000000000E+00  0.00000000000E+00  0.29793451707E+03  0.29793451711E+03  0.50400001928E-02 0. -1.
        1   -1    0    0  501    0  0.00000000000E+00  0.00000000000E+00 -0.41179865590E+03  0.41179865593E+03  0.50400001928E-02 0.  1.
    10030    2    1    2    0    0  0.00000000000E+00  0.00000000000E+00 -0.11386413883E+03  0.70973317304E+03  0.70053988809E+03 0.  0.
        5    1    3    3  502    0 -0.29511535427E+03 -0.77187233285E+02 -0.23128347555E+03  0.38283818693E+03  0.46999998093E+01 0.  1.
       -5    1    3    3    0  502  0.29511535427E+03  0.77187233285E+02  0.11741933672E+03  0.32689498611E+03  0.46999998093E+01 0. -1.
</event>
<event>
 5   0  0.5076796E-03  0.6998164E+03  0.7818609E-02  0.9717546E-01
        2   -1    0    0  501    0  0.00000000000E+00  0.00000000000E+00  0.19536057462E+03  0.19536057464E+03  0.25500000920E-02 0. -1.
       -2   -1    0    0    0  501  0.00000000000E+00  0.00000000000E+00 -0.62671682892E+03  0.62671682893E+03  0.25500000920E-02 0.  1.
    10030    2    1    2    0    0  0.00000000000E+00  0.00000000000E+00 -0.43135625430E+03  0.82207740357E+03  0.69981643260E+03 0.  0.
        5    1    3    3  502    0  0.14155367968E+03 -0.21413552540E+03 -0.49495701906E+03  0.55758049480E+03  0.46999998093E+01 0.  1.
       -5    1    3    3    0  502 -0.14155367968E+03  0.21413552540E+03  0.63600764762E+02  0.26449690877E+03  0.46999998093E+01 0. -1.
</event>
<event>
 5   0  0.3013140E-03  0.7001809E+03  0.7818609E-02  0.9716923E-01
        1   -1    0    0  501    0  0.00000000000E+00  0.00000000000E+00  0.90278328497E+03  0.90278328498E+03  0.50400001928E-02 0.  1.
       -1   -1    0    0    0  501  0.00000000000E+00  0.00000000000E+00 -0.13576160556E+03  0.13576160566E+03  0.50400001928E-02 0. -1.
    10030    2    1    2    0    0  0.00000000000E+00  0.00000000000E+00  0.76702167941E+03  0.10385448906E+04  0.70018085749E+03 0.  0.
        2    1    3    3  502    0 -0.23193452248E+03 -0.25271249616E+03  0.27961878229E+03  0.44254253111E+03  0.25500000920E-02 0.  1.
       -2    1    3    3    0  502  0.23193452248E+03  0.25271249616E+03  0.48740289712E+03  0.59600235952E+03  0.25500000920E-02 0. -1.
</event>
<event>
 5   0  0.1981750E-03  0.7005882E+03  0.7818609E-02  0.9716227E-01
        3   -1    0    0  501    0  0.00000000000E+00  0.00000000000E+00  0.72404585658E+03  0.72404586362E+03  0.10100000352E+00 0.  1.
       -3   -1    0    0    0  501  0.00000000000E+00  0.00000000000E+00 -0.16947259775E+03  0.16947262785E+03  0.10100000352E+00 0. -1.
    10030    2    1    2    0    0  0.00000000000E+00  0.00000000000E+00  0.55457325883E+03  0.89351849147E+03  0.70058817803E+03 0.  0.
        3    1    3    3  502    0 -0.75661890266E+02 -0.17627123585E+03  0.65110596512E+03  0.67877482145E+03  0.10100000352E+00 0.  1.
       -3    1    3    3    0  502  0.75661890266E+02  0.17627123585E+03 -0.96532706293E+02  0.21474367001E+03  0.10100000352E+00 0. -1.
</event>
<event>
 5   0  0.5072407E-03  0.7001573E+03  0.7818609E-02  0.9716963E-01
        2   -1    0    0  501    0  0.00000000000E+00  0.00000000000E+00  0.14843843289E+04  0.14843843289E+04  0.25500000920E-02 0.  1.
       -2   -1    0    0    0  501  0.00000000000E+00  0.00000000000E+00 -0.82562899053E+02  0.82562899093E+02  0.25500000920E-02 0. -1.
    10030    2    1    2    0    0  0.00000000000E+00  0.00000000000E+00  0.14018214299E+04  0.15669472280E+04  0.70015733529E+03 0.  0.
        1    1    3    3  502    0  0.89689546826E+02 -0.28056123600E+03  0.11243366966E+04  0.11622787227E+04  0.50400001928E-02 0. -1.
       -1    1    3    3    0  502 -0.89689546826E+02  0.28056123600E+03  0.27748473329E+03  0.40466850531E+03  0.50400001928E-02 0.  1.
</event>
<event>
 5   0  0.2937617E-03  0.7004697E+03  0.7818609E-02  0.9716429E-01
       -1   -1    0    0    0  501  0.00000000000E+00  0.00000000000E+00  0.11006628299E+04  0.11006628299E+04  0.50400001928E-02 0.  1.
        1   -1    0    0  501    0  0.00000000000E+00  0.00000000000E+00 -0.11144598167E+03  0.11144598178E+03  0.50400001928E-02 0. -1.
    10030    2    1    2    0    0  0.00000000000E+00  0.00000000000E+00  0.98921684826E+03  0.12121088117E+04  0.70046969853E+03 0.  0.
        3    1    3    3  502    0 -0.13850498710E+03 -0.25041969744E+03  0.14520530132E+03  0.32090223753E+03  0.10100000352E+00 0. -1.
       -3    1    3    3    0  502  0.13850498710E+03  0.25041969744E+03  0.84401154694E+03  0.89120657419E+03  0.10100000352E+00 0.  1.
</event>
<event>
 5   0  0.1981750E-03  0.7003809E+03  0.7818609E-02  0.9716581E-01
        4   -1    0    0  501    0  0.00000000000E+00  0.00000000000E+00  0.10535731172E+03  0.10536496587E+03  0.12699999809E+01 0. -1.
       -4   -1    0    0    0  501  0.00000000000E+00  0.00000000000E+00 -0.11639255102E+04  0.11639262031E+04  0.12699999809E+01 0.  1.
    10030    2    1    2    0    0  0.00000000000E+00  0.00000000000E+00 -0.10585681985E+04  0.12692911690E+04  0.70038092546E+03 0.  0.
        3    1    3    3  502    0 -0.28418450066E+03  0.97245521423E+02 -0.20299278795E+03  0.36252393577E+03  0.10100000352E+00 0. -1.
       -3    1    3    3    0  502  0.28418450066E+03 -0.97245521423E+02 -0.85557541055E+03  0.90676723319E+03  0.10100000352E+00 0.  1.
</event>
<event>
 5   0  0.5023894E-03  0.7118913E+03  0.7818609E-02  0.9697110E-01
        2   -1    0    0  501    0  0.00000000000E+00  0.00000000000E+00  0.27179715713E+04  0.27179715713E+04  0.25500000920E-02 0. -1.
       -2   -1    0    0    0  501  0.00000000000E+00  0.00000000000E+00 -0.46614649479E+02  0.46614649548E+02  0.25500000920E-02 0.  1.
    10030    2    1    2    0    0  0.00000000000E+00  0.00000000000E+00  0.26713569218E+04  0.27645862208E+04  0.71189126188E+03 0.  0.
        2    1    3    3  502    0  0.33538893963E+03 -0.25227560541E+02  0.17881469508E+04  0.18195031433E+04  0.25500000920E-02 0. -1.
       -2    1    3    3    0  502 -0.33538893963E+03  0.25227560541E+02  0.88320997098E+03  0.94508307756E+03  0.25500000920E-02 0.  1.
</event>
<event>
 5   0  0.5023894E-03  0.7002025E+03  0.7818609E-02  0.9716886E-01
        2   -1    0    0  501    0  0.00000000000E+00  0.00000000000E+00  0.29602343292E+03  0.29602343293E+03  0.25500000920E-02 0.  1.
       -2   -1    0    0    0  501  0.00000000000E+00  0.00000000000E+00 -0.41405805582E+03  0.41405805583E+03  0.25500000920E-02 0. -1.
    10030    2    1    2    0    0  0.00000000000E+00  0.00000000000E+00 -0.11803462291E+03  0.71008148876E+03  0.70020250533E+03 0.  0.
        2    1    3    3  502    0  0.25502803052E+03  0.38907549613E+02  0.18100274263E+03  0.31514296219E+03  0.25500000920E-02 0.  1.
       -2    1    3    3    0  502 -0.25502803052E+03 -0.38907549613E+02 -0.29903736554E+03  0.39493852657E+03  0.25500000920E-02 0. -1.
</event>
<event>
 5   0  0.4878235E-03  0.6995797E+03  0.7818609E-02  0.9717951E-01
        2   -1    0    0  501    0  0.00000000000E+00  0.00000000000E+00  0.53944355466E+03  0.53944355467E+03  0.25500000920E-02 0.  1.
       -2   -1    0    0    0  501  0.00000000000E+00  0.00000000000E+00 -0.22681323504E+03  0.22681323505E+03  0.25500000920E-02 0. -1.
    10030    2    1    2    0    0  0.00000000000E+00  0.00000000000E+00  0.31263031962E+03  0.76625678972E+03  0.69957969599E+03 0.  0.
        4    1    3    3  502    0 -0.21163295508E+02  0.24566417239E+03 -0.11542897480E+03  0.27225765701E+03  0.12699999809E+01 0. -1.
       -4    1    3    3    0  502  0.21163295508E+02 -0.24566417239E+03  0.42805929442E+03  0.49399913271E+03  0.12699999809E+01 0.  1.
</event>
<event>
 5   0  0.5023894E-03  0.7009041E+03  0.7818609E-02  0.9715687E-01
       -2   -1    0    0    0  501  0.00000000000E+00  0.00000000000E+00  0.12579664162E+03  0.12579664165E+03  0.25500000920E-02 0. -1.
        2   -1    0    0  501    0  0.00000000000E+00  0.00000000000E+00 -0.97631086620E+03  0.97631086621E+03  0.25500000920E-02 0.  1.
    10030    2    1    2    0    0  0.00000000000E+00  0.00000000000E+00 -0.85051422458E+03  0.11021075079E+04  0.70090406808E+03 0.  0.
        2    1    3    3  502    0 -0.85210919269E+02 -0.15602616798E+03  0.49629938628E+02  0.18457572070E+03  0.25500000920E-02 0. -1.
       -2    1    3    3    0  502  0.85210919269E+02  0.15602616798E+03 -0.90014416321E+03  0.91753178715E+03  0.25500000920E-02 0.  1.
</event>
<event>
 5   0  0.5023894E-03  0.6996543E+03  0.7818609E-02  0.9717824E-01
        2   -1    0    0  501    0  0.00000000000E+00  0.00000000000E+00  0.45687076032E+03  0.45687076033E+03  0.25500000920E-02 0. -1.
       -2   -1    0    0    0  501  0.00000000000E+00  0.00000000000E+00 -0.26786359300E+03  0.26786359301E+03  0.25500000920E-02 0.  1.
    10030    2    1    2    0    0  0.00000000000E+00  0.00000000000E+00  0.18900716732E+03  0.72473435334E+03  0.69965432437E+03 0.  0.
        2    1    3    3  502    0  0.26759815857E+03  0.26513646152E+02 -0.13727451263E+03  0.30192058514E+03  0.25500000920E-02 0.  1.
       -2    1    3    3    0  502 -0.26759815857E+03 -0.26513646152E+02  0.32628167995E+03  0.42281376821E+03  0.25500000920E-02 0. -1.
</event>
<event>
 5   0  0.5113683E-03  0.7027163E+03  0.7818609E-02  0.9712598E-01
        2   -1    0    0  501    0  0.00000000000E+00  0.00000000000E+00  0.33229096135E+03  0.33229096136E+03  0.25500000920E-02 0. -1.
       -2   -1    0    0    0  501  0.00000000000E+00  0.00000000000E+00 -0.37151940252E+03  0.37151940253E+03  0.25500000920E-02 0.  1.
    10030    2    1    2    0    0  0.00000000000E+00  0.00000000000E+00 -0.39228441175E+02  0.70381036389E+03  0.70271627114E+03 0.  0.
        3    1    3    3  502    0  0.25356855833E+02  0.15851249196E+03 -0.33264418973E+03  0.36935260580E+03  0.10100000352E+00 0.  1.
       -3    1    3    3    0  502 -0.25356855833E+02 -0.15851249196E+03  0.29341574856E+03  0.33445775809E+03  0.10100000352E+00 0. -1.
</event>
<event>
 5   0  0.3013140E-03  0.7022059E+03  0.7818609E-02  0.9713467E-01
       -1   -1    0    0    0  501  0.00000000000E+00  0.00000000000E+00  0.56053832209E+02  0.56053832436E+02  0.50400001928E-02 0.  1.
        1   -1    0    0  501    0  0.00000000000E+00  0.00000000000E+00 -0.21991947883E+04  0.21991947883E+04  0.50400001928E-02 0. -1.
    10030    2    1    2    0    0  0.00000000000E+00  0.00000000000E+00 -0.21431409561E+04  0.22552486208E+04  0.70220594108E+03 0.  0.
        2    1    3    3  502    0 -0.15666957450E+03 -0.29004956448E+03 -0.14596263987E+04  0.14963900993E+04  0.25500000920E-02 0. -1.
       -2    1    3    3    0  502  0.15666957450E+03  0.29004956448E+03 -0.68351455744E+03  0.75885852151E+03  0.25500000920E-02 0.  1.
</event>
<event>
 5   0  0.2913582E-03  0.7028131E+03  0.7818609E-02  0.9712434E-01
        1   -1    0    0  501    0  0.00000000000E+00  0.00000000000E+00  0.32236192133E+03  0.32236192137E+03  0.50400001928E-02 0.  1.
       -1   -1    0    0    0  501  0.00000000000E+00  0.00000000000E+00 -0.38306803372E+03  0.38306803375E+03  0.50400001928E-02 0. -1.
    10030    2    1    2    0    0  0.00000000000E+00  0.00000000000E+00 -0.60706112384E+02  0.70542995512E+03  0.70281305445E+03 0.  0.
        1    1    3    3  502    0 -0.53410120491E+02  0.48954040832E+02  0.31478395070E+03  0.32301404726E+03  0.50400001928E-02 0.  1.
       -1    1    3    3    0  502  0.53410120491E+02 -0.48954040832E+02 -0.37549006308E+03  0.38241590786E+03  0.50400001928E-02 0. -1.
</event>
<event>
 5   0  0.2937617E-03  0.6999735E+03  0.7818609E-02  0.9717277E-01
       -1   -1    0    0    0  501  0.00000000000E+00  0.00000000000E+00  0.10784394538E+03  0.10784394550E+03  0.50400001928E-02 0.  1.
        1   -1    0    0  501    0  0.00000000000E+00  0.00000000000E+00 -0.11358147269E+04  0.11358147269E+04  0.50400001928E-02 0. -1.
    10030    2    1    2    0    0  0.00000000000E+00  0.00000000000E+00 -0.10279707815E+04  0.12436586724E+04  0.69997354649E+03 0.  0.
        3    1    3    3  502    0  0.97704135432E+02 -0.46623737406E+02 -0.11053186952E+04  0.11106076261E+04  0.10100000352E+00 0. -1.
       -3    1    3    3    0  502 -0.97704135432E+02  0.46623737406E+02  0.77347913691E+02  0.13305104631E+03  0.10100000352E+00 0.  1.
</event>
<event>
 5   0  0.1981750E-03  0.6985681E+03  0.7818609E-02  0.9719684E-01
       -3   -1    0    0    0  501  0.00000000000E+00  0.00000000000E+00  0.12251010445E+03  0.12251014608E+03  0.10100000352E+00 0. -1.
        3   -1    0    0  501    0  0.00000000000E+00  0.00000000000E+00 -0.99583074414E+03  0.99583074927E+03  0.10100000352E+00 0.  1.
    10030    2    1    2    0    0  0.00000000000E+00  0.00000000000E+00 -0.87332063970E+03  0.11183408953E+04  0.69856812015E+03 0.  0.
        1    1    3    3  502    0  0.26624900797E+03  0.16870207587E+03 -0.67759741458E+03  0.74731999901E+03  0.50400001928E-02 0. -1.
       -1    1    3    3    0  502 -0.26624900797E+03 -0.16870207587E+03 -0.19572322511E+03  0.37102089634E+03  0.50400001928E-02 0.  1.
</event>
<event>
 5   0  0.3013140E-03  0.6963332E+03  0.7818609E-02  0.9723523E-01
       -1   -1    0    0    0  501  0.00000000000E+00  0.00000000000E+00  0.53916906996E+03  0.53916906998E+03  0.50400001928E-02 0. -1.
        1   -1    0    0  501    0  0.00000000000E+00  0.00000000000E+00 -0.22482741740E+03  0.22482741746E+03  0.50400001928E-02 0.  1.
    10030    2    1    2    0    0  0.00000000000E+00  0.00000000000E+00  0.31434165256E+03  0.76399648744E+03  0.69633322360E+03 0.  0.
        2    1    3    3  502    0 -0.23666187851E+03 -0.40393993584E+02 -0.11948046208E+03  0.26817177384E+03  0.25500000920E-02 0.  1.
       -2    1    3    3    0  502  0.23666187851E+03  0.40393993584E+02  0.43382211464E+03  0.49582471360E+03  0.25500000920E-02 0. -1.
</event>
<event>
 5   0  0.2913582E-03  0.6953315E+03  0.7818609E-02  0.9725249E-01
       -1   -1    0    0    0  501  0.00000000000E+00  0.00000000000E+00  0.21696027437E+03  0.21696027443E+03  0.50400001928E-02 0. -1.
        1   -1    0    0  501    0  0.00000000000E+00  0.00000000000E+00 -0.55711337226E+03  0.55711337228E+03  0.50400001928E-02 0.  1.
    10030    2    1    2    0    0  0.00000000000E+00  0.00000000000E+00 -0.34015309788E+03  0.77407364671E+03  0.69533148967E+03 0.  0.
        1    1    3    3  502    0  0.13763925345E+03  0.17369960027E+03  0.12813025123E+03  0.25599507129E+03  0.50400001928E-02 0. -1.
       -1    1    3    3    0  502 -0.13763925345E+03 -0.17369960027E+03 -0.46828334911E+03  0.51807857542E+03  0.50400001928E-02 0.  1.
</event>
<event>
 5   0  0.4878235E-03  0.6994408E+03  0.7818609E-02  0.9718189E-01
       -2   -1    0    0    0  501  0.00000000000E+00  0.00000000000E+00  0.24894977003E+03  0.24894977004E+03  0.25500000920E-02 0.  1.
        2   -1    0    0  501    0  0.00000000000E+00  0.00000000000E+00 -0.49128120362E+03  0.49128120363E+03  0.25500000920E-02 0. -1.
    10030    2    1    2    0    0  0.00000000000E+00  0.00000000000E+00 -0.24233143359E+03  0.74023097367E+03  0.69944075565E+03 0.  0.
        4    1    3    3  502    0  0.67826595317E+01  0.11731997438E+03  0.22742568873E+03  0.25599616726E+03  0.12699999809E+01 0.  1.
       -4    1    3    3    0  502 -0.67826595317E+01 -0.11731997438E+03 -0.46975712233E+03  0.48423480640E+03  0.12699999809E+01 0. -1.
</event>
<event>
 5   0  0.4878235E-03  0.6983668E+03  0.7818609E-02  0.9720029E-01
       -2   -1    0    0    0  501  0.00000000000E+00  0.00000000000E+00  0.32573567612E+03  0.32573567613E+03  0.25500000920E-02 0.  1.
        2   -1    0    0  501    0  0.00000000000E+00  0.00000000000E+00 -0.37431897585E+03  0.37431897585E+03  0.25500000920E-02 0. -1.
    10030    2    1    2    0    0  0.00000000000E+00  0.00000000000E+00 -0.48583299722E+02  0.70005465199E+03  0.69836679385E+03 0.  0.
        4    1    3    3  502    0  0.13248164283E+03 -0.25344567202E+03  0.17654560834E+03  0.33608936175E+03  0.12699999809E+01 0. -1.
       -4    1    3    3    0  502 -0.13248164283E+03  0.25344567202E+03 -0.22512890807E+03  0.36396529024E+03  0.12699999809E+01 0.  1.
</event>
<event>
 5   0  0.5023894E-03  0.7006244E+03  0.7818609E-02  0.9716165E-01
       -2   -1    0    0    0  501  0.00000000000E+00  0.00000000000E+00  0.25202381409E+03  0.25202381411E+03  0.25500000920E-02 0.  1.
        2   -1    0    0  501    0  0.00000000000E+00  0.00000000000E+00 -0.48693266431E+03  0.48693266432E+03  0.25500000920E-02 0. -1.
    10030    2    1    2    0    0  0.00000000000E+00  0.00000000000E+00 -0.23490885022E+03  0.73895647842E+03  0.70062437090E+03 0.  0.
        2    1    3    3  502    0 -0.23595032449E+03  0.13629253742E+03 -0.34965965339E+03  0.44329457993E+03  0.25500000920E-02 0. -1.
       -2    1    3    3    0  502  0.23595032449E+03 -0.13629253742E+03  0.11475080317E+03  0.29566189849E+03  0.25500000920E-02 0.  1.
</event>
<event>
 5   0  0.2934483E-03  0.6987707E+03  0.7818609E-02  0.9719337E-01
       -1   -1    0    0    0  501  0.00000000000E+00  0.00000000000E+00  0.17524720433E+03  0.17524720440E+03  0.50400001928E-02 0.  1.
        1   -1    0    0  501    0  0.00000000000E+00  0.00000000000E+00 -0.69655950657E+03  0.69655950658E+03  0.50400001928E-02 0. -1.
    10030    2    1    2    0    0  0.00000000000E+00  0.00000000000E+00 -0.52131230224E+03  0.87180671098E+03  0.69877065254E+03 0.  0.
        5    1    3    3  502    0 -0.32965947417E+03 -0.38804475194E+02 -0.12474551020E+03  0.35463317459E+03  0.46999998093E+01 0.  1.
       -5    1    3    3    0  502  0.32965947417E+03  0.38804475194E+02 -0.39656679204E+03  0.51717353640E+03  0.46999998093E+01 0. -1.
</event>
<event>
 5   0  0.2938783E-03  0.7004164E+03  0.7818609E-02  0.9716520E-01
        1   -1    0    0  501    0  0.00000000000E+00  0.00000000000E+00  0.31422779205E+03  0.31422779209E+03  0.50400001928E-02 0.  1.
       -1   -1    0    0    0  501  0.00000000000E+00  0.00000000000E+00 -0.39030851419E+03  0.39030851422E+03  0.50400001928E-02 0. -1.
    10030    2    1    2    0    0  0.00000000000E+00  0.00000000000E+00 -0.76080722137E+02  0.70453630632E+03  0.70041639804E+03 0.  0.
        4    1    3    3  502    0  0.17704856810E+03  0.27803472428E+03 -0.15703526099E+03  0.36511804866E+03  0.12699999809E+01 0. -1.
       -4    1    3    3    0  502 -0.17704856810E+03 -0.27803472428E+03  0.80954538848E+02  0.33941825765E+03  0.12699999809E+01 0.  1.
</event>
<event>
 5   0  0.2937617E-03  0.6993424E+03  0.7818609E-02  0.9718357E-01
        1   -1    0    0  501    0  0.00000000000E+00  0.00000000000E+00  0.75760902835E+02  0.75760903002E+02  0.50400001928E-02 0. -1.
       -1   -1    0    0    0  501  0.00000000000E+00  0.00000000000E+00 -0.16138926461E+04  0.16138926461E+04  0.50400001928E-02 0.  1.
    10030    2    1    2    0    0  0.00000000000E+00  0.00000000000E+00 -0.15381317433E+04  0.16896535491E+04  0.69934244572E+03 0.  0.
        3    1    3    3  502    0  0.23237884561E+02  0.11761162101E+03 -0.15626873079E+04  0.15672792110E+04  0.10100000352E+00 0.  1.
       -3    1    3    3    0  502 -0.23237884561E+02 -0.11761162101E+03  0.24555564644E+02  0.12237433813E+03  0.10100000352E+00 0. -1.
</event>
<event>
 5   0  0.1981750E-03  0.6966333E+03  0.7818609E-02  0.9723007E-01
       -3   -1    0    0    0  501  0.00000000000E+00  0.00000000000E+00  0.11106741281E+03  0.11106745873E+03  0.10100000352E+00 0. -1.
        3   -1    0    0  501    0  0.00000000000E+00  0.00000000000E+00 -0.10923498313E+04  0.10923498360E+04  0.10100000352E+00 0.  1.
    10030    2    1    2    0    0  0.00000000000E+00  0.00000000000E+00 -0.98128241853E+03  0.12034172947E+04  0.69663333280E+03 0.  0.
        4    1    3    3  502    0  0.26488405850E+03  0.22416220874E+03 -0.43851186775E+03  0.55920169110E+03  0.12699999809E+01 0.  1.
       -4    1    3    3    0  502 -0.26488405850E+03 -0.22416220874E+03 -0.54277055078E+03  0.64421560364E+03  0.12699999809E+01 0. -1.
</event>
<event>
 5   0  0.2938783E-03  0.7008619E+03  0.7818609E-02  0.9715759E-01
       -1   -1    0    0    0  501  0.00000000000E+00  0.00000000000E+00  0.18774556278E+03  0.18774556285E+03  0.50400001928E-02 0.  1.
        1   -1    0    0  501    0  0.00000000000E+00  0.00000000000E+00 -0.65408665692E+03  0.65408665694E+03  0.50400001928E-02 0. -1.
    10030    2    1    2    0    0  0.00000000000E+00  0.00000000000E+00 -0.46634109414E+03  0.84183221979E+03  0.70086194802E+03 0.  0.
        4    1    3    3  502    0  0.20758222546E+02  0.27398076659E+03  0.28070545877E+02  0.27619908166E+03  0.12699999809E+01 0.  1.
       -4    1    3    3    0  502 -0.20758222546E+02 -0.27398076659E+03 -0.49441164002E+03  0.56563313813E+03  0.12699999809E+01 0. -1.
</event>
<event>
 5   0  0.3013140E-03  0.7005640E+03  0.7818609E-02  0.9716268E-01
       -1   -1    0    0    0  501  0.00000000000E+00  0.00000000000E+00  0.18775224799E+03  0.18775224806E+03  0.50400001928E-02 0. -1.
        1   -1    0    0  501    0  0.00000000000E+00  0.00000000000E+00 -0.65350735177E+03  0.65350735179E+03  0.50400001928E-02 0.  1.
    10030    2    1    2    0    0  0.00000000000E+00  0.00000000000E+00 -0.46575510378E+03  0.84125959985E+03  0.70056398540E+03 0.  0.
        2    1    3    3  502    0  0.17109438459E+03 -0.16881834280E+03  0.73097988333E+02  0.25122945131E+03  0.25500000920E-02 0. -1.
       -2    1    3    3    0  502 -0.17109438459E+03  0.16881834280E+03 -0.53885309211E+03  0.59003014854E+03  0.25500000920E-02 0.  1.
</event>
<event>
 5   0  0.5072407E-03  0.6999821E+03  0.7818609E-02  0.9717263E-01
       -2   -1    0    0    0  501  0.00000000000E+00  0.00000000000E+00  0.64067069680E+02  0.64067069731E+02  0.25500000920E-02 0.  1.
        2   -1    0    0  501    0  0.00000000000E+00  0.00000000000E+00 -0.19119611735E+04  0.19119611735E+04  0.25500000920E-02 0. -1.
    10030    2    1    2    0    0  0.00000000000E+00  0.00000000000E+00 -0.18478941038E+04  0.19760282432E+04  0.69998214200E+03 0.  0.
        1    1    3    3  502    0 -0.15330247119E+03  0.14703138618E+03 -0.17091887562E+04  0.17223373887E+04  0.50400001928E-02 0. -1.
       -1    1    3    3    0  502  0.15330247119E+03 -0.14703138618E+03 -0.13870534766E+03  0.25369085456E+03  0.50400001928E-02 0.  1.
</event>
<event>
 5   0  0.5023894E-03  0.6974436E+03  0.7818609E-02  0.9721614E-01
       -2   -1    0    0    0  501  0.00000000000E+00  0.00000000000E+00  0.61161392419E+02  0.61161392472E+02  0.25500000920E-02 0. -1.
        2   -1    0    0  501    0  0.00000000000E+00  0.00000000000E+00 -0.19882948889E+04  0.19882948889E+04  0.25500000920E-02 0.  1.
    10030    2    1    2    0    0  0.00000000000E+00  0.00000000000E+00 -0.19271334965E+04  0.20494562814E+04  0.69744357191E+03 0.  0.
        2    1    3    3  502    0  0.20522793882E+03  0.15059726993E+03 -0.16639528847E+04  0.16833113934E+04  0.25500000920E-02 0. -1.
       -2    1    3    3    0  502 -0.20522793882E+03 -0.15059726993E+03 -0.26318061179E+03  0.36614488800E+03  0.25500000920E-02 0.  1.
</event>
<event>
 5   0  0.5113683E-03  0.6869495E+03  0.7818609E-02  0.9739814E-01
       -2   -1    0    0    0  501  0.00000000000E+00  0.00000000000E+00  0.19624112428E+03  0.19624112429E+03  0.25500000920E-02 0.  1.
        2   -1    0    0  501    0  0.00000000000E+00  0.00000000000E+00 -0.60117312487E+03  0.60117312487E+03  0.25500000920E-02 0. -1.
    10030    2    1    2    0    0  0.00000000000E+00  0.00000000000E+00 -0.40493200059E+03  0.79741424917E+03  0.68694945933E+03 0.  0.
        3    1    3    3  502    0 -0.21609608589E+03  0.26323946543E+03 -0.15078286523E+03  0.37246210162E+03  0.10100000352E+00 0.  1.
       -3    1    3    3    0  502  0.21609608589E+03 -0.26323946543E+03 -0.25414913537E+03  0.42495214755E+03  0.10100000352E+00 0. -1.
</event>
<event>
 5   0  0.5076796E-03  0.6991803E+03  0.7818609E-02  0.9718635E-01
        2   -1    0    0  501    0  0.00000000000E+00  0.00000000000E+00  0.37948587229E+03  0.37948587230E+03  0.25500000920E-02 0. -1.
       -2   -1    0    0    0  501  0.00000000000E+00  0.00000000000E+00 -0.32204961039E+03  0.32204961040E+03  0.25500000920E-02 0.  1.
    10030    2    1    2    0    0  0.00000000000E+00  0.00000000000E+00  0.57436261898E+02  0.70153548270E+03  0.69918031244E+03 0.  0.
        5    1    3    3  502    0  0.51210604237E+02 -0.23849487723E+03 -0.22250268359E+03  0.33019973752E+03  0.46999998093E+01 0.  1.
       -5    1    3    3    0  502 -0.51210604237E+02  0.23849487723E+03  0.27993894549E+03  0.37133574518E+03  0.46999998093E+01 0. -1.
</event>
<event>
 5   0  0.1981750E-03  0.7005397E+03  0.7818609E-02  0.9716310E-01
       -3   -1    0    0    0  501  0.00000000000E+00  0.00000000000E+00  0.71535609324E+03  0.71535610037E+03  0.10100000352E+00 0. -1.
        3   -1    0    0  501    0  0.00000000000E+00  0.00000000000E+00 -0.17150752803E+03  0.17150755777E+03  0.10100000352E+00 0.  1.
    10030    2    1    2    0    0  0.00000000000E+00  0.00000000000E+00  0.54384856521E+03  0.88686365814E+03  0.70053971069E+03 0.  0.
        3    1    3    3  502    0  0.80486762120E+02 -0.33975936027E+03  0.23669431316E+03  0.42182786756E+03  0.10100000352E+00 0.  1.
       -3    1    3    3    0  502 -0.80486762120E+02  0.33975936027E+03  0.30715425205E+03  0.46503579058E+03  0.10100000352E+00 0. -1.
</event>
<event>
 5   0  0.2937617E-03  0.7017907E+03  0.7818609E-02  0.9714175E-01
       -1   -1    0    0    0  501  0.00000000000E+00  0.00000000000E+00  0.20750461417E+03  0.20750461423E+03  0.50400001928E-02 0.  1.
        1   -1    0    0  501    0  0.00000000000E+00  0.00000000000E+00 -0.59337252041E+03  0.59337252043E+03  0.50400001928E-02 0. -1.
    10030    2    1    2    0    0  0.00000000000E+00  0.00000000000E+00 -0.38586790624E+03  0.80087713466E+03  0.70179066947E+03 0.  0.
        3    1    3    3  502    0  0.31022604976E+03  0.15036282659E+03 -0.11828973663E+03  0.36447448959E+03  0.10100000352E+00 0. -1.
       -3    1    3    3    0  502 -0.31022604976E+03 -0.15036282659E+03 -0.26757816961E+03  0.43640264507E+03  0.10100000352E+00 0.  1.
</event>
<event>
 5   0  0.3013140E-03  0.6991559E+03  0.7818609E-02  0.9718677E-01
       -1   -1    0    0    0  501  0.00000000000E+00  0.00000000000E+00  0.37262083393E+03  0.37262083396E+03  0.50400001928E-02 0. -1.
        1   -1    0    0  501    0  0.00000000000E+00  0.00000000000E+00 -0.32795999557E+03  0.32795999561E+03  0.50400001928E-02 0.  1.
    10030    2    1    2    0    0  0.00000000000E+00  0.00000000000E+00  0.44660838352E+02  0.70058082957E+03  0.69915585407E+03 0.  0.
        2    1    3    3  502    0  0.23220999013E+02 -0.33352614847E+03 -0.79984596201E+02  0.34376800628E+03  0.25500000920E-02 0.  1.
       -2    1    3    3    0  502 -0.23220999013E+02  0.33352614847E+03  0.12464543455E+03  0.35681282329E+03  0.25500000920E-02 0. -1.
</event>
<event>
 5   0  0.2937617E-03  0.7042065E+03  0.7818609E-02  0.9710065E-01
        1   -1    0    0  501    0  0.00000000000E+00  0.00000000000E+00  0.56027470560E+03  0.56027470562E+03  0.50400001928E-02 0. -1.
       -1   -1    0    0    0  501  0.00000000000E+00  0.00000000000E+00 -0.22127843835E+03  0.22127843841E+03  0.50400001928E-02 0.  1.
    10030    2    1    2    0    0  0.00000000000E+00  0.00000000000E+00  0.33899626725E+03  0.78155314403E+03  0.70420653770E+03 0.  0.
        3    1    3    3  502    0  0.24589204207E+03  0.23023206497E+03  0.55735965118E+02  0.34143258207E+03  0.10100000352E+00 0.  1.
       -3    1    3    3    0  502 -0.24589204207E+03 -0.23023206497E+03  0.28326030213E+03  0.44012056196E+03  0.10100000352E+00 0. -1.
</event>
<event>
 5   0  0.5023894E-03  0.6999341E+03  0.7818609E-02  0.9717345E-01
       -2   -1    0    0    0  501  0.00000000000E+00  0.00000000000E+00  0.18847868730E+03  0.18847868732E+03  0.25500000920E-02 0. -1.
        2   -1    0    0  501    0  0.00000000000E+00  0.00000000000E+00 -0.64981849178E+03  0.64981849178E+03  0.25500000920E-02 0.  1.
    10030    2    1    2    0    0  0.00000000000E+00  0.00000000000E+00 -0.46133980448E+03  0.83829717910E+03  0.69993410068E+03 0.  0.
        2    1    3    3  502    0  0.73786780483E+02 -0.12771751029E+03 -0.61077193057E+03  0.62833001089E+03  0.25500000920E-02 0.  1.
       -2    1    3    3    0  502 -0.73786780483E+02  0.12771751029E+03  0.14943212610E+03  0.20996716821E+03  0.25500000920E-02 0. -1.
</event>
<event>
 5   0  0.5072407E-03  0.7011897E+03  0.7818609E-02  0.9715200E-01
       -2   -1    0    0    0  501  0.00000000000E+00  0.00000000000E+00  0.29498637271E+03  0.29498637272E+03  0.25500000920E-02 0. -1.
        2   -1    0    0  501    0  0.00000000000E+00  0.00000000000E+00 -0.41668613448E+03  0.41668613448E+03  0.25500000920E-02 0.  1.
    10030    2    1    2    0    0  0.00000000000E+00  0.00000000000E+00 -0.12169976177E+03  0.71167250720E+03  0.70118965016E+03 0.  0.
        1    1    3    3  502    0 -0.25933264972E+03 -0.81442552370E+02 -0.28558838879E+03  0.39426772678E+03  0.50400001928E-02 0.  1.
       -1    1    3    3    0  502  0.25933264972E+03  0.81442552370E+02  0.16388862702E+03  0.31740478042E+03  0.50400001928E-02 0. -1.
</event>
<event>
 5   0  0.5072407E-03  0.6996395E+03  0.7818609E-02  0.9717849E-01
        2   -1    0    0  501    0  0.00000000000E+00  0.00000000000E+00  0.20408595631E+04  0.20408595631E+04  0.25500000920E-02 0.  1.
       -2   -1    0    0    0  501  0.00000000000E+00  0.00000000000E+00 -0.59961913588E+02  0.59961913642E+02  0.25500000920E-02 0. -1.
    10030    2    1    2    0    0  0.00000000000E+00  0.00000000000E+00  0.19808976495E+04  0.21008214768E+04  0.69963946381E+03 0.  0.
        1    1    3    3  502    0 -0.60611598340E+02 -0.44537825081E+02 -0.35394190548E+02  0.83127206535E+02  0.50400001928E-02 0. -1.
       -1    1    3    3    0  502  0.60611598340E+02  0.44537825081E+02  0.20162918401E+04  0.20176942702E+04  0.50400001928E-02 0.  1.
</event>
<event>
 5   0  0.5113683E-03  0.6991361E+03  0.7818609E-02  0.9718711E-01
        2   -1    0    0  501    0  0.00000000000E+00  0.00000000000E+00  0.89095935560E+03  0.89095935560E+03  0.25500000920E-02 0. -1.
       -2   -1    0    0    0  501  0.00000000000E+00  0.00000000000E+00 -0.13715310015E+03  0.13715310017E+03  0.25500000920E-02 0.  1.
    10030    2    1    2    0    0  0.00000000000E+00  0.00000000000E+00  0.75380625545E+03  0.10281124558E+04  0.69913614624E+03 0.  0.
        3    1    3    3  502    0 -0.51773546695E+02  0.25992237221E+03  0.71210294451E+03  0.75982284350E+03  0.10100000352E+00 0. -1.
       -3    1    3    3    0  502  0.51773546695E+02 -0.25992237221E+03  0.41703310934E+02  0.26828961228E+03  0.10100000352E+00 0.  1.
</event>
<event>
 5   0  0.2938783E-03  0.7005409E+03  0.7818609E-02  0.9716308E-01
        1   -1    0    0  501    0  0.00000000000E+00  0.00000000000E+00  0.21602110002E+04  0.21602110002E+04  0.50400001928E-02 0. -1.
       -1   -1    0    0    0  501  0.00000000000E+00  0.00000000000E+00 -0.56795093654E+02  0.56795093878E+02  0.50400001928E-02 0.  1.
    10030    2    1    2    0    0  0.00000000000E+00  0.00000000000E+00  0.21034159065E+04  0.22170060941E+04  0.70054089480E+03 0.  0.
        4    1    3    3  502    0  0.13842527485E+03 -0.21933519032E+03  0.17967142760E+04  0.18153383389E+04  0.12699999809E+01 0. -1.
       -4    1    3    3    0  502 -0.13842527485E+03  0.21933519032E+03  0.30670163057E+03  0.40166775514E+03  0.12699999809E+01 0.  1.
</event>
<event>
 5   0  0.5113683E-03  0.6996406E+03  0.7818609E-02  0.9717847E-01
        2   -1    0    0  501    0  0.00000000000E+00  0.00000000000E+00  0.89146812846E+03  0.89146812846E+03  0.25500000920E-02 0.  1.
       -2   -1    0    0    0  501  0.00000000000E+00  0.00000000000E+00 -0.13727269358E+03  0.13727269360E+03  0.25500000920E-02 0. -1.
    10030    2    1    2    0    0  0.00000000000E+00  0.00000000000E+00  0.75419543488E+03  0.10287408221E+04  0.69964056843E+03 0.  0.
        3    1    3    3  502    0  0.11826177355E+03 -0.10532301309E+03 -0.81547876730E+02  0.17812594019E+03  0.10100000352E+00 0. -1.
       -3    1    3    3    0  502 -0.11826177355E+03  0.10532301309E+03  0.83574331161E+03  0.85061488188E+03  0.10100000352E+00 0.  1.
</event>
<event>
 5   0  0.3013140E-03  0.7006661E+03  0.7818609E-02  0.9716094E-01
       -1   -1    0    0    0  501  0.00000000000E+00  0.00000000000E+00  0.15097469466E+03  0.15097469475E+03  0.50400001928E-02 0. -1.
        1   -1    0    0  501    0  0.00000000000E+00  0.00000000000E+00 -0.81293926380E+03  0.81293926381E+03  0.50400001928E-02 0.  1.
    10030    2    1    2    0    0  0.00000000000E+00  0.00000000000E+00 -0.66196456914E+03  0.96391395856E+03  0.70066613213E+03 0.  0.
        2    1    3    3  502    0  0.11583270791E+03  0.22478811781E+03 -0.66453568008E+03  0.71102361722E+03  0.25500000920E-02 0.  1.
       -2    1    3    3    0  502 -0.11583270791E+03 -0.22478811781E+03  0.25711109451E+01  0.25289034134E+03  0.25500000920E-02 0. -1.
</event>
<event>
 5   0  0.1981750E-03  0.6997525E+03  0.7818609E-02  0.9717656E-01
        4   -1    0    0  501    0  0.00000000000E+00  0.00000000000E+00  0.33942412868E+03  0.33942650461E+03  0.12699999809E+01 0. -1.
       -4   -1    0    0    0  501  0.00000000000E+00  0.00000000000E+00 -0.36064549431E+03  0.36064773043E+03  0.12699999809E+01 0.  1.
    10030    2    1    2    0    0  0.00000000000E+00  0.00000000000E+00 -0.21221365630E+02  0.70007423503E+03  0.69975251925E+03 0.  0.
        2    1    3    3  502    0 -0.18354369199E+03 -0.22939892304E+03  0.17947994682E+03  0.34427489610E+03  0.25500000920E-02 0. -1.
       -2    1    3    3    0  502  0.18354369199E+03  0.22939892304E+03 -0.20070131245E+03  0.35579933894E+03  0.25500000920E-02 0.  1.
</event>
<event>
 5   0  0.5113683E-03  0.7003594E+03  0.7818609E-02  0.9716618E-01
       -2   -1    0    0    0  501  0.00000000000E+00  0.00000000000E+00  0.54105792903E+03  0.54105792903E+03  0.25500000920E-02 0. -1.
        2   -1    0    0  501    0  0.00000000000E+00  0.00000000000E+00 -0.22664080621E+03  0.22664080623E+03  0.25500000920E-02 0.  1.
    10030    2    1    2    0    0  0.00000000000E+00  0.00000000000E+00  0.31441712281E+03  0.76769873526E+03  0.70035935134E+03 0.  0.
        3    1    3    3  502    0 -0.19113323185E+03 -0.90327068644E+02  0.46321875529E+03  0.50917827635E+03  0.10100000352E+00 0. -1.
       -3    1    3    3    0  502  0.19113323185E+03  0.90327068644E+02 -0.14880163248E+03  0.25852045892E+03  0.10100000352E+00 0.  1.
</event>
<event>
 5   0  0.3013140E-03  0.6984554E+03  0.7818609E-02  0.9719877E-01
       -1   -1    0    0    0  501  0.00000000000E+00  0.00000000000E+00  0.17475845906E+03  0.17475845913E+03  0.50400001928E-02 0. -1.
        1   -1    0    0  501    0  0.00000000000E+00  0.00000000000E+00 -0.69787741345E+03  0.69787741347E+03  0.50400001928E-02 0.  1.
    10030    2    1    2    0    0  0.00000000000E+00  0.00000000000E+00 -0.52311895439E+03  0.87263587260E+03  0.69845538562E+03 0.  0.
        2    1    3    3  502    0 -0.77057085575E+01  0.66757451111E+02 -0.68972322604E+03  0.69298922342E+03  0.25500000920E-02 0.  1.
       -2    1    3    3    0  502  0.77057085575E+01 -0.66757451111E+02  0.16660427165E+03  0.17964664918E+03  0.25500000920E-02 0. -1.
</event>
<event>
 5   0  0.3013140E-03  0.6999723E+03  0.7818609E-02  0.9717280E-01
        1   -1    0    0  501    0  0.00000000000E+00  0.00000000000E+00  0.95176611172E+03  0.95176611173E+03  0.50400001928E-02 0.  1.
       -1   -1    0    0    0  501  0.00000000000E+00  0.00000000000E+00 -0.12869788869E+03  0.12869788879E+03  0.50400001928E-02 0. -1.
    10030    2    1    2    0    0  0.00000000000E+00  0.00000000000E+00  0.82306822303E+03  0.10804640005E+04  0.69997225420E+03 0.  0.
        2    1    3    3  502    0  0.11102955662E+03  0.26177019319E+03  0.96556196004E+02  0.30029035196E+03  0.25500000920E-02 0. -1.
       -2    1    3    3    0  502 -0.11102955662E+03 -0.26177019319E+03  0.72651202702E+03  0.78017364856E+03  0.25500000920E-02 0.  1.
</event>
<event>
 5   0  0.1981750E-03  0.7001411E+03  0.7818609E-02  0.9716991E-01
       -3   -1    0    0    0  501  0.00000000000E+00  0.00000000000E+00  0.78477527829E+03  0.78477528478E+03  0.10100000352E+00 0.  1.
        3   -1    0    0  501    0  0.00000000000E+00  0.00000000000E+00 -0.15615856349E+03  0.15615859616E+03  0.10100000352E+00 0. -1.
    10030    2    1    2    0    0  0.00000000000E+00  0.00000000000E+00  0.62861671479E+03  0.94093388094E+03  0.70014112448E+03 0.  0.
        1    1    3    3  502    0 -0.24835653492E+03 -0.59103753179E+01  0.64577887942E+03  0.69191492404E+03  0.50400001928E-02 0.  1.
       -1    1    3    3    0  502  0.24835653492E+03  0.59103753179E+01 -0.17162164633E+02  0.24901895690E+03  0.50400001928E-02 0. -1.
</event>
<event>
 5   0  0.2934483E-03  0.6999683E+03  0.7818609E-02  0.9717286E-01
        1   -1    0    0  501    0  0.00000000000E+00  0.00000000000E+00  0.38632178169E+03  0.38632178172E+03  0.50400001928E-02 0.  1.
       -1   -1    0    0    0  501  0.00000000000E+00  0.00000000000E+00 -0.31706445632E+03  0.31706445636E+03  0.50400001928E-02 0. -1.
    10030    2    1    2    0    0  0.00000000000E+00  0.00000000000E+00  0.69257325367E+02  0.70338623808E+03  0.69996830129E+03 0.  0.
        5    1    3    3  502    0  0.22000372700E+03 -0.11374699791E+03  0.28307426353E+03  0.37615574979E+03  0.46999998093E+01 0.  1.
       -5    1    3    3    0  502 -0.22000372700E+03  0.11374699791E+03 -0.21381693817E+03  0.32723048830E+03  0.46999998093E+01 0. -1.
</event>
<event>
 5   0  0.5023894E-03  0.6997879E+03  0.7818609E-02  0.9717595E-01
       -2   -1    0    0    0  501  0.00000000000E+00  0.00000000000E+00  0.16239919418E+03  0.16239919420E+03  0.25500000920E-02 0.  1.
        2   -1    0    0  501    0  0.00000000000E+00  0.00000000000E+00 -0.75385708983E+03  0.75385708984E+03  0.25500000920E-02 0. -1.
    10030    2    1    2    0    0  0.00000000000E+00  0.00000000000E+00 -0.59145789565E+03  0.91625628404E+03  0.69978792196E+03 0.  0.
        2    1    3    3  502    0  0.94645727441E+02  0.42574958209E+02 -0.73324125987E+03  0.74054924615E+03  0.25500000920E-02 0. -1.
       -2    1    3    3    0  502 -0.94645727441E+02 -0.42574958209E+02  0.14178336422E+03  0.17570703789E+03  0.25500000920E-02 0.  1.
</event>
<event>
 5   0  0.5023894E-03  0.7011927E+03  0.7818609E-02  0.9715195E-01
       -2   -1    0    0    0  501  0.00000000000E+00  0.00000000000E+00  0.16005872651E+03  0.16005872654E+03  0.25500000920E-02 0.  1.
        2   -1    0    0  501    0  0.00000000000E+00  0.00000000000E+00 -0.76795436936E+03  0.76795436936E+03  0.25500000920E-02 0. -1.
    10030    2    1    2    0    0  0.00000000000E+00  0.00000000000E+00 -0.60789564284E+03  0.92801309589E+03  0.70119269361E+03 0.  0.
        2    1    3    3  502    0  0.10493674573E+03  0.14200861667E+03  0.96914480703E+02  0.20142140996E+03  0.25500000920E-02 0.  1.
       -2    1    3    3    0  502 -0.10493674573E+03 -0.14200861667E+03 -0.70481012354E+03  0.72659168594E+03  0.25500000920E-02 0. -1.
</event>
<event>
 5   0  0.2937617E-03  0.6999988E+03  0.7818609E-02  0.9717234E-01
       -1   -1    0    0    0  501  0.00000000000E+00  0.00000000000E+00  0.12258077324E+04  0.12258077324E+04  0.50400001928E-02 0.  1.
        1   -1    0    0  501    0  0.00000000000E+00  0.00000000000E+00 -0.99933754623E+02  0.99933754751E+02  0.50400001928E-02 0. -1.
    10030    2    1    2    0    0  0.00000000000E+00  0.00000000000E+00  0.11258739778E+04  0.13257414872E+04  0.69999876925E+03 0.  0.
        3    1    3    3  502    0  0.22689393276E+03 -0.30592796640E+02  0.61556717918E+02  0.23707807923E+03  0.10100000352E+00 0. -1.
       -3    1    3    3    0  502 -0.22689393276E+03  0.30592796640E+02  0.10643172599E+04  0.10886634080E+04  0.10100000352E+00 0.  1.
</event>
<event>
 5   0  0.4878235E-03  0.6983394E+03  0.7818609E-02  0.9720076E-01
        2   -1    0    0  501    0  0.00000000000E+00  0.00000000000E+00  0.10744157808E+04  0.10744157808E+04  0.25500000920E-02 0. -1.
       -2   -1    0    0    0  501  0.00000000000E+00  0.00000000000E+00 -0.11347513116E+03  0.11347513119E+03  0.25500000920E-02 0.  1.
    10030    2    1    2    0    0  0.00000000000E+00  0.00000000000E+00  0.96094064963E+03  0.11878909120E+04  0.69833937785E+03 0.  0.
        4    1    3    3  502    0 -0.24186772776E+03 -0.56629101777E+02  0.89786602353E+03  0.93159640510E+03  0.12699999809E+01 0. -1.
       -4    1    3    3    0  502  0.24186772776E+03  0.56629101777E+02  0.63074626106E+02  0.25629450688E+03  0.12699999809E+01 0.  1.
</event>
<event>
 5   0  0.2913582E-03  0.6999956E+03  0.7818609E-02  0.9717240E-01
       -1   -1    0    0    0  501  0.00000000000E+00  0.00000000000E+00  0.21945254013E+03  0.21945254018E+03  0.50400001928E-02 0.  1.
        1   -1    0    0  501    0  0.00000000000E+00  0.00000000000E+00 -0.55820024206E+03  0.55820024209E+03  0.50400001928E-02 0. -1.
    10030    2    1    2    0    0  0.00000000000E+00  0.00000000000E+00 -0.33874770194E+03  0.77765278227E+03  0.69999560299E+03 0.  0.
        1    1    3    3  502    0  0.71700984665E+02  0.17589843986E+03 -0.49595449019E+03  0.53108582048E+03  0.50400001928E-02 0. -1.
       -1    1    3    3    0  502 -0.71700984665E+02 -0.17589843986E+03  0.15720678826E+03  0.24656696179E+03  0.50400001928E-02 0.  1.
</event>
<event>
 5   0  0.5023894E-03  0.7022600E+03  0.7818609E-02  0.9713375E-01
       -2   -1    0    0    0  501  0.00000000000E+00  0.00000000000E+00  0.96793184350E+02  0.96793184384E+02  0.25500000920E-02 0.  1.
        2   -1    0    0  501    0  0.00000000000E+00  0.00000000000E+00 -0.12737703271E+04  0.12737703272E+04  0.25500000920E-02 0. -1.
    10030    2    1    2    0    0  0.00000000000E+00  0.00000000000E+00 -0.11769771428E+04  0.13705635115E+04  0.70226002626E+03 0.  0.
        2    1    3    3  502    0  0.62347635929E+02  0.25725382187E+03 -0.13823080511E+03  0.29862101745E+03  0.25500000920E-02 0.  1.
       -2    1    3    3    0  502 -0.62347635929E+02 -0.25725382187E+03 -0.10387463377E+04  0.10719424941E+04  0.25500000920E-02 0. -1.
</event>
<event>
 5   0  0.2937617E-03  0.7021001E+03  0.7818609E-02  0.9713647E-01
        1   -1    0    0  501    0  0.00000000000E+00  0.00000000000E+00  0.38691236632E+03  0.38691236635E+03  0.50400001928E-02 0.  1.
       -1   -1    0    0    0  501  0.00000000000E+00  0.00000000000E+00 -0.31851174657E+03  0.31851174661E+03  0.50400001928E-02 0. -1.
    10030    2    1    2    0    0  0.00000000000E+00  0.00000000000E+00  0.68400619747E+02  0.70542411297E+03  0.70210008857E+03 0.  0.
        3    1    3    3  502    0  0.61787617065E+02  0.10024516372E+03 -0.29807573373E+03  0.32049330057E+03  0.10100000352E+00 0. -1.
       -3    1    3    3    0  502 -0.61787617065E+02 -0.10024516372E+03  0.36647635348E+03  0.38493081239E+03  0.10100000352E+00 0.  1.
</event>
<event>
 5   0  0.1981750E-03  0.6989897E+03  0.7818609E-02  0.9718961E-01
       -3   -1    0    0    0  501  0.00000000000E+00  0.00000000000E+00  0.91141868640E+03  0.91141869200E+03  0.10100000352E+00 0. -1.
        3   -1    0    0  501    0  0.00000000000E+00  0.00000000000E+00 -0.13401813913E+03  0.13401817719E+03  0.10100000352E+00 0.  1.
    10030    2    1    2    0    0  0.00000000000E+00  0.00000000000E+00  0.77740054727E+03  0.10454368692E+04  0.69898972565E+03 0.  0.
        1    1    3    3  502    0 -0.70307177887E+02  0.30436598134E+03  0.15428570340E+03  0.34840469021E+03  0.50400001928E-02 0.  1.
       -1    1    3    3    0  502  0.70307177887E+02 -0.30436598134E+03  0.62311484386E+03  0.69703217898E+03  0.50400001928E-02 0. -1.
</event>
<event>
 5   0  0.5072407E-03  0.6948674E+03  0.7818609E-02  0.9726050E-01
        2   -1    0    0  501    0  0.00000000000E+00  0.00000000000E+00  0.98854846057E+02  0.98854846090E+02  0.25500000920E-02 0. -1.
       -2   -1    0    0    0  501  0.00000000000E+00  0.00000000000E+00 -0.12210851930E+04  0.12210851930E+04  0.25500000920E-02 0.  1.
    10030    2    1    2    0    0  0.00000000000E+00  0.00000000000E+00 -0.11222303469E+04  0.13199400391E+04  0.69486743714E+03 0.  0.
        1    1    3    3  502    0 -0.26699383466E+03 -0.10294567240E+03 -0.93541300623E+03  0.97820295004E+03  0.50400001928E-02 0.  1.
       -1    1    3    3    0  502  0.26699383466E+03  0.10294567240E+03 -0.18681734068E+03  0.34173708903E+03  0.50400001928E-02 0. -1.
</event>
<event>
 5   0  0.1981750E-03  0.6998122E+03  0.7818609E-02  0.9717553E-01
       -4   -1    0    0    0  501  0.00000000000E+00  0.00000000000E+00  0.49138054651E+03  0.49138218770E+03  0.12699999809E+01 0.  1.
        4   -1    0    0  501    0  0.00000000000E+00  0.00000000000E+00 -0.24916020141E+03  0.24916343806E+03  0.12699999809E+01 0. -1.
    10030    2    1    2    0    0  0.00000000000E+00  0.00000000000E+00  0.24222034510E+03  0.74054562576E+03  0.69981220927E+03 0.  0.
        2    1    3    3  502    0 -0.20039838679E+02 -0.16435256035E+03  0.44730714645E+03  0.47696650040E+03  0.25500000920E-02 0.  1.
       -2    1    3    3    0  502  0.20039838679E+02  0.16435256035E+03 -0.20508680135E+03  0.26357912536E+03  0.25500000920E-02 0. -1.
</event>
<event>
 5   0  0.2913582E-03  0.7003681E+03  0.7818609E-02  0.9716603E-01
       -1   -1    0    0    0  501  0.00000000000E+00  0.00000000000E+00  0.98798604642E+02  0.98798604770E+02  0.50400001928E-02 0.  1.
        1   -1    0    0  501    0  0.00000000000E+00  0.00000000000E+00 -0.12412003009E+04  0.12412003010E+04  0.50400001928E-02 0. -1.
    10030    2    1    2    0    0  0.00000000000E+00  0.00000000000E+00 -0.11424016963E+04  0.13399989057E+04  0.70036806868E+03 0.  0.
        1    1    3    3  502    0  0.14191400630E+03 -0.37261144729E+02 -0.11795537356E+04  0.11886441828E+04  0.50400001928E-02 0. -1.
       -1    1    3    3    0  502 -0.14191400630E+03  0.37261144729E+02  0.37152039335E+02  0.15135472290E+03  0.50400001928E-02 0.  1.
</event>
<event>
 5   0  0.3013140E-03  0.6998722E+03  0.7818609E-02  0.9717451E-01
       -1   -1    0    0    0  501  0.00000000000E+00  0.00000000000E+00  0.53607555690E+03  0.53607555692E+03  0.50400001928E-02 0.  1.
        1   -1    0    0  501    0  0.00000000000E+00  0.00000000000E+00 -0.22842914381E+03  0.22842914386E+03  0.50400001928E-02 0. -1.
    10030    2    1    2    0    0  0.00000000000E+00  0.00000000000E+00  0.30764641309E+03  0.76450470078E+03  0.69987221836E+03 0.  0.
        2    1    3    3  502    0  0.14077626435E+03  0.16025651382E+03  0.45684950237E+03  0.50419398513E+03  0.25500000920E-02 0.  1.
       -2    1    3    3    0  502 -0.14077626435E+03 -0.16025651382E+03 -0.14920308928E+03  0.26031071565E+03  0.25500000920E-02 0. -1.
</event>
<event>
 5   0  0.2938783E-03  0.6986917E+03  0.7818609E-02  0.9719472E-01
        1   -1    0    0  501    0  0.00000000000E+00  0.00000000000E+00  0.23225863674E+03  0.23225863679E+03  0.50400001928E-02 0. -1.
       -1   -1    0    0    0  501  0.00000000000E+00  0.00000000000E+00 -0.52545956184E+03  0.52545956187E+03  0.50400001928E-02 0.  1.
    10030    2    1    2    0    0  0.00000000000E+00  0.00000000000E+00 -0.29320092510E+03  0.75771819866E+03  0.69869169603E+03 0.  0.
        4    1    3    3  502    0  0.28725966539E+02  0.12658464681E+03 -0.49833385878E+03  0.51496320419E+03  0.12699999809E+01 0.  1.
       -4    1    3    3    0  502 -0.28725966539E+02 -0.12658464681E+03  0.20513293368E+03  0.24275499447E+03  0.12699999809E+01 0. -1.
</event>
<event>
 5   0  0.5023894E-03  0.6982496E+03  0.7818609E-02  0.9720230E-01
       -2   -1    0    0    0  501  0.00000000000E+00  0.00000000000E+00  0.15267639077E+03  0.15267639079E+03  0.25500000920E-02 0.  1.
        2   -1    0    0  501    0  0.00000000000E+00  0.00000000000E+00 -0.79834298456E+03  0.79834298457E+03  0.25500000920E-02 0. -1.
    10030    2    1    2    0    0  0.00000000000E+00  0.00000000000E+00 -0.64566659379E+03  0.95101937536E+03  0.69824959862E+03 0.  0.
        2    1    3    3  502    0  0.17859617542E+02  0.30140715996E+03 -0.84101835212E+02  0.31342999331E+03  0.25500000920E-02 0. -1.
       -2    1    3    3    0  502 -0.17859617542E+02 -0.30140715996E+03 -0.56156475858E+03  0.63758938205E+03  0.25500000920E-02 0.  1.
</event>
<event>
 5   0  0.5023894E-03  0.6996819E+03  0.7818609E-02  0.9717776E-01
        2   -1    0    0  501    0  0.00000000000E+00  0.00000000000E+00  0.94125024712E+03  0.94125024713E+03  0.25500000920E-02 0. -1.
       -2   -1    0    0    0  501  0.00000000000E+00  0.00000000000E+00 -0.13002780314E+03  0.13002780316E+03  0.25500000920E-02 0.  1.
    10030    2    1    2    0    0  0.00000000000E+00  0.00000000000E+00  0.81122244399E+03  0.10712780503E+04  0.69968193302E+03 0.  0.
        2    1    3    3  502    0 -0.87708557570E+01  0.13737834729E+03 -0.86817784508E+02  0.16274847443E+03  0.25500000920E-02 0.  1.
       -2    1    3    3    0  502  0.87708557570E+01 -0.13737834729E+03  0.89804022849E+03  0.90852957586E+03  0.25500000920E-02 0. -1.
</event>
<event>
 5   0  0.4878235E-03  0.7024401E+03  0.7818609E-02  0.9713068E-01
        2   -1    0    0  501    0  0.00000000000E+00  0.00000000000E+00  0.12046121077E+04  0.12046121077E+04  0.25500000920E-02 0.  1.
       -2   -1    0    0    0  501  0.00000000000E+00  0.00000000000E+00 -0.10240269231E+03  0.10240269234E+03  0.25500000920E-02 0. -1.
    10030    2    1    2    0    0  0.00000000000E+00  0.00000000000E+00  0.11022094154E+04  0.13070148001E+04  0.70244009864E+03 0.  0.
        4    1    3    3  502    0  0.36768002093E+02  0.13245059861E+03  0.11524776135E+04  0.11606469358E+04  0.12699999809E+01 0.  1.
       -4    1    3    3    0  502 -0.36768002093E+02 -0.13245059861E+03 -0.50268198094E+02  0.14636786427E+03  0.12699999809E+01 0. -1.
</event>
<event>
 5   0  0.1981750E-03  0.6997082E+03  0.7818609E-02  0.9717731E-01
       -3   -1    0    0    0  501  0.00000000000E+00  0.00000000000E+00  0.48782714994E+03  0.48782716040E+03  0.10100000352E+00 0.  1.
        3   -1    0    0  501    0  0.00000000000E+00  0.00000000000E+00 -0.25090417041E+03  0.25090419074E+03  0.10100000352E+00 0. -1.
    10030    2    1    2    0    0  0.00000000000E+00  0.00000000000E+00  0.23692297953E+03  0.73873135114E+03  0.69970816125E+03 0.  0.
        5    1    3    3  502    0  0.11727472336E+03  0.59759902444E+02  0.46065365416E+03  0.47911218496E+03  0.46999998093E+01 0.  1.
       -5    1    3    3    0  502 -0.11727472336E+03 -0.59759902444E+02 -0.22373067463E+03  0.25961916618E+03  0.46999998093E+01 0. -1.
</event>
<event>
 5   0  0.5076796E-03  0.6955922E+03  0.7818609E-02  0.9724800E-01
       -2   -1    0    0    0  501  0.00000000000E+00  0.00000000000E+00  0.74419975057E+02  0.74419975100E+02  0.25500000920E-02 0.  1.
        2   -1    0    0  501    0  0.00000000000E+00  0.00000000000E+00 -0.16253987189E+04  0.16253987189E+04  0.25500000920E-02 0. -1.
    10030    2    1    2    0    0  0.00000000000E+00  0.00000000000E+00 -0.15509787439E+04  0.16998186941E+04  0.69559221433E+03 0.  0.
        5    1    3    3  502    0 -0.18902673415E+03  0.20827788609E+03 -0.12752798408E+04  0.13059370377E+04  0.46999998093E+01 0. -1.
       -5    1    3    3    0  502  0.18902673415E+03 -0.20827788609E+03 -0.27569890312E+03  0.39388165639E+03  0.46999998093E+01 0.  1.
</event>
<event>
 5   0  0.5023894E-03  0.6990619E+03  0.7818609E-02  0.9718838E-01
        2   -1    0    0  501    0  0.00000000000E+00  0.00000000000E+00  0.79858868126E+03  0.79858868127E+03  0.25500000920E-02 0.  1.
       -2   -1    0    0    0  501  0.00000000000E+00  0.00000000000E+00 -0.15298472385E+03  0.15298472387E+03  0.25500000920E-02 0. -1.
    10030    2    1    2    0    0  0.00000000000E+00  0.00000000000E+00  0.64560395741E+03  0.95157340514E+03  0.69906185388E+03 0.  0.
        2    1    3    3  502    0  0.30350555242E+03  0.16024196895E+03  0.23272739607E+03  0.41467475188E+03  0.25500000920E-02 0.  1.
       -2    1    3    3    0  502 -0.30350555242E+03 -0.16024196895E+03  0.41287656134E+03  0.53689865326E+03  0.25500000920E-02 0. -1.
</event>
<event>
 5   0  0.5072407E-03  0.7120390E+03  0.7818609E-02  0.9696863E-01
       -2   -1    0    0    0  501  0.00000000000E+00  0.00000000000E+00  0.27942274176E+03  0.27942274178E+03  0.25500000920E-02 0.  1.
        2   -1    0    0  501    0  0.00000000000E+00  0.00000000000E+00 -0.45361330514E+03  0.45361330515E+03  0.25500000920E-02 0. -1.
    10030    2    1    2    0    0  0.00000000000E+00  0.00000000000E+00 -0.17419056338E+03  0.73303604693E+03  0.71203896925E+03 0.  0.
        1    1    3    3  502    0  0.14584450030E+03 -0.18449478163E+03  0.18807093997E+03  0.30113057168E+03  0.50400001928E-02 0.  1.
       -1    1    3    3    0  502 -0.14584450030E+03  0.18449478163E+03 -0.36226150335E+03  0.43190547525E+03  0.50400001928E-02 0. -1.
</event>
<event>
 5   0  0.4878235E-03  0.7010010E+03  0.7818609E-02  0.9715522E-01
       -2   -1    0    0    0  501  0.00000000000E+00  0.00000000000E+00  0.83789526426E+02  0.83789526464E+02  0.25500000920E-02 0. -1.
        2   -1    0    0  501    0  0.00000000000E+00  0.00000000000E+00 -0.14661807256E+04  0.14661807256E+04  0.25500000920E-02 0.  1.
    10030    2    1    2    0    0  0.00000000000E+00  0.00000000000E+00 -0.13823911992E+04  0.15499702521E+04  0.70100096630E+03 0.  0.
        4    1    3    3  502    0  0.27130579295E+03  0.55474710715E+02 -0.11662679451E+04  0.11986937931E+04  0.12699999809E+01 0.  1.
       -4    1    3    3    0  502 -0.27130579295E+03 -0.55474710715E+02 -0.21612325410E+03  0.35127645905E+03  0.12699999809E+01 0. -1.
</event>
<event>
 5   0  0.4878235E-03  0.7005098E+03  0.7818609E-02  0.9716361E-01
        2   -1    0    0  501    0  0.00000000000E+00  0.00000000000E+00  0.84488822916E+03  0.84488822917E+03  0.25500000920E-02 0.  1.
       -2   -1    0    0    0  501  0.00000000000E+00  0.00000000000E+00 -0.14520087409E+03  0.14520087411E+03  0.25500000920E-02 0. -1.
    10030    2    1    2    0    0  0.00000000000E+00  0.00000000000E+00  0.69968735508E+03  0.99008910328E+03  0.70050984117E+03 0.  0.
        4    1    3    3  502    0  0.43788214289E+02  0.10823746853E+03 -0.11688147264E+03  0.16521394872E+03  0.12699999809E+01 0. -1.
       -4    1    3    3    0  502 -0.43788214289E+02 -0.10823746853E+03  0.81656882772E+03  0.82487515456E+03  0.12699999809E+01 0.  1.
</event>
<event>
 5   0  0.5076796E-03  0.7011245E+03  0.7818609E-02  0.9715311E-01
        2   -1    0    0  501    0  0.00000000000E+00  0.00000000000E+00  0.48228772250E+03  0.48228772250E+03  0.25500000920E-02 0.  1.
       -2   -1    0    0    0  501  0.00000000000E+00  0.00000000000E+00 -0.25481448904E+03  0.25481448905E+03  0.25500000920E-02 0. -1.
    10030    2    1    2    0    0  0.00000000000E+00  0.00000000000E+00  0.22747323346E+03  0.73710221155E+03  0.70112452413E+03 0.  0.
        5    1    3    3  502    0 -0.21231387723E+03  0.34790828235E+02  0.40467580179E+03  0.45833631620E+03  0.46999998093E+01 0.  1.
       -5    1    3    3    0  502  0.21231387723E+03 -0.34790828235E+02 -0.17720256833E+03  0.27876589536E+03  0.46999998093E+01 0. -1.
</event>
<event>
 5   0  0.3013140E-03  0.7021689E+03  0.7818609E-02  0.9713530E-01
       -1   -1    0    0    0  501  0.00000000000E+00  0.00000000000E+00  0.12349679910E+03  0.12349679921E+03  0.50400001928E-02 0. -1.
        1   -1    0    0  501    0  0.00000000000E+00  0.00000000000E+00 -0.99808503705E+03  0.99808503707E+03  0.50400001928E-02 0.  1.
    10030    2    1    2    0    0  0.00000000000E+00  0.00000000000E+00 -0.87458823795E+03  0.11215818363E+04  0.70216894655E+03 0.  0.
        2    1    3    3  502    0 -0.32352297997E+02 -0.28893383960E+03 -0.75164739370E+03  0.80591763805E+03  0.25500000920E-02 0.  1.
       -2    1    3    3    0  502  0.32352297997E+02  0.28893383960E+03 -0.12294084425E+03  0.31566419823E+03  0.25500000920E-02 0. -1.
</event>
<event>
 5   0  0.5076796E-03  0.7047027E+03  0.7818609E-02  0.9709224E-01
       -2   -1    0    0    0  501  0.00000000000E+00  0.00000000000E+00  0.31465398570E+03  0.31465398571E+03  0.25500000920E-02 0. -1.
        2   -1    0    0  501    0  0.00000000000E+00  0.00000000000E+00 -0.39456502063E+03  0.39456502064E+03  0.25500000920E-02 0.  1.
    10030    2    1    2    0    0  0.00000000000E+00  0.00000000000E+00 -0.79911034929E+02  0.70921900635E+03  0.70470265039E+03 0.  0.
        5    1    3    3  502    0  0.84891832385E+02  0.10338017803E+03 -0.36798195566E+03  0.39156978191E+03  0.46999998093E+01 0.  1.
       -5    1    3    3    0  502 -0.84891832385E+02 -0.10338017803E+03  0.28807092073E+03  0.31764922444E+03  0.46999998093E+01 0. -1.
</event>
<event>
 5   0  0.5113683E-03  0.7011988E+03  0.7818609E-02  0.9715184E-01
        2   -1    0    0  501    0  0.00000000000E+00  0.00000000000E+00  0.93532329292E+03  0.93532329292E+03  0.25500000920E-02 0. -1.
       -2   -1    0    0    0  501  0.00000000000E+00  0.00000000000E+00 -0.13141974346E+03  0.13141974348E+03  0.25500000920E-02 0.  1.
    10030    2    1    2    0    0  0.00000000000E+00  0.00000000000E+00  0.80390354946E+03  0.10667430364E+04  0.70119882264E+03 0.  0.
        3    1    3    3  502    0 -0.93362541541E+02 -0.26897912782E+03  0.90719192104E+02  0.29882489418E+03  0.10100000352E+00 0.  1.
       -3    1    3    3    0  502  0.93362541541E+02  0.26897912782E+03  0.71318435736E+03  0.76791814222E+03  0.10100000352E+00 0. -1.
</event>
<event>
 5   0  0.1981750E-03  0.7002754E+03  0.7818609E-02  0.9716761E-01
        4   -1    0    0  501    0  0.00000000000E+00  0.00000000000E+00  0.21316836772E+03  0.21317215085E+03  0.12699999809E+01 0. -1.
       -4   -1    0    0    0  501  0.00000000000E+00  0.00000000000E+00 -0.57510583127E+03  0.57510723353E+03  0.12699999809E+01 0.  1.
    10030    2    1    2    0    0  0.00000000000E+00  0.00000000000E+00 -0.36193746355E+03  0.78827938438E+03  0.70027541747E+03 0.  0.
        4    1    3    3  502    0 -0.16950717358E+03 -0.27687773870E+03 -0.33334832069E+02  0.32635377738E+03  0.12699999809E+01 0. -1.
       -4    1    3    3    0  502  0.16950717358E+03  0.27687773870E+03 -0.32860263148E+03  0.46192560700E+03  0.12699999809E+01 0.  1.
</event>
<event>
 5   0  0.2938783E-03  0.7027515E+03  0.7818609E-02  0.9712538E-01
       -1   -1    0    0    0  501  0.00000000000E+00  0.00000000000E+00  0.11302569178E+04  0.11302569178E+04  0.50400001928E-02 0.  1.
        1   -1    0    0  501    0  0.00000000000E+00  0.00000000000E+00 -0.10923615819E+03  0.10923615831E+03  0.50400001928E-02 0. -1.
    10030    2    1    2    0    0  0.00000000000E+00  0.00000000000E+00  0.10210207596E+04  0.12394930761E+04  0.70275151667E+03 0.  0.
        4    1    3    3  502    0 -0.30073195068E+03 -0.11727208622E+03  0.75535630875E+03  0.82143606838E+03  0.12699999809E+01 0. -1.
       -4    1    3    3    0  502  0.30073195068E+03  0.11727208622E+03  0.26566445083E+03  0.41805700772E+03  0.12699999809E+01 0.  1.
</event>
<event>
 5   0  0.2934483E-03  0.6984810E+03  0.7818609E-02  0.9719833E-01
        1   -1    0    0  501    0  0.00000000000E+00  0.00000000000E+00  0.11719128746E+04  0.11719128746E+04  0.50400001928E-02 0. -1.
       -1   -1    0    0    0  501  0.00000000000E+00  0.00000000000E+00 -0.10407678922E+03  0.10407678935E+03  0.50400001928E-02 0.  1.
    10030    2    1    2    0    0  0.00000000000E+00  0.00000000000E+00  0.10678360854E+04  0.12759896640E+04  0.69848100712E+03 0.  0.
        5    1    3    3  502    0 -0.25154294368E+03  0.18490517318E+03  0.24807644104E+03  0.39878288100E+03  0.46999998093E+01 0.  1.
       -5    1    3    3    0  502  0.25154294368E+03 -0.18490517318E+03  0.81975964436E+03  0.87720678298E+03  0.46999998093E+01 0. -1.
</event>
<event>
 5   0  0.2934483E-03  0.7003862E+03  0.7818609E-02  0.9716572E-01
        1   -1    0    0  501    0  0.00000000000E+00  0.00000000000E+00  0.54507208611E+03  0.54507208613E+03  0.50400001928E-02 0.  1.
       -1   -1    0    0    0  501  0.00000000000E+00  0.00000000000E+00 -0.22498896692E+03  0.22498896698E+03  0.50400001928E-02 0. -1.
    10030    2    1    2    0    0  0.00000000000E+00  0.00000000000E+00  0.32008311919E+03  0.77006105311E+03  0.70038619513E+03 0.  0.
        5    1    3    3  502    0 -0.20107017202E+03 -0.28454645220E+03  0.19840095669E+03  0.40097497073E+03  0.46999998093E+01 0.  1.
       -5    1    3    3    0  502  0.20107017202E+03  0.28454645220E+03  0.12168216250E+03  0.36908608238E+03  0.46999998093E+01 0. -1.
</event>
<event>
 5   0  0.1981750E-03  0.6973307E+03  0.7818609E-02  0.9721808E-01
        3   -1    0    0  501    0  0.00000000000E+00  0.00000000000E+00  0.17703744945E+03  0.17703747826E+03  0.10100000352E+00 0. -1.
       -3   -1    0    0    0  501  0.00000000000E+00  0.00000000000E+00 -0.68667677217E+03  0.68667677960E+03  0.10100000352E+00 0.  1.
    10030    2    1    2    0    0  0.00000000000E+00  0.00000000000E+00 -0.50963932272E+03  0.86371425787E+03  0.69733068194E+03 0.  0.
        4    1    3    3  502    0  0.78176261858E+01 -0.20184221311E+03  0.97179479500E+02  0.22415811029E+03  0.12699999809E+01 0. -1.
       -4    1    3    3    0  502 -0.78176261858E+01  0.20184221311E+03 -0.60681880222E+03  0.63955614758E+03  0.12699999809E+01 0.  1.
</event>
<event>
 5   0  0.5072407E-03  0.7004330E+03  0.7818609E-02  0.9716492E-01
       -2   -1    0    0    0  501  0.00000000000E+00  0.00000000000E+00  0.10473001471E+03  0.10473001474E+03  0.25500000920E-02 0. -1.
        2   -1    0    0  501    0  0.00000000000E+00  0.00000000000E+00 -0.11711217469E+04  0.11711217469E+04  0.25500000920E-02 0.  1.
    10030    2    1    2    0    0  0.00000000000E+00  0.00000000000E+00 -0.10663917322E+04  0.12758517616E+04  0.70043300264E+03 0.  0.
        1    1    3    3  502    0 -0.66728489365E+02 -0.16273972912E+03  0.18440718720E+02  0.17685296396E+03  0.50400001928E-02 0. -1.
       -1    1    3    3    0  502  0.66728489365E+02  0.16273972912E+03 -0.10848324509E+04  0.10989987977E+04  0.50400001928E-02 0.  1.
</event>
<event>
 5   0  0.5072407E-03  0.7008855E+03  0.7818609E-02  0.9715719E-01
       -2   -1    0    0    0  501  0.00000000000E+00  0.00000000000E+00  0.55827318999E+03  0.55827318999E+03  0.25500000920E-02 0. -1.
        2   -1    0    0  501    0  0.00000000000E+00  0.00000000000E+00 -0.21998215233E+03  0.21998215235E+03  0.25500000920E-02 0.  1.
    10030    2    1    2    0    0  0.00000000000E+00  0.00000000000E+00  0.33829103766E+03  0.77825534234E+03  0.70088554824E+03 0.  0.
        1    1    3    3  502    0 -0.27133030722E+03 -0.13776088172E+03 -0.23857598988E+02  0.30523332256E+03  0.50400001928E-02 0.  1.
       -1    1    3    3    0  502  0.27133030722E+03  0.13776088172E+03  0.36214863664E+03  0.47302201978E+03  0.50400001928E-02 0. -1.
</event>
<event>
 5   0  0.2938783E-03  0.7063761E+03  0.7818609E-02  0.9706390E-01
       -1   -1    0    0    0  501  0.00000000000E+00  0.00000000000E+00  0.60882380261E+02  0.60882380470E+02  0.50400001928E-02 0.  1.
        1   -1    0    0  501    0  0.00000000000E+00  0.00000000000E+00 -0.20488983791E+04  0.20488983791E+04  0.50400001928E-02 0. -1.
    10030    2    1    2    0    0  0.00000000000E+00  0.00000000000E+00 -0.19880159988E+04  0.21097807596E+04  0.70637613340E+03 0.  0.
        4    1    3    3  502    0  0.27665265339E+03  0.18572335314E+03 -0.13437320266E+04  0.13844302895E+04  0.12699999809E+01 0. -1.
       -4    1    3    3    0  502 -0.27665265339E+03 -0.18572335314E+03 -0.64428397229E+03  0.72535047003E+03  0.12699999809E+01 0.  1.
</event>
<event>
 5   0  0.5023894E-03  0.7094641E+03  0.7818609E-02  0.9701183E-01
        2   -1    0    0  501    0  0.00000000000E+00  0.00000000000E+00  0.14051237457E+04  0.14051237457E+04  0.25500000920E-02 0.  1.
       -2   -1    0    0    0  501  0.00000000000E+00  0.00000000000E+00 -0.89554276848E+02  0.89554276884E+02  0.25500000920E-02 0. -1.
    10030    2    1    2    0    0  0.00000000000E+00  0.00000000000E+00  0.13155694689E+04  0.14946780226E+04  0.70946413852E+03 0.  0.
        2    1    3    3  502    0 -0.10634018766E+03 -0.46482515010E+02 -0.48426505080E+02  0.12575367237E+03  0.25500000920E-02 0. -1.
       -2    1    3    3    0  502  0.10634018766E+03  0.46482515010E+02  0.13639959740E+04  0.13689243503E+04  0.25500000920E-02 0.  1.
</event>
<event>
 5   0  0.2934483E-03  0.7000161E+03  0.7818609E-02  0.9717205E-01
       -1   -1    0    0    0  501  0.00000000000E+00  0.00000000000E+00  0.16830905363E+03  0.16830905370E+03  0.50400001928E-02 0. -1.
        1   -1    0    0  501    0  0.00000000000E+00  0.00000000000E+00 -0.72786126999E+03  0.72786127001E+03  0.50400001928E-02 0.  1.
    10030    2    1    2    0    0  0.00000000000E+00  0.00000000000E+00 -0.55955221637E+03  0.89617032371E+03  0.70001611857E+03 0.  0.
        5    1    3    3  502    0 -0.12713732935E+03  0.11041946372E+03  0.11299548665E+03  0.20284582442E+03  0.46999998093E+01 0. -1.
       -5    1    3    3    0  502  0.12713732935E+03 -0.11041946372E+03 -0.67254770302E+03  0.69332449929E+03  0.46999998093E+01 0.  1.
</event>
<event>
 5   0  0.5076796E-03  0.7007440E+03  0.7818609E-02  0.9715961E-01
       -2   -1    0    0    0  501  0.00000000000E+00  0.00000000000E+00  0.16498161438E+03  0.16498161440E+03  0.25500000920E-02 0. -1.
        2   -1    0    0  501    0  0.00000000000E+00  0.00000000000E+00 -0.74408612847E+03  0.74408612848E+03  0.25500000920E-02 0.  1.
    10030    2    1    2    0    0  0.00000000000E+00  0.00000000000E+00 -0.57910451410E+03  0.90906774287E+03  0.70074397813E+03 0.  0.
        5    1    3    3  502    0 -0.31476364346E+03 -0.14984680680E+03 -0.24445910467E+03  0.42580812652E+03  0.46999998093E+01 0. -1.
       -5    1    3    3    0  502  0.31476364346E+03  0.14984680680E+03 -0.33464540942E+03  0.48325961635E+03  0.46999998093E+01 0.  1.
</event>
<event>
 5   0  0.5076796E-03  0.6995873E+03  0.7818609E-02  0.9717938E-01
        2   -1    0    0  501    0  0.00000000000E+00  0.00000000000E+00  0.82476343379E+03  0.82476343380E+03  0.25500000920E-02 0. -1.
       -2   -1    0    0    0  501  0.00000000000E+00  0.00000000000E+00 -0.14835235793E+03  0.14835235795E+03  0.25500000920E-02 0.  1.
    10030    2    1    2    0    0  0.00000000000E+00  0.00000000000E+00  0.67641107586E+03  0.97311579175E+03  0.69958730735E+03 0.  0.
        5    1    3    3  502    0 -0.16913513534E+03  0.45013644278E+02 -0.83014147129E+02  0.19376883340E+03  0.46999998093E+01 0.  1.
       -5    1    3    3    0  502  0.16913513534E+03 -0.45013644278E+02  0.75942522299E+03  0.77934695835E+03  0.46999998093E+01 0. -1.
</event>
<event>
 5   0  0.2913582E-03  0.6998265E+03  0.7818609E-02  0.9717529E-01
        1   -1    0    0  501    0  0.00000000000E+00  0.00000000000E+00  0.71712918798E+03  0.71712918800E+03  0.50400001928E-02 0.  1.
       -1   -1    0    0    0  501  0.00000000000E+00  0.00000000000E+00 -0.17073530740E+03  0.17073530748E+03  0.50400001928E-02 0. -1.
    10030    2    1    2    0    0  0.00000000000E+00  0.00000000000E+00  0.54639388058E+03  0.88786449547E+03  0.69982647105E+03 0.  0.
        1    1    3    3  502    0  0.33683158110E+02 -0.22941649952E+03  0.60566402880E+03  0.64853326916E+03  0.50400001928E-02 0. -1.
       -1    1    3    3    0  502 -0.33683158110E+02  0.22941649952E+03 -0.59270148222E+02  0.23933122632E+03  0.50400001928E-02 0.  1.
</event>
<event>
 5   0  0.2938783E-03  0.7001856E+03  0.7818609E-02  0.9716915E-01
        1   -1    0    0  501    0  0.00000000000E+00  0.00000000000E+00  0.12874188615E+04  0.12874188615E+04  0.50400001928E-02 0.  1.
       -1   -1    0    0    0  501  0.00000000000E+00  0.00000000000E+00 -0.95202100841E+02  0.95202100974E+02  0.50400001928E-02 0. -1.
    10030    2    1    2    0    0  0.00000000000E+00  0.00000000000E+00  0.11922167607E+04  0.13826209625E+04  0.70018563360E+03 0.  0.
        4    1    3    3  502    0  0.15987736572E+03 -0.62226259138E+01 -0.18778067798E+02  0.16110158867E+03  0.12699999809E+01 0. -1.
       -4    1    3    3    0  502 -0.15987736572E+03  0.62226259138E+01  0.12109948285E+04  0.12215193738E+04  0.12699999809E+01 0.  1.
</event>
<event>
 5   0  0.5113683E-03  0.7025934E+03  0.7818609E-02  0.9712807E-01
       -2   -1    0    0    0  501  0.00000000000E+00  0.00000000000E+00  0.63223703599E+02  0.63223703651E+02  0.25500000920E-02 0.  1.
        2   -1    0    0  501    0  0.00000000000E+00  0.00000000000E+00 -0.19519477474E+04  0.19519477474E+04  0.25500000920E-02 0. -1.
    10030    2    1    2    0    0  0.00000000000E+00  0.00000000000E+00 -0.18887240438E+04  0.20151714511E+04  0.70259338419E+03 0.  0.
        3    1    3    3  502    0 -0.84386401226E+02 -0.15473257249E+03 -0.72761910794E+02  0.19067653124E+03  0.10100000352E+00 0.  1.
       -3    1    3    3    0  502  0.84386401226E+02  0.15473257249E+03 -0.18159621330E+04  0.18244949198E+04  0.10100000352E+00 0. -1.
</event>
<event>
 5   0  0.5072407E-03  0.7011774E+03  0.7818609E-02  0.9715221E-01
        2   -1    0    0  501    0  0.00000000000E+00  0.00000000000E+00  0.24414113564E+03  0.24414113565E+03  0.25500000920E-02 0. -1.
       -2   -1    0    0    0  501  0.00000000000E+00  0.00000000000E+00 -0.50344825332E+03  0.50344825333E+03  0.25500000920E-02 0.  1.
    10030    2    1    2    0    0  0.00000000000E+00  0.00000000000E+00 -0.25930711768E+03  0.74758938897E+03  0.70117737644E+03 0.  0.
        1    1    3    3  502    0  0.15726542460E+03 -0.20855914498E+00 -0.46373064049E+03  0.48967189446E+03  0.50400001928E-02 0.  1.
       -1    1    3    3    0  502 -0.15726542460E+03  0.20855914498E+00  0.20442352281E+03  0.25791749451E+03  0.50400001928E-02 0. -1.
</event>
<event>
 5   0  0.5076796E-03  0.6992329E+03  0.7818609E-02  0.9718545E-01
       -2   -1    0    0    0  501  0.00000000000E+00  0.00000000000E+00  0.26144403319E+03  0.26144403320E+03  0.25500000920E-02 0.  1.
        2   -1    0    0  501    0  0.00000000000E+00  0.00000000000E+00 -0.46752517817E+03  0.46752517818E+03  0.25500000920E-02 0. -1.
    10030    2    1    2    0    0  0.00000000000E+00  0.00000000000E+00 -0.20608114498E+03  0.72896921138E+03  0.69923291743E+03 0.  0.
        5    1    3    3  502    0 -0.11748468239E+01 -0.30926098512E+03 -0.27296237464E+03  0.41252186021E+03  0.46999998093E+01 0. -1.
       -5    1    3    3    0  502  0.11748468239E+01  0.30926098512E+03  0.66881229662E+02  0.31644735117E+03  0.46999998093E+01 0.  1.
</event>
<event>
 5   0  0.1981750E-03  0.7009055E+03  0.7818609E-02  0.9715685E-01
       -4   -1    0    0    0  501  0.00000000000E+00  0.00000000000E+00  0.39925900191E+03  0.39926102177E+03  0.12699999809E+01 0. -1.
        4   -1    0    0  501    0  0.00000000000E+00  0.00000000000E+00 -0.30760857518E+03  0.30761119684E+03  0.12699999809E+01 0.  1.
    10030    2    1    2    0    0  0.00000000000E+00  0.00000000000E+00  0.91650426734E+02  0.70687221862E+03  0.70090550913E+03 0.  0.
        4    1    3    3  502    0  0.30859335597E+03 -0.15940211171E+03 -0.12262913845E+01  0.34733558594E+03  0.12699999809E+01 0. -1.
       -4    1    3    3    0  502 -0.30859335597E+03  0.15940211171E+03  0.92876718119E+02  0.35953663268E+03  0.12699999809E+01 0.  1.
</event>
<event>
 5   0  0.5113683E-03  0.6977561E+03  0.7818609E-02  0.9721077E-01
       -2   -1    0    0    0  501  0.00000000000E+00  0.00000000000E+00  0.14080125451E+03  0.14080125453E+03  0.25500000920E-02 0. -1.
        2   -1    0    0  501    0  0.00000000000E+00  0.00000000000E+00 -0.86445174613E+03  0.86445174613E+03  0.25500000920E-02 0.  1.
    10030    2    1    2    0    0  0.00000000000E+00  0.00000000000E+00 -0.72365049162E+03  0.10052530007E+04  0.69775609013E+03 0.  0.
        3    1    3    3  502    0  0.23709015587E+03  0.13703700712E+03 -0.50405330312E+02  0.27844495121E+03  0.10100000352E+00 0. -1.
       -3    1    3    3    0  502 -0.23709015587E+03 -0.13703700712E+03 -0.67324516131E+03  0.72680804946E+03  0.10100000352E+00 0.  1.
</event>
<event>
 5   0  0.4878235E-03  0.7003751E+03  0.7818609E-02  0.9716591E-01
       -2   -1    0    0    0  501  0.00000000000E+00  0.00000000000E+00  0.86685690782E+02  0.86685690819E+02  0.25500000920E-02 0.  1.
        2   -1    0    0  501    0  0.00000000000E+00  0.00000000000E+00 -0.14146663205E+04  0.14146663205E+04  0.25500000920E-02 0. -1.
    10030    2    1    2    0    0  0.00000000000E+00  0.00000000000E+00 -0.13279806297E+04  0.15013520113E+04  0.70037512020E+03 0.  0.
        4    1    3    3  502    0 -0.33309345088E+03  0.92209402493E+02 -0.78479527871E+03  0.85753079438E+03  0.12699999809E+01 0. -1.
       -4    1    3    3    0  502  0.33309345088E+03 -0.92209402493E+02 -0.54318535101E+03  0.64382121694E+03  0.12699999809E+01 0.  1.
</event>
<event>
 5   0  0.2934483E-03  0.7053190E+03  0.7818609E-02  0.9708179E-01
       -1   -1    0    0    0  501  0.00000000000E+00  0.00000000000E+00  0.17276901015E+03  0.17276901023E+03  0.50400001928E-02 0.  1.
        1   -1    0    0  501    0  0.00000000000E+00  0.00000000000E+00 -0.71985559704E+03  0.71985559706E+03  0.50400001928E-02 0. -1.
    10030    2    1    2    0    0  0.00000000000E+00  0.00000000000E+00 -0.54708658689E+03  0.89262460729E+03  0.70531904552E+03 0.  0.
        5    1    3    3  502    0 -0.20917337477E+02  0.29799144042E+03 -0.51068065907E+03  0.59165298877E+03  0.46999998093E+01 0. -1.
       -5    1    3    3    0  502  0.20917337477E+02 -0.29799144042E+03 -0.36405927817E+02  0.30097161851E+03  0.46999998093E+01 0.  1.
</event>
<event>
 5   0  0.5113683E-03  0.7017368E+03  0.7818609E-02  0.9714267E-01
       -2   -1    0    0    0  501  0.00000000000E+00  0.00000000000E+00  0.15946075165E+03  0.15946075167E+03  0.25500000920E-02 0.  1.
        2   -1    0    0  501    0  0.00000000000E+00  0.00000000000E+00 -0.77203099089E+03  0.77203099090E+03  0.25500000920E-02 0. -1.
    10030    2    1    2    0    0  0.00000000000E+00  0.00000000000E+00 -0.61257023924E+03  0.93149174257E+03  0.70173682280E+03 0.  0.
        3    1    3    3  502    0  0.17698987166E+03  0.18360793710E+03  0.13593841535E+02  0.25538616244E+03  0.10100000352E+00 0.  1.
       -3    1    3    3    0  502 -0.17698987166E+03 -0.18360793710E+03 -0.62616408077E+03  0.67610558013E+03  0.10100000352E+00 0. -1.
</event>
<event>
 5   0  0.4878235E-03  0.6983991E+03  0.7818609E-02  0.9719974E-01
        2   -1    0    0  501    0  0.00000000000E+00  0.00000000000E+00  0.95959624733E+03  0.95959624733E+03  0.25500000920E-02 0.  1.
       -2   -1    0    0    0  501  0.00000000000E+00  0.00000000000E+00 -0.12707463372E+03  0.12707463375E+03  0.25500000920E-02 0. -1.
    10030    2    1    2    0    0  0.00000000000E+00  0.00000000000E+00  0.83252161361E+03  0.10866708811E+04  0.69839914566E+03 0.  0.
        4    1    3    3  502    0  0.95234727528E+02  0.31843289687E+03  0.58289641680E+03  0.67099851621E+03  0.12699999809E+01 0.  1.
       -4    1    3    3    0  502 -0.95234727528E+02 -0.31843289687E+03  0.24962519681E+03  0.41567236488E+03  0.12699999809E+01 0. -1.
</event>
<event>
 5   0  0.5072407E-03  0.7017020E+03  0.7818609E-02  0.9714326E-01
        2   -1    0    0  501    0  0.00000000000E+00  0.00000000000E+00  0.11411294543E+04  0.11411294543E+04  0.25500000920E-02 0. -1.
       -2   -1    0    0    0  501  0.00000000000E+00  0.00000000000E+00 -0.10787243820E+03  0.10787243823E+03  0.25500000920E-02 0.  1.
    10030    2    1    2    0    0  0.00000000000E+00  0.00000000000E+00  0.10332570161E+04  0.12490018925E+04  0.70170197822E+03 0.  0.
        1    1    3    3  502    0  0.27124404701E+03  0.92241874405E+02  0.87710687981E+03  0.92271250943E+03  0.50400001928E-02 0. -1.
       -1    1    3    3    0  502 -0.27124404701E+03 -0.92241874405E+02  0.15615013628E+03  0.32628938309E+03  0.50400001928E-02 0.  1.
</event>
<event>
 5   0  0.2938783E-03  0.7007812E+03  0.7818609E-02  0.9715897E-01
        1   -1    0    0  501    0  0.00000000000E+00  0.00000000000E+00  0.49007621753E+03  0.49007621756E+03  0.50400001928E-02 0. -1.
       -1   -1    0    0    0  501  0.00000000000E+00  0.00000000000E+00 -0.25051933997E+03  0.25051934002E+03  0.50400001928E-02 0.  1.
    10030    2    1    2    0    0  0.00000000000E+00  0.00000000000E+00  0.23955687756E+03  0.74059555758E+03  0.70078119433E+03 0.  0.
        4    1    3    3  502    0 -0.18180819687E+02  0.31951640874E+03  0.27053913232E+03  0.41906361412E+03  0.12699999809E+01 0.  1.
       -4    1    3    3    0  502  0.18180819687E+02 -0.31951640874E+03 -0.30982254755E+02  0.32153194347E+03  0.12699999809E+01 0. -1.
</event>
<event>
 5   0  0.5113683E-03  0.7004324E+03  0.7818609E-02  0.9716493E-01
       -2   -1    0    0    0  501  0.00000000000E+00  0.00000000000E+00  0.23859556497E+03  0.23859556498E+03  0.25500000920E-02 0. -1.
        2   -1    0    0  501    0  0.00000000000E+00  0.00000000000E+00 -0.51405563141E+03  0.51405563141E+03  0.25500000920E-02 0.  1.
    10030    2    1    2    0    0  0.00000000000E+00  0.00000000000E+00 -0.27546006644E+03  0.75265119639E+03  0.70043242017E+03 0.  0.
        3    1    3    3  502    0 -0.84625345414E+02 -0.66468126886E+02 -0.49585092842E+03  0.50739295856E+03  0.10100000352E+00 0.  1.
       -3    1    3    3    0  502  0.84625345414E+02  0.66468126886E+02  0.22039086198E+03  0.24525823783E+03  0.10100000352E+00 0. -1.
</event>
<event>
 5   0  0.5076796E-03  0.7000252E+03  0.7818609E-02  0.9717189E-01
        2   -1    0    0  501    0  0.00000000000E+00  0.00000000000E+00  0.17826735089E+04  0.17826735089E+04  0.25500000920E-02 0.  1.
       -2   -1    0    0    0  501  0.00000000000E+00  0.00000000000E+00 -0.68721967993E+02  0.68721968041E+02  0.25500000920E-02 0. -1.
    10030    2    1    2    0    0  0.00000000000E+00  0.00000000000E+00  0.17139515409E+04  0.18513954769E+04  0.70002523345E+03 0.  0.
        5    1    3    3  502    0 -0.21861042210E+03 -0.21436022977E+03  0.13053840137E+04  0.13408170412E+04  0.46999998093E+01 0.  1.
       -5    1    3    3    0  502  0.21861042210E+03  0.21436022977E+03  0.40856752724E+03  0.51057843577E+03  0.46999998093E+01 0. -1.
</event>
<event>
 5   0  0.2937617E-03  0.7003212E+03  0.7818609E-02  0.9716683E-01
        1   -1    0    0  501    0  0.00000000000E+00  0.00000000000E+00  0.31581646642E+03  0.31581646646E+03  0.50400001928E-02 0.  1.
       -1   -1    0    0    0  501  0.00000000000E+00  0.00000000000E+00 -0.38823954256E+03  0.38823954260E+03  0.50400001928E-02 0. -1.
    10030    2    1    2    0    0  0.00000000000E+00  0.00000000000E+00 -0.72423076141E+02  0.70405600906E+03  0.70032118484E+03 0.  0.
        3    1    3    3  502    0 -0.29168832043E+03  0.60837571322E+02 -0.22111943082E+03  0.37104864809E+03  0.10100000352E+00 0. -1.
       -3    1    3    3    0  502  0.29168832043E+03 -0.60837571322E+02  0.14869635468E+03  0.33300736097E+03  0.10100000352E+00 0.  1.
</event>
<event>
 5   0  0.1981750E-03  0.7015763E+03  0.7818609E-02  0.9714540E-01
        3   -1    0    0  501    0  0.00000000000E+00  0.00000000000E+00  0.23398440381E+03  0.23398442561E+03  0.10100000352E+00 0.  1.
       -3   -1    0    0    0  501  0.00000000000E+00  0.00000000000E+00 -0.52589959144E+03  0.52589960114E+03  0.10100000352E+00 0. -1.
    10030    2    1    2    0    0  0.00000000000E+00  0.00000000000E+00 -0.29191518762E+03  0.75988402675E+03  0.70157626624E+03 0.  0.
        2    1    3    3  502    0 -0.99996538264E+01  0.24323443508E+03  0.12759853540E+03  0.27485336041E+03  0.25500000920E-02 0.  1.
       -2    1    3    3    0  502  0.99996538264E+01 -0.24323443508E+03 -0.41951372302E+03  0.48503066634E+03  0.25500000920E-02 0. -1.
</event>
<event>
 5   0  0.2938783E-03  0.7027095E+03  0.7818609E-02  0.9712610E-01
       -1   -1    0    0    0  501  0.00000000000E+00  0.00000000000E+00  0.37092121328E+03  0.37092121331E+03  0.50400001928E-02 0. -1.
        1   -1    0    0  501    0  0.00000000000E+00  0.00000000000E+00 -0.33282046167E+03  0.33282046171E+03  0.50400001928E-02 0.  1.
    10030    2    1    2    0    0  0.00000000000E+00  0.00000000000E+00  0.38100751603E+02  0.70374167502E+03  0.70270952597E+03 0.  0.
        4    1    3    3  502    0  0.28904569195E+03 -0.15946340489E+03  0.13952905963E+03  0.35839358381E+03  0.12699999809E+01 0. -1.
       -4    1    3    3    0  502 -0.28904569195E+03  0.15946340489E+03 -0.10142830803E+03  0.34534809121E+03  0.12699999809E+01 0.  1.
</event>
<event>
 5   0  0.4878235E-03  0.6995240E+03  0.7818609E-02  0.9718047E-01
        2   -1    0    0  501    0  0.00000000000E+00  0.00000000000E+00  0.29899603569E+03  0.29899603570E+03  0.25500000920E-02 0.  1.
       -2   -1    0    0    0  501  0.00000000000E+00  0.00000000000E+00 -0.40914737190E+03  0.40914737191E+03  0.25500000920E-02 0. -1.
    10030    2    1    2    0    0  0.00000000000E+00  0.00000000000E+00 -0.11015133621E+03  0.70814340761E+03  0.69952395876E+03 0.  0.
        4    1    3    3  502    0  0.24914796170E+03  0.20818966516E+03 -0.18673273379E+03  0.37455089143E+03  0.12699999809E+01 0. -1.
       -4    1    3    3    0  502 -0.24914796170E+03 -0.20818966516E+03  0.76581397581E+02  0.33359251618E+03  0.12699999809E+01 0.  1.
</event>
<event>
 5   0  0.2937617E-03  0.7000191E+03  0.7818609E-02  0.9717199E-01
       -1   -1    0    0    0  501  0.00000000000E+00  0.00000000000E+00  0.19409123030E+03  0.19409123036E+03  0.50400001928E-02 0. -1.
        1   -1    0    0  501    0  0.00000000000E+00  0.00000000000E+00 -0.63118097674E+03  0.63118097676E+03  0.50400001928E-02 0.  1.
    10030    2    1    2    0    0  0.00000000000E+00  0.00000000000E+00 -0.43708974644E+03  0.82527220713E+03  0.70001912074E+03 0.  0.
        3    1    3    3  502    0 -0.14432473686E+03  0.31439592097E+03 -0.28128619641E+03  0.44586585347E+03  0.10100000352E+00 0. -1.
       -3    1    3    3    0  502  0.14432473686E+03 -0.31439592097E+03 -0.15580355003E+03  0.37940635366E+03  0.10100000352E+00 0.  1.
</event>
<event>
 5   0  0.5076796E-03  0.7008218E+03  0.7818609E-02  0.9715828E-01
       -2   -1    0    0    0  501  0.00000000000E+00  0.00000000000E+00  0.44289231884E+02  0.44289231958E+02  0.25500000920E-02 0. -1.
        2   -1    0    0  501    0  0.00000000000E+00  0.00000000000E+00 -0.27724078255E+04  0.27724078255E+04  0.25500000920E-02 0.  1.
    10030    2    1    2    0    0  0.00000000000E+00  0.00000000000E+00 -0.27281185936E+04  0.28166970574E+04  0.70082184089E+03 0.  0.
        5    1    3    3  502    0 -0.22980177457E+03  0.14496168894E+03 -0.22532147576E+04  0.22695421522E+04  0.46999998093E+01 0.  1.
       -5    1    3    3    0  502  0.22980177457E+03 -0.14496168894E+03 -0.47490383598E+03  0.54715490520E+03  0.46999998093E+01 0. -1.
</event>
<event>
 5   0  0.5023894E-03  0.7050215E+03  0.7818609E-02  0.9708683E-01
       -2   -1    0    0    0  501  0.00000000000E+00  0.00000000000E+00  0.91528195849E+03  0.91528195850E+03  0.25500000920E-02 0.  1.
        2   -1    0    0  501    0  0.00000000000E+00  0.00000000000E+00 -0.13576564567E+03  0.13576564569E+03  0.25500000920E-02 0. -1.
    10030    2    1    2    0    0  0.00000000000E+00  0.00000000000E+00  0.77951631282E+03  0.10510476042E+04  0.70502154882E+03 0.  0.
        2    1    3    3  502    0  0.22354666617E+03 -0.47108443416E+02 -0.10464676911E+02  0.22869592665E+03  0.25500000920E-02 0. -1.
       -2    1    3    3    0  502 -0.22354666617E+03  0.47108443416E+02  0.78998098974E+03  0.82235167754E+03  0.25500000920E-02 0.  1.
</event>
<event>
 5   0  0.5076796E-03  0.6992692E+03  0.7818609E-02  0.9718483E-01
        2   -1    0    0  501    0  0.00000000000E+00  0.00000000000E+00  0.48307449263E+03  0.48307449263E+03  0.25500000920E-02 0. -1.
       -2   -1    0    0    0  501  0.00000000000E+00  0.00000000000E+00 -0.25305489462E+03  0.25305489463E+03  0.25500000920E-02 0.  1.
    10030    2    1    2    0    0  0.00000000000E+00  0.00000000000E+00  0.23001959801E+03  0.73612938726E+03  0.69926923236E+03 0.  0.
        5    1    3    3  502    0  0.16505664583E+03  0.13773808161E+03 -0.17521596178E+03  0.27737735798E+03  0.46999998093E+01 0.  1.
       -5    1    3    3    0  502 -0.16505664583E+03 -0.13773808161E+03  0.40523555979E+03  0.45875202929E+03  0.46999998093E+01 0. -1.
</event>
<event>
 5   0  0.2937617E-03  0.7001891E+03  0.7818609E-02  0.9716909E-01
        1   -1    0    0  501    0  0.00000000000E+00  0.00000000000E+00  0.24062081413E+03  0.24062081418E+03  0.50400001928E-02 0.  1.
       -1   -1    0    0    0  501  0.00000000000E+00  0.00000000000E+00 -0.50937488700E+03  0.50937488702E+03  0.50400001928E-02 0. -1.
    10030    2    1    2    0    0  0.00000000000E+00  0.00000000000E+00 -0.26875407287E+03  0.74999570121E+03  0.70018911742E+03 0.  0.
        3    1    3    3  502    0  0.21165512727E+03 -0.72488107051E+02 -0.42281582561E+03  0.47835724218E+03  0.10100000352E+00 0. -1.
       -3    1    3    3    0  502 -0.21165512727E+03  0.72488107051E+02  0.15406175274E+03  0.27163845903E+03  0.10100000352E+00 0.  1.
</event>
<event>
 5   0  0.3013140E-03  0.6989575E+03  0.7818609E-02  0.9719017E-01
       -1   -1    0    0    0  501  0.00000000000E+00  0.00000000000E+00  0.35460568299E+03  0.35460568303E+03  0.50400001928E-02 0.  1.
        1   -1    0    0  501    0  0.00000000000E+00  0.00000000000E+00 -0.34442595271E+03  0.34442595275E+03  0.50400001928E-02 0. -1.
    10030    2    1    2    0    0  0.00000000000E+00  0.00000000000E+00  0.10179730280E+02  0.69903163578E+03  0.69895751009E+03 0.  0.
        2    1    3    3  502    0  0.10618942960E+03 -0.32221645446E+03  0.88978208331E+02  0.35073745174E+03  0.25500000920E-02 0.  1.
       -2    1    3    3    0  502 -0.10618942960E+03  0.32221645446E+03 -0.78798478051E+02  0.34829418404E+03  0.25500000920E-02 0. -1.
</event>
<event>
 5   0  0.5113683E-03  0.6999802E+03  0.7818609E-02  0.9717266E-01
       -2   -1    0    0    0  501  0.00000000000E+00  0.00000000000E+00  0.16152091512E+03  0.16152091514E+03  0.25500000920E-02 0. -1.
        2   -1    0    0  501    0  0.00000000000E+00  0.00000000000E+00 -0.75837283653E+03  0.75837283653E+03  0.25500000920E-02 0.  1.
    10030    2    1    2    0    0  0.00000000000E+00  0.00000000000E+00 -0.59685192141E+03  0.91989375167E+03  0.69998021277E+03 0.  0.
        3    1    3    3  502    0 -0.14043606578E+03  0.16404407417E+03 -0.66038483894E+03  0.69479557608E+03  0.10100000352E+00 0.  1.
       -3    1    3    3    0  502  0.14043606578E+03 -0.16404407417E+03  0.63532917528E+02  0.22509817559E+03  0.10100000352E+00 0. -1.
</event>
<event>
 5   0  0.3013140E-03  0.6991128E+03  0.7818609E-02  0.9718751E-01
       -1   -1    0    0    0  501  0.00000000000E+00  0.00000000000E+00  0.13624446522E+03  0.13624446532E+03  0.50400001928E-02 0. -1.
        1   -1    0    0  501    0  0.00000000000E+00  0.00000000000E+00 -0.89684151229E+03  0.89684151230E+03  0.50400001928E-02 0.  1.
    10030    2    1    2    0    0  0.00000000000E+00  0.00000000000E+00 -0.76059704706E+03  0.10330859776E+04  0.69911284436E+03 0.  0.
        2    1    3    3  502    0  0.94342035402E+02 -0.16192647618E+03 -0.81633335757E+03  0.83756835782E+03  0.25500000920E-02 0.  1.
       -2    1    3    3    0  502 -0.94342035402E+02  0.16192647618E+03  0.55736310514E+02  0.19551761979E+03  0.25500000920E-02 0. -1.
</event>
<event>
 5   0  0.4878235E-03  0.7018057E+03  0.7818609E-02  0.9714149E-01
       -2   -1    0    0    0  501  0.00000000000E+00  0.00000000000E+00  0.80672878452E+02  0.80672878492E+02  0.25500000920E-02 0.  1.
        2   -1    0    0  501    0  0.00000000000E+00  0.00000000000E+00 -0.15263221949E+04  0.15263221949E+04  0.25500000920E-02 0. -1.
    10030    2    1    2    0    0  0.00000000000E+00  0.00000000000E+00 -0.14456493165E+04  0.16069950734E+04  0.70180568519E+03 0.  0.
        4    1    3    3  502    0  0.11818122639E+02 -0.29696665961E+03 -0.29565361479E+03  0.41921538352E+03  0.12699999809E+01 0.  1.
       -4    1    3    3    0  502 -0.11818122639E+02  0.29696665961E+03 -0.11499957017E+04  0.11877796899E+04  0.12699999809E+01 0. -1.
</event>
<event>
 5   0  0.2938783E-03  0.7056325E+03  0.7818609E-02  0.9707648E-01
       -1   -1    0    0    0  501  0.00000000000E+00  0.00000000000E+00  0.64985397132E+03  0.64985397134E+03  0.50400001928E-02 0.  1.
        1   -1    0    0  501    0  0.00000000000E+00  0.00000000000E+00 -0.19154964780E+03  0.19154964787E+03  0.50400001928E-02 0. -1.
    10030    2    1    2    0    0  0.00000000000E+00  0.00000000000E+00  0.45830432351E+03  0.84140361920E+03  0.70563248045E+03 0.  0.
        4    1    3    3  502    0 -0.26322207599E+03 -0.11352712129E+03  0.47440471723E+03  0.55428847831E+03  0.12699999809E+01 0.  1.
       -4    1    3    3    0  502  0.26322207599E+03  0.11352712129E+03 -0.16100393712E+02  0.28711514090E+03  0.12699999809E+01 0. -1.
</event>
<event>
 5   0  0.2913582E-03  0.7003280E+03  0.7818609E-02  0.9716671E-01
        1   -1    0    0  501    0  0.00000000000E+00  0.00000000000E+00  0.11249121564E+03  0.11249121575E+03  0.50400001928E-02 0. -1.
       -1   -1    0    0    0  501  0.00000000000E+00  0.00000000000E+00 -0.10899948013E+04  0.10899948013E+04  0.50400001928E-02 0.  1.
    10030    2    1    2    0    0  0.00000000000E+00  0.00000000000E+00 -0.97750358564E+03  0.12024860170E+04  0.70032803831E+03 0.  0.
        1    1    3    3  502    0 -0.62161162356E+02 -0.34955456727E+02 -0.10773933806E+04  0.10797510781E+04  0.50400001928E-02 0.  1.
       -1    1    3    3    0  502  0.62161162356E+02  0.34955456727E+02  0.99889794995E+02  0.12273493891E+03  0.50400001928E-02 0. -1.
</event>
<event>
 5   0  0.2934483E-03  0.7005191E+03  0.7818609E-02  0.9716345E-01
       -1   -1    0    0    0  501  0.00000000000E+00  0.00000000000E+00  0.60042061593E+02  0.60042061805E+02  0.50400001928E-02 0.  1.
        1   -1    0    0  501    0  0.00000000000E+00  0.00000000000E+00 -0.20432632362E+04  0.20432632362E+04  0.50400001928E-02 0. -1.
    10030    2    1    2    0    0  0.00000000000E+00  0.00000000000E+00 -0.19832211746E+04  0.21033052980E+04  0.70051905700E+03 0.  0.
        5    1    3    3  502    0 -0.19281847839E+03 -0.24095405449E+03 -0.14888099249E+04  0.15204653579E+04  0.46999998093E+01 0. -1.
       -5    1    3    3    0  502  0.19281847839E+03  0.24095405449E+03 -0.49441124964E+03  0.58283994008E+03  0.46999998093E+01 0.  1.
</event>
<event>
 5   0  0.2937617E-03  0.7020693E+03  0.7818609E-02  0.9713700E-01
        1   -1    0    0  501    0  0.00000000000E+00  0.00000000000E+00  0.11774467789E+04  0.11774467789E+04  0.50400001928E-02 0.  1.
       -1   -1    0    0    0  501  0.00000000000E+00  0.00000000000E+00 -0.10465469393E+03  0.10465469406E+03  0.50400001928E-02 0. -1.
    10030    2    1    2    0    0  0.00000000000E+00  0.00000000000E+00  0.10727920849E+04  0.12821014729E+04  0.70206931951E+03 0.  0.
        3    1    3    3  502    0 -0.14605352872E+03 -0.10321812527E+03  0.10880088568E+04  0.11026100386E+04  0.10100000352E+00 0.  1.
       -3    1    3    3    0  502  0.14605352872E+03  0.10321812527E+03 -0.15216771868E+02  0.17949143429E+03  0.10100000352E+00 0. -1.
</event>
<event>
 5   0  0.5023894E-03  0.7012533E+03  0.7818609E-02  0.9715091E-01
        2   -1    0    0  501    0  0.00000000000E+00  0.00000000000E+00  0.16386958018E+03  0.16386958020E+03  0.25500000920E-02 0.  1.
       -2   -1    0    0    0  501  0.00000000000E+00  0.00000000000E+00 -0.75022500603E+03  0.75022500603E+03  0.25500000920E-02 0. -1.
    10030    2    1    2    0    0  0.00000000000E+00  0.00000000000E+00 -0.58635542585E+03  0.91409458623E+03  0.70125332594E+03 0.  0.
        2    1    3    3  502    0 -0.24246284668E+03 -0.47505966000E+02  0.31117476149E+02  0.24902479024E+03  0.25500000920E-02 0.  1.
       -2    1    3    3    0  502  0.24246284668E+03  0.47505966000E+02 -0.61747290200E+03  0.66506979599E+03  0.25500000920E-02 0. -1.
</event>
<event>
 5   0  0.2938783E-03  0.6992936E+03  0.7818609E-02  0.9718441E-01
        1   -1    0    0  501    0  0.00000000000E+00  0.00000000000E+00  0.62154587400E+03  0.62154587402E+03  0.50400001928E-02 0. -1.
       -1   -1    0    0    0  501  0.00000000000E+00  0.00000000000E+00 -0.19669167045E+03  0.19669167052E+03  0.50400001928E-02 0.  1.
    10030    2    1    2    0    0  0.00000000000E+00  0.00000000000E+00  0.42485420355E+03  0.81823754454E+03  0.69929363290E+03 0.  0.
        4    1    3    3  502    0  0.78011618068E+02 -0.14952664475E+03  0.57080237664E+03  0.59519828303E+03  0.12699999809E+01 0. -1.
       -4    1    3    3    0  502 -0.78011618068E+02  0.14952664475E+03 -0.14594817310E+03  0.22303926151E+03  0.12699999809E+01 0.  1.
</event>
<event>
 5   0  0.5076796E-03  0.6993338E+03  0.7818609E-02  0.9718372E-01
       -2   -1    0    0    0  501  0.00000000000E+00  0.00000000000E+00  0.17375172043E+03  0.17375172045E+03  0.25500000920E-02 0. -1.
        2   -1    0    0  501    0  0.00000000000E+00  0.00000000000E+00 -0.70368764175E+03  0.70368764176E+03  0.25500000920E-02 0.  1.
    10030    2    1    2    0    0  0.00000000000E+00  0.00000000000E+00 -0.52993592132E+03  0.87743936221E+03  0.69933379273E+03 0.  0.
        5    1    3    3  502    0  0.13143099075E+03  0.32029123553E+02 -0.66948250963E+03  0.68302920200E+03  0.46999998093E+01 0.  1.
       -5    1    3    3    0  502 -0.13143099075E+03 -0.32029123553E+02  0.13954658831E+03  0.19441016021E+03  0.46999998093E+01 0. -1.
</event>
<event>
 5   0  0.1981750E-03  0.7012014E+03  0.7818609E-02  0.9715180E-01
       -3   -1    0    0    0  501  0.00000000000E+00  0.00000000000E+00  0.24303343827E+03  0.24303345926E+03  0.10100000352E+00 0. -1.
        3   -1    0    0  501    0  0.00000000000E+00  0.00000000000E+00 -0.50577741455E+03  0.50577742464E+03  0.10100000352E+00 0.  1.
    10030    2    1    2    0    0  0.00000000000E+00  0.00000000000E+00 -0.26274397628E+03  0.74881088389E+03  0.70120135679E+03 0.  0.
        4    1    3    3  502    0 -0.13053040768E+03  0.29895070344E+03  0.58414111416E+01  0.32625978207E+03  0.12699999809E+01 0.  1.
       -4    1    3    3    0  502  0.13053040768E+03 -0.29895070344E+03 -0.26858538742E+03  0.42255110182E+03  0.12699999809E+01 0. -1.
</event>
<event>
 5   0  0.4878235E-03  0.6999722E+03  0.7818609E-02  0.9717280E-01
       -2   -1    0    0    0  501  0.00000000000E+00  0.00000000000E+00  0.28140846637E+03  0.28140846638E+03  0.25500000920E-02 0. -1.
        2   -1    0    0  501    0  0.00000000000E+00  0.00000000000E+00 -0.43527571641E+03  0.43527571642E+03  0.25500000920E-02 0.  1.
    10030    2    1    2    0    0  0.00000000000E+00  0.00000000000E+00 -0.15386725004E+03  0.71668418279E+03  0.69997220461E+03 0.  0.
        4    1    3    3  502    0 -0.89889480057E+02 -0.32488359633E+03  0.19436852568E+02  0.33765200122E+03  0.12699999809E+01 0. -1.
       -4    1    3    3    0  502  0.89889480057E+02  0.32488359633E+03 -0.17330410261E+03  0.37903218158E+03  0.12699999809E+01 0.  1.
</event>
<event>
 5   0  0.2913582E-03  0.6998506E+03  0.7818609E-02  0.9717488E-01
        1   -1    0    0  501    0  0.00000000000E+00  0.00000000000E+00  0.53537741867E+03  0.53537741870E+03  0.50400001928E-02 0.  1.
       -1   -1    0    0    0  501  0.00000000000E+00  0.00000000000E+00 -0.22871285579E+03  0.22871285585E+03  0.50400001928E-02 0. -1.
    10030    2    1    2    0    0  0.00000000000E+00  0.00000000000E+00  0.30666456288E+03  0.76409027454E+03  0.69985055085E+03 0.  0.
        1    1    3    3  502    0  0.17226043264E+03  0.26621415312E+03  0.31491753968E+03  0.44689673169E+03  0.50400001928E-02 0.  1.
       -1    1    3    3    0  502 -0.17226043264E+03 -0.26621415312E+03 -0.82529767932E+01  0.31719354285E+03  0.50400001928E-02 0. -1.
</event>
<event>
 5   0  0.5076796E-03  0.7017286E+03  0.7818609E-02  0.9714281E-01
        2   -1    0    0  501    0  0.00000000000E+00  0.00000000000E+00  0.11536707189E+04  0.11536707189E+04  0.25500000920E-02 0.  1.
       -2   -1    0    0    0  501  0.00000000000E+00  0.00000000000E+00 -0.10670786652E+03  0.10670786655E+03  0.25500000920E-02 0. -1.
    10030    2    1    2    0    0  0.00000000000E+00  0.00000000000E+00  0.10469628524E+04  0.12603785855E+04  0.70172855466E+03 0.  0.
        5    1    3    3  502    0 -0.21957723764E+03  0.14363545920E+03  0.94177873631E+03  0.97765770421E+03  0.46999998093E+01 0.  1.
       -5    1    3    3    0  502  0.21957723764E+03 -0.14363545920E+03  0.10518411610E+03  0.28272088128E+03  0.46999998093E+01 0. -1.
</event>
<event>
 5   0  0.1981750E-03  0.6984110E+03  0.7818609E-02  0.9719953E-01
       -3   -1    0    0    0  501  0.00000000000E+00  0.00000000000E+00  0.39541738347E+03  0.39541739637E+03  0.10100000352E+00 0.  1.
        3   -1    0    0  501    0  0.00000000000E+00  0.00000000000E+00 -0.30839431121E+03  0.30839432775E+03  0.10100000352E+00 0. -1.
    10030    2    1    2    0    0  0.00000000000E+00  0.00000000000E+00  0.87023072260E+02  0.70381172412E+03  0.69841100214E+03 0.  0.
        2    1    3    3  502    0 -0.27208342372E+03 -0.95504459816E+01 -0.17686625997E+03  0.32465716441E+03  0.25500000920E-02 0. -1.
       -2    1    3    3    0  502  0.27208342372E+03  0.95504459816E+01  0.26388933223E+03  0.37915455971E+03  0.25500000920E-02 0.  1.
</event>
<event>
 5   0  0.5072407E-03  0.7004006E+03  0.7818609E-02  0.9716547E-01
        2   -1    0    0  501    0  0.00000000000E+00  0.00000000000E+00  0.15920962744E+04  0.15920962744E+04  0.25500000920E-02 0.  1.
       -2   -1    0    0    0  501  0.00000000000E+00  0.00000000000E+00 -0.77030667656E+02  0.77030667699E+02  0.25500000920E-02 0. -1.
    10030    2    1    2    0    0  0.00000000000E+00  0.00000000000E+00  0.15150656067E+04  0.16691269421E+04  0.70040056831E+03 0.  0.
        1    1    3    3  502    0 -0.18795304349E+03 -0.20188559695E+03  0.12717317294E+04  0.13013015532E+04  0.50400001928E-02 0.  1.
       -1    1    3    3    0  502  0.18795304349E+03  0.20188559695E+03  0.24333387732E+03  0.36782538886E+03  0.50400001928E-02 0. -1.
</event>
<event>
 5   0  0.5113683E-03  0.7013709E+03  0.7818609E-02  0.9714891E-01
        2   -1    0    0  501    0  0.00000000000E+00  0.00000000000E+00  0.41450899331E+03  0.41450899332E+03  0.25500000920E-02 0.  1.
       -2   -1    0    0    0  501  0.00000000000E+00  0.00000000000E+00 -0.29668907276E+03  0.29668907277E+03  0.25500000920E-02 0. -1.
    10030    2    1    2    0    0  0.00000000000E+00  0.00000000000E+00  0.11781992055E+03  0.71119806609E+03  0.70137091152E+03 0.  0.
        3    1    3    3  502    0 -0.22223602061E+03  0.87240379141E+02 -0.20155587726E+03  0.31244921902E+03  0.10100000352E+00 0. -1.
       -3    1    3    3    0  502  0.22223602061E+03 -0.87240379141E+02  0.31937579781E+03  0.39874884707E+03  0.10100000352E+00 0.  1.
</event>
<event>
 5   0  0.2913582E-03  0.6983140E+03  0.7818609E-02  0.9720120E-01
       -1   -1    0    0    0  501  0.00000000000E+00  0.00000000000E+00  0.30482240149E+03  0.30482240153E+03  0.50400001928E-02 0. -1.
        1   -1    0    0  501    0  0.00000000000E+00  0.00000000000E+00 -0.39993985665E+03  0.39993985668E+03  0.50400001928E-02 0.  1.
    10030    2    1    2    0    0  0.00000000000E+00  0.00000000000E+00 -0.95117455157E+02  0.70476225821E+03  0.69831404849E+03 0.  0.
        1    1    3    3  502    0 -0.28929433041E+03  0.19498217471E+03 -0.33237221159E+02  0.35044824290E+03  0.50400001928E-02 0. -1.
       -1    1    3    3    0  502  0.28929433041E+03 -0.19498217471E+03 -0.61880233998E+02  0.35431401531E+03  0.50400001928E-02 0.  1.
</event>
<event>
 5   0  0.1981750E-03  0.6998452E+03  0.7818609E-02  0.9717497E-01
        4   -1    0    0  501    0  0.00000000000E+00  0.00000000000E+00  0.33470358389E+03  0.33470599332E+03  0.12699999809E+01 0. -1.
       -4   -1    0    0    0  501  0.00000000000E+00  0.00000000000E+00 -0.36582879915E+03  0.36583100359E+03  0.12699999809E+01 0.  1.
    10030    2    1    2    0    0  0.00000000000E+00  0.00000000000E+00 -0.31125215265E+02  0.70053699691E+03  0.69984520076E+03 0.  0.
        5    1    3    3  502    0  0.17884649258E+03 -0.11375865132E+03  0.26309475185E+03  0.33788761017E+03  0.46999998093E+01 0. -1.
       -5    1    3    3    0  502 -0.17884649258E+03  0.11375865132E+03 -0.29421996712E+03  0.36264938674E+03  0.46999998093E+01 0.  1.
</event>
<event>
 5   0  0.5072407E-03  0.6995454E+03  0.7818609E-02  0.9718010E-01
       -2   -1    0    0    0  501  0.00000000000E+00  0.00000000000E+00  0.97192080252E+02  0.97192080285E+02  0.25500000920E-02 0.  1.
        2   -1    0    0  501    0  0.00000000000E+00  0.00000000000E+00 -0.12587542446E+04  0.12587542446E+04  0.25500000920E-02 0. -1.
    10030    2    1    2    0    0  0.00000000000E+00  0.00000000000E+00 -0.11615621644E+04  0.13559463249E+04  0.69954540549E+03 0.  0.
        1    1    3    3  502    0 -0.48711443482E+02  0.34238738403E+02  0.87296994050E+02  0.10566863834E+03  0.50400001928E-02 0.  1.
       -1    1    3    3    0  502  0.48711443482E+02 -0.34238738403E+02 -0.12488591584E+04  0.12502776866E+04  0.50400001928E-02 0. -1.
</event>
<event>
 5   0  0.5113683E-03  0.7002219E+03  0.7818609E-02  0.9716853E-01
       -2   -1    0    0    0  501  0.00000000000E+00  0.00000000000E+00  0.80640020953E+02  0.80640020994E+02  0.25500000920E-02 0.  1.
        2   -1    0    0  501    0  0.00000000000E+00  0.00000000000E+00 -0.15200600694E+04  0.15200600694E+04  0.25500000920E-02 0. -1.
    10030    2    1    2    0    0  0.00000000000E+00  0.00000000000E+00 -0.14394200484E+04  0.16007000904E+04  0.70022189592E+03 0.  0.
        3    1    3    3  502    0 -0.25339894843E+03 -0.16786724475E+03 -0.11168886702E+04  0.11575105835E+04  0.10100000352E+00 0. -1.
       -3    1    3    3    0  502  0.25339894843E+03  0.16786724475E+03 -0.32253137822E+03  0.44318950694E+03  0.10100000352E+00 0.  1.
</event>
<event>
 5   0  0.2934483E-03  0.6804775E+03  0.7818609E-02  0.9751213E-01
        1   -1    0    0  501    0  0.00000000000E+00  0.00000000000E+00  0.57966106495E+03  0.57966106497E+03  0.50400001928E-02 0. -1.
       -1   -1    0    0    0  501  0.00000000000E+00  0.00000000000E+00 -0.19970703598E+03  0.19970703604E+03  0.50400001928E-02 0.  1.
    10030    2    1    2    0    0  0.00000000000E+00  0.00000000000E+00  0.37995402897E+03  0.77936810101E+03  0.68047745939E+03 0.  0.
        5    1    3    3  502    0  0.26728736782E+03 -0.17648211443E+03  0.32132456171E+03  0.45371801559E+03  0.46999998093E+01 0. -1.
       -5    1    3    3    0  502 -0.26728736782E+03  0.17648211443E+03  0.58629467255E+02  0.32565008542E+03  0.46999998093E+01 0.  1.
</event>
<event>
 5   0  0.5113683E-03  0.6985212E+03  0.7818609E-02  0.9719765E-01
        2   -1    0    0  501    0  0.00000000000E+00  0.00000000000E+00  0.11218483914E+04  0.11218483914E+04  0.25500000920E-02 0. -1.
       -2   -1    0    0    0  501  0.00000000000E+00  0.00000000000E+00 -0.10873391042E+03  0.10873391045E+03  0.25500000920E-02 0.  1.
    10030    2    1    2    0    0  0.00000000000E+00  0.00000000000E+00  0.10131144809E+04  0.12305823018E+04  0.69852118799E+03 0.  0.
        3    1    3    3  502    0 -0.40603589388E+02 -0.17386387035E+03 -0.22261826888E+02  0.17992469542E+03  0.10100000352E+00 0.  1.
       -3    1    3    3    0  502  0.40603589388E+02  0.17386387035E+03  0.10353763078E+04  0.10506576064E+04  0.10100000352E+00 0. -1.
</event>
<event>
 5   0  0.3013140E-03  0.7011892E+03  0.7818609E-02  0.9715201E-01
       -1   -1    0    0    0  501  0.00000000000E+00  0.00000000000E+00  0.18162751809E+03  0.18162751816E+03  0.50400001928E-02 0. -1.
        1   -1    0    0  501    0  0.00000000000E+00  0.00000000000E+00 -0.67675076593E+03  0.67675076595E+03  0.50400001928E-02 0.  1.
    10030    2    1    2    0    0  0.00000000000E+00  0.00000000000E+00 -0.49512324785E+03  0.85837828411E+03  0.70118916711E+03 0.  0.
        2    1    3    3  502    0  0.24761786726E+03 -0.56763445959E+02  0.48222641402E+02  0.25857710675E+03  0.25500000920E-02 0. -1.
       -2    1    3    3    0  502 -0.24761786726E+03  0.56763445959E+02 -0.54334588925E+03  0.59980117736E+03  0.25500000920E-02 0.  1.
</event>
<event>
 5   0  0.2938783E-03  0.6996378E+03  0.7818609E-02  0.9717852E-01
        1   -1    0    0  501    0  0.00000000000E+00  0.00000000000E+00  0.40195746072E+03  0.40195746075E+03  0.50400001928E-02 0.  1.
       -1   -1    0    0    0  501  0.00000000000E+00  0.00000000000E+00 -0.30444331270E+03  0.30444331274E+03  0.50400001928E-02 0. -1.
    10030    2    1    2    0    0  0.00000000000E+00  0.00000000000E+00  0.97514148017E+02  0.70640077349E+03  0.69963779467E+03 0.  0.
        4    1    3    3  502    0 -0.14636878400E+03  0.26244488030E+03 -0.13205642479E+03  0.32824022964E+03  0.12699999809E+01 0. -1.
       -4    1    3    3    0  502  0.14636878400E+03 -0.26244488030E+03  0.22957057280E+03  0.37816054385E+03  0.12699999809E+01 0.  1.
</event>
<event>
 5   0  0.5113683E-03  0.7014097E+03  0.7818609E-02  0.9714824E-01
        2   -1    0    0  501    0  0.00000000000E+00  0.00000000000E+00  0.14178411129E+04  0.14178411129E+04  0.25500000920E-02 0. -1.
       -2   -1    0    0    0  501  0.00000000000E+00  0.00000000000E+00 -0.86747308226E+02  0.86747308264E+02  0.25500000920E-02 0.  1.
    10030    2    1    2    0    0  0.00000000000E+00  0.00000000000E+00  0.13310938047E+04  0.15045884212E+04  0.70140972353E+03 0.  0.
        3    1    3    3  502    0  0.84567489730E+02 -0.58631937822E+01  0.13955335851E+04  0.13981058739E+04  0.10100000352E+00 0. -1.
       -3    1    3    3    0  502 -0.84567489730E+02  0.58631937822E+01 -0.64439780438E+02  0.10648254723E+03  0.10100000352E+00 0.  1.
</event>
<event>
 5   0  0.2937617E-03  0.6970862E+03  0.7818609E-02  0.9722228E-01
       -1   -1    0    0    0  501  0.00000000000E+00  0.00000000000E+00  0.23469420476E+03  0.23469420482E+03  0.50400001928E-02 0. -1.
        1   -1    0    0  501    0  0.00000000000E+00  0.00000000000E+00 -0.51761955237E+03  0.51761955240E+03  0.50400001928E-02 0.  1.
    10030    2    1    2    0    0  0.00000000000E+00  0.00000000000E+00 -0.28292534761E+03  0.75231375722E+03  0.69708624788E+03 0.  0.
        3    1    3    3  502    0  0.25060010279E+03  0.19352532181E+03  0.15785576563E+02  0.31701996204E+03  0.10100000352E+00 0. -1.
       -3    1    3    3    0  502 -0.25060010279E+03 -0.19352532181E+03 -0.29871092417E+03  0.43529379518E+03  0.10100000352E+00 0.  1.
</event>
<event>
 5   0  0.2913582E-03  0.6996494E+03  0.7818609E-02  0.9717832E-01
       -1   -1    0    0    0  501  0.00000000000E+00  0.00000000000E+00  0.23624338534E+03  0.23624338540E+03  0.50400001928E-02 0.  1.
        1   -1    0    0  501    0  0.00000000000E+00  0.00000000000E+00 -0.51801377584E+03  0.51801377587E+03  0.50400001928E-02 0. -1.
    10030    2    1    2    0    0  0.00000000000E+00  0.00000000000E+00 -0.28177039050E+03  0.75425716126E+03  0.69964942103E+03 0.  0.
        1    1    3    3  502    0  0.31369754354E+03 -0.15366325084E+03 -0.12046518995E+03  0.36950021041E+03  0.50400001928E-02 0. -1.
       -1    1    3    3    0  502 -0.31369754354E+03  0.15366325084E+03 -0.16130520055E+03  0.38475695085E+03  0.50400001928E-02 0.  1.
</event>
<event>
 5   0  0.2938783E-03  0.7002725E+03  0.7818609E-02  0.9716766E-01
       -1   -1    0    0    0  501  0.00000000000E+00  0.00000000000E+00  0.85559607519E+02  0.85559607667E+02  0.50400001928E-02 0. -1.
        1   -1    0    0  501    0  0.00000000000E+00  0.00000000000E+00 -0.14328654613E+04  0.14328654613E+04  0.50400001928E-02 0.  1.
    10030    2    1    2    0    0  0.00000000000E+00  0.00000000000E+00 -0.13473058538E+04  0.15184250690E+04  0.70027253728E+03 0.  0.
        4    1    3    3  502    0 -0.16891846936E+03  0.61412010680E+01 -0.13385317004E+04  0.13491626623E+04  0.12699999809E+01 0.  1.
       -4    1    3    3    0  502  0.16891846936E+03 -0.61412010680E+01 -0.87741534373E+01  0.16926240667E+03  0.12699999809E+01 0. -1.
</event>
<event>
 5   0  0.5023894E-03  0.6975902E+03  0.7818609E-02  0.9721362E-01
       -2   -1    0    0    0  501  0.00000000000E+00  0.00000000000E+00  0.19473062018E+03  0.19473062020E+03  0.25500000920E-02 0. -1.
        2   -1    0    0  501    0  0.00000000000E+00  0.00000000000E+00 -0.62475038157E+03  0.62475038158E+03  0.25500000920E-02 0.  1.
    10030    2    1    2    0    0  0.00000000000E+00  0.00000000000E+00 -0.43001976139E+03  0.81948100178E+03  0.69759022147E+03 0.  0.
        2    1    3    3  502    0 -0.33189601616E+02 -0.19747950585E+03 -0.55049452978E+03  0.58578488561E+03  0.25500000920E-02 0.  1.
       -2    1    3    3    0  502  0.33189601616E+02  0.19747950585E+03  0.12047476839E+03  0.23369611617E+03  0.25500000920E-02 0. -1.
</event>
<event>
 5   0  0.5023894E-03  0.7003492E+03  0.7818609E-02  0.9716635E-01
        2   -1    0    0  501    0  0.00000000000E+00  0.00000000000E+00  0.15034010705E+04  0.15034010705E+04  0.25500000920E-02 0. -1.
       -2   -1    0    0    0  501  0.00000000000E+00  0.00000000000E+00 -0.81563225327E+02  0.81563225367E+02  0.25500000920E-02 0.  1.
    10030    2    1    2    0    0  0.00000000000E+00  0.00000000000E+00  0.14218378452E+04  0.15849642959E+04  0.70034917093E+03 0.  0.
        2    1    3    3  502    0  0.20574017415E+03  0.25236817741E+03  0.41930718372E+03  0.53088344347E+03  0.25500000920E-02 0.  1.
       -2    1    3    3    0  502 -0.20574017415E+03 -0.25236817741E+03  0.10025306615E+04  0.10540808524E+04  0.25500000920E-02 0. -1.
</event>
<event>
 5   0  0.5023894E-03  0.6989382E+03  0.7818609E-02  0.9719050E-01
       -2   -1    0    0    0  501  0.00000000000E+00  0.00000000000E+00  0.52237678250E+03  0.52237678251E+03  0.25500000920E-02 0. -1.
        2   -1    0    0  501    0  0.00000000000E+00  0.00000000000E+00 -0.23379416290E+03  0.23379416291E+03  0.25500000920E-02 0.  1.
    10030    2    1    2    0    0  0.00000000000E+00  0.00000000000E+00  0.28858261961E+03  0.75617094542E+03  0.69893817349E+03 0.  0.
        2    1    3    3  502    0 -0.21280226676E+01  0.29024070501E+03 -0.66286063069E+02  0.29772140919E+03  0.25500000920E-02 0.  1.
       -2    1    3    3    0  502  0.21280226676E+01 -0.29024070501E+03  0.35486868267E+03  0.45844953623E+03  0.25500000920E-02 0. -1.
</event>
<event>
 5   0  0.1981750E-03  0.6993333E+03  0.7818609E-02  0.9718373E-01
        4   -1    0    0  501    0  0.00000000000E+00  0.00000000000E+00  0.11012540471E+04  0.11012547794E+04  0.12699999809E+01 0.  1.
       -4   -1    0    0    0  501  0.00000000000E+00  0.00000000000E+00 -0.11102063967E+03  0.11102790340E+03  0.12699999809E+01 0. -1.
    10030    2    1    2    0    0  0.00000000000E+00  0.00000000000E+00  0.99023340740E+03  0.12122826828E+04  0.69933332668E+03 0.  0.
        5    1    3    3  502    0  0.31228711659E+03 -0.15487068046E+03  0.54216136622E+03  0.64456900939E+03  0.46999998093E+01 0.  1.
       -5    1    3    3    0  502 -0.31228711659E+03  0.15487068046E+03  0.44807204118E+03  0.56771367337E+03  0.46999998093E+01 0. -1.
</event>
<event>
 5   0  0.2938783E-03  0.6985937E+03  0.7818609E-02  0.9719640E-01
       -1   -1    0    0    0  501  0.00000000000E+00  0.00000000000E+00  0.15509605002E+03  0.15509605011E+03  0.50400001928E-02 0. -1.
        1   -1    0    0  501    0  0.00000000000E+00  0.00000000000E+00 -0.78666286834E+03  0.78666286836E+03  0.50400001928E-02 0.  1.
    10030    2    1    2    0    0  0.00000000000E+00  0.00000000000E+00 -0.63156681832E+03  0.94175891846E+03  0.69859374067E+03 0.  0.
        4    1    3    3  502    0  0.14495954675E+03  0.10201629539E+02 -0.74397457971E+03  0.75803504642E+03  0.12699999809E+01 0.  1.
       -4    1    3    3    0  502 -0.14495954675E+03 -0.10201629539E+02  0.11240776139E+03  0.18372387205E+03  0.12699999809E+01 0. -1.
</event>
<event>
 5   0  0.2937617E-03  0.7012940E+03  0.7818609E-02  0.9715022E-01
        1   -1    0    0  501    0  0.00000000000E+00  0.00000000000E+00  0.15442544786E+03  0.15442544794E+03  0.50400001928E-02 0.  1.
       -1   -1    0    0    0  501  0.00000000000E+00  0.00000000000E+00 -0.79619852696E+03  0.79619852698E+03  0.50400001928E-02 0. -1.
    10030    2    1    2    0    0  0.00000000000E+00  0.00000000000E+00 -0.64177307910E+03  0.95062397492E+03  0.70129398731E+03 0.  0.
        3    1    3    3  502    0 -0.48929960739E+02 -0.46676781305E+02  0.14550281009E+03  0.16044918484E+03  0.10100000352E+00 0.  1.
       -3    1    3    3    0  502  0.48929960739E+02  0.46676781305E+02 -0.78727588919E+03  0.79017479008E+03  0.10100000352E+00 0. -1.
</event>
<event>
 5   0  0.5076796E-03  0.7001297E+03  0.7818609E-02  0.9717010E-01
       -2   -1    0    0    0  501  0.00000000000E+00  0.00000000000E+00  0.89278677254E+02  0.89278677290E+02  0.25500000920E-02 0.  1.
        2   -1    0    0  501    0  0.00000000000E+00  0.00000000000E+00 -0.13726166162E+04  0.13726166162E+04  0.25500000920E-02 0. -1.
    10030    2    1    2    0    0  0.00000000000E+00  0.00000000000E+00 -0.12833379389E+04  0.14618952935E+04  0.70012969055E+03 0.  0.
        5    1    3    3  502    0  0.36403244779E+02 -0.15143282244E+03 -0.12962145210E+04  0.13055463494E+04  0.46999998093E+01 0. -1.
       -5    1    3    3    0  502 -0.36403244779E+02  0.15143282244E+03  0.12876582109E+02  0.15634894405E+03  0.46999998093E+01 0.  1.
</event>
<event>
 5   0  0.2938783E-03  0.6985208E+03  0.7818609E-02  0.9719765E-01
        1   -1    0    0  501    0  0.00000000000E+00  0.00000000000E+00  0.13137111001E+04  0.13137111001E+04  0.50400001928E-02 0.  1.
       -1   -1    0    0    0  501  0.00000000000E+00  0.00000000000E+00 -0.92853625386E+02  0.92853625523E+02  0.50400001928E-02 0. -1.
    10030    2    1    2    0    0  0.00000000000E+00  0.00000000000E+00  0.12208574747E+04  0.14065647256E+04  0.69852083278E+03 0.  0.
        4    1    3    3  502    0  0.94370066714E+02  0.27850849872E+03  0.98987188906E+03  0.10326280371E+04  0.12699999809E+01 0.  1.
       -4    1    3    3    0  502 -0.94370066714E+02 -0.27850849872E+03  0.23098558565E+03  0.37393668853E+03  0.12699999809E+01 0. -1.
</event>
<event>
 5   0  0.5076796E-03  0.6995860E+03  0.7818609E-02  0.9717940E-01
        2   -1    0    0  501    0  0.00000000000E+00  0.00000000000E+00  0.24344083995E+03  0.24344083996E+03  0.25500000920E-02 0. -1.
       -2   -1    0    0    0  501  0.00000000000E+00  0.00000000000E+00 -0.50260725907E+03  0.50260725908E+03  0.25500000920E-02 0.  1.
    10030    2    1    2    0    0  0.00000000000E+00  0.00000000000E+00 -0.25916641913E+03  0.74604809904E+03  0.69958597275E+03 0.  0.
        5    1    3    3  502    0 -0.14513425555E+00 -0.12206047774E+03  0.21995699628E+03  0.25159879074E+03  0.46999998093E+01 0. -1.
       -5    1    3    3    0  502  0.14513425555E+00  0.12206047774E+03 -0.47912341540E+03  0.49444930830E+03  0.46999998093E+01 0.  1.
</event>
<event>
 5   0  0.2938783E-03  0.6988501E+03  0.7818609E-02  0.9719201E-01
        1   -1    0    0  501    0  0.00000000000E+00  0.00000000000E+00  0.77193917433E+03  0.77193917435E+03  0.50400001928E-02 0. -1.
       -1   -1    0    0    0  501  0.00000000000E+00  0.00000000000E+00 -0.15817031196E+03  0.15817031204E+03  0.50400001928E-02 0.  1.
    10030    2    1    2    0    0  0.00000000000E+00  0.00000000000E+00  0.61376886237E+03  0.93010948639E+03  0.69885008425E+03 0.  0.
        4    1    3    3  502    0  0.19493754210E+03 -0.69607072714E+01  0.69272825124E+03  0.71966877085E+03  0.12699999809E+01 0. -1.
       -4    1    3    3    0  502 -0.19493754210E+03  0.69607072714E+01 -0.78959388872E+02  0.21044071554E+03  0.12699999809E+01 0.  1.
</event>
<event>
 5   0  0.2934483E-03  0.7001798E+03  0.7818609E-02  0.9716925E-01
       -1   -1    0    0    0  501  0.00000000000E+00  0.00000000000E+00  0.33765569261E+03  0.33765569265E+03  0.50400001928E-02 0.  1.
        1   -1    0    0  501    0  0.00000000000E+00  0.00000000000E+00 -0.36298196929E+03  0.36298196933E+03  0.50400001928E-02 0. -1.
    10030    2    1    2    0    0  0.00000000000E+00  0.00000000000E+00 -0.25326276683E+02  0.70063766197E+03  0.70017977197E+03 0.  0.
        5    1    3    3  502    0  0.28507502317E+03 -0.19061921831E+03  0.57649327600E+02  0.34777721345E+03  0.46999998093E+01 0. -1.
       -5    1    3    3    0  502 -0.28507502317E+03  0.19061921831E+03 -0.82975604282E+02  0.35286044852E+03  0.46999998093E+01 0.  1.
</event>
<event>
 5   0  0.2937617E-03  0.6995496E+03  0.7818609E-02  0.9718003E-01
        1   -1    0    0  501    0  0.00000000000E+00  0.00000000000E+00  0.14532661383E+03  0.14532661392E+03  0.50400001928E-02 0.  1.
       -1   -1    0    0    0  501  0.00000000000E+00  0.00000000000E+00 -0.84184458175E+03  0.84184458176E+03  0.50400001928E-02 0. -1.
    10030    2    1    2    0    0  0.00000000000E+00  0.00000000000E+00 -0.69651796791E+03  0.98717119569E+03  0.69954963367E+03 0.  0.
        3    1    3    3  502    0  0.24954365796E+03 -0.22183723746E+03 -0.20121029339E+03  0.38983251470E+03  0.10100000352E+00 0. -1.
       -3    1    3    3    0  502 -0.24954365796E+03  0.22183723746E+03 -0.49530767452E+03  0.59733868098E+03  0.10100000352E+00 0.  1.
</event>
<event>
 5   0  0.2913582E-03  0.6999861E+03  0.7818609E-02  0.9717256E-01
       -1   -1    0    0    0  501  0.00000000000E+00  0.00000000000E+00  0.19392233576E+03  0.19392233582E+03  0.50400001928E-02 0.  1.
        1   -1    0    0  501    0  0.00000000000E+00  0.00000000000E+00 -0.63167118527E+03  0.63167118529E+03  0.50400001928E-02 0. -1.
    10030    2    1    2    0    0  0.00000000000E+00  0.00000000000E+00 -0.43774884951E+03  0.82559352111E+03  0.69998614762E+03 0.  0.
        1    1    3    3  502    0  0.29995916721E+03  0.20404429273E+02 -0.75490101393E+01  0.30074712020E+03  0.50400001928E-02 0.  1.
       -1    1    3    3    0  502 -0.29995916721E+03 -0.20404429273E+02 -0.43019983937E+03  0.52484640091E+03  0.50400001928E-02 0. -1.
</event>
<event>
 5   0  0.4878235E-03  0.6998115E+03  0.7818609E-02  0.9717555E-01
       -2   -1    0    0    0  501  0.00000000000E+00  0.00000000000E+00  0.99094338527E+02  0.99094338559E+02  0.25500000920E-02 0. -1.
        2   -1    0    0  501    0  0.00000000000E+00  0.00000000000E+00 -0.12355300027E+04  0.12355300027E+04  0.25500000920E-02 0.  1.
    10030    2    1    2    0    0  0.00000000000E+00  0.00000000000E+00 -0.11364356641E+04  0.13346243412E+04  0.69981148423E+03 0.  0.
        4    1    3    3  502    0  0.16566781825E+03 -0.22709754511E+03 -0.17085307316E+03  0.32895517401E+03  0.12699999809E+01 0. -1.
       -4    1    3    3    0  502 -0.16566781825E+03  0.22709754511E+03 -0.96558259096E+03  0.10056691672E+04  0.12699999809E+01 0.  1.
</event>
<event>
 5   0  0.5023894E-03  0.6992805E+03  0.7818609E-02  0.9718463E-01
        2   -1    0    0  501    0  0.00000000000E+00  0.00000000000E+00  0.16506190161E+04  0.16506190161E+04  0.25500000920E-02 0. -1.
       -2   -1    0    0    0  501  0.00000000000E+00  0.00000000000E+00 -0.74062094101E+02  0.74062094145E+02  0.25500000920E-02 0.  1.
    10030    2    1    2    0    0  0.00000000000E+00  0.00000000000E+00  0.15765569220E+04  0.17246811102E+04  0.69928049003E+03 0.  0.
        2    1    3    3  502    0  0.21067673099E+03  0.26100829244E+03  0.54489072832E+03  0.63985617096E+03  0.25500000920E-02 0. -1.
       -2    1    3    3    0  502 -0.21067673099E+03 -0.26100829244E+03  0.10316661937E+04  0.10848249393E+04  0.25500000920E-02 0.  1.
</event>
<event>
 5   0  0.2937617E-03  0.6996634E+03  0.7818609E-02  0.9717808E-01
        1   -1    0    0  501    0  0.00000000000E+00  0.00000000000E+00  0.21554696751E+03  0.21554696757E+03  0.50400001928E-02 0.  1.
       -1   -1    0    0    0  501  0.00000000000E+00  0.00000000000E+00 -0.56777511608E+03  0.56777511610E+03  0.50400001928E-02 0. -1.
    10030    2    1    2    0    0  0.00000000000E+00  0.00000000000E+00 -0.35222814857E+03  0.78332208366E+03  0.69966336056E+03 0.  0.
        3    1    3    3  502    0  0.26259238355E+03 -0.70580890533E+02  0.70307756976E+02  0.28085514576E+03  0.10100000352E+00 0.  1.
       -3    1    3    3    0  502 -0.26259238355E+03  0.70580890533E+02 -0.42253590554E+03  0.50246693790E+03  0.10100000352E+00 0. -1.
</event>
<event>
 5   0  0.5113683E-03  0.6998652E+03  0.7818609E-02  0.9717463E-01
       -2   -1    0    0    0  501  0.00000000000E+00  0.00000000000E+00  0.68781801454E+02  0.68781801502E+02  0.25500000920E-02 0.  1.
        2   -1    0    0  501    0  0.00000000000E+00  0.00000000000E+00 -0.17803086258E+04  0.17803086258E+04  0.25500000920E-02 0. -1.
    10030    2    1    2    0    0  0.00000000000E+00  0.00000000000E+00 -0.17115268243E+04  0.18490904273E+04  0.69986522838E+03 0.  0.
        3    1    3    3  502    0  0.87540404891E+02  0.65989510486E+02  0.22241362360E+02  0.11185985153E+03  0.10100000352E+00 0.  1.
       -3    1    3    3    0  502 -0.87540404891E+02 -0.65989510486E+02 -0.17337681867E+04  0.17372305758E+04  0.10100000352E+00 0. -1.
</event>
<event>
 5   0  0.2913582E-03  0.6985135E+03  0.7818609E-02  0.9719778E-01
        1   -1    0    0  501    0  0.00000000000E+00  0.00000000000E+00  0.10797303217E+04  0.10797303217E+04  0.50400001928E-02 0.  1.
       -1   -1    0    0    0  501  0.00000000000E+00  0.00000000000E+00 -0.11297291169E+03  0.11297291180E+03  0.50400001928E-02 0. -1.
    10030    2    1    2    0    0  0.00000000000E+00  0.00000000000E+00  0.96675740998E+03  0.11927032335E+04  0.69851350265E+03 0.  0.
        1    1    3    3  502    0 -0.27635376705E+02 -0.18820508224E+03  0.98351643800E+03  0.10017432061E+04  0.50400001928E-02 0.  1.
       -1    1    3    3    0  502  0.27635376705E+02  0.18820508224E+03 -0.16759028027E+02  0.19096002742E+03  0.50400001928E-02 0. -1.
</event>
<event>
 5   0  0.2938783E-03  0.7000926E+03  0.7818609E-02  0.9717074E-01
        1   -1    0    0  501    0  0.00000000000E+00  0.00000000000E+00  0.98134059179E+03  0.98134059181E+03  0.50400001928E-02 0. -1.
       -1   -1    0    0    0  501  0.00000000000E+00  0.00000000000E+00 -0.12486226906E+03  0.12486226916E+03  0.50400001928E-02 0.  1.
    10030    2    1    2    0    0  0.00000000000E+00  0.00000000000E+00  0.85647832274E+03  0.11062028610E+04  0.70009260265E+03 0.  0.
        4    1    3    3  502    0  0.94396346107E+02 -0.22482925349E+03  0.82506265125E+03  0.86034228930E+03  0.12699999809E+01 0. -1.
       -4    1    3    3    0  502 -0.94396346107E+02  0.22482925349E+03  0.31415671490E+02  0.24586057166E+03  0.12699999809E+01 0.  1.
</event>
<event>
 5   0  0.2934483E-03  0.6983596E+03  0.7818609E-02  0.9720042E-01
        1   -1    0    0  501    0  0.00000000000E+00  0.00000000000E+00  0.11215222214E+03  0.11215222226E+03  0.50400001928E-02 0.  1.
       -1   -1    0    0    0  501  0.00000000000E+00  0.00000000000E+00 -0.10871522195E+04  0.10871522195E+04  0.50400001928E-02 0. -1.
    10030    2    1    2    0    0  0.00000000000E+00  0.00000000000E+00 -0.97499999735E+03  0.11993044418E+04  0.69835961309E+03 0.  0.
        5    1    3    3  502    0  0.46249813964E+02  0.13926966053E+02  0.10633263345E+03  0.11688338039E+03  0.46999998093E+01 0.  1.
       -5    1    3    3    0  502 -0.46249813964E+02 -0.13926966053E+02 -0.10813326308E+04  0.10824210614E+04  0.46999998093E+01 0. -1.
</event>
<event>
 5   0  0.5113683E-03  0.6995319E+03  0.7818609E-02  0.9718033E-01
       -2   -1    0    0    0  501  0.00000000000E+00  0.00000000000E+00  0.12336204639E+03  0.12336204642E+03  0.25500000920E-02 0. -1.
        2   -1    0    0  501    0  0.00000000000E+00  0.00000000000E+00 -0.99168452951E+03  0.99168452952E+03  0.25500000920E-02 0.  1.
    10030    2    1    2    0    0  0.00000000000E+00  0.00000000000E+00 -0.86832248312E+03  0.11150465759E+04  0.69953193767E+03 0.  0.
        3    1    3    3  502    0  0.32449520078E+02 -0.21523529857E+02  0.11989628274E+03  0.12606094759E+03  0.10100000352E+00 0. -1.
       -3    1    3    3    0  502 -0.32449520078E+02  0.21523529857E+02 -0.98821876586E+03  0.98898562835E+03  0.10100000352E+00 0.  1.
</event>
<event>
 5   0  0.2913582E-03  0.7041166E+03  0.7818609E-02  0.9710218E-01
        1   -1    0    0  501    0  0.00000000000E+00  0.00000000000E+00  0.29705536577E+03  0.29705536581E+03  0.50400001928E-02 0.  1.
       -1   -1    0    0    0  501  0.00000000000E+00  0.00000000000E+00 -0.41724557896E+03  0.41724557899E+03  0.50400001928E-02 0. -1.
    10030    2    1    2    0    0  0.00000000000E+00  0.00000000000E+00 -0.12019021319E+03  0.71430094480E+03  0.70411657585E+03 0.  0.
        1    1    3    3  502    0  0.25367501787E+03  0.18136636331E+02 -0.30706050796E+03  0.39870554027E+03  0.50400001928E-02 0. -1.
       -1    1    3    3    0  502 -0.25367501787E+03 -0.18136636331E+02  0.18687029476E+03  0.31559540453E+03  0.50400001928E-02 0.  1.
</event>
<event>
 5   0  0.5072407E-03  0.6793658E+03  0.7818609E-02  0.9753185E-01
       -2   -1    0    0    0  501  0.00000000000E+00  0.00000000000E+00  0.60917206323E+02  0.60917206376E+02  0.25500000920E-02 0. -1.
        2   -1    0    0  501    0  0.00000000000E+00  0.00000000000E+00 -0.18941196389E+04  0.18941196389E+04  0.25500000920E-02 0.  1.
    10030    2    1    2    0    0  0.00000000000E+00  0.00000000000E+00 -0.18332024326E+04  0.19550368453E+04  0.67936581280E+03 0.  0.
        1    1    3    3  502    0  0.39018445389E+02 -0.23144900288E+03 -0.16232215562E+04  0.16401034420E+04  0.50400001928E-02 0.  1.
       -1    1    3    3    0  502 -0.39018445389E+02  0.23144900288E+03 -0.20998087639E+03  0.31493340327E+03  0.50400001928E-02 0. -1.
</event>
<event>
 5   0  0.2938783E-03  0.6970774E+03  0.7818609E-02  0.9722243E-01
        1   -1    0    0  501    0  0.00000000000E+00  0.00000000000E+00  0.74246909168E+03  0.74246909170E+03  0.50400001928E-02 0. -1.
       -1   -1    0    0    0  501  0.00000000000E+00  0.00000000000E+00 -0.16361521457E+03  0.16361521465E+03  0.50400001928E-02 0.  1.
    10030    2    1    2    0    0  0.00000000000E+00  0.00000000000E+00  0.57885387711E+03  0.90608430635E+03  0.69707744130E+03 0.  0.
        4    1    3    3  502    0 -0.32596951394E+02  0.31229842334E+03  0.48606191256E+03  0.57866282256E+03  0.12699999809E+01 0. -1.
       -4    1    3    3    0  502  0.32596951394E+02 -0.31229842334E+03  0.92791964545E+02  0.32742148379E+03  0.12699999809E+01 0.  1.
</event>
<event>
 5   0  0.2934483E-03  0.6992232E+03  0.7818609E-02  0.9718562E-01
        1   -1    0    0  501    0  0.00000000000E+00  0.00000000000E+00  0.97627453336E+03  0.97627453337E+03  0.50400001928E-02 0. -1.
       -1   -1    0    0    0  501  0.00000000000E+00  0.00000000000E+00 -0.12519867242E+03  0.12519867252E+03  0.50400001928E-02 0.  1.
    10030    2    1    2    0    0  0.00000000000E+00  0.00000000000E+00  0.85107586094E+03  0.11014732059E+04  0.69922321345E+03 0.  0.
        5    1    3    3  502    0  0.34374402005E+03  0.51303587033E+02  0.36629863839E+03  0.50496414907E+03  0.46999998093E+01 0.  1.
       -5    1    3    3    0  502 -0.34374402005E+03 -0.51303587033E+02  0.48477722256E+03  0.59650905682E+03  0.46999998093E+01 0. -1.
</event>
<event>
 5   0  0.1981750E-03  0.7008463E+03  0.7818609E-02  0.9715786E-01
       -3   -1    0    0    0  501  0.00000000000E+00  0.00000000000E+00  0.36075459322E+03  0.36075460736E+03  0.10100000352E+00 0. -1.
        3   -1    0    0  501    0  0.00000000000E+00  0.00000000000E+00 -0.34038754789E+03  0.34038756288E+03  0.10100000352E+00 0.  1.
    10030    2    1    2    0    0  0.00000000000E+00  0.00000000000E+00  0.20367045330E+02  0.70114217024E+03  0.70084629296E+03 0.  0.
        1    1    3    3  502    0 -0.26909173414E+03  0.43624353837E+02 -0.21009784467E+03  0.34417226790E+03  0.50400001928E-02 0.  1.
       -1    1    3    3    0  502  0.26909173414E+03 -0.43624353837E+02  0.23046489000E+03  0.35696990234E+03  0.50400001928E-02 0. -1.
</event>
<event>
 5   0  0.1981750E-03  0.6961519E+03  0.7818609E-02  0.9723836E-01
        3   -1    0    0  501    0  0.00000000000E+00  0.00000000000E+00  0.11514261983E+04  0.11514262028E+04  0.10100000352E+00 0. -1.
       -3   -1    0    0    0  501  0.00000000000E+00  0.00000000000E+00 -0.10522327710E+03  0.10522332557E+03  0.10100000352E+00 0.  1.
    10030    2    1    2    0    0  0.00000000000E+00  0.00000000000E+00  0.10462029212E+04  0.12566495284E+04  0.69615191207E+03 0.  0.
        5    1    3    3  502    0 -0.32133761101E+02 -0.26168402421E+03  0.93324380281E+03  0.96978203356E+03  0.46999998093E+01 0. -1.
       -5    1    3    3    0  502  0.32133761101E+02  0.26168402421E+03  0.11295911844E+03  0.28686749479E+03  0.46999998093E+01 0.  1.
</event>
<event>
 5   0  0.3013140E-03  0.6999248E+03  0.7818609E-02  0.9717361E-01
        1   -1    0    0  501    0  0.00000000000E+00  0.00000000000E+00  0.34867953871E+03  0.34867953875E+03  0.50400001928E-02 0. -1.
       -1   -1    0    0    0  501  0.00000000000E+00  0.00000000000E+00 -0.35125002816E+03  0.35125002820E+03  0.50400001928E-02 0.  1.
    10030    2    1    2    0    0  0.00000000000E+00  0.00000000000E+00 -0.25704894502E+01  0.69992956694E+03  0.69992484687E+03 0.  0.
        2    1    3    3  502    0  0.51846530423E+02 -0.81529668533E+02  0.33507776482E+03  0.34872949123E+03  0.25500000920E-02 0. -1.
       -2    1    3    3    0  502 -0.51846530423E+02  0.81529668533E+02 -0.33764825427E+03  0.35120007572E+03  0.25500000920E-02 0.  1.
</event>
<event>
 5   0  0.1981750E-03  0.7005329E+03  0.7818609E-02  0.9716321E-01
        3   -1    0    0  501    0  0.00000000000E+00  0.00000000000E+00  0.14297790660E+04  0.14297790696E+04  0.10100000352E+00 0. -1.
       -3   -1    0    0    0  501  0.00000000000E+00  0.00000000000E+00 -0.85808033036E+02  0.85808092476E+02  0.10100000352E+00 0.  1.
    10030    2    1    2    0    0  0.00000000000E+00  0.00000000000E+00  0.13439710330E+04  0.15155871621E+04  0.70053287454E+03 0.  0.
        3    1    3    3  502    0  0.29601573709E+03  0.11158959860E+03  0.99729235058E+03  0.10462645927E+04  0.10100000352E+00 0. -1.
       -3    1    3    3    0  502 -0.29601573709E+03 -0.11158959860E+03  0.34667868242E+03  0.46932256942E+03  0.10100000352E+00 0.  1.
</event>
<event>
 5   0  0.3013140E-03  0.6978255E+03  0.7818609E-02  0.9720958E-01
        1   -1    0    0  501    0  0.00000000000E+00  0.00000000000E+00  0.81560228383E+03  0.81560228385E+03  0.50400001928E-02 0. -1.
       -1   -1    0    0    0  501  0.00000000000E+00  0.00000000000E+00 -0.14926406679E+03  0.14926406687E+03  0.50400001928E-02 0.  1.
    10030    2    1    2    0    0  0.00000000000E+00  0.00000000000E+00  0.66633821705E+03  0.96486635072E+03  0.69782551921E+03 0.  0.
        2    1    3    3  502    0  0.11047963284E+03  0.67801590535E+02 -0.11473523568E+03  0.17310973186E+03  0.25500000920E-02 0.  1.
       -2    1    3    3    0  502 -0.11047963284E+03 -0.67801590535E+02  0.78107345272E+03  0.79175661886E+03  0.25500000920E-02 0. -1.
</event>
<event>
 5   0  0.1981750E-03  0.6994228E+03  0.7818609E-02  0.9718220E-01
       -3   -1    0    0    0  501  0.00000000000E+00  0.00000000000E+00  0.32745861018E+03  0.32745862575E+03  0.10100000352E+00 0. -1.
        3   -1    0    0  501    0  0.00000000000E+00  0.00000000000E+00 -0.37347633321E+03  0.37347634687E+03  0.10100000352E+00 0.  1.
    10030    2    1    2    0    0  0.00000000000E+00  0.00000000000E+00 -0.46017723034E+02  0.70093497262E+03  0.69942276558E+03 0.  0.
        1    1    3    3  502    0 -0.11909600047E+03 -0.26793250995E+03 -0.21401570626E+03  0.36300745139E+03  0.50400001928E-02 0.  1.
       -1    1    3    3    0  502  0.11909600047E+03  0.26793250995E+03  0.16799798322E+03  0.33792752123E+03  0.50400001928E-02 0. -1.
</event>
<event>
 5   0  0.2934483E-03  0.6997194E+03  0.7818609E-02  0.9717712E-01
       -1   -1    0    0    0  501  0.00000000000E+00  0.00000000000E+00  0.67814804392E+02  0.67814804579E+02  0.50400001928E-02 0. -1.
        1   -1    0    0  501    0  0.00000000000E+00  0.00000000000E+00 -0.18049421348E+04  0.18049421348E+04  0.50400001928E-02 0.  1.
    10030    2    1    2    0    0  0.00000000000E+00  0.00000000000E+00 -0.17371273304E+04  0.18727569394E+04  0.69971936659E+03 0.  0.
        5    1    3    3  502    0 -0.28128212982E+03 -0.70645787999E+02 -0.34498437193E+03  0.45071806132E+03  0.46999998093E+01 0. -1.
       -5    1    3    3    0  502  0.28128212982E+03  0.70645787999E+02 -0.13921429585E+04  0.14220388781E+04  0.46999998093E+01 0.  1.
</event>
<event>
 5   0  0.5023894E-03  0.6989867E+03  0.7818609E-02  0.9718967E-01
        2   -1    0    0  501    0  0.00000000000E+00  0.00000000000E+00  0.18517045483E+04  0.18517045483E+04  0.25500000920E-02 0.  1.
       -2   -1    0    0    0  501  0.00000000000E+00  0.00000000000E+00 -0.65963866136E+02  0.65963866185E+02  0.25500000920E-02 0. -1.
    10030    2    1    2    0    0  0.00000000000E+00  0.00000000000E+00  0.17857406822E+04  0.19176684145E+04  0.69898666940E+03 0.  0.
        2    1    3    3  502    0 -0.95932730466E+02 -0.24339970227E+03  0.15286228364E+04  0.15508495348E+04  0.25500000920E-02 0.  1.
       -2    1    3    3    0  502  0.95932730466E+02  0.24339970227E+03  0.25711784583E+03  0.36681887969E+03  0.25500000920E-02 0. -1.
</event>
<event>
 5   0  0.2938783E-03  0.7013042E+03  0.7818609E-02  0.9715004E-01
        1   -1    0    0  501    0  0.00000000000E+00  0.00000000000E+00  0.22027683964E+04  0.22027683964E+04  0.50400001928E-02 0.  1.
       -1   -1    0    0    0  501  0.00000000000E+00  0.00000000000E+00 -0.55819264322E+02  0.55819264549E+02  0.50400001928E-02 0. -1.
    10030    2    1    2    0    0  0.00000000000E+00  0.00000000000E+00  0.21469491320E+04  0.22585876609E+04  0.70130424673E+03 0.  0.
        4    1    3    3  502    0  0.21946212235E+03  0.11028989049E+03  0.18794357285E+04  0.18954175671E+04  0.12699999809E+01 0.  1.
       -4    1    3    3    0  502 -0.21946212235E+03 -0.11028989049E+03  0.26751340355E+03  0.36317009386E+03  0.12699999809E+01 0. -1.
</event>
<event>
 5   0  0.2913582E-03  0.6979728E+03  0.7818609E-02  0.9720705E-01
       -1   -1    0    0    0  501  0.00000000000E+00  0.00000000000E+00  0.13972616801E+03  0.13972616810E+03  0.50400001928E-02 0. -1.
        1   -1    0    0  501    0  0.00000000000E+00  0.00000000000E+00 -0.87164430789E+03  0.87164430790E+03  0.50400001928E-02 0.  1.
    10030    2    1    2    0    0  0.00000000000E+00  0.00000000000E+00 -0.73191813988E+03  0.10113704760E+04  0.69797283345E+03 0.  0.
        1    1    3    3  502    0  0.13897903067E+03  0.98125203757E+02  0.75568211653E+02  0.18615660401E+03  0.50400001928E-02 0. -1.
       -1    1    3    3    0  502 -0.13897903067E+03 -0.98125203757E+02 -0.80748635153E+03  0.82521387199E+03  0.50400001928E-02 0.  1.
</event>
<event>
 5   0  0.2913582E-03  0.7009515E+03  0.7818609E-02  0.9715606E-01
        1   -1    0    0  501    0  0.00000000000E+00  0.00000000000E+00  0.39721319178E+03  0.39721319181E+03  0.50400001928E-02 0. -1.
       -1   -1    0    0    0  501  0.00000000000E+00  0.00000000000E+00 -0.30923763355E+03  0.30923763359E+03  0.50400001928E-02 0.  1.
    10030    2    1    2    0    0  0.00000000000E+00  0.00000000000E+00  0.87975558228E+02  0.70645082541E+03  0.70095154602E+03 0.  0.
        1    1    3    3  502    0 -0.25439330337E+03 -0.18250897363E+03  0.20272836186E+03  0.37299365542E+03  0.50400001928E-02 0.  1.
       -1    1    3    3    0  502  0.25439330337E+03  0.18250897363E+03 -0.11475280363E+03  0.33345716999E+03  0.50400001928E-02 0. -1.
</event>
<event>
 5   0  0.1981750E-03  0.7013207E+03  0.7818609E-02  0.9714976E-01
       -3   -1    0    0    0  501  0.00000000000E+00  0.00000000000E+00  0.47149018212E+03  0.47149019293E+03  0.10100000352E+00 0.  1.
        3   -1    0    0  501    0  0.00000000000E+00  0.00000000000E+00 -0.26079584294E+03  0.26079586249E+03  0.10100000352E+00 0. -1.
    10030    2    1    2    0    0  0.00000000000E+00  0.00000000000E+00  0.21069433918E+03  0.73228605543E+03  0.70132072721E+03 0.  0.
        4    1    3    3  502    0 -0.73251792535E+02 -0.30623142687E+03 -0.55796324563E+02  0.31977860255E+03  0.12699999809E+01 0. -1.
       -4    1    3    3    0  502  0.73251792535E+02  0.30623142687E+03  0.26649066374E+03  0.41250745288E+03  0.12699999809E+01 0.  1.
</event>
<event>
 5   0  0.4878235E-03  0.7006939E+03  0.7818609E-02  0.9716046E-01
       -2   -1    0    0    0  501  0.00000000000E+00  0.00000000000E+00  0.17970982567E+03  0.17970982569E+03  0.25500000920E-02 0. -1.
        2   -1    0    0  501    0  0.00000000000E+00  0.00000000000E+00 -0.68300653258E+03  0.68300653258E+03  0.25500000920E-02 0.  1.
    10030    2    1    2    0    0  0.00000000000E+00  0.00000000000E+00 -0.50329670691E+03  0.86271635827E+03  0.70069389868E+03 0.  0.
        4    1    3    3  502    0 -0.78428828921E+01  0.24790999127E+03 -0.55628919334E+03  0.60908140188E+03  0.12699999809E+01 0.  1.
       -4    1    3    3    0  502  0.78428828921E+01 -0.24790999127E+03  0.52992486435E+02  0.25363495639E+03  0.12699999809E+01 0. -1.
</event>
<event>
 5   0  0.2913582E-03  0.7102963E+03  0.7818609E-02  0.9699784E-01
       -1   -1    0    0    0  501  0.00000000000E+00  0.00000000000E+00  0.80923393846E+02  0.80923394002E+02  0.50400001928E-02 0.  1.
        1   -1    0    0  501    0  0.00000000000E+00  0.00000000000E+00 -0.15586372372E+04  0.15586372372E+04  0.50400001928E-02 0. -1.
    10030    2    1    2    0    0  0.00000000000E+00  0.00000000000E+00 -0.14777138434E+04  0.16395606312E+04  0.71029631886E+03 0.  0.
        1    1    3    3  502    0  0.11412105676E+03  0.32897598642E+03 -0.90012934468E+03  0.96513297137E+03  0.50400001928E-02 0. -1.
       -1    1    3    3    0  502 -0.11412105676E+03 -0.32897598642E+03 -0.57758449869E+03  0.67442765986E+03  0.50400001928E-02 0.  1.
</event>
<event>
 5   0  0.4878235E-03  0.7006490E+03  0.7818609E-02  0.9716123E-01
       -2   -1    0    0    0  501  0.00000000000E+00  0.00000000000E+00  0.29583859250E+03  0.29583859251E+03  0.25500000920E-02 0.  1.
        2   -1    0    0  501    0  0.00000000000E+00  0.00000000000E+00 -0.41484537455E+03  0.41484537456E+03  0.25500000920E-02 0. -1.
    10030    2    1    2    0    0  0.00000000000E+00  0.00000000000E+00 -0.11900678205E+03  0.71068396707E+03  0.70064904687E+03 0.  0.
        4    1    3    3  502    0 -0.16954717939E+03 -0.14494318316E+03  0.21449675444E+03  0.30945959825E+03  0.12699999809E+01 0.  1.
       -4    1    3    3    0  502  0.16954717939E+03  0.14494318316E+03 -0.33350353649E+03  0.40122436882E+03  0.12699999809E+01 0. -1.
</event>
<event>
 5   0  0.5113683E-03  0.6991838E+03  0.7818609E-02  0.9718629E-01
       -2   -1    0    0    0  501  0.00000000000E+00  0.00000000000E+00  0.29912120043E+03  0.29912120044E+03  0.25500000920E-02 0. -1.
        2   -1    0    0  501    0  0.00000000000E+00  0.00000000000E+00 -0.40857854575E+03  0.40857854576E+03  0.25500000920E-02 0.  1.
    10030    2    1    2    0    0  0.00000000000E+00  0.00000000000E+00 -0.10945734532E+03  0.70769974620E+03  0.69918382442E+03 0.  0.
        3    1    3    3  502    0 -0.15474501359E+02 -0.30757581736E+03  0.11273173078E+03  0.32794938168E+03  0.10100000352E+00 0. -1.
       -3    1    3    3    0  502  0.15474501359E+02  0.30757581736E+03 -0.22218907610E+03  0.37975036452E+03  0.10100000352E+00 0.  1.
</event>
<event>
 5   0  0.5072407E-03  0.7008947E+03  0.7818609E-02  0.9715703E-01
       -2   -1    0    0    0  501  0.00000000000E+00  0.00000000000E+00  0.26521454115E+03  0.26521454116E+03  0.25500000920E-02 0.  1.
        2   -1    0    0  501    0  0.00000000000E+00  0.00000000000E+00 -0.46307173869E+03  0.46307173870E+03  0.25500000920E-02 0. -1.
    10030    2    1    2    0    0  0.00000000000E+00  0.00000000000E+00 -0.19785719754E+03  0.72828627986E+03  0.70089473875E+03 0.  0.
        1    1    3    3  502    0  0.28508042021E+03 -0.20224854301E+03 -0.12517520315E+03  0.37127368698E+03  0.50400001928E-02 0. -1.
       -1    1    3    3    0  502 -0.28508042021E+03  0.20224854301E+03 -0.72681994388E+02  0.35701259287E+03  0.50400001928E-02 0.  1.
</event>
<event>
 5   0  0.4878235E-03  0.6987105E+03  0.7818609E-02  0.9719440E-01
       -2   -1    0    0    0  501  0.00000000000E+00  0.00000000000E+00  0.72256724386E+02  0.72256724431E+02  0.25500000920E-02 0. -1.
        2   -1    0    0  501    0  0.00000000000E+00  0.00000000000E+00 -0.16891034916E+04  0.16891034916E+04  0.25500000920E-02 0.  1.
    10030    2    1    2    0    0  0.00000000000E+00  0.00000000000E+00 -0.16168467672E+04  0.17613602161E+04  0.69871048510E+03 0.  0.
        4    1    3    3  502    0 -0.65306688032E+02 -0.34317626871E+03 -0.81735655787E+03  0.88888034656E+03  0.12699999809E+01 0.  1.
       -4    1    3    3    0  502  0.65306688032E+02  0.34317626871E+03 -0.79949020937E+03  0.87247986950E+03  0.12699999809E+01 0. -1.
</event>
<event>
 5   0  0.2913582E-03  0.7012409E+03  0.7818609E-02  0.9715112E-01
        1   -1    0    0  501    0  0.00000000000E+00  0.00000000000E+00  0.31401669057E+03  0.31401669061E+03  0.50400001928E-02 0.  1.
       -1   -1    0    0    0  501  0.00000000000E+00  0.00000000000E+00 -0.39149095399E+03  0.39149095402E+03  0.50400001928E-02 0. -1.
    10030    2    1    2    0    0  0.00000000000E+00  0.00000000000E+00 -0.77474263424E+02  0.70550764463E+03  0.70124088240E+03 0.  0.
        1    1    3    3  502    0 -0.49224005522E+02 -0.16737198703E+03 -0.34472301667E+03  0.38635520316E+03  0.50400001928E-02 0. -1.
       -1    1    3    3    0  502  0.49224005522E+02  0.16737198703E+03  0.26724875325E+03  0.31915244147E+03  0.50400001928E-02 0.  1.
</event>
<event>
 5   0  0.5113683E-03  0.6993279E+03  0.7818609E-02  0.9718382E-01
        2   -1    0    0  501    0  0.00000000000E+00  0.00000000000E+00  0.42009318119E+03  0.42009318120E+03  0.25500000920E-02 0. -1.
       -2   -1    0    0    0  501  0.00000000000E+00  0.00000000000E+00 -0.29104226040E+03  0.29104226041E+03  0.25500000920E-02 0.  1.
    10030    2    1    2    0    0  0.00000000000E+00  0.00000000000E+00  0.12905092079E+03  0.71113544161E+03  0.69932787458E+03 0.  0.
        3    1    3    3  502    0  0.13291232813E+03  0.54327427046E+02  0.38873087810E+03  0.41440181236E+03  0.10100000352E+00 0. -1.
       -3    1    3    3    0  502 -0.13291232813E+03 -0.54327427046E+02 -0.25967995731E+03  0.29673362925E+03  0.10100000352E+00 0.  1.
</event>
<event>
 5   0  0.2913582E-03  0.6998583E+03  0.7818609E-02  0.9717475E-01
       -1   -1    0    0    0  501  0.00000000000E+00  0.00000000000E+00  0.12437872553E+03  0.12437872563E+03  0.50400001928E-02 0.  1.
        1   -1    0    0  501    0  0.00000000000E+00  0.00000000000E+00 -0.98449635498E+03  0.98449635499E+03  0.50400001928E-02 0. -1.
    10030    2    1    2    0    0  0.00000000000E+00  0.00000000000E+00 -0.86011762945E+03  0.11088750806E+04  0.69985827704E+03 0.  0.
        1    1    3    3  502    0  0.21043805272E+03  0.26974700985E+03 -0.54651997327E+03  0.64477259912E+03  0.50400001928E-02 0. -1.
       -1    1    3    3    0  502 -0.21043805272E+03 -0.26974700985E+03 -0.31359765617E+03  0.46410248151E+03  0.50400001928E-02 0.  1.
</event>
<event>
 5   0  0.4878235E-03  0.6988501E+03  0.7818609E-02  0.9719201E-01
        2   -1    0    0  501    0  0.00000000000E+00  0.00000000000E+00  0.27420622258E+03  0.27420622259E+03  0.25500000920E-02 0.  1.
       -2   -1    0    0    0  501  0.00000000000E+00  0.00000000000E+00 -0.44527751790E+03  0.44527751791E+03  0.25500000920E-02 0. -1.
    10030    2    1    2    0    0  0.00000000000E+00  0.00000000000E+00 -0.17107129533E+03  0.71948374050E+03  0.69885010178E+03 0.  0.
        4    1    3    3  502    0  0.92294140853E+02 -0.31318598406E+03 -0.21367982702E+03  0.39021064879E+03  0.12699999809E+01 0. -1.
       -4    1    3    3    0  502 -0.92294140853E+02  0.31318598406E+03  0.42608531699E+02  0.32927309171E+03  0.12699999809E+01 0.  1.
</event>
<event>
 5   0  0.5023894E-03  0.6994357E+03  0.7818609E-02  0.9718198E-01
       -2   -1    0    0    0  501  0.00000000000E+00  0.00000000000E+00  0.12497743673E+03  0.12497743676E+03  0.25500000920E-02 0. -1.
        2   -1    0    0  501    0  0.00000000000E+00  0.00000000000E+00 -0.97859725811E+03  0.97859725811E+03  0.25500000920E-02 0.  1.
    10030    2    1    2    0    0  0.00000000000E+00  0.00000000000E+00 -0.85361982138E+03  0.11035746949E+04  0.69943570663E+03 0.  0.
        2    1    3    3  502    0  0.17174521614E+03 -0.88169623336E+02  0.33283309521E+02  0.19590324256E+03  0.25500000920E-02 0. -1.
       -2    1    3    3    0  502 -0.17174521614E+03  0.88169623336E+02 -0.88690313090E+03  0.90767145231E+03  0.25500000920E-02 0.  1.
</event>
<event>
 5   0  0.5072407E-03  0.7012334E+03  0.7818609E-02  0.9715125E-01
        2   -1    0    0  501    0  0.00000000000E+00  0.00000000000E+00  0.13093462386E+04  0.13093462386E+04  0.25500000920E-02 0. -1.
       -2   -1    0    0    0  501  0.00000000000E+00  0.00000000000E+00 -0.93888129512E+02  0.93888129547E+02  0.25500000920E-02 0.  1.
    10030    2    1    2    0    0  0.00000000000E+00  0.00000000000E+00  0.12154581091E+04  0.14032343682E+04  0.70123339696E+03 0.  0.
        1    1    3    3  502    0  0.26629686370E+03  0.20821047298E+03  0.42143962924E+03  0.54025640375E+03  0.50400001928E-02 0.  1.
       -1    1    3    3    0  502 -0.26629686370E+03 -0.20821047298E+03  0.79401847985E+03  0.86297796441E+03  0.50400001928E-02 0. -1.
</event>
<event>
 5   0  0.5113683E-03  0.7055967E+03  0.7818609E-02  0.9707709E-01
        2   -1    0    0  501    0  0.00000000000E+00  0.00000000000E+00  0.12010200025E+04  0.12010200025E+04  0.25500000920E-02 0.  1.
       -2   -1    0    0    0  501  0.00000000000E+00  0.00000000000E+00 -0.10363413224E+03  0.10363413227E+03  0.25500000920E-02 0. -1.
    10030    2    1    2    0    0  0.00000000000E+00  0.00000000000E+00  0.10973858702E+04  0.13046541347E+04  0.70559667171E+03 0.  0.
        3    1    3    3  502    0  0.15813441261E+03 -0.31499558378E+03  0.52017109996E+03  0.62833644943E+03  0.10100000352E+00 0. -1.
       -3    1    3    3    0  502 -0.15813441261E+03  0.31499558378E+03  0.57721477027E+03  0.67631768531E+03  0.10100000352E+00 0.  1.
</event>
<event>
 5   0  0.1981750E-03  0.6990046E+03  0.7818609E-02  0.9718936E-01
        3   -1    0    0  501    0  0.00000000000E+00  0.00000000000E+00  0.48599824257E+03  0.48599825307E+03  0.10100000352E+00 0.  1.
       -3   -1    0    0    0  501  0.00000000000E+00  0.00000000000E+00 -0.25134215826E+03  0.25134217855E+03  0.10100000352E+00 0. -1.
    10030    2    1    2    0    0  0.00000000000E+00  0.00000000000E+00  0.23465608432E+03  0.73734043162E+03  0.69900460241E+03 0.  0.
        4    1    3    3  502    0 -0.10820175071E+03 -0.28631525070E+03  0.29530049760E+03  0.42530934438E+03  0.12699999809E+01 0.  1.
       -4    1    3    3    0  502  0.10820175071E+03  0.28631525070E+03 -0.60644413283E+02  0.31203108723E+03  0.12699999809E+01 0. -1.
</event>
<event>
 5   0  0.5023894E-03  0.6978810E+03  0.7818609E-02  0.9720863E-01
        2   -1    0    0  501    0  0.00000000000E+00  0.00000000000E+00  0.74573401829E+03  0.74573401829E+03  0.25500000920E-02 0. -1.
       -2   -1    0    0    0  501  0.00000000000E+00  0.00000000000E+00 -0.16327466769E+03  0.16327466771E+03  0.25500000920E-02 0.  1.
    10030    2    1    2    0    0  0.00000000000E+00  0.00000000000E+00  0.58245935059E+03  0.90900868600E+03  0.69788100428E+03 0.  0.
        2    1    3    3  502    0  0.24471187999E+03  0.24541560189E+03  0.23837288619E+03  0.42063565557E+03  0.25500000920E-02 0.  1.
       -2    1    3    3    0  502 -0.24471187999E+03 -0.24541560189E+03  0.34408646440E+03  0.48837303043E+03  0.25500000920E-02 0. -1.
</event>
<event>
 5   0  0.3013140E-03  0.6992039E+03  0.7818609E-02  0.9718595E-01
       -1   -1    0    0    0  501  0.00000000000E+00  0.00000000000E+00  0.15119843695E+03  0.15119843704E+03  0.50400001928E-02 0.  1.
        1   -1    0    0  501    0  0.00000000000E+00  0.00000000000E+00 -0.80835174732E+03  0.80835174733E+03  0.50400001928E-02 0. -1.
    10030    2    1    2    0    0  0.00000000000E+00  0.00000000000E+00 -0.65715331036E+03  0.95955018437E+03  0.69920389229E+03 0.  0.
        2    1    3    3  502    0 -0.12324661069E+03  0.76097980681E+02  0.10808176117E+03  0.18072713359E+03  0.25500000920E-02 0.  1.
       -2    1    3    3    0  502  0.12324661069E+03 -0.76097980681E+02 -0.76523507154E+03  0.77882305078E+03  0.25500000920E-02 0. -1.
</event>
<event>
 5   0  0.3013140E-03  0.6978805E+03  0.7818609E-02  0.9720864E-01
        1   -1    0    0  501    0  0.00000000000E+00  0.00000000000E+00  0.58922193068E+03  0.58922193070E+03  0.50400001928E-02 0.  1.
       -1   -1    0    0    0  501  0.00000000000E+00  0.00000000000E+00 -0.20664421108E+03  0.20664421114E+03  0.50400001928E-02 0. -1.
    10030    2    1    2    0    0  0.00000000000E+00  0.00000000000E+00  0.38257771960E+03  0.79586614185E+03  0.69788050854E+03 0.  0.
        2    1    3    3  502    0  0.31589913594E+03  0.40370894777E+02  0.35392042321E+03  0.47611105764E+03  0.25500000920E-02 0.  1.
       -2    1    3    3    0  502 -0.31589913594E+03 -0.40370894777E+02  0.28657296393E+02  0.31975508421E+03  0.25500000920E-02 0. -1.
</event>
<event>
 5   0  0.2938783E-03  0.7011273E+03  0.7818609E-02  0.9715306E-01
       -1   -1    0    0    0  501  0.00000000000E+00  0.00000000000E+00  0.44794692381E+02  0.44794692664E+02  0.50400001928E-02 0. -1.
        1   -1    0    0  501    0  0.00000000000E+00  0.00000000000E+00 -0.27435140913E+04  0.27435140913E+04  0.50400001928E-02 0.  1.
    10030    2    1    2    0    0  0.00000000000E+00  0.00000000000E+00 -0.26987193989E+04  0.27883087839E+04  0.70112729276E+03 0.  0.
        4    1    3    3  502    0 -0.26017359163E+03 -0.23485581761E+03 -0.13762455061E+04  0.14201763478E+04  0.12699999809E+01 0. -1.
       -4    1    3    3    0  502  0.26017359163E+03  0.23485581761E+03 -0.13224738928E+04  0.13681324362E+04  0.12699999809E+01 0.  1.
</event>
<event>
 5   0  0.2934483E-03  0.7002137E+03  0.7818609E-02  0.9716867E-01
        1   -1    0    0  501    0  0.00000000000E+00  0.00000000000E+00  0.11281959377E+04  0.11281959377E+04  0.50400001928E-02 0.  1.
       -1   -1    0    0    0  501  0.00000000000E+00  0.00000000000E+00 -0.10864674700E+03  0.10864674711E+03  0.50400001928E-02 0. -1.
    10030    2    1    2    0    0  0.00000000000E+00  0.00000000000E+00  0.10195491907E+04  0.12368426848E+04  0.70021373505E+03 0.  0.
        5    1    3    3  502    0  0.25909831911E+03  0.50049674009E+02  0.10344673240E+03  0.28347879159E+03  0.46999998093E+01 0. -1.
       -5    1    3    3    0  502 -0.25909831911E+03 -0.50049674009E+02  0.91610245832E+03  0.95336389326E+03  0.46999998093E+01 0.  1.
</event>
<event>
 5   0  0.2934483E-03  0.7002260E+03  0.7818609E-02  0.9716846E-01
       -1   -1    0    0    0  501  0.00000000000E+00  0.00000000000E+00  0.29791344228E+03  0.29791344232E+03  0.50400001928E-02 0.  1.
        1   -1    0    0  501    0  0.00000000000E+00  0.00000000000E+00 -0.41145877075E+03  0.41145877078E+03  0.50400001928E-02 0. -1.
    10030    2    1    2    0    0  0.00000000000E+00  0.00000000000E+00 -0.11354532847E+03  0.70937221310E+03  0.70022596003E+03 0.  0.
        5    1    3    3  502    0 -0.24689686339E+03  0.88387723103E+02 -0.29172125348E+03  0.39229304159E+03  0.46999998093E+01 0. -1.
       -5    1    3    3    0  502  0.24689686339E+03 -0.88387723103E+02  0.17817592501E+03  0.31707917150E+03  0.46999998093E+01 0.  1.
</event>
<event>
 5   0  0.5113683E-03  0.7001770E+03  0.7818609E-02  0.9716930E-01
        2   -1    0    0  501    0  0.00000000000E+00  0.00000000000E+00  0.75556458295E+03  0.75556458295E+03  0.25500000920E-02 0. -1.
       -2   -1    0    0    0  501  0.00000000000E+00  0.00000000000E+00 -0.16221241356E+03  0.16221241358E+03  0.25500000920E-02 0.  1.
    10030    2    1    2    0    0  0.00000000000E+00  0.00000000000E+00  0.59335216939E+03  0.91777699654E+03  0.70017699081E+03 0.  0.
        3    1    3    3  502    0  0.29440008742E+03  0.60370970979E+02  0.61297773800E+02  0.30671402460E+03  0.10100000352E+00 0.  1.
       -3    1    3    3    0  502 -0.29440008742E+03 -0.60370970979E+02  0.53205439559E+03  0.61106297194E+03  0.10100000352E+00 0. -1.
</event>
<event>
 5   0  0.5113683E-03  0.7008254E+03  0.7818609E-02  0.9715822E-01
        2   -1    0    0  501    0  0.00000000000E+00  0.00000000000E+00  0.16520039044E+04  0.16520039045E+04  0.25500000920E-02 0.  1.
       -2   -1    0    0    0  501  0.00000000000E+00  0.00000000000E+00 -0.74327343748E+02  0.74327343792E+02  0.25500000920E-02 0. -1.
    10030    2    1    2    0    0  0.00000000000E+00  0.00000000000E+00  0.15776765607E+04  0.17263312482E+04  0.70082540513E+03 0.  0.
        3    1    3    3  502    0  0.14913127377E+03  0.59238160562E+02  0.15561805842E+04  0.15644319472E+04  0.10100000352E+00 0.  1.
       -3    1    3    3    0  502 -0.14913127377E+03 -0.59238160562E+02  0.21495976509E+02  0.16189930108E+03  0.10100000352E+00 0. -1.
</event>
<event>
 5   0  0.2934483E-03  0.6996015E+03  0.7818609E-02  0.9717914E-01
       -1   -1    0    0    0  501  0.00000000000E+00  0.00000000000E+00  0.21784812926E+03  0.21784812932E+03  0.50400001928E-02 0. -1.
        1   -1    0    0  501    0  0.00000000000E+00  0.00000000000E+00 -0.56167833413E+03  0.56167833415E+03  0.50400001928E-02 0.  1.
    10030    2    1    2    0    0  0.00000000000E+00  0.00000000000E+00 -0.34383020486E+03  0.77952646347E+03  0.69960152764E+03 0.  0.
        5    1    3    3  502    0 -0.11867525617E+03  0.93802981051E+01  0.19454513614E+03  0.22812651405E+03  0.46999998093E+01 0. -1.
       -5    1    3    3    0  502  0.11867525617E+03 -0.93802981051E+01 -0.53837534100E+03  0.55139994942E+03  0.46999998093E+01 0.  1.
</event>
<event>
 5   0  0.5072407E-03  0.6995055E+03  0.7818609E-02  0.9718078E-01
        2   -1    0    0  501    0  0.00000000000E+00  0.00000000000E+00  0.18480734324E+04  0.18480734324E+04  0.25500000920E-02 0.  1.
       -2   -1    0    0    0  501  0.00000000000E+00  0.00000000000E+00 -0.66191622401E+02  0.66191622450E+02  0.25500000920E-02 0. -1.
    10030    2    1    2    0    0  0.00000000000E+00  0.00000000000E+00  0.17818818100E+04  0.19142650549E+04  0.69950547920E+03 0.  0.
        1    1    3    3  502    0 -0.26312963728E+03  0.12331291815E+03  0.35829679610E+03  0.46132404655E+03  0.50400001928E-02 0. -1.
       -1    1    3    3    0  502  0.26312963728E+03 -0.12331291815E+03  0.14235850139E+04  0.14529410083E+04  0.50400001928E-02 0.  1.
</event>
<event>
 5   0  0.3013140E-03  0.7001647E+03  0.7818609E-02  0.9716951E-01
        1   -1    0    0  501    0  0.00000000000E+00  0.00000000000E+00  0.14443410308E+03  0.14443410317E+03  0.50400001928E-02 0.  1.
       -1   -1    0    0    0  501  0.00000000000E+00  0.00000000000E+00 -0.84853685908E+03  0.84853685910E+03  0.50400001928E-02 0. -1.
    10030    2    1    2    0    0  0.00000000000E+00  0.00000000000E+00 -0.70410275600E+03  0.99297096227E+03  0.70016472412E+03 0.  0.
        2    1    3    3  502    0  0.34990368373E+02 -0.10185094552E+03  0.12035852912E+03  0.16150577860E+03  0.25500000920E-02 0.  1.
       -2    1    3    3    0  502 -0.34990368373E+02  0.10185094552E+03 -0.82446128512E+03  0.83146518367E+03  0.25500000920E-02 0. -1.
</event>
<event>
 5   0  0.5113683E-03  0.7000952E+03  0.7818609E-02  0.9717069E-01
        2   -1    0    0  501    0  0.00000000000E+00  0.00000000000E+00  0.21200329801E+03  0.21200329803E+03  0.25500000920E-02 0. -1.
       -2   -1    0    0    0  501  0.00000000000E+00  0.00000000000E+00 -0.57797834230E+03  0.57797834231E+03  0.25500000920E-02 0.  1.
    10030    2    1    2    0    0  0.00000000000E+00  0.00000000000E+00 -0.36597504429E+03  0.78998164033E+03  0.70009517854E+03 0.  0.
        3    1    3    3  502    0  0.15179507791E+03  0.33033338498E+02  0.17097578926E+03  0.23101012498E+03  0.10100000352E+00 0. -1.
       -3    1    3    3    0  502 -0.15179507791E+03 -0.33033338498E+02 -0.53695083355E+03  0.55897151535E+03  0.10100000352E+00 0.  1.
</event>
<event>
 5   0  0.4878235E-03  0.6997381E+03  0.7818609E-02  0.9717680E-01
       -2   -1    0    0    0  501  0.00000000000E+00  0.00000000000E+00  0.68433716280E+02  0.68433716327E+02  0.25500000920E-02 0. -1.
        2   -1    0    0  501    0  0.00000000000E+00  0.00000000000E+00 -0.17887141167E+04  0.17887141167E+04  0.25500000920E-02 0.  1.
    10030    2    1    2    0    0  0.00000000000E+00  0.00000000000E+00 -0.17202804005E+04  0.18571478331E+04  0.69973810649E+03 0.  0.
        4    1    3    3  502    0  0.49627457012E+02 -0.50130703205E+02  0.49358125783E+02  0.86103480616E+02  0.12699999809E+01 0. -1.
       -4    1    3    3    0  502 -0.49627457012E+02  0.50130703205E+02 -0.17696385262E+04  0.17710443525E+04  0.12699999809E+01 0.  1.
</event>
<event>
 5   0  0.5076796E-03  0.7040177E+03  0.7818609E-02  0.9710386E-01
        2   -1    0    0  501    0  0.00000000000E+00  0.00000000000E+00  0.17139970633E+04  0.17139970633E+04  0.25500000920E-02 0. -1.
       -2   -1    0    0    0  501  0.00000000000E+00  0.00000000000E+00 -0.72293133313E+02  0.72293133358E+02  0.25500000920E-02 0.  1.
    10030    2    1    2    0    0  0.00000000000E+00  0.00000000000E+00  0.16417039300E+04  0.17862901967E+04  0.70401766523E+03 0.  0.
        5    1    3    3  502    0 -0.23682215057E+02 -0.58700928771E+02  0.16993575151E+04  0.17005424724E+04  0.46999998093E+01 0. -1.
       -5    1    3    3    0  502  0.23682215057E+02  0.58700928771E+02 -0.57653585080E+02  0.85747724281E+02  0.46999998093E+01 0.  1.
</event>
<event>
 5   0  0.2913582E-03  0.7036821E+03  0.7818609E-02  0.9710956E-01
        1   -1    0    0  501    0  0.00000000000E+00  0.00000000000E+00  0.12825022445E+04  0.12825022445E+04  0.50400001928E-02 0. -1.
       -1   -1    0    0    0  501  0.00000000000E+00  0.00000000000E+00 -0.96523917811E+02  0.96523917942E+02  0.50400001928E-02 0.  1.
    10030    2    1    2    0    0  0.00000000000E+00  0.00000000000E+00  0.11859783267E+04  0.13790261624E+04  0.70368214795E+03 0.  0.
        1    1    3    3  502    0 -0.78805550160E+02 -0.94711509984E+02 -0.52864297177E+02  0.13407169277E+03  0.50400001928E-02 0.  1.
       -1    1    3    3    0  502  0.78805550160E+02  0.94711509984E+02  0.12388426239E+04  0.12449544697E+04  0.50400001928E-02 0. -1.
</event>
<event>
 5   0  0.1981750E-03  0.6923705E+03  0.7818609E-02  0.9730369E-01
        3   -1    0    0  501    0  0.00000000000E+00  0.00000000000E+00  0.21101166425E+03  0.21101168842E+03  0.10100000352E+00 0. -1.
       -3   -1    0    0    0  501  0.00000000000E+00  0.00000000000E+00 -0.56795072936E+03  0.56795073834E+03  0.10100000352E+00 0.  1.
    10030    2    1    2    0    0  0.00000000000E+00  0.00000000000E+00 -0.35693906511E+03  0.77896242676E+03  0.69237054104E+03 0.  0.
        3    1    3    3  502    0 -0.27151846233E+03  0.10603664404E+03  0.31644410929E+02  0.29320201945E+03  0.10100000352E+00 0. -1.
       -3    1    3    3    0  502  0.27151846233E+03 -0.10603664404E+03 -0.38858347604E+03  0.48576040732E+03  0.10100000352E+00 0.  1.
</event>
<event>
 5   0  0.2913582E-03  0.6999772E+03  0.7818609E-02  0.9717271E-01
        1   -1    0    0  501    0  0.00000000000E+00  0.00000000000E+00  0.35878126807E+03  0.35878126811E+03  0.50400001928E-02 0.  1.
       -1   -1    0    0    0  501  0.00000000000E+00  0.00000000000E+00 -0.34141140182E+03  0.34141140186E+03  0.50400001928E-02 0. -1.
    10030    2    1    2    0    0  0.00000000000E+00  0.00000000000E+00  0.17369866253E+02  0.70019266996E+03  0.69997718735E+03 0.  0.
        1    1    3    3  502    0  0.18480714858E+03  0.20137882191E+03 -0.20997994417E+03  0.34467185707E+03  0.50400001928E-02 0. -1.
       -1    1    3    3    0  502 -0.18480714858E+03 -0.20137882191E+03  0.22734981042E+03  0.35552081289E+03  0.50400001928E-02 0.  1.
</event>
<event>
 5   0  0.2938783E-03  0.7021624E+03  0.7818609E-02  0.9713541E-01
        1   -1    0    0  501    0  0.00000000000E+00  0.00000000000E+00  0.49666187363E+03  0.49666187366E+03  0.50400001928E-02 0. -1.
       -1   -1    0    0    0  501  0.00000000000E+00  0.00000000000E+00 -0.24817286047E+03  0.24817286052E+03  0.50400001928E-02 0.  1.
    10030    2    1    2    0    0  0.00000000000E+00  0.00000000000E+00  0.24848901316E+03  0.74483473418E+03  0.70216236839E+03 0.  0.
        4    1    3    3  502    0  0.70727425320E+02 -0.20140503615E+03  0.41991297324E+03  0.47105718896E+03  0.12699999809E+01 0. -1.
       -4    1    3    3    0  502 -0.70727425320E+02  0.20140503615E+03 -0.17142396008E+03  0.27377754522E+03  0.12699999809E+01 0.  1.
</event>
<event>
 5   0  0.2934483E-03  0.6967102E+03  0.7818609E-02  0.9722875E-01
       -1   -1    0    0    0  501  0.00000000000E+00  0.00000000000E+00  0.11394264936E+03  0.11394264947E+03  0.50400001928E-02 0. -1.
        1   -1    0    0  501    0  0.00000000000E+00  0.00000000000E+00 -0.10650206134E+04  0.10650206134E+04  0.50400001928E-02 0.  1.
    10030    2    1    2    0    0  0.00000000000E+00  0.00000000000E+00 -0.95107796408E+03  0.11789632629E+04  0.69671018477E+03 0.  0.
        5    1    3    3  502    0  0.13602940727E+03  0.27753921947E+03 -0.20374860124E+03  0.37022641787E+03  0.46999998093E+01 0. -1.
       -5    1    3    3    0  502 -0.13602940727E+03 -0.27753921947E+03 -0.74732936284E+03  0.80873684505E+03  0.46999998093E+01 0.  1.
</event>
<event>
 5   0  0.5113683E-03  0.6995920E+03  0.7818609E-02  0.9717930E-01
        2   -1    0    0  501    0  0.00000000000E+00  0.00000000000E+00  0.23443842385E+03  0.23443842386E+03  0.25500000920E-02 0. -1.
       -2   -1    0    0    0  501  0.00000000000E+00  0.00000000000E+00 -0.52191634788E+03  0.52191634789E+03  0.25500000920E-02 0.  1.
    10030    2    1    2    0    0  0.00000000000E+00  0.00000000000E+00 -0.28747792403E+03  0.75635477175E+03  0.69959201249E+03 0.  0.
        3    1    3    3  502    0 -0.22903497984E+03 -0.25070146371E+03 -0.52968582210E+02  0.34367706761E+03  0.10100000352E+00 0. -1.
       -3    1    3    3    0  502  0.22903497984E+03  0.25070146371E+03 -0.23450934182E+03  0.41267770414E+03  0.10100000352E+00 0.  1.
</event>
<event>
 5   0  0.3013140E-03  0.6970154E+03  0.7818609E-02  0.9722350E-01
        1   -1    0    0  501    0  0.00000000000E+00  0.00000000000E+00  0.37873550574E+03  0.37873550577E+03  0.50400001928E-02 0.  1.
       -1   -1    0    0    0  501  0.00000000000E+00  0.00000000000E+00 -0.32069242549E+03  0.32069242553E+03  0.50400001928E-02 0. -1.
    10030    2    1    2    0    0  0.00000000000E+00  0.00000000000E+00  0.58043080243E+02  0.69942793130E+03  0.69701537424E+03 0.  0.
        2    1    3    3  502    0 -0.48111746287E+02  0.34472702188E+03  0.46579194356E+02  0.35117101403E+03  0.25500000920E-02 0.  1.
       -2    1    3    3    0  502  0.48111746287E+02 -0.34472702188E+03  0.11463885887E+02  0.34825691727E+03  0.25500000920E-02 0. -1.
</event>
<event>
 5   0  0.2938783E-03  0.6992674E+03  0.7818609E-02  0.9718486E-01
       -1   -1    0    0    0  501  0.00000000000E+00  0.00000000000E+00  0.43038281113E+03  0.43038281116E+03  0.50400001928E-02 0.  1.
        1   -1    0    0  501    0  0.00000000000E+00  0.00000000000E+00 -0.28403483093E+03  0.28403483097E+03  0.50400001928E-02 0. -1.
    10030    2    1    2    0    0  0.00000000000E+00  0.00000000000E+00  0.14634798020E+03  0.71441764213E+03  0.69926735665E+03 0.  0.
        4    1    3    3  502    0 -0.32227389875E+02 -0.27275352765E+03  0.29421538818E+03  0.40248900487E+03  0.12699999809E+01 0.  1.
       -4    1    3    3    0  502  0.32227389875E+02  0.27275352765E+03 -0.14786740798E+03  0.31192863726E+03  0.12699999809E+01 0. -1.
</event>
<event>
 5   0  0.2937617E-03  0.7052291E+03  0.7818609E-02  0.9708331E-01
       -1   -1    0    0    0  501  0.00000000000E+00  0.00000000000E+00  0.14094542732E+03  0.14094542741E+03  0.50400001928E-02 0. -1.
        1   -1    0    0  501    0  0.00000000000E+00  0.00000000000E+00 -0.88216427167E+03  0.88216427169E+03  0.50400001928E-02 0.  1.
    10030    2    1    2    0    0  0.00000000000E+00  0.00000000000E+00 -0.74121884435E+03  0.10231096991E+04  0.70522909836E+03 0.  0.
        3    1    3    3  502    0 -0.13959923523E+03  0.13308901824E+02 -0.83997053884E+03  0.85159590749E+03  0.10100000352E+00 0.  1.
       -3    1    3    3    0  502  0.13959923523E+03 -0.13308901824E+02  0.98751694487E+02  0.17151379160E+03  0.10100000352E+00 0. -1.
</event>
<event>
 5   0  0.2938783E-03  0.6921850E+03  0.7818609E-02  0.9730691E-01
        1   -1    0    0  501    0  0.00000000000E+00  0.00000000000E+00  0.59226956026E+03  0.59226956028E+03  0.50400001928E-02 0. -1.
       -1   -1    0    0    0  501  0.00000000000E+00  0.00000000000E+00 -0.20223900240E+03  0.20223900246E+03  0.50400001928E-02 0.  1.
    10030    2    1    2    0    0  0.00000000000E+00  0.00000000000E+00  0.39003055786E+03  0.79450856274E+03  0.69218496098E+03 0.  0.
        4    1    3    3  502    0  0.96896855406E+02  0.28672754383E+03  0.23419760785E+01  0.30266942814E+03  0.12699999809E+01 0.  1.
       -4    1    3    3    0  502 -0.96896855406E+02 -0.28672754383E+03  0.38768858178E+03  0.49183913460E+03  0.12699999809E+01 0. -1.
</event>
<event>
 5   0  0.5023894E-03  0.7002385E+03  0.7818609E-02  0.9716824E-01
        2   -1    0    0  501    0  0.00000000000E+00  0.00000000000E+00  0.75303770392E+03  0.75303770392E+03  0.25500000920E-02 0.  1.
       -2   -1    0    0    0  501  0.00000000000E+00  0.00000000000E+00 -0.16278534108E+03  0.16278534110E+03  0.25500000920E-02 0. -1.
    10030    2    1    2    0    0  0.00000000000E+00  0.00000000000E+00  0.59025236283E+03  0.91582304502E+03  0.70023852934E+03 0.  0.
        2    1    3    3  502    0 -0.84666537826E+02 -0.41959671626E+01 -0.14916092440E+03  0.17156634327E+03  0.25500000920E-02 0. -1.
       -2    1    3    3    0  502  0.84666537826E+02  0.41959671626E+01  0.73941328723E+03  0.74425670176E+03  0.25500000920E-02 0.  1.
</event>
<event>
 5   0  0.5076796E-03  0.7037694E+03  0.7818609E-02  0.9710808E-01
       -2   -1    0    0    0  501  0.00000000000E+00  0.00000000000E+00  0.82315494571E+02  0.82315494610E+02  0.25500000920E-02 0.  1.
        2   -1    0    0  501    0  0.00000000000E+00  0.00000000000E+00 -0.15042472365E+04  0.15042472365E+04  0.25500000920E-02 0. -1.
    10030    2    1    2    0    0  0.00000000000E+00  0.00000000000E+00 -0.14219317420E+04  0.15865627312E+04  0.70376943743E+03 0.  0.
        5    1    3    3  502    0  0.22226787592E+03  0.29538470156E+02 -0.99679015419E+02  0.24542519430E+03  0.46999998093E+01 0.  1.
       -5    1    3    3    0  502 -0.22226787592E+03 -0.29538470156E+02 -0.13222527266E+04  0.13411375369E+04  0.46999998093E+01 0. -1.
</event>
<event>
 5   0  0.5113683E-03  0.7008703E+03  0.7818609E-02  0.9715745E-01
       -2   -1    0    0    0  501  0.00000000000E+00  0.00000000000E+00  0.18230397778E+03  0.18230397780E+03  0.25500000920E-02 0.  1.
        2   -1    0    0  501    0  0.00000000000E+00  0.00000000000E+00 -0.67362654100E+03  0.67362654101E+03  0.25500000920E-02 0. -1.
    10030    2    1    2    0    0  0.00000000000E+00  0.00000000000E+00 -0.49132256323E+03  0.85593051880E+03  0.70087031032E+03 0.  0.
        3    1    3    3  502    0 -0.27814940876E+03  0.10147295065E+03 -0.47459380832E+03  0.55937746326E+03  0.10100000352E+00 0. -1.
       -3    1    3    3    0  502  0.27814940876E+03 -0.10147295065E+03 -0.16728754906E+02  0.29655305554E+03  0.10100000352E+00 0.  1.
</event>
<event>
 5   0  0.5076796E-03  0.6885235E+03  0.7818609E-02  0.9737062E-01
       -2   -1    0    0    0  501  0.00000000000E+00  0.00000000000E+00  0.66171922949E+02  0.66171922998E+02  0.25500000920E-02 0.  1.
        2   -1    0    0  501    0  0.00000000000E+00  0.00000000000E+00 -0.17910336858E+04  0.17910336858E+04  0.25500000920E-02 0. -1.
    10030    2    1    2    0    0  0.00000000000E+00  0.00000000000E+00 -0.17248617628E+04  0.18572056088E+04  0.68852347266E+03 0.  0.
        5    1    3    3  502    0  0.26996774080E+03  0.21309013183E+03 -0.82389827185E+03  0.89281601560E+03  0.46999998093E+01 0. -1.
       -5    1    3    3    0  502 -0.26996774080E+03 -0.21309013183E+03 -0.90096349098E+03  0.96438959317E+03  0.46999998093E+01 0.  1.
</event>
<event>
 5   0  0.2938783E-03  0.6994677E+03  0.7818609E-02  0.9718143E-01
       -1   -1    0    0    0  501  0.00000000000E+00  0.00000000000E+00  0.12089584685E+03  0.12089584696E+03  0.50400001928E-02 0.  1.
        1   -1    0    0  501    0  0.00000000000E+00  0.00000000000E+00 -0.10117284574E+04  0.10117284574E+04  0.50400001928E-02 0. -1.
    10030    2    1    2    0    0  0.00000000000E+00  0.00000000000E+00 -0.89083261051E+03  0.11326243043E+04  0.69946770820E+03 0.  0.
        4    1    3    3  502    0 -0.19815953410E+02 -0.68972754443E+02 -0.99967440147E+03  0.10022476913E+04  0.12699999809E+01 0. -1.
       -4    1    3    3    0  502  0.19815953410E+02  0.68972754443E+02  0.10884179096E+03  0.13037661303E+03  0.12699999809E+01 0.  1.
</event>
<event>
 5   0  0.2937617E-03  0.7159940E+03  0.7818609E-02  0.9690265E-01
        1   -1    0    0  501    0  0.00000000000E+00  0.00000000000E+00  0.20424117311E+03  0.20424117318E+03  0.50400001928E-02 0.  1.
       -1   -1    0    0    0  501  0.00000000000E+00  0.00000000000E+00 -0.62750252179E+03  0.62750252181E+03  0.50400001928E-02 0. -1.
    10030    2    1    2    0    0  0.00000000000E+00  0.00000000000E+00 -0.42326134868E+03  0.83174369499E+03  0.71599399779E+03 0.  0.
        3    1    3    3  502    0  0.24535210678E+03  0.24807789232E+03 -0.30471999672E+03  0.46324354670E+03  0.10100000352E+00 0.  1.
       -3    1    3    3    0  502 -0.24535210678E+03 -0.24807789232E+03 -0.11854135196E+03  0.36850014829E+03  0.10100000352E+00 0. -1.
</event>
<event>
 5   0  0.2937617E-03  0.6841482E+03  0.7818609E-02  0.9744732E-01
        1   -1    0    0  501    0  0.00000000000E+00  0.00000000000E+00  0.26437744287E+03  0.26437744292E+03  0.50400001928E-02 0.  1.
       -1   -1    0    0    0  501  0.00000000000E+00  0.00000000000E+00 -0.44260468048E+03  0.44260468051E+03  0.50400001928E-02 0. -1.
    10030    2    1    2    0    0  0.00000000000E+00  0.00000000000E+00 -0.17822723762E+03  0.70698212343E+03  0.68414821100E+03 0.  0.
        3    1    3    3  502    0  0.20373391660E+03  0.40653256276E+02 -0.36994567580E+03  0.42428764920E+03  0.10100000352E+00 0. -1.
       -3    1    3    3    0  502 -0.20373391660E+03 -0.40653256276E+02  0.19171843818E+03  0.28269447423E+03  0.10100000352E+00 0.  1.
</event>
<event>
 5   0  0.2934483E-03  0.6993034E+03  0.7818609E-02  0.9718424E-01
        1   -1    0    0  501    0  0.00000000000E+00  0.00000000000E+00  0.11385783700E+04  0.11385783700E+04  0.50400001928E-02 0.  1.
       -1   -1    0    0    0  501  0.00000000000E+00  0.00000000000E+00 -0.10737628557E+03  0.10737628569E+03  0.50400001928E-02 0. -1.
    10030    2    1    2    0    0  0.00000000000E+00  0.00000000000E+00  0.10312020844E+04  0.12459546557E+04  0.69930341421E+03 0.  0.
        5    1    3    3  502    0 -0.16964412951E+03 -0.14051529508E+03  0.99932924302E+03  0.10233302032E+04  0.46999998093E+01 0.  1.
       -5    1    3    3    0  502  0.16964412951E+03  0.14051529508E+03  0.31872841394E+02  0.22262445249E+03  0.46999998093E+01 0. -1.
</event>
<event>
 5   0  0.5023894E-03  0.6990534E+03  0.7818609E-02  0.9718852E-01
       -2   -1    0    0    0  501  0.00000000000E+00  0.00000000000E+00  0.15858496525E+03  0.15858496528E+03  0.25500000920E-02 0.  1.
        2   -1    0    0  501    0  0.00000000000E+00  0.00000000000E+00 -0.77036872548E+03  0.77036872548E+03  0.25500000920E-02 0. -1.
    10030    2    1    2    0    0  0.00000000000E+00  0.00000000000E+00 -0.61178376022E+03  0.92895369076E+03  0.69905335297E+03 0.  0.
        2    1    3    3  502    0 -0.22682559212E+03 -0.17213065223E+03 -0.36519991480E+02  0.28707580961E+03  0.25500000920E-02 0.  1.
       -2    1    3    3    0  502  0.22682559212E+03  0.17213065223E+03 -0.57526376874E+03  0.64187788115E+03  0.25500000920E-02 0. -1.
</event>
<event>
 5   0  0.5113683E-03  0.7183882E+03  0.7818609E-02  0.9686293E-01
       -2   -1    0    0    0  501  0.00000000000E+00  0.00000000000E+00  0.94308675723E+02  0.94308675757E+02  0.25500000920E-02 0. -1.
        2   -1    0    0  501    0  0.00000000000E+00  0.00000000000E+00 -0.13680649887E+04  0.13680649887E+04  0.25500000920E-02 0.  1.
    10030    2    1    2    0    0  0.00000000000E+00  0.00000000000E+00 -0.12737563130E+04  0.14623736645E+04  0.71838818870E+03 0.  0.
        3    1    3    3  502    0  0.18306767748E+03  0.13620300298E+03 -0.72177105465E+02  0.23932107578E+03  0.10100000352E+00 0. -1.
       -3    1    3    3    0  502 -0.18306767748E+03 -0.13620300298E+03 -0.12015792075E+04  0.12230525887E+04  0.10100000352E+00 0.  1.
</event>
<event>
 5   0  0.5113683E-03  0.7003835E+03  0.7818609E-02  0.9716577E-01
       -2   -1    0    0    0  501  0.00000000000E+00  0.00000000000E+00  0.80266947546E+02  0.80266947586E+02  0.25500000920E-02 0. -1.
        2   -1    0    0  501    0  0.00000000000E+00  0.00000000000E+00 -0.15278301768E+04  0.15278301768E+04  0.25500000920E-02 0.  1.
    10030    2    1    2    0    0  0.00000000000E+00  0.00000000000E+00 -0.14475632293E+04  0.16080971244E+04  0.70038350836E+03 0.  0.
        3    1    3    3  502    0 -0.10546460615E+03 -0.14729554249E+03 -0.35680919403E+02  0.18463991497E+03  0.10100000352E+00 0. -1.
       -3    1    3    3    0  502  0.10546460615E+03  0.14729554249E+03 -0.14118823099E+04  0.14234572094E+04  0.10100000352E+00 0.  1.
</event>
<event>
 5   0  0.3013140E-03  0.7006038E+03  0.7818609E-02  0.9716200E-01
       -1   -1    0    0    0  501  0.00000000000E+00  0.00000000000E+00  0.23843364530E+03  0.23843364536E+03  0.50400001928E-02 0. -1.
        1   -1    0    0  501    0  0.00000000000E+00  0.00000000000E+00 -0.51465653025E+03  0.51465653027E+03  0.50400001928E-02 0.  1.
    10030    2    1    2    0    0  0.00000000000E+00  0.00000000000E+00 -0.27622288494E+03  0.75309017563E+03  0.70060383275E+03 0.  0.
        2    1    3    3  502    0  0.32672123489E+03  0.11997750438E+03 -0.95518917225E+02  0.36092274858E+03  0.25500000920E-02 0. -1.
       -2    1    3    3    0  502 -0.32672123489E+03 -0.11997750438E+03 -0.18070396772E+03  0.39216742705E+03  0.25500000920E-02 0.  1.
</event>
<event>
 5   0  0.4878235E-03  0.7003038E+03  0.7818609E-02  0.9716713E-01
       -2   -1    0    0    0  501  0.00000000000E+00  0.00000000000E+00  0.25597389625E+03  0.25597389626E+03  0.25500000920E-02 0. -1.
        2   -1    0    0  501    0  0.00000000000E+00  0.00000000000E+00 -0.47897995091E+03  0.47897995091E+03  0.25500000920E-02 0.  1.
    10030    2    1    2    0    0  0.00000000000E+00  0.00000000000E+00 -0.22300605466E+03  0.73495384717E+03  0.70030383196E+03 0.  0.
        4    1    3    3  502    0  0.12396849471E+03 -0.11708459839E+03 -0.43245779588E+03  0.46486379615E+03  0.12699999809E+01 0.  1.
       -4    1    3    3    0  502 -0.12396849471E+03  0.11708459839E+03  0.20945174122E+03  0.27009005102E+03  0.12699999809E+01 0. -1.
</event>
<event>
 5   0  0.5113683E-03  0.7091088E+03  0.7818609E-02  0.9701781E-01
        2   -1    0    0  501    0  0.00000000000E+00  0.00000000000E+00  0.63478686231E+03  0.63478686231E+03  0.25500000920E-02 0. -1.
       -2   -1    0    0    0  501  0.00000000000E+00  0.00000000000E+00 -0.19803311401E+03  0.19803311403E+03  0.25500000920E-02 0.  1.
    10030    2    1    2    0    0  0.00000000000E+00  0.00000000000E+00  0.43675374829E+03  0.83281997634E+03  0.70910879021E+03 0.  0.
        3    1    3    3  502    0 -0.16146607225E+03  0.20823423883E+03 -0.60235207705E+02  0.27029813384E+03  0.10100000352E+00 0.  1.
       -3    1    3    3    0  502  0.16146607225E+03 -0.20823423883E+03  0.49698895600E+03  0.56252184250E+03  0.10100000352E+00 0. -1.
</event>
<event>
 5   0  0.5113683E-03  0.7000114E+03  0.7818609E-02  0.9717213E-01
        2   -1    0    0  501    0  0.00000000000E+00  0.00000000000E+00  0.27552125771E+03  0.27552125773E+03  0.25500000920E-02 0. -1.
       -2   -1    0    0    0  501  0.00000000000E+00  0.00000000000E+00 -0.44462627845E+03  0.44462627846E+03  0.25500000920E-02 0.  1.
    10030    2    1    2    0    0  0.00000000000E+00  0.00000000000E+00 -0.16910502074E+03  0.72014753618E+03  0.70001140407E+03 0.  0.
        3    1    3    3  502    0  0.18291939942E+03  0.10319015054E+03  0.20349495409E+03  0.29243447197E+03  0.10100000352E+00 0. -1.
       -3    1    3    3    0  502 -0.18291939942E+03 -0.10319015054E+03 -0.37259997483E+03  0.42771306421E+03  0.10100000352E+00 0.  1.
</event>
<event>
 5   0  0.1981750E-03  0.6985172E+03  0.7818609E-02  0.9719771E-01
       -3   -1    0    0    0  501  0.00000000000E+00  0.00000000000E+00  0.15270511770E+03  0.15270515110E+03  0.10100000352E+00 0.  1.
        3   -1    0    0  501    0  0.00000000000E+00  0.00000000000E+00 -0.79880469817E+03  0.79880470456E+03  0.10100000352E+00 0. -1.
    10030    2    1    2    0    0  0.00000000000E+00  0.00000000000E+00 -0.64609958047E+03  0.95150985566E+03  0.69851724212E+03 0.  0.
        4    1    3    3  502    0 -0.51536092763E+02 -0.10055003679E+03 -0.77321787948E+03  0.78143059884E+03  0.12699999809E+01 0. -1.
       -4    1    3    3    0  502  0.51536092763E+02  0.10055003679E+03  0.12711829901E+03  0.17007925682E+03  0.12699999809E+01 0.  1.
</event>
<event>
 5   0  0.5113683E-03  0.7019195E+03  0.7818609E-02  0.9713955E-01
       -2   -1    0    0    0  501  0.00000000000E+00  0.00000000000E+00  0.41226288067E+03  0.41226288068E+03  0.25500000920E-02 0.  1.
        2   -1    0    0  501    0  0.00000000000E+00  0.00000000000E+00 -0.29877237156E+03  0.29877237158E+03  0.25500000920E-02 0. -1.
    10030    2    1    2    0    0  0.00000000000E+00  0.00000000000E+00  0.11349050911E+03  0.71103525225E+03  0.70191953548E+03 0.  0.
        3    1    3    3  502    0  0.42032785212E+02 -0.34811292798E+03  0.71885348904E+02  0.35793418285E+03  0.10100000352E+00 0.  1.
       -3    1    3    3    0  502 -0.42032785212E+02  0.34811292798E+03  0.41605160204E+02  0.35310106941E+03  0.10100000352E+00 0. -1.
</event>
<event>
 5   0  0.5076796E-03  0.6998283E+03  0.7818609E-02  0.9717526E-01
        2   -1    0    0  501    0  0.00000000000E+00  0.00000000000E+00  0.14830119232E+04  0.14830119232E+04  0.25500000920E-02 0. -1.
       -2   -1    0    0    0  501  0.00000000000E+00  0.00000000000E+00 -0.82561653548E+02  0.82561653587E+02  0.25500000920E-02 0.  1.
    10030    2    1    2    0    0  0.00000000000E+00  0.00000000000E+00  0.14004502696E+04  0.15655735767E+04  0.69982831220E+03 0.  0.
        5    1    3    3  502    0 -0.18220519214E+03 -0.29150594961E+03  0.55449890490E+03  0.65243051449E+03  0.46999998093E+01 0.  1.
       -5    1    3    3    0  502  0.18220519214E+03  0.29150594961E+03  0.84595136471E+03  0.91314306226E+03  0.46999998093E+01 0. -1.
</event>
<event>
 5   0  0.2937617E-03  0.6996159E+03  0.7818609E-02  0.9717889E-01
        1   -1    0    0  501    0  0.00000000000E+00  0.00000000000E+00  0.21748167948E+04  0.21748167948E+04  0.50400001928E-02 0.  1.
       -1   -1    0    0    0  501  0.00000000000E+00  0.00000000000E+00 -0.56264790255E+02  0.56264790480E+02  0.50400001928E-02 0. -1.
    10030    2    1    2    0    0  0.00000000000E+00  0.00000000000E+00  0.21185520045E+04  0.22310815852E+04  0.69961592623E+03 0.  0.
        3    1    3    3  502    0  0.17927258473E+03  0.16505358446E+03  0.25894108586E+03  0.35557255452E+03  0.10100000352E+00 0. -1.
       -3    1    3    3    0  502 -0.17927258473E+03 -0.16505358446E+03  0.18596109186E+04  0.18755090307E+04  0.10100000352E+00 0.  1.
</event>
<event>
 5   0  0.1981750E-03  0.7009418E+03  0.7818609E-02  0.9715623E-01
       -3   -1    0    0    0  501  0.00000000000E+00  0.00000000000E+00  0.46036847955E+03  0.46036849063E+03  0.10100000352E+00 0. -1.
        3   -1    0    0  501    0  0.00000000000E+00  0.00000000000E+00 -0.26680765991E+03  0.26680767903E+03  0.10100000352E+00 0.  1.
    10030    2    1    2    0    0  0.00000000000E+00  0.00000000000E+00  0.19356081963E+03  0.72717616966E+03  0.70094178847E+03 0.  0.
        4    1    3    3  502    0  0.33109649845E+03  0.11372035916E+03  0.79701462176E+02  0.35904198549E+03  0.12699999809E+01 0.  1.
       -4    1    3    3    0  502 -0.33109649845E+03 -0.11372035916E+03  0.11385935746E+03  0.36813418417E+03  0.12699999809E+01 0. -1.
</event>
<event>
 5   0  0.3013140E-03  0.6993369E+03  0.7818609E-02  0.9718367E-01
       -1   -1    0    0    0  501  0.00000000000E+00  0.00000000000E+00  0.29281688989E+03  0.29281688993E+03  0.50400001928E-02 0.  1.
        1   -1    0    0  501    0  0.00000000000E+00  0.00000000000E+00 -0.41755793023E+03  0.41755793026E+03  0.50400001928E-02 0. -1.
    10030    2    1    2    0    0  0.00000000000E+00  0.00000000000E+00 -0.12474104034E+03  0.71037482019E+03  0.69933687020E+03 0.  0.
        2    1    3    3  502    0 -0.33359006590E+02  0.30088807463E+03  0.11538159335E+03  0.32397433366E+03  0.25500000920E-02 0.  1.
       -2    1    3    3    0  502  0.33359006590E+02 -0.30088807463E+03 -0.24012263369E+03  0.38640048653E+03  0.25500000920E-02 0. -1.
</event>
<event>
 5   0  0.2938783E-03  0.6988919E+03  0.7818609E-02  0.9719129E-01
       -1   -1    0    0    0  501  0.00000000000E+00  0.00000000000E+00  0.20743875163E+03  0.20743875169E+03  0.50400001928E-02 0.  1.
        1   -1    0    0  501    0  0.00000000000E+00  0.00000000000E+00 -0.58866767966E+03  0.58866767968E+03  0.50400001928E-02 0. -1.
    10030    2    1    2    0    0  0.00000000000E+00  0.00000000000E+00 -0.38122892803E+03  0.79610643136E+03  0.69889194765E+03 0.  0.
        4    1    3    3  502    0 -0.10944342499E+03 -0.11884781245E+02 -0.56839639320E+03  0.57896043389E+03  0.12699999809E+01 0. -1.
       -4    1    3    3    0  502  0.10944342499E+03  0.11884781245E+02  0.18716746518E+03  0.21714599748E+03  0.12699999809E+01 0.  1.
</event>
<event>
 5   0  0.5113683E-03  0.6954304E+03  0.7818609E-02  0.9725079E-01
        2   -1    0    0  501    0  0.00000000000E+00  0.00000000000E+00  0.39862765277E+03  0.39862765278E+03  0.25500000920E-02 0. -1.
       -2   -1    0    0    0  501  0.00000000000E+00  0.00000000000E+00 -0.30330523498E+03  0.30330523499E+03  0.25500000920E-02 0.  1.
    10030    2    1    2    0    0  0.00000000000E+00  0.00000000000E+00  0.95322417795E+02  0.70193288777E+03  0.69543038156E+03 0.  0.
        3    1    3    3  502    0 -0.27109008469E+03 -0.13972165608E+03  0.21623742665E+03  0.37385907783E+03  0.10100000352E+00 0.  1.
       -3    1    3    3    0  502  0.27109008469E+03  0.13972165608E+03 -0.12091500885E+03  0.32807380993E+03  0.10100000352E+00 0. -1.
</event>
<event>
 5   0  0.5113683E-03  0.6997458E+03  0.7818609E-02  0.9717667E-01
       -2   -1    0    0    0  501  0.00000000000E+00  0.00000000000E+00  0.55252294201E+02  0.55252294259E+02  0.25500000920E-02 0. -1.
        2   -1    0    0  501    0  0.00000000000E+00  0.00000000000E+00 -0.22154925900E+04  0.22154925900E+04  0.25500000920E-02 0.  1.
    10030    2    1    2    0    0  0.00000000000E+00  0.00000000000E+00 -0.21602402958E+04  0.22707448842E+04  0.69974580656E+03 0.  0.
        3    1    3    3  502    0 -0.29052654020E+03  0.18014389792E+03 -0.83828849849E+03  0.90530940094E+03  0.10100000352E+00 0. -1.
       -3    1    3    3    0  502  0.29052654020E+03 -0.18014389792E+03 -0.13219517973E+04  0.13654354833E+04  0.10100000352E+00 0.  1.
</event>
<event>
 5   0  0.5072407E-03  0.7004518E+03  0.7818609E-02  0.9716460E-01
        2   -1    0    0  501    0  0.00000000000E+00  0.00000000000E+00  0.15690894246E+04  0.15690894246E+04  0.25500000920E-02 0. -1.
       -2   -1    0    0    0  501  0.00000000000E+00  0.00000000000E+00 -0.78171567523E+02  0.78171567564E+02  0.25500000920E-02 0.  1.
    10030    2    1    2    0    0  0.00000000000E+00  0.00000000000E+00  0.14909178571E+04  0.16472609922E+04  0.70045179688E+03 0.  0.
        1    1    3    3  502    0  0.18544363142E+03  0.28799147565E+03  0.91714598567E+03  0.97902256845E+03  0.50400001928E-02 0. -1.
       -1    1    3    3    0  502 -0.18544363142E+03 -0.28799147565E+03  0.57377187139E+03  0.66823842370E+03  0.50400001928E-02 0.  1.
</event>
<event>
 5   0  0.2913582E-03  0.6992161E+03  0.7818609E-02  0.9718574E-01
        1   -1    0    0  501    0  0.00000000000E+00  0.00000000000E+00  0.98059183642E+03  0.98059183643E+03  0.50400001928E-02 0. -1.
       -1   -1    0    0    0  501  0.00000000000E+00  0.00000000000E+00 -0.12464491571E+03  0.12464491581E+03  0.50400001928E-02 0.  1.
    10030    2    1    2    0    0  0.00000000000E+00  0.00000000000E+00  0.85594692071E+03  0.11052367522E+04  0.69921609495E+03 0.  0.
        1    1    3    3  502    0 -0.19027132280E+03 -0.26044403178E+03  0.64116911967E+03  0.71772704422E+03  0.50400001928E-02 0. -1.
       -1    1    3    3    0  502  0.19027132280E+03  0.26044403178E+03  0.21477780104E+03  0.38750970803E+03  0.50400001928E-02 0.  1.
</event>
<event>
 5   0  0.5023894E-03  0.7050688E+03  0.7818609E-02  0.9708603E-01
       -2   -1    0    0    0  501  0.00000000000E+00  0.00000000000E+00  0.26390402471E+03  0.26390402473E+03  0.25500000920E-02 0. -1.
        2   -1    0    0  501    0  0.00000000000E+00  0.00000000000E+00 -0.47093061880E+03  0.47093061881E+03  0.25500000920E-02 0.  1.
    10030    2    1    2    0    0  0.00000000000E+00  0.00000000000E+00 -0.20702659409E+03  0.73483464353E+03  0.70506875032E+03 0.  0.
        2    1    3    3  502    0  0.13708810807E+03  0.87569979625E+02 -0.42947711745E+03  0.45925183192E+03  0.25500000920E-02 0.  1.
       -2    1    3    3    0  502 -0.13708810807E+03 -0.87569979625E+02  0.22245052336E+03  0.27558281161E+03  0.25500000920E-02 0. -1.
</event>
<event>
 5   0  0.5113683E-03  0.7004042E+03  0.7818609E-02  0.9716541E-01
        2   -1    0    0  501    0  0.00000000000E+00  0.00000000000E+00  0.82740857957E+03  0.82740857957E+03  0.25500000920E-02 0.  1.
       -2   -1    0    0    0  501  0.00000000000E+00  0.00000000000E+00 -0.14822365438E+03  0.14822365441E+03  0.25500000920E-02 0. -1.
    10030    2    1    2    0    0  0.00000000000E+00  0.00000000000E+00  0.67918492518E+03  0.97563223398E+03  0.70040423570E+03 0.  0.
        3    1    3    3  502    0 -0.22157503363E+02 -0.33944478320E+03  0.45553290796E+03  0.56852788518E+03  0.10100000352E+00 0. -1.
       -3    1    3    3    0  502  0.22157503363E+02  0.33944478320E+03  0.22365201723E+03  0.40710434880E+03  0.10100000352E+00 0.  1.
</event>
<event>
 5   0  0.2913582E-03  0.7163143E+03  0.7818609E-02  0.9689732E-01
        1   -1    0    0  501    0  0.00000000000E+00  0.00000000000E+00  0.17154383051E+04  0.17154383051E+04  0.50400001928E-02 0.  1.
       -1   -1    0    0    0  501  0.00000000000E+00  0.00000000000E+00 -0.74777700464E+02  0.74777700634E+02  0.50400001928E-02 0. -1.
    10030    2    1    2    0    0  0.00000000000E+00  0.00000000000E+00  0.16406606046E+04  0.17902160057E+04  0.71631426595E+03 0.  0.
        1    1    3    3  502    0  0.21868328636E+03  0.28350766282E+03  0.84233994886E+03  0.91527895425E+03  0.50400001928E-02 0.  1.
       -1    1    3    3    0  502 -0.21868328636E+03 -0.28350766282E+03  0.79832065573E+03  0.87493705145E+03  0.50400001928E-02 0. -1.
</event>
<event>
 5   0  0.4878235E-03  0.7117028E+03  0.7818609E-02  0.9697426E-01
        2   -1    0    0  501    0  0.00000000000E+00  0.00000000000E+00  0.52973655417E+03  0.52973655418E+03  0.25500000920E-02 0.  1.
       -2   -1    0    0    0  501  0.00000000000E+00  0.00000000000E+00 -0.23904376143E+03  0.23904376144E+03  0.25500000920E-02 0. -1.
    10030    2    1    2    0    0  0.00000000000E+00  0.00000000000E+00  0.29069279274E+03  0.76878031562E+03  0.71170279888E+03 0.  0.
        4    1    3    3  502    0  0.14743445756E+02  0.35319181995E+03  0.18944674602E+03  0.40106547264E+03  0.12699999809E+01 0.  1.
       -4    1    3    3    0  502 -0.14743445756E+02 -0.35319181995E+03  0.10124604672E+03  0.36771484298E+03  0.12699999809E+01 0. -1.
</event>
<event>
 5   0  0.2934483E-03  0.6992371E+03  0.7818609E-02  0.9718538E-01
       -1   -1    0    0    0  501  0.00000000000E+00  0.00000000000E+00  0.47116202810E+03  0.47116202813E+03  0.50400001928E-02 0. -1.
        1   -1    0    0  501    0  0.00000000000E+00  0.00000000000E+00 -0.25942904501E+03  0.25942904506E+03  0.50400001928E-02 0.  1.
    10030    2    1    2    0    0  0.00000000000E+00  0.00000000000E+00  0.21173298309E+03  0.73059107320E+03  0.69923705573E+03 0.  0.
        5    1    3    3  502    0 -0.15269951360E+03  0.28547322260E+03  0.24368612990E+03  0.40523711846E+03  0.46999998093E+01 0.  1.
       -5    1    3    3    0  502  0.15269951360E+03 -0.28547322260E+03 -0.31953146808E+02  0.32535395474E+03  0.46999998093E+01 0. -1.
</event>
<event>
 5   0  0.5076796E-03  0.6999856E+03  0.7818609E-02  0.9717257E-01
        2   -1    0    0  501    0  0.00000000000E+00  0.00000000000E+00  0.72671781395E+03  0.72671781396E+03  0.25500000920E-02 0. -1.
       -2   -1    0    0    0  501  0.00000000000E+00  0.00000000000E+00 -0.16855917465E+03  0.16855917467E+03  0.25500000920E-02 0.  1.
    10030    2    1    2    0    0  0.00000000000E+00  0.00000000000E+00  0.55815863930E+03  0.89527698863E+03  0.69998558538E+03 0.  0.
        5    1    3    3  502    0 -0.25934423859E+02  0.31752126136E+03  0.46433709333E+03  0.56313708100E+03  0.46999998093E+01 0. -1.
       -5    1    3    3    0  502  0.25934423859E+02 -0.31752126136E+03  0.93821545967E+02  0.33213990763E+03  0.46999998093E+01 0.  1.
</event>
<event>
 5   0  0.4878235E-03  0.7000962E+03  0.7818609E-02  0.9717068E-01
       -2   -1    0    0    0  501  0.00000000000E+00  0.00000000000E+00  0.13856219062E+03  0.13856219064E+03  0.25500000920E-02 0.  1.
        2   -1    0    0  501    0  0.00000000000E+00  0.00000000000E+00 -0.88432258227E+03  0.88432258228E+03  0.25500000920E-02 0. -1.
    10030    2    1    2    0    0  0.00000000000E+00  0.00000000000E+00 -0.74576039166E+03  0.10228847729E+04  0.70009620546E+03 0.  0.
        4    1    3    3  502    0  0.30292517370E+03  0.79722955429E+02 -0.60116471412E+03  0.67787907246E+03  0.12699999809E+01 0. -1.
       -4    1    3    3    0  502 -0.30292517370E+03 -0.79722955429E+02 -0.14459567754E+03  0.34500570045E+03  0.12699999809E+01 0.  1.
</event>
<event>
 5   0  0.5113683E-03  0.6999084E+03  0.7818609E-02  0.9717389E-01
        2   -1    0    0  501    0  0.00000000000E+00  0.00000000000E+00  0.10275483346E+04  0.10275483346E+04  0.25500000920E-02 0.  1.
       -2   -1    0    0    0  501  0.00000000000E+00  0.00000000000E+00 -0.11918459186E+03  0.11918459188E+03  0.25500000920E-02 0. -1.
    10030    2    1    2    0    0  0.00000000000E+00  0.00000000000E+00  0.90836374271E+03  0.11467329265E+04  0.69990836225E+03 0.  0.
        3    1    3    3  502    0  0.18090538438E+03 -0.89151608907E+02 -0.14393621420E+02  0.20219286339E+03  0.10100000352E+00 0. -1.
       -3    1    3    3    0  502 -0.18090538438E+03  0.89151608907E+02  0.92275736413E+03  0.94454006306E+03  0.10100000352E+00 0.  1.
</event>
<event>
 5   0  0.5113683E-03  0.6958879E+03  0.7818609E-02  0.9724290E-01
       -2   -1    0    0    0  501  0.00000000000E+00  0.00000000000E+00  0.85717821104E+02  0.85717821142E+02  0.25500000920E-02 0. -1.
        2   -1    0    0  501    0  0.00000000000E+00  0.00000000000E+00 -0.14123667340E+04  0.14123667340E+04  0.25500000920E-02 0.  1.
    10030    2    1    2    0    0  0.00000000000E+00  0.00000000000E+00 -0.13266489129E+04  0.14980845551E+04  0.69588791932E+03 0.  0.
        3    1    3    3  502    0  0.33147463619E+03 -0.48845416238E+02 -0.46133479227E+03  0.57016761561E+03  0.10100000352E+00 0. -1.
       -3    1    3    3    0  502 -0.33147463619E+03  0.48845416238E+02 -0.86531412059E+03  0.92791693951E+03  0.10100000352E+00 0.  1.
</event>
<event>
 5   0  0.4878235E-03  0.6994921E+03  0.7818609E-02  0.9718101E-01
        2   -1    0    0  501    0  0.00000000000E+00  0.00000000000E+00  0.14409255291E+04  0.14409255291E+04  0.25500000920E-02 0.  1.
       -2   -1    0    0    0  501  0.00000000000E+00  0.00000000000E+00 -0.84891481734E+02  0.84891481773E+02  0.25500000920E-02 0. -1.
    10030    2    1    2    0    0  0.00000000000E+00  0.00000000000E+00  0.13560340473E+04  0.15258170108E+04  0.69949211079E+03 0.  0.
        4    1    3    3  502    0  0.44491969595E+02  0.20890681802E+03  0.12821252580E+04  0.12997955163E+04  0.12699999809E+01 0.  1.
       -4    1    3    3    0  502 -0.44491969595E+02 -0.20890681802E+03  0.73908789332E+02  0.22602149459E+03  0.12699999809E+01 0. -1.
</event>
<event>
 5   0  0.5113683E-03  0.7049876E+03  0.7818609E-02  0.9708741E-01
        2   -1    0    0  501    0  0.00000000000E+00  0.00000000000E+00  0.81995971652E+03  0.81995971652E+03  0.25500000920E-02 0.  1.
       -2   -1    0    0    0  501  0.00000000000E+00  0.00000000000E+00 -0.15153411253E+03  0.15153411255E+03  0.25500000920E-02 0. -1.
    10030    2    1    2    0    0  0.00000000000E+00  0.00000000000E+00  0.66842560399E+03  0.97149382907E+03  0.70498756858E+03 0.  0.
        3    1    3    3  502    0  0.34259329191E+03 -0.82876826289E+02  0.33920533484E+03  0.48918197164E+03  0.10100000352E+00 0.  1.
       -3    1    3    3    0  502 -0.34259329191E+03  0.82876826289E+02  0.32922026915E+03  0.48231185743E+03  0.10100000352E+00 0. -1.
</event>
<event>
 5   0  0.1981750E-03  0.6952573E+03  0.7818609E-02  0.9725377E-01
        3   -1    0    0  501    0  0.00000000000E+00  0.00000000000E+00  0.40760257443E+03  0.40760258694E+03  0.10100000352E+00 0.  1.
       -3   -1    0    0    0  501  0.00000000000E+00  0.00000000000E+00 -0.29647914206E+03  0.29647915926E+03  0.10100000352E+00 0. -1.
    10030    2    1    2    0    0  0.00000000000E+00  0.00000000000E+00  0.11112343237E+03  0.70408174621E+03  0.69525728196E+03 0.  0.
        4    1    3    3  502    0 -0.27878729486E+03 -0.19644457727E+03 -0.12607085589E+02  0.34128196439E+03  0.12699999809E+01 0. -1.
       -4    1    3    3    0  502  0.27878729486E+03  0.19644457727E+03  0.12373051796E+03  0.36279978182E+03  0.12699999809E+01 0.  1.
</event>
<event>
 5   0  0.2934483E-03  0.7003991E+03  0.7818609E-02  0.9716550E-01
       -1   -1    0    0    0  501  0.00000000000E+00  0.00000000000E+00  0.16353834529E+03  0.16353834536E+03  0.50400001928E-02 0.  1.
        1   -1    0    0  501    0  0.00000000000E+00  0.00000000000E+00 -0.74991409304E+03  0.74991409305E+03  0.50400001928E-02 0. -1.
    10030    2    1    2    0    0  0.00000000000E+00  0.00000000000E+00 -0.58637574775E+03  0.91345243842E+03  0.70039905747E+03 0.  0.
        5    1    3    3  502    0 -0.67621570986E+02  0.34356887902E+03 -0.29620966226E+03  0.45866600649E+03  0.46999998093E+01 0.  1.
       -5    1    3    3    0  502  0.67621570986E+02 -0.34356887902E+03 -0.29016608549E+03  0.45478643193E+03  0.46999998093E+01 0. -1.
</event>
<event>
 5   0  0.5072407E-03  0.6998709E+03  0.7818609E-02  0.9717453E-01
       -2   -1    0    0    0  501  0.00000000000E+00  0.00000000000E+00  0.12935399074E+04  0.12935399074E+04  0.25500000920E-02 0. -1.
        2   -1    0    0  501    0  0.00000000000E+00  0.00000000000E+00 -0.94666429177E+02  0.94666429212E+02  0.25500000920E-02 0.  1.
    10030    2    1    2    0    0  0.00000000000E+00  0.00000000000E+00  0.11988734783E+04  0.13882063366E+04  0.69987085683E+03 0.  0.
        1    1    3    3  502    0  0.98621064638E+02 -0.20832306197E+03  0.11217094242E+04  0.11451448140E+04  0.50400001928E-02 0. -1.
       -1    1    3    3    0  502 -0.98621064638E+02  0.20832306197E+03  0.77164054008E+02  0.24306152266E+03  0.50400001928E-02 0.  1.
</event>
<event>
 5   0  0.2913582E-03  0.7004703E+03  0.7818609E-02  0.9716428E-01
       -1   -1    0    0    0  501  0.00000000000E+00  0.00000000000E+00  0.49245981977E+03  0.49245981980E+03  0.50400001928E-02 0.  1.
        1   -1    0    0  501    0  0.00000000000E+00  0.00000000000E+00 -0.24908565656E+03  0.24908565661E+03  0.50400001928E-02 0. -1.
    10030    2    1    2    0    0  0.00000000000E+00  0.00000000000E+00  0.24337416321E+03  0.74154547640E+03  0.70047034931E+03 0.  0.
        1    1    3    3  502    0 -0.20096975155E+03 -0.49341196793E+02  0.42081833212E+03  0.46894718616E+03  0.50400001928E-02 0.  1.
       -1    1    3    3    0  502  0.20096975155E+03  0.49341196793E+02 -0.17744416891E+03  0.27259829024E+03  0.50400001928E-02 0. -1.
</event>
<event>
 5   0  0.4878235E-03  0.6999474E+03  0.7818609E-02  0.9717322E-01
        2   -1    0    0  501    0  0.00000000000E+00  0.00000000000E+00  0.69772474789E+03  0.69772474789E+03  0.25500000920E-02 0.  1.
       -2   -1    0    0    0  501  0.00000000000E+00  0.00000000000E+00 -0.17554430141E+03  0.17554430143E+03  0.25500000920E-02 0. -1.
    10030    2    1    2    0    0  0.00000000000E+00  0.00000000000E+00  0.52218044647E+03  0.87326904932E+03  0.69994743648E+03 0.  0.
        4    1    3    3  502    0  0.11483845045E+03 -0.29175777304E+03  0.45505223413E+03  0.55261615658E+03  0.12699999809E+01 0.  1.
       -4    1    3    3    0  502 -0.11483845045E+03  0.29175777304E+03  0.67128212346E+02  0.32065289274E+03  0.12699999809E+01 0. -1.
</event>
<event>
 5   0  0.4878235E-03  0.7007769E+03  0.7818609E-02  0.9715904E-01
        2   -1    0    0  501    0  0.00000000000E+00  0.00000000000E+00  0.40668566966E+03  0.40668566967E+03  0.25500000920E-02 0.  1.
       -2   -1    0    0    0  501  0.00000000000E+00  0.00000000000E+00 -0.30188443675E+03  0.30188443676E+03  0.25500000920E-02 0. -1.
    10030    2    1    2    0    0  0.00000000000E+00  0.00000000000E+00  0.10480123291E+03  0.70857010643E+03  0.70077692407E+03 0.  0.
        4    1    3    3  502    0 -0.29010243542E+03 -0.13770125183E+02 -0.14579304048E+03  0.32497117247E+03  0.12699999809E+01 0. -1.
       -4    1    3    3    0  502  0.29010243542E+03  0.13770125183E+02  0.25059427339E+03  0.38359893396E+03  0.12699999809E+01 0.  1.
</event>
<event>
 5   0  0.2934483E-03  0.6982711E+03  0.7818609E-02  0.9720193E-01
        1   -1    0    0  501    0  0.00000000000E+00  0.00000000000E+00  0.92915789858E+03  0.92915789859E+03  0.50400001928E-02 0.  1.
       -1   -1    0    0    0  501  0.00000000000E+00  0.00000000000E+00 -0.13118937113E+03  0.13118937123E+03  0.50400001928E-02 0. -1.
    10030    2    1    2    0    0  0.00000000000E+00  0.00000000000E+00  0.79796852744E+03  0.10603472698E+04  0.69827112344E+03 0.  0.
        5    1    3    3  502    0  0.17580310096E+03 -0.11139789678E+03  0.82459972264E+03  0.85047223017E+03  0.46999998093E+01 0. -1.
       -5    1    3    3    0  502 -0.17580310096E+03  0.11139789678E+03 -0.26631195195E+02  0.20987503965E+03  0.46999998093E+01 0.  1.
</event>
<event>
 5   0  0.4878235E-03  0.7144043E+03  0.7818609E-02  0.9692911E-01
        2   -1    0    0  501    0  0.00000000000E+00  0.00000000000E+00  0.15013259481E+04  0.15013259481E+04  0.25500000920E-02 0.  1.
       -2   -1    0    0    0  501  0.00000000000E+00  0.00000000000E+00 -0.84987119792E+02  0.84987119831E+02  0.25500000920E-02 0. -1.
    10030    2    1    2    0    0  0.00000000000E+00  0.00000000000E+00  0.14163388283E+04  0.15863130680E+04  0.71440427836E+03 0.  0.
        4    1    3    3  502    0  0.61102366790E+02  0.31375797007E+03  0.35418592048E+03  0.47710254891E+03  0.12699999809E+01 0. -1.
       -4    1    3    3    0  502 -0.61102366790E+02 -0.31375797007E+03  0.10621529079E+04  0.11092105191E+04  0.12699999809E+01 0.  1.
</event>
<event>
 5   0  0.5072407E-03  0.7020867E+03  0.7818609E-02  0.9713670E-01
       -2   -1    0    0    0  501  0.00000000000E+00  0.00000000000E+00  0.28433785842E+03  0.28433785843E+03  0.25500000920E-02 0.  1.
        2   -1    0    0  501    0  0.00000000000E+00  0.00000000000E+00 -0.43339794199E+03  0.43339794199E+03  0.25500000920E-02 0. -1.
    10030    2    1    2    0    0  0.00000000000E+00  0.00000000000E+00 -0.14906008357E+03  0.71773580043E+03  0.70208672591E+03 0.  0.
        1    1    3    3  502    0 -0.54712563245E+02 -0.34347614142E+03 -0.12315189505E+03  0.36896573497E+03  0.50400001928E-02 0.  1.
       -1    1    3    3    0  502  0.54712563245E+02  0.34347614142E+03 -0.25908188515E+02  0.34877006546E+03  0.50400001928E-02 0. -1.
</event>
<event>
 5   0  0.2938783E-03  0.7009209E+03  0.7818609E-02  0.9715659E-01
       -1   -1    0    0    0  501  0.00000000000E+00  0.00000000000E+00  0.35549565998E+03  0.35549566002E+03  0.50400001928E-02 0. -1.
        1   -1    0    0  501    0  0.00000000000E+00  0.00000000000E+00 -0.34549658995E+03  0.34549658999E+03  0.50400001928E-02 0.  1.
    10030    2    1    2    0    0  0.00000000000E+00  0.00000000000E+00  0.99990700278E+01  0.70099225001E+03  0.70092093218E+03 0.  0.
        4    1    3    3  502    0  0.75519423912E+02 -0.56250593943E+01  0.34721281449E+03  0.35537751213E+03  0.12699999809E+01 0. -1.
       -4    1    3    3    0  502 -0.75519423912E+02  0.56250593943E+01 -0.33721374446E+03  0.34561473788E+03  0.12699999809E+01 0.  1.
</event>
<event>
 5   0  0.2934483E-03  0.7003930E+03  0.7818609E-02  0.9716560E-01
       -1   -1    0    0    0  501  0.00000000000E+00  0.00000000000E+00  0.10821063740E+03  0.10821063752E+03  0.50400001928E-02 0. -1.
        1   -1    0    0  501    0  0.00000000000E+00  0.00000000000E+00 -0.11333229869E+04  0.11333229869E+04  0.50400001928E-02 0.  1.
    10030    2    1    2    0    0  0.00000000000E+00  0.00000000000E+00 -0.10251123495E+04  0.12415336244E+04  0.70039304074E+03 0.  0.
        5    1    3    3  502    0  0.42161012135E+02  0.21500170618E+03 -0.28359648928E+02  0.22097430686E+03  0.46999998093E+01 0. -1.
       -5    1    3    3    0  502 -0.42161012135E+02 -0.21500170618E+03 -0.99675270058E+03  0.10205593176E+04  0.46999998093E+01 0.  1.
</event>
<event>
 5   0  0.2937617E-03  0.6995424E+03  0.7818609E-02  0.9718015E-01
       -1   -1    0    0    0  501  0.00000000000E+00  0.00000000000E+00  0.28208278221E+03  0.28208278226E+03  0.50400001928E-02 0. -1.
        1   -1    0    0  501    0  0.00000000000E+00  0.00000000000E+00 -0.43370205295E+03  0.43370205298E+03  0.50400001928E-02 0.  1.
    10030    2    1    2    0    0  0.00000000000E+00  0.00000000000E+00 -0.15161927074E+03  0.71578483524E+03  0.69954236977E+03 0.  0.
        3    1    3    3  502    0 -0.17526810372E+03  0.26091563753E+03  0.81193575286E+02  0.32463561874E+03  0.10100000352E+00 0. -1.
       -3    1    3    3    0  502  0.17526810372E+03 -0.26091563753E+03 -0.23281284603E+03  0.39114921649E+03  0.10100000352E+00 0.  1.
</event>
<event>
 5   0  0.4878235E-03  0.7000433E+03  0.7818609E-02  0.9717158E-01
       -2   -1    0    0    0  501  0.00000000000E+00  0.00000000000E+00  0.61659349130E+03  0.61659349131E+03  0.25500000920E-02 0. -1.
        2   -1    0    0  501    0  0.00000000000E+00  0.00000000000E+00 -0.19869678265E+03  0.19869678267E+03  0.25500000920E-02 0.  1.
    10030    2    1    2    0    0  0.00000000000E+00  0.00000000000E+00  0.41789670865E+03  0.81529027398E+03  0.70004326419E+03 0.  0.
        4    1    3    3  502    0  0.77760968846E+02  0.25486931078E+03  0.47326614403E+03  0.54312759996E+03  0.12699999809E+01 0. -1.
       -4    1    3    3    0  502 -0.77760968846E+02 -0.25486931078E+03 -0.55369435384E+02  0.27216267402E+03  0.12699999809E+01 0.  1.
</event>
<event>
 5   0  0.5072407E-03  0.6999292E+03  0.7818609E-02  0.9717353E-01
        2   -1    0    0  501    0  0.00000000000E+00  0.00000000000E+00  0.31557875948E+03  0.31557875949E+03  0.25500000920E-02 0.  1.
       -2   -1    0    0    0  501  0.00000000000E+00  0.00000000000E+00 -0.38809719785E+03  0.38809719786E+03  0.25500000920E-02 0. -1.
    10030    2    1    2    0    0  0.00000000000E+00  0.00000000000E+00 -0.72518438367E+02  0.70367595735E+03  0.69992923146E+03 0.  0.
        1    1    3    3  502    0 -0.26210812653E+03 -0.16780443104E+03  0.12464826030E+03  0.33525540397E+03  0.50400001928E-02 0.  1.
       -1    1    3    3    0  502  0.26210812653E+03  0.16780443104E+03 -0.19716669866E+03  0.36842055338E+03  0.50400001928E-02 0. -1.
</event>
<event>
 5   0  0.5023894E-03  0.6979609E+03  0.7818609E-02  0.9720726E-01
       -2   -1    0    0    0  501  0.00000000000E+00  0.00000000000E+00  0.17633863064E+03  0.17633863066E+03  0.25500000920E-02 0. -1.
        2   -1    0    0  501    0  0.00000000000E+00  0.00000000000E+00 -0.69064471858E+03  0.69064471858E+03  0.25500000920E-02 0.  1.
    10030    2    1    2    0    0  0.00000000000E+00  0.00000000000E+00 -0.51430608793E+03  0.86698334924E+03  0.69796086980E+03 0.  0.
        2    1    3    3  502    0 -0.74422388659E+02 -0.56171109435E+02 -0.67488569698E+03  0.68129625675E+03  0.25500000920E-02 0.  1.
       -2    1    3    3    0  502  0.74422388659E+02  0.56171109435E+02  0.16057960905E+03  0.18568709249E+03  0.25500000920E-02 0. -1.
</event>
<event>
 5   0  0.5076796E-03  0.7009604E+03  0.7818609E-02  0.9715591E-01
        2   -1    0    0  501    0  0.00000000000E+00  0.00000000000E+00  0.12444992701E+04  0.12444992701E+04  0.25500000920E-02 0.  1.
       -2   -1    0    0    0  501  0.00000000000E+00  0.00000000000E+00 -0.98703440710E+02  0.98703440743E+02  0.25500000920E-02 0. -1.
    10030    2    1    2    0    0  0.00000000000E+00  0.00000000000E+00  0.11457958294E+04  0.13432027109E+04  0.70096036963E+03 0.  0.
        5    1    3    3  502    0 -0.17854877211E+03  0.29924229974E+03  0.64430557491E+03  0.73251442431E+03  0.46999998093E+01 0.  1.
       -5    1    3    3    0  502  0.17854877211E+03 -0.29924229974E+03  0.50149025452E+03  0.61068828656E+03  0.46999998093E+01 0. -1.
</event>
<event>
 5   0  0.5023894E-03  0.6991883E+03  0.7818609E-02  0.9718621E-01
        2   -1    0    0  501    0  0.00000000000E+00  0.00000000000E+00  0.31217104011E+03  0.31217104012E+03  0.25500000920E-02 0.  1.
       -2   -1    0    0    0  501  0.00000000000E+00  0.00000000000E+00 -0.39150354889E+03  0.39150354890E+03  0.25500000920E-02 0. -1.
    10030    2    1    2    0    0  0.00000000000E+00  0.00000000000E+00 -0.79332508784E+02  0.70367458901E+03  0.69918830101E+03 0.  0.
        2    1    3    3  502    0  0.10048795889E+03  0.28131211191E+03  0.14310776809E+03  0.33123129001E+03  0.25500000920E-02 0.  1.
       -2    1    3    3    0  502 -0.10048795889E+03 -0.28131211191E+03 -0.22244027688E+03  0.37244329900E+03  0.25500000920E-02 0. -1.
</event>
<event>
 5   0  0.2937617E-03  0.7005770E+03  0.7818609E-02  0.9716246E-01
       -1   -1    0    0    0  501  0.00000000000E+00  0.00000000000E+00  0.13350192421E+03  0.13350192431E+03  0.50400001928E-02 0.  1.
        1   -1    0    0  501    0  0.00000000000E+00  0.00000000000E+00 -0.91910299066E+03  0.91910299068E+03  0.50400001928E-02 0. -1.
    10030    2    1    2    0    0  0.00000000000E+00  0.00000000000E+00 -0.78560106645E+03  0.10526049150E+04  0.70057695612E+03 0.  0.
        3    1    3    3  502    0  0.32936597344E+03 -0.28727593039E+01 -0.21368458819E+03  0.39262107768E+03  0.10100000352E+00 0. -1.
       -3    1    3    3    0  502 -0.32936597344E+03  0.28727593039E+01 -0.57191647826E+03  0.65998383731E+03  0.10100000352E+00 0.  1.
</event>
<event>
 5   0  0.5072407E-03  0.7008714E+03  0.7818609E-02  0.9715743E-01
        2   -1    0    0  501    0  0.00000000000E+00  0.00000000000E+00  0.14113378562E+03  0.14113378564E+03  0.25500000920E-02 0. -1.
       -2   -1    0    0    0  501  0.00000000000E+00  0.00000000000E+00 -0.87013318462E+03  0.87013318462E+03  0.25500000920E-02 0.  1.
    10030    2    1    2    0    0  0.00000000000E+00  0.00000000000E+00 -0.72899939899E+03  0.10112669703E+04  0.70087143002E+03 0.  0.
        1    1    3    3  502    0  0.50312893183E+02  0.17297002720E+03 -0.79821423375E+03  0.81828844579E+03  0.50400001928E-02 0.  1.
       -1    1    3    3    0  502 -0.50312893183E+02 -0.17297002720E+03  0.69214834757E+02  0.19297852447E+03  0.50400001928E-02 0. -1.
</event>
<event>
 5   0  0.3013140E-03  0.7013195E+03  0.7818609E-02  0.9714978E-01
       -1   -1    0    0    0  501  0.00000000000E+00  0.00000000000E+00  0.58622284056E+03  0.58622284058E+03  0.50400001928E-02 0. -1.
        1   -1    0    0  501    0  0.00000000000E+00  0.00000000000E+00 -0.20975344926E+03  0.20975344933E+03  0.50400001928E-02 0.  1.
    10030    2    1    2    0    0  0.00000000000E+00  0.00000000000E+00  0.37646939129E+03  0.79597628991E+03  0.70131950744E+03 0.  0.
        2    1    3    3  502    0  0.31674885974E+03  0.11160539185E+03  0.30272977659E+03  0.45214037785E+03  0.25500000920E-02 0.  1.
       -2    1    3    3    0  502 -0.31674885974E+03 -0.11160539185E+03  0.73739614705E+02  0.34383591206E+03  0.25500000920E-02 0. -1.
</event>
<event>
 5   0  0.2938783E-03  0.7028460E+03  0.7818609E-02  0.9712378E-01
       -1   -1    0    0    0  501  0.00000000000E+00  0.00000000000E+00  0.15790484637E+03  0.15790484645E+03  0.50400001928E-02 0. -1.
        1   -1    0    0  501    0  0.00000000000E+00  0.00000000000E+00 -0.78210464478E+03  0.78210464480E+03  0.50400001928E-02 0.  1.
    10030    2    1    2    0    0  0.00000000000E+00  0.00000000000E+00 -0.62419979841E+03  0.94000949125E+03  0.70284596841E+03 0.  0.
        4    1    3    3  502    0  0.38159730691E+02  0.12802167068E+03  0.12261892896E+03  0.18133595299E+03  0.12699999809E+01 0. -1.
       -4    1    3    3    0  502 -0.38159730691E+02 -0.12802167068E+03 -0.74681872736E+03  0.75867353825E+03  0.12699999809E+01 0.  1.
</event>
<event>
 5   0  0.5113683E-03  0.7070100E+03  0.7818609E-02  0.9705319E-01
        2   -1    0    0  501    0  0.00000000000E+00  0.00000000000E+00  0.28036376868E+03  0.28036376869E+03  0.25500000920E-02 0. -1.
       -2   -1    0    0    0  501  0.00000000000E+00  0.00000000000E+00 -0.44572723880E+03  0.44572723881E+03  0.25500000920E-02 0.  1.
    10030    2    1    2    0    0  0.00000000000E+00  0.00000000000E+00 -0.16536347013E+03  0.72609100750E+03  0.70700995320E+03 0.  0.
        3    1    3    3  502    0 -0.13171144630E+03  0.32438832462E+03 -0.32473996241E+02  0.35161095101E+03  0.10100000352E+00 0. -1.
       -3    1    3    3    0  502  0.13171144630E+03 -0.32438832462E+03 -0.13288947388E+03  0.37448005649E+03  0.10100000352E+00 0.  1.
</event>
<event>
 5   0  0.5076796E-03  0.7008191E+03  0.7818609E-02  0.9715832E-01
       -2   -1    0    0    0  501  0.00000000000E+00  0.00000000000E+00  0.12453238106E+04  0.12453238106E+04  0.25500000920E-02 0. -1.
        2   -1    0    0  501    0  0.00000000000E+00  0.00000000000E+00 -0.98598333045E+02  0.98598333078E+02  0.25500000920E-02 0.  1.
    10030    2    1    2    0    0  0.00000000000E+00  0.00000000000E+00  0.11467254776E+04  0.13439221437E+04  0.70081909749E+03 0.  0.
        5    1    3    3  502    0  0.62855253423E+02  0.69669377110E+02  0.12207210097E+04  0.12243310330E+04  0.46999998093E+01 0. -1.
       -5    1    3    3    0  502 -0.62855253423E+02 -0.69669377110E+02 -0.73995532079E+02  0.11959111069E+03  0.46999998093E+01 0.  1.
</event>
<event>
 5   0  0.1981750E-03  0.7014135E+03  0.7818609E-02  0.9714818E-01
        3   -1    0    0  501    0  0.00000000000E+00  0.00000000000E+00  0.20974115260E+03  0.20974117692E+03  0.10100000352E+00 0. -1.
       -3   -1    0    0    0  501  0.00000000000E+00  0.00000000000E+00 -0.58641428020E+03  0.58641428890E+03  0.10100000352E+00 0.  1.
    10030    2    1    2    0    0  0.00000000000E+00  0.00000000000E+00 -0.37667312760E+03  0.79615546582E+03  0.70141348768E+03 0.  0.
        4    1    3    3  502    0  0.32473603250E+03  0.11236248351E+03 -0.10876164633E+03  0.36042964239E+03  0.12699999809E+01 0. -1.
       -4    1    3    3    0  502 -0.32473603250E+03 -0.11236248351E+03 -0.26791148127E+03  0.43572582342E+03  0.12699999809E+01 0.  1.
</event>
<event>
 5   0  0.2934483E-03  0.7002482E+03  0.7818609E-02  0.9716808E-01
       -1   -1    0    0    0  501  0.00000000000E+00  0.00000000000E+00  0.14508386483E+03  0.14508386491E+03  0.50400001928E-02 0. -1.
        1   -1    0    0  501    0  0.00000000000E+00  0.00000000000E+00 -0.84493816660E+03  0.84493816661E+03  0.50400001928E-02 0.  1.
    10030    2    1    2    0    0  0.00000000000E+00  0.00000000000E+00 -0.69985430177E+03  0.99002203153E+03  0.70024822685E+03 0.  0.
        5    1    3    3  502    0 -0.17165019220E+02  0.92404984653E+02  0.12686950180E+03  0.15795974031E+03  0.46999998093E+01 0. -1.
       -5    1    3    3    0  502  0.17165019220E+02 -0.92404984653E+02 -0.82672380357E+03  0.83206229121E+03  0.46999998093E+01 0.  1.
</event>
<event>
 5   0  0.5076796E-03  0.7002231E+03  0.7818609E-02  0.9716851E-01
        2   -1    0    0  501    0  0.00000000000E+00  0.00000000000E+00  0.81785915229E+03  0.81785915229E+03  0.25500000920E-02 0. -1.
       -2   -1    0    0    0  501  0.00000000000E+00  0.00000000000E+00 -0.14987679259E+03  0.14987679261E+03  0.25500000920E-02 0.  1.
    10030    2    1    2    0    0  0.00000000000E+00  0.00000000000E+00  0.66798235970E+03  0.96773594490E+03  0.70022312600E+03 0.  0.
        5    1    3    3  502    0 -0.80742254640E+01  0.17444449709E+03  0.75332101978E+03  0.77331153135E+03  0.46999998093E+01 0. -1.
       -5    1    3    3    0  502  0.80742254640E+01 -0.17444449709E+03 -0.85338660076E+02  0.19442441355E+03  0.46999998093E+01 0.  1.
</event>
<event>
 5   0  0.5072407E-03  0.6990456E+03  0.7818609E-02  0.9718866E-01
        2   -1    0    0  501    0  0.00000000000E+00  0.00000000000E+00  0.24438870348E+04  0.24438870348E+04  0.25500000920E-02 0.  1.
       -2   -1    0    0    0  501  0.00000000000E+00  0.00000000000E+00 -0.49988480266E+02  0.49988480332E+02  0.25500000920E-02 0. -1.
    10030    2    1    2    0    0  0.00000000000E+00  0.00000000000E+00  0.23938985546E+04  0.24938755152E+04  0.69904563198E+03 0.  0.
        1    1    3    3  502    0  0.48955583398E+02 -0.63336889230E+01 -0.37489938345E+02  0.61985968281E+02  0.50400001928E-02 0. -1.
       -1    1    3    3    0  502 -0.48955583398E+02  0.63336889230E+01  0.24313884929E+04  0.24318895469E+04  0.50400001928E-02 0.  1.
</event>
<event>
 5   0  0.2938783E-03  0.7000537E+03  0.7818609E-02  0.9717140E-01
        1   -1    0    0  501    0  0.00000000000E+00  0.00000000000E+00  0.93909110817E+03  0.93909110818E+03  0.50400001928E-02 0.  1.
       -1   -1    0    0    0  501  0.00000000000E+00  0.00000000000E+00 -0.13046530077E+03  0.13046530087E+03  0.50400001928E-02 0. -1.
    10030    2    1    2    0    0  0.00000000000E+00  0.00000000000E+00  0.80862580739E+03  0.10695564091E+04  0.70005372348E+03 0.  0.
        4    1    3    3  502    0  0.17053090193E+03 -0.30508272530E+03  0.43333880886E+03  0.55672290590E+03  0.12699999809E+01 0. -1.
       -4    1    3    3    0  502 -0.17053090193E+03  0.30508272530E+03  0.37528699853E+03  0.51283350315E+03  0.12699999809E+01 0.  1.
</event>
<event>
 5   0  0.1981750E-03  0.6995113E+03  0.7818609E-02  0.9718068E-01
        3   -1    0    0  501    0  0.00000000000E+00  0.00000000000E+00  0.21081996359E+03  0.21081998779E+03  0.10100000352E+00 0. -1.
       -3   -1    0    0    0  501  0.00000000000E+00  0.00000000000E+00 -0.58025344247E+03  0.58025345126E+03  0.10100000352E+00 0.  1.
    10030    2    1    2    0    0  0.00000000000E+00  0.00000000000E+00 -0.36943347888E+03  0.79107343905E+03  0.69951132275E+03 0.  0.
        3    1    3    3  502    0  0.44055385909E+02 -0.12704189504E+03 -0.54985466654E+03  0.56605713902E+03  0.10100000352E+00 0.  1.
       -3    1    3    3    0  502 -0.44055385909E+02  0.12704189504E+03  0.18042118766E+03  0.22501630003E+03  0.10100000352E+00 0. -1.
</event>
<event>
 5   0  0.2934483E-03  0.6997378E+03  0.7818609E-02  0.9717681E-01
        1   -1    0    0  501    0  0.00000000000E+00  0.00000000000E+00  0.26829331510E+03  0.26829331514E+03  0.50400001928E-02 0. -1.
       -1   -1    0    0    0  501  0.00000000000E+00  0.00000000000E+00 -0.45624779398E+03  0.45624779401E+03  0.50400001928E-02 0.  1.
    10030    2    1    2    0    0  0.00000000000E+00  0.00000000000E+00 -0.18795447888E+03  0.72454110915E+03  0.69973775996E+03 0.  0.
        5    1    3    3  502    0  0.34973820194E+03  0.78450977063E+01 -0.96866808865E+02  0.36302014284E+03  0.46999998093E+01 0. -1.
       -5    1    3    3    0  502 -0.34973820194E+03 -0.78450977063E+01 -0.91087670018E+02  0.36152096631E+03  0.46999998093E+01 0.  1.
</event>
<event>
 5   0  0.5076796E-03  0.7015661E+03  0.7818609E-02  0.9714558E-01
        2   -1    0    0  501    0  0.00000000000E+00  0.00000000000E+00  0.41215241134E+03  0.41215241135E+03  0.25500000920E-02 0. -1.
       -2   -1    0    0    0  501  0.00000000000E+00  0.00000000000E+00 -0.29855160410E+03  0.29855160411E+03  0.25500000920E-02 0.  1.
    10030    2    1    2    0    0  0.00000000000E+00  0.00000000000E+00  0.11360080724E+03  0.71070401546E+03  0.70156614384E+03 0.  0.
        5    1    3    3  502    0  0.55236811073E+02 -0.28072686544E+02 -0.29293169028E+03  0.29944990598E+03  0.46999998093E+01 0.  1.
       -5    1    3    3    0  502 -0.55236811073E+02  0.28072686544E+02  0.40653249752E+03  0.41125410948E+03  0.46999998093E+01 0. -1.
</event>
<event>
 5   0  0.5023894E-03  0.6988917E+03  0.7818609E-02  0.9719129E-01
       -2   -1    0    0    0  501  0.00000000000E+00  0.00000000000E+00  0.65837494316E+02  0.65837494365E+02  0.25500000920E-02 0.  1.
        2   -1    0    0  501    0  0.00000000000E+00  0.00000000000E+00 -0.18547544388E+04  0.18547544388E+04  0.25500000920E-02 0. -1.
    10030    2    1    2    0    0  0.00000000000E+00  0.00000000000E+00 -0.17889169444E+04  0.19205919331E+04  0.69889165074E+03 0.  0.
        2    1    3    3  502    0 -0.16752859203E+03 -0.89334683681E+02 -0.17006546407E+04  0.17112196591E+04  0.25500000920E-02 0. -1.
       -2    1    3    3    0  502  0.16752859203E+03  0.89334683681E+02 -0.88262303774E+02  0.20937227403E+03  0.25500000920E-02 0.  1.
</event>
<event>
 5   0  0.5113683E-03  0.7035011E+03  0.7818609E-02  0.9711264E-01
        2   -1    0    0  501    0  0.00000000000E+00  0.00000000000E+00  0.26925589173E+04  0.26925589173E+04  0.25500000920E-02 0.  1.
       -2   -1    0    0    0  501  0.00000000000E+00  0.00000000000E+00 -0.45951988259E+02  0.45951988330E+02  0.25500000920E-02 0. -1.
    10030    2    1    2    0    0  0.00000000000E+00  0.00000000000E+00  0.26466069291E+04  0.27385109057E+04  0.70350106142E+03 0.  0.
        3    1    3    3  502    0  0.18531950960E+03 -0.29296835789E+03  0.10912180148E+04  0.11449587527E+04  0.10100000352E+00 0.  1.
       -3    1    3    3    0  502 -0.18531950960E+03  0.29296835789E+03  0.15553889142E+04  0.15935521529E+04  0.10100000352E+00 0. -1.
</event>
<event>
 5   0  0.2913582E-03  0.7014488E+03  0.7818609E-02  0.9714758E-01
        1   -1    0    0  501    0  0.00000000000E+00  0.00000000000E+00  0.45675551161E+03  0.45675551164E+03  0.50400001928E-02 0. -1.
       -1   -1    0    0    0  501  0.00000000000E+00  0.00000000000E+00 -0.26930735569E+03  0.26930735573E+03  0.50400001928E-02 0.  1.
    10030    2    1    2    0    0  0.00000000000E+00  0.00000000000E+00  0.18744815592E+03  0.72606286737E+03  0.70144884077E+03 0.  0.
        1    1    3    3  502    0  0.32660907644E+03  0.21959559082E+01 -0.38546153908E+02  0.32888313584E+03  0.50400001928E-02 0. -1.
       -1    1    3    3    0  502 -0.32660907644E+03 -0.21959559082E+01  0.22599430983E+03  0.39717973153E+03  0.50400001928E-02 0.  1.
</event>
<event>
 5   0  0.5113683E-03  0.7011348E+03  0.7818609E-02  0.9715293E-01
       -2   -1    0    0    0  501  0.00000000000E+00  0.00000000000E+00  0.67441417047E+02  0.67441417095E+02  0.25500000920E-02 0. -1.
        2   -1    0    0  501    0  0.00000000000E+00  0.00000000000E+00 -0.18222854998E+04  0.18222854998E+04  0.25500000920E-02 0.  1.
    10030    2    1    2    0    0  0.00000000000E+00  0.00000000000E+00 -0.17548440827E+04  0.18897269169E+04  0.70113484128E+03 0.  0.
        3    1    3    3  502    0  0.49396913842E+02 -0.52099962116E+02  0.47414821487E+02  0.86038576506E+02  0.10100000352E+00 0. -1.
       -3    1    3    3    0  502 -0.49396913842E+02  0.52099962116E+02 -0.18022589042E+04  0.18036883404E+04  0.10100000352E+00 0.  1.
</event>
<event>
 5   0  0.5076796E-03  0.7018664E+03  0.7818609E-02  0.9714046E-01
        2   -1    0    0  501    0  0.00000000000E+00  0.00000000000E+00  0.35625352313E+03  0.35625352314E+03  0.25500000920E-02 0.  1.
       -2   -1    0    0    0  501  0.00000000000E+00  0.00000000000E+00 -0.34569237286E+03  0.34569237287E+03  0.25500000920E-02 0. -1.
    10030    2    1    2    0    0  0.00000000000E+00  0.00000000000E+00  0.10561150279E+02  0.70194589601E+03  0.70186644244E+03 0.  0.
        5    1    3    3  502    0 -0.15078226241E+02 -0.18295791378E+03  0.30436473314E+03  0.35547282863E+03  0.46999998093E+01 0.  1.
       -5    1    3    3    0  502  0.15078226241E+02  0.18295791378E+03 -0.29380358286E+03  0.34647306738E+03  0.46999998093E+01 0. -1.
</event>
<event>
 5   0  0.2913582E-03  0.7129117E+03  0.7818609E-02  0.9695403E-01
        1   -1    0    0  501    0  0.00000000000E+00  0.00000000000E+00  0.50977259958E+03  0.50977259960E+03  0.50400001928E-02 0.  1.
       -1   -1    0    0    0  501  0.00000000000E+00  0.00000000000E+00 -0.24924992370E+03  0.24924992375E+03  0.50400001928E-02 0. -1.
    10030    2    1    2    0    0  0.00000000000E+00  0.00000000000E+00  0.26052267588E+03  0.75902252335E+03  0.71291172406E+03 0.  0.
        1    1    3    3  502    0  0.17090593308E+02 -0.35109785835E+03  0.67283162709E+02  0.35789498254E+03  0.50400001928E-02 0. -1.
       -1    1    3    3    0  502 -0.17090593308E+02  0.35109785835E+03  0.19323951317E+03  0.40112754081E+03  0.50400001928E-02 0.  1.
</event>
<event>
 5   0  0.3013140E-03  0.6995891E+03  0.7818609E-02  0.9717935E-01
       -1   -1    0    0    0  501  0.00000000000E+00  0.00000000000E+00  0.19580025412E+03  0.19580025419E+03  0.50400001928E-02 0.  1.
        1   -1    0    0  501    0  0.00000000000E+00  0.00000000000E+00 -0.62490336055E+03  0.62490336057E+03  0.50400001928E-02 0. -1.
    10030    2    1    2    0    0  0.00000000000E+00  0.00000000000E+00 -0.42910310643E+03  0.82070361476E+03  0.69958912752E+03 0.  0.
        2    1    3    3  502    0  0.53773071344E+02 -0.31493143606E+03 -0.38162527628E+03  0.49770594142E+03  0.25500000920E-02 0. -1.
       -2    1    3    3    0  502 -0.53773071344E+02  0.31493143606E+03 -0.47477830147E+02  0.32299767334E+03  0.25500000920E-02 0.  1.
</event>
<event>
 5   0  0.4878235E-03  0.7006230E+03  0.7818609E-02  0.9716167E-01
        2   -1    0    0  501    0  0.00000000000E+00  0.00000000000E+00  0.36804363282E+03  0.36804363282E+03  0.25500000920E-02 0. -1.
       -2   -1    0    0    0  501  0.00000000000E+00  0.00000000000E+00 -0.33343368112E+03  0.33343368113E+03  0.25500000920E-02 0.  1.
    10030    2    1    2    0    0  0.00000000000E+00  0.00000000000E+00  0.34609951694E+02  0.70147731396E+03  0.70062298937E+03 0.  0.
        4    1    3    3  502    0  0.31967306462E+03  0.31796766719E+02 -0.12256013146E+03  0.34383789980E+03  0.12699999809E+01 0.  1.
       -4    1    3    3    0  502 -0.31967306462E+03 -0.31796766719E+02  0.15717008316E+03  0.35763941415E+03  0.12699999809E+01 0. -1.
</event>
<event>
 5   0  0.4878235E-03  0.6971367E+03  0.7818609E-02  0.9722141E-01
        2   -1    0    0  501    0  0.00000000000E+00  0.00000000000E+00  0.11155371284E+04  0.11155371284E+04  0.25500000920E-02 0.  1.
       -2   -1    0    0    0  501  0.00000000000E+00  0.00000000000E+00 -0.10891604210E+03  0.10891604213E+03  0.25500000920E-02 0. -1.
    10030    2    1    2    0    0  0.00000000000E+00  0.00000000000E+00  0.10066210863E+04  0.12244531705E+04  0.69713668347E+03 0.  0.
        4    1    3    3  502    0 -0.17693841447E+03 -0.16137856501E+03  0.94816291795E+03  0.97793904495E+03  0.12699999809E+01 0.  1.
       -4    1    3    3    0  502  0.17693841447E+03  0.16137856501E+03  0.58458168334E+02  0.24651412557E+03  0.12699999809E+01 0. -1.
</event>
<event>
 5   0  0.5023894E-03  0.7008907E+03  0.7818609E-02  0.9715710E-01
        2   -1    0    0  501    0  0.00000000000E+00  0.00000000000E+00  0.94755672659E+03  0.94755672659E+03  0.25500000920E-02 0.  1.
       -2   -1    0    0    0  501  0.00000000000E+00  0.00000000000E+00 -0.12960907131E+03  0.12960907134E+03  0.25500000920E-02 0. -1.
    10030    2    1    2    0    0  0.00000000000E+00  0.00000000000E+00  0.81794765528E+03  0.10771657979E+04  0.70089071149E+03 0.  0.
        2    1    3    3  502    0 -0.90603623474E+01  0.26752492754E+03  0.75658895373E+03  0.80254502798E+03  0.25500000920E-02 0.  1.
       -2    1    3    3    0  502  0.90603623474E+01 -0.26752492754E+03  0.61358701545E+02  0.27462076994E+03  0.25500000920E-02 0. -1.
</event>
<event>
 5   0  0.5072407E-03  0.6998348E+03  0.7818609E-02  0.9717515E-01
        2   -1    0    0  501    0  0.00000000000E+00  0.00000000000E+00  0.51178992129E+03  0.51178992130E+03  0.25500000920E-02 0. -1.
       -2   -1    0    0    0  501  0.00000000000E+00  0.00000000000E+00 -0.23924304007E+03  0.23924304008E+03  0.25500000920E-02 0.  1.
    10030    2    1    2    0    0  0.00000000000E+00  0.00000000000E+00  0.27254688123E+03  0.75103296138E+03  0.69983477094E+03 0.  0.
        1    1    3    3  502    0 -0.35955064703E+02 -0.11779561688E+03  0.48776096454E+03  0.50306990825E+03  0.50400001928E-02 0. -1.
       -1    1    3    3    0  502  0.35955064703E+02  0.11779561688E+03 -0.21521408332E+03  0.24796305313E+03  0.50400001928E-02 0.  1.
</event>
<event>
 5   0  0.4878235E-03  0.7001556E+03  0.7818609E-02  0.9716966E-01
        2   -1    0    0  501    0  0.00000000000E+00  0.00000000000E+00  0.19720889346E+04  0.19720889346E+04  0.25500000920E-02 0. -1.
       -2   -1    0    0    0  501  0.00000000000E+00  0.00000000000E+00 -0.62144484452E+02  0.62144484504E+02  0.25500000920E-02 0.  1.
    10030    2    1    2    0    0  0.00000000000E+00  0.00000000000E+00  0.19099444501E+04  0.20342334191E+04  0.70015555468E+03 0.  0.
        4    1    3    3  502    0  0.32042857125E+01 -0.34840139836E+03  0.10538855060E+04  0.11099865200E+04  0.12699999809E+01 0. -1.
       -4    1    3    3    0  502 -0.32042857125E+01  0.34840139836E+03  0.85605894412E+03  0.92424689912E+03  0.12699999809E+01 0.  1.
</event>
<event>
 5   0  0.5076796E-03  0.7017325E+03  0.7818609E-02  0.9714274E-01
        2   -1    0    0  501    0  0.00000000000E+00  0.00000000000E+00  0.13051721003E+04  0.13051721003E+04  0.25500000920E-02 0.  1.
       -2   -1    0    0    0  501  0.00000000000E+00  0.00000000000E+00 -0.94322517880E+02  0.94322517915E+02  0.25500000920E-02 0. -1.
    10030    2    1    2    0    0  0.00000000000E+00  0.00000000000E+00  0.12108495824E+04  0.13994946182E+04  0.70173248120E+03 0.  0.
        5    1    3    3  502    0  0.23035988116E+03 -0.20414771655E+03  0.94118022539E+03  0.99024455145E+03  0.46999998093E+01 0.  1.
       -5    1    3    3    0  502 -0.23035988116E+03  0.20414771655E+03  0.26966935701E+03  0.40925006675E+03  0.46999998093E+01 0. -1.
</event>
<event>
 5   0  0.1981750E-03  0.6952861E+03  0.7818609E-02  0.9725328E-01
        3   -1    0    0  501    0  0.00000000000E+00  0.00000000000E+00  0.18937468925E+03  0.18937471618E+03  0.10100000352E+00 0. -1.
       -3   -1    0    0    0  501  0.00000000000E+00  0.00000000000E+00 -0.63818290733E+03  0.63818291532E+03  0.10100000352E+00 0.  1.
    10030    2    1    2    0    0  0.00000000000E+00  0.00000000000E+00 -0.44880821808E+03  0.82755763150E+03  0.69528614026E+03 0.  0.
        3    1    3    3  502    0 -0.13248538607E+03  0.29443350833E+03 -0.70995904668E+02  0.33058115045E+03  0.10100000352E+00 0. -1.
       -3    1    3    3    0  502  0.13248538607E+03 -0.29443350833E+03 -0.37781231341E+03  0.49697648105E+03  0.10100000352E+00 0.  1.
</event>
<event>
 5   0  0.2913582E-03  0.6993301E+03  0.7818609E-02  0.9718379E-01
       -1   -1    0    0    0  501  0.00000000000E+00  0.00000000000E+00  0.96573334010E+02  0.96573334142E+02  0.50400001928E-02 0.  1.
        1   -1    0    0  501    0  0.00000000000E+00  0.00000000000E+00 -0.12660392983E+04  0.12660392983E+04  0.50400001928E-02 0. -1.
    10030    2    1    2    0    0  0.00000000000E+00  0.00000000000E+00 -0.11694659643E+04  0.13626126325E+04  0.69933006835E+03 0.  0.
        1    1    3    3  502    0 -0.16720084555E+03  0.19462366007E+03 -0.12187299632E+03  0.28405548590E+03  0.50400001928E-02 0.  1.
       -1    1    3    3    0  502  0.16720084555E+03 -0.19462366007E+03 -0.10475929680E+04  0.10785571466E+04  0.50400001928E-02 0. -1.
</event>
<event>
 5   0  0.2913582E-03  0.6966443E+03  0.7818609E-02  0.9722988E-01
       -1   -1    0    0    0  501  0.00000000000E+00  0.00000000000E+00  0.21594767611E+03  0.21594767617E+03  0.50400001928E-02 0.  1.
        1   -1    0    0  501    0  0.00000000000E+00  0.00000000000E+00 -0.56184130576E+03  0.56184130579E+03  0.50400001928E-02 0. -1.
    10030    2    1    2    0    0  0.00000000000E+00  0.00000000000E+00 -0.34589362966E+03  0.77778898195E+03  0.69664431198E+03 0.  0.
        1    1    3    3  502    0 -0.15106272782E+02  0.31552638757E+03 -0.90743312654E+01  0.31601810746E+03  0.50400001928E-02 0.  1.
       -1    1    3    3    0  502  0.15106272782E+02 -0.31552638757E+03 -0.33681929839E+03  0.46177087449E+03  0.50400001928E-02 0. -1.
</event>
<event>
 5   0  0.2938783E-03  0.6981454E+03  0.7818609E-02  0.9720409E-01
       -1   -1    0    0    0  501  0.00000000000E+00  0.00000000000E+00  0.49428661583E+02  0.49428661840E+02  0.50400001928E-02 0.  1.
        1   -1    0    0  501    0  0.00000000000E+00  0.00000000000E+00 -0.24652041929E+04  0.24652041929E+04  0.50400001928E-02 0. -1.
    10030    2    1    2    0    0  0.00000000000E+00  0.00000000000E+00 -0.24157755313E+04  0.25146328548E+04  0.69814538347E+03 0.  0.
        4    1    3    3  502    0  0.21760575731E+03  0.27265596481E+03 -0.11628152963E+04  0.12140158841E+04  0.12699999809E+01 0. -1.
       -4    1    3    3    0  502 -0.21760575731E+03 -0.27265596481E+03 -0.12529602351E+04  0.13006169706E+04  0.12699999809E+01 0.  1.
</event>
<event>
 5   0  0.2913582E-03  0.6996301E+03  0.7818609E-02  0.9717865E-01
        1   -1    0    0  501    0  0.00000000000E+00  0.00000000000E+00  0.67479196287E+03  0.67479196289E+03  0.50400001928E-02 0. -1.
       -1   -1    0    0    0  501  0.00000000000E+00  0.00000000000E+00 -0.18134559912E+03  0.18134559919E+03  0.50400001928E-02 0.  1.
    10030    2    1    2    0    0  0.00000000000E+00  0.00000000000E+00  0.49344636375E+03  0.85613756208E+03  0.69963005317E+03 0.  0.
        1    1    3    3  502    0 -0.67281374462E+02  0.13276513063E+03  0.63411121851E+03  0.65134507039E+03  0.50400001928E-02 0. -1.
       -1    1    3    3    0  502  0.67281374462E+02 -0.13276513063E+03 -0.14066485476E+03  0.20479249168E+03  0.50400001928E-02 0.  1.
</event>
<event>
 5   0  0.5072407E-03  0.6996629E+03  0.7818609E-02  0.9717809E-01
       -2   -1    0    0    0  501  0.00000000000E+00  0.00000000000E+00  0.96896182541E+02  0.96896182575E+02  0.25500000920E-02 0. -1.
        2   -1    0    0  501    0  0.00000000000E+00  0.00000000000E+00 -0.12630222045E+04  0.12630222045E+04  0.25500000920E-02 0.  1.
    10030    2    1    2    0    0  0.00000000000E+00  0.00000000000E+00 -0.11661260219E+04  0.13599183871E+04  0.69966286197E+03 0.  0.
        1    1    3    3  502    0  0.23030309358E+03  0.22008001585E+03 -0.30201985243E+03  0.43896551069E+03  0.50400001928E-02 0. -1.
       -1    1    3    3    0  502 -0.23030309358E+03 -0.22008001585E+03 -0.86410616951E+03  0.92095287637E+03  0.50400001928E-02 0.  1.
</event>
<event>
 5   0  0.4878235E-03  0.7000692E+03  0.7818609E-02  0.9717114E-01
        2   -1    0    0  501    0  0.00000000000E+00  0.00000000000E+00  0.45398930649E+03  0.45398930649E+03  0.25500000920E-02 0. -1.
       -2   -1    0    0    0  501  0.00000000000E+00  0.00000000000E+00 -0.26988349380E+03  0.26988349382E+03  0.25500000920E-02 0.  1.
    10030    2    1    2    0    0  0.00000000000E+00  0.00000000000E+00  0.18410581268E+03  0.72387280031E+03  0.70006919713E+03 0.  0.
        4    1    3    3  502    0 -0.18155982222E+03  0.58515733156E+02 -0.21141304915E+03  0.28475454399E+03  0.12699999809E+01 0.  1.
       -4    1    3    3    0  502  0.18155982222E+03 -0.58515733156E+02  0.39551886183E+03  0.43911825632E+03  0.12699999809E+01 0. -1.
</event>
<event>
 5   0  0.5023894E-03  0.7000354E+03  0.7818609E-02  0.9717172E-01
        2   -1    0    0  501    0  0.00000000000E+00  0.00000000000E+00  0.41215174226E+03  0.41215174227E+03  0.25500000920E-02 0.  1.
       -2   -1    0    0    0  501  0.00000000000E+00  0.00000000000E+00 -0.29725070663E+03  0.29725070664E+03  0.25500000920E-02 0. -1.
    10030    2    1    2    0    0  0.00000000000E+00  0.00000000000E+00  0.11490103563E+03  0.70940244891E+03  0.70003541806E+03 0.  0.
        2    1    3    3  502    0  0.26332017702E+03 -0.19374277954E+03 -0.69277263922E+02  0.33417528268E+03  0.25500000920E-02 0. -1.
       -2    1    3    3    0  502 -0.26332017702E+03  0.19374277954E+03  0.18417829955E+03  0.37522716624E+03  0.25500000920E-02 0.  1.
</event>
<event>
 5   0  0.2934483E-03  0.7016855E+03  0.7818609E-02  0.9714354E-01
       -1   -1    0    0    0  501  0.00000000000E+00  0.00000000000E+00  0.68770563812E+02  0.68770563996E+02  0.50400001928E-02 0.  1.
        1   -1    0    0  501    0  0.00000000000E+00  0.00000000000E+00 -0.17898736242E+04  0.17898736242E+04  0.50400001928E-02 0. -1.
    10030    2    1    2    0    0  0.00000000000E+00  0.00000000000E+00 -0.17211030603E+04  0.18586441882E+04  0.70168545222E+03 0.  0.
        5    1    3    3  502    0 -0.20278302637E+03  0.28005483619E+03 -0.70346772521E+03  0.78386261390E+03  0.46999998093E+01 0.  1.
       -5    1    3    3    0  502  0.20278302637E+03 -0.28005483619E+03 -0.10176353351E+04  0.10747815743E+04  0.46999998093E+01 0. -1.
</event>
<event>
 5   0  0.2937617E-03  0.7000434E+03  0.7818609E-02  0.9717158E-01
       -1   -1    0    0    0  501  0.00000000000E+00  0.00000000000E+00  0.17197658550E+03  0.17197658557E+03  0.50400001928E-02 0.  1.
        1   -1    0    0  501    0  0.00000000000E+00  0.00000000000E+00 -0.71239466160E+03  0.71239466162E+03  0.50400001928E-02 0. -1.
    10030    2    1    2    0    0  0.00000000000E+00  0.00000000000E+00 -0.54041807611E+03  0.88437124720E+03  0.70004343143E+03 0.  0.
        3    1    3    3  502    0 -0.59207114837E+02 -0.33259779790E+03 -0.38591335121E+03  0.51288975663E+03  0.10100000352E+00 0. -1.
       -3    1    3    3    0  502  0.59207114837E+02  0.33259779790E+03 -0.15450472489E+03  0.37148149056E+03  0.10100000352E+00 0.  1.
</event>
<event>
 5   0  0.5072407E-03  0.7000754E+03  0.7818609E-02  0.9717103E-01
        2   -1    0    0  501    0  0.00000000000E+00  0.00000000000E+00  0.66874412179E+03  0.66874412180E+03  0.25500000920E-02 0.  1.
       -2   -1    0    0    0  501  0.00000000000E+00  0.00000000000E+00 -0.18321863764E+03  0.18321863766E+03  0.25500000920E-02 0. -1.
    10030    2    1    2    0    0  0.00000000000E+00  0.00000000000E+00  0.48552548415E+03  0.85196275946E+03  0.70007538719E+03 0.  0.
        1    1    3    3  502    0 -0.21644434802E+03 -0.47807252867E+02  0.57245004973E+03  0.61386704479E+03  0.50400001928E-02 0.  1.
       -1    1    3    3    0  502  0.21644434802E+03  0.47807252867E+02 -0.86924565576E+02  0.23809571467E+03  0.50400001928E-02 0. -1.
</event>
<event>
 5   0  0.2938783E-03  0.6999734E+03  0.7818609E-02  0.9717278E-01
        1   -1    0    0  501    0  0.00000000000E+00  0.00000000000E+00  0.15901451414E+04  0.15901451414E+04  0.50400001928E-02 0. -1.
       -1   -1    0    0    0  501  0.00000000000E+00  0.00000000000E+00 -0.77031139225E+02  0.77031139389E+02  0.50400001928E-02 0.  1.
    10030    2    1    2    0    0  0.00000000000E+00  0.00000000000E+00  0.15131140021E+04  0.16671762808E+04  0.69997340497E+03 0.  0.
        4    1    3    3  502    0 -0.20191013526E+03 -0.20130642790E+03  0.27312733517E+03  0.39483178032E+03  0.12699999809E+01 0.  1.
       -4    1    3    3    0  502  0.20191013526E+03  0.20130642790E+03  0.12399866670E+04  0.12723445004E+04  0.12699999809E+01 0. -1.
</event>
<event>
 5   0  0.2913582E-03  0.6982693E+03  0.7818609E-02  0.9720197E-01
        1   -1    0    0  501    0  0.00000000000E+00  0.00000000000E+00  0.60580610971E+03  0.60580610973E+03  0.50400001928E-02 0. -1.
       -1   -1    0    0    0  501  0.00000000000E+00  0.00000000000E+00 -0.20121122436E+03  0.20121122443E+03  0.50400001928E-02 0.  1.
    10030    2    1    2    0    0  0.00000000000E+00  0.00000000000E+00  0.40459488535E+03  0.80701733416E+03  0.69826925780E+03 0.  0.
        1    1    3    3  502    0 -0.91652023610E+02 -0.26737597268E+03  0.43916760484E+03  0.52226256746E+03  0.50400001928E-02 0. -1.
       -1    1    3    3    0  502  0.91652023610E+02  0.26737597268E+03 -0.34572719490E+02  0.28475476670E+03  0.50400001928E-02 0.  1.
</event>
<event>
 5   0  0.2913582E-03  0.7005809E+03  0.7818609E-02  0.9716239E-01
        1   -1    0    0  501    0  0.00000000000E+00  0.00000000000E+00  0.17809618894E+04  0.17809618894E+04  0.50400001928E-02 0. -1.
       -1   -1    0    0    0  501  0.00000000000E+00  0.00000000000E+00 -0.68897257857E+02  0.68897258041E+02  0.50400001928E-02 0.  1.
    10030    2    1    2    0    0  0.00000000000E+00  0.00000000000E+00  0.17120646316E+04  0.18498591475E+04  0.70058087529E+03 0.  0.
        1    1    3    3  502    0 -0.23251158481E+03 -0.11726631975E+03  0.23740593138E+03  0.35238416976E+03  0.50400001928E-02 0.  1.
       -1    1    3    3    0  502  0.23251158481E+03  0.11726631975E+03  0.14746587002E+04  0.14974749777E+04  0.50400001928E-02 0. -1.
</event>
<event>
 5   0  0.1981750E-03  0.7011602E+03  0.7818609E-02  0.9715250E-01
       -3   -1    0    0    0  501  0.00000000000E+00  0.00000000000E+00  0.15730820807E+04  0.15730820839E+04  0.10100000352E+00 0. -1.
        3   -1    0    0  501    0  0.00000000000E+00  0.00000000000E+00 -0.78130909663E+02  0.78130974945E+02  0.10100000352E+00 0.  1.
    10030    2    1    2    0    0  0.00000000000E+00  0.00000000000E+00  0.14949511710E+04  0.16512130588E+04  0.70116015435E+03 0.  0.
        4    1    3    3  502    0 -0.29327660540E+03 -0.14967581832E+03  0.46398968434E+03  0.56894820322E+03  0.12699999809E+01 0. -1.
       -4    1    3    3    0  502  0.29327660540E+03  0.14967581832E+03  0.10309614867E+04  0.10822648556E+04  0.12699999809E+01 0.  1.
</event>
<event>
 5   0  0.2934483E-03  0.6958862E+03  0.7818609E-02  0.9724293E-01
       -1   -1    0    0    0  501  0.00000000000E+00  0.00000000000E+00  0.20941108757E+03  0.20941108763E+03  0.50400001928E-02 0.  1.
        1   -1    0    0  501    0  0.00000000000E+00  0.00000000000E+00 -0.57811841045E+03  0.57811841047E+03  0.50400001928E-02 0. -1.
    10030    2    1    2    0    0  0.00000000000E+00  0.00000000000E+00 -0.36870732288E+03  0.78752949811E+03  0.69588621228E+03 0.  0.
        5    1    3    3  502    0  0.22214178658E+03 -0.24589721594E+03 -0.64426774294E+02  0.33761711064E+03  0.46999998093E+01 0.  1.
       -5    1    3    3    0  502 -0.22214178658E+03  0.24589721594E+03 -0.30428054858E+03  0.44991238747E+03  0.46999998093E+01 0. -1.
</event>
<event>
 5   0  0.2937617E-03  0.7011195E+03  0.7818609E-02  0.9715320E-01
        1   -1    0    0  501    0  0.00000000000E+00  0.00000000000E+00  0.93175557125E+03  0.93175557127E+03  0.50400001928E-02 0. -1.
       -1   -1    0    0    0  501  0.00000000000E+00  0.00000000000E+00 -0.13189311753E+03  0.13189311762E+03  0.50400001928E-02 0.  1.
    10030    2    1    2    0    0  0.00000000000E+00  0.00000000000E+00  0.79986245373E+03  0.10636486889E+04  0.70111952511E+03 0.  0.
        3    1    3    3  502    0  0.11442487889E+03  0.19263108384E+03 -0.90943826838E+01  0.22423760917E+03  0.10100000352E+00 0.  1.
       -3    1    3    3    0  502 -0.11442487889E+03 -0.19263108384E+03  0.80895683641E+03  0.83941107972E+03  0.10100000352E+00 0. -1.
</event>
<event>
 5   0  0.4878235E-03  0.7020157E+03  0.7818609E-02  0.9713791E-01
        2   -1    0    0  501    0  0.00000000000E+00  0.00000000000E+00  0.81904445088E+03  0.81904445088E+03  0.25500000920E-02 0.  1.
       -2   -1    0    0    0  501  0.00000000000E+00  0.00000000000E+00 -0.15042711878E+03  0.15042711880E+03  0.25500000920E-02 0. -1.
    10030    2    1    2    0    0  0.00000000000E+00  0.00000000000E+00  0.66861733210E+03  0.96947156968E+03  0.70201566053E+03 0.  0.
        4    1    3    3  502    0 -0.69262661965E+01  0.27246569850E+03  0.28866751105E+02  0.27408106874E+03  0.12699999809E+01 0. -1.
       -4    1    3    3    0  502  0.69262661965E+01 -0.27246569850E+03  0.63975058100E+03  0.69539050095E+03  0.12699999809E+01 0.  1.
</event>
<event>
 5   0  0.5072407E-03  0.7001785E+03  0.7818609E-02  0.9716927E-01
        2   -1    0    0  501    0  0.00000000000E+00  0.00000000000E+00  0.35297431917E+03  0.35297431918E+03  0.25500000920E-02 0.  1.
       -2   -1    0    0    0  501  0.00000000000E+00  0.00000000000E+00 -0.34722775369E+03  0.34722775370E+03  0.25500000920E-02 0. -1.
    10030    2    1    2    0    0  0.00000000000E+00  0.00000000000E+00  0.57465654784E+01  0.70020207288E+03  0.70017849143E+03 0.  0.
        1    1    3    3  502    0 -0.12159884893E+03 -0.28397867664E+03  0.16759771539E+03  0.35145293152E+03  0.50400001928E-02 0.  1.
       -1    1    3    3    0  502  0.12159884893E+03  0.28397867664E+03 -0.16185114991E+03  0.34874914136E+03  0.50400001928E-02 0. -1.
</event>
<event>
 5   0  0.2938783E-03  0.7002832E+03  0.7818609E-02  0.9716748E-01
        1   -1    0    0  501    0  0.00000000000E+00  0.00000000000E+00  0.71123745043E+03  0.71123745045E+03  0.50400001928E-02 0.  1.
       -1   -1    0    0    0  501  0.00000000000E+00  0.00000000000E+00 -0.17237440542E+03  0.17237440550E+03  0.50400001928E-02 0. -1.
    10030    2    1    2    0    0  0.00000000000E+00  0.00000000000E+00  0.53886304501E+03  0.88361185595E+03  0.70028317893E+03 0.  0.
        4    1    3    3  502    0 -0.33556038667E+03 -0.73216500965E+02  0.18351755013E+03  0.38941203528E+03  0.12699999809E+01 0. -1.
       -4    1    3    3    0  502  0.33556038667E+03  0.73216500965E+02  0.35534549488E+03  0.49419982067E+03  0.12699999809E+01 0.  1.
</event>
<event>
 5   0  0.5076796E-03  0.7000031E+03  0.7818609E-02  0.9717227E-01
       -2   -1    0    0    0  501  0.00000000000E+00  0.00000000000E+00  0.22998980644E+03  0.22998980645E+03  0.25500000920E-02 0. -1.
        2   -1    0    0  501    0  0.00000000000E+00  0.00000000000E+00 -0.53263708961E+03  0.53263708961E+03  0.25500000920E-02 0.  1.
    10030    2    1    2    0    0  0.00000000000E+00  0.00000000000E+00 -0.30264728317E+03  0.76262689606E+03  0.70000314613E+03 0.  0.
        5    1    3    3  502    0  0.11567880086E+03  0.31712715177E+03 -0.50716103451E+02  0.34138750490E+03  0.46999998093E+01 0.  1.
       -5    1    3    3    0  502 -0.11567880086E+03 -0.31712715177E+03 -0.25193117972E+03  0.42123939116E+03  0.46999998093E+01 0. -1.
</event>
<event>
 5   0  0.2938783E-03  0.6996582E+03  0.7818609E-02  0.9717817E-01
        1   -1    0    0  501    0  0.00000000000E+00  0.00000000000E+00  0.12901366403E+04  0.12901366403E+04  0.50400001928E-02 0. -1.
       -1   -1    0    0    0  501  0.00000000000E+00  0.00000000000E+00 -0.94858487586E+02  0.94858487719E+02  0.50400001928E-02 0.  1.
    10030    2    1    2    0    0  0.00000000000E+00  0.00000000000E+00  0.11952781527E+04  0.13849951280E+04  0.69965823249E+03 0.  0.
        4    1    3    3  502    0  0.26566006741E+03 -0.14293057629E+03  0.24700844811E+03  0.38989640597E+03  0.12699999809E+01 0.  1.
       -4    1    3    3    0  502 -0.26566006741E+03  0.14293057629E+03  0.94826970457E+03  0.99509872201E+03  0.12699999809E+01 0. -1.
</event>
<event>
 5   0  0.2913582E-03  0.7017319E+03  0.7818609E-02  0.9714275E-01
       -1   -1    0    0    0  501  0.00000000000E+00  0.00000000000E+00  0.75443464964E+02  0.75443465133E+02  0.50400001928E-02 0. -1.
        1   -1    0    0  501    0  0.00000000000E+00  0.00000000000E+00 -0.16317772251E+04  0.16317772251E+04  0.50400001928E-02 0.  1.
    10030    2    1    2    0    0  0.00000000000E+00  0.00000000000E+00 -0.15563337601E+04  0.17072206902E+04  0.70173193759E+03 0.  0.
        1    1    3    3  502    0 -0.28851206483E+03  0.15546479407E+03 -0.10829888852E+04  0.11314916877E+04  0.50400001928E-02 0.  1.
       -1    1    3    3    0  502  0.28851206483E+03 -0.15546479407E+03 -0.47334487488E+03  0.57572900253E+03  0.50400001928E-02 0. -1.
</event>
<event>
 5   0  0.2913582E-03  0.6981576E+03  0.7818609E-02  0.9720388E-01
        1   -1    0    0  501    0  0.00000000000E+00  0.00000000000E+00  0.35182991533E+03  0.35182991536E+03  0.50400001928E-02 0. -1.
       -1   -1    0    0    0  501  0.00000000000E+00  0.00000000000E+00 -0.34634923414E+03  0.34634923417E+03  0.50400001928E-02 0.  1.
    10030    2    1    2    0    0  0.00000000000E+00  0.00000000000E+00  0.54806811911E+01  0.69817914954E+03  0.69815763763E+03 0.  0.
        1    1    3    3  502    0 -0.20179041335E+03  0.16827183729E+03  0.23257614007E+03  0.35089377752E+03  0.50400001928E-02 0. -1.
       -1    1    3    3    0  502  0.20179041335E+03 -0.16827183729E+03 -0.22709545888E+03  0.34728537202E+03  0.50400001928E-02 0.  1.
</event>
<event>
 5   0  0.2937617E-03  0.6994743E+03  0.7818609E-02  0.9718132E-01
       -1   -1    0    0    0  501  0.00000000000E+00  0.00000000000E+00  0.15270252672E+03  0.15270252680E+03  0.50400001928E-02 0.  1.
        1   -1    0    0  501    0  0.00000000000E+00  0.00000000000E+00 -0.80100889451E+03  0.80100889452E+03  0.50400001928E-02 0. -1.
    10030    2    1    2    0    0  0.00000000000E+00  0.00000000000E+00 -0.64830636779E+03  0.95371142133E+03  0.69947432308E+03 0.  0.
        3    1    3    3  502    0  0.86211117233E+02 -0.25744588062E+03 -0.62475193499E+03  0.68119433986E+03  0.10100000352E+00 0. -1.
       -3    1    3    3    0  502 -0.86211117233E+02  0.25744588062E+03 -0.23554432799E+02  0.27251708146E+03  0.10100000352E+00 0.  1.
</event>
<event>
 5   0  0.5076796E-03  0.6988947E+03  0.7818609E-02  0.9719124E-01
       -2   -1    0    0    0  501  0.00000000000E+00  0.00000000000E+00  0.49632705989E+03  0.49632705989E+03  0.25500000920E-02 0.  1.
        2   -1    0    0  501    0  0.00000000000E+00  0.00000000000E+00 -0.24603427314E+03  0.24603427315E+03  0.25500000920E-02 0. -1.
    10030    2    1    2    0    0  0.00000000000E+00  0.00000000000E+00  0.25029278675E+03  0.74236133305E+03  0.69889474866E+03 0.  0.
        5    1    3    3  502    0  0.11273616082E+03 -0.19097230591E+03 -0.16166845002E+03  0.27447885403E+03  0.46999998093E+01 0. -1.
       -5    1    3    3    0  502 -0.11273616082E+03  0.19097230591E+03  0.41196123676E+03  0.46788247902E+03  0.46999998093E+01 0.  1.
</event>
<event>
 5   0  0.5072407E-03  0.6995028E+03  0.7818609E-02  0.9718083E-01
       -2   -1    0    0    0  501  0.00000000000E+00  0.00000000000E+00  0.77898557502E+02  0.77898557543E+02  0.25500000920E-02 0.  1.
        2   -1    0    0  501    0  0.00000000000E+00  0.00000000000E+00 -0.15703246707E+04  0.15703246707E+04  0.25500000920E-02 0. -1.
    10030    2    1    2    0    0  0.00000000000E+00  0.00000000000E+00 -0.14924261132E+04  0.16482232282E+04  0.69950275680E+03 0.  0.
        1    1    3    3  502    0  0.27205676556E+03  0.45656632018E+02 -0.23960435386E+03  0.36538973459E+03  0.50400001928E-02 0.  1.
       -1    1    3    3    0  502 -0.27205676556E+03 -0.45656632018E+02 -0.12528217593E+04  0.12828334936E+04  0.50400001928E-02 0. -1.
</event>
<event>
 5   0  0.2938783E-03  0.7006785E+03  0.7818609E-02  0.9716073E-01
       -1   -1    0    0    0  501  0.00000000000E+00  0.00000000000E+00  0.10773657311E+03  0.10773657323E+03  0.50400001928E-02 0.  1.
        1   -1    0    0  501    0  0.00000000000E+00  0.00000000000E+00 -0.11392379062E+04  0.11392379062E+04  0.50400001928E-02 0. -1.
    10030    2    1    2    0    0  0.00000000000E+00  0.00000000000E+00 -0.10315013331E+04  0.12469744795E+04  0.70067849419E+03 0.  0.
        4    1    3    3  502    0  0.28373963970E+03 -0.16332713027E+03 -0.29381225820E+03  0.43989906864E+03  0.12699999809E+01 0.  1.
       -4    1    3    3    0  502 -0.28373963970E+03  0.16332713027E+03 -0.73768907492E+03  0.80707541084E+03  0.12699999809E+01 0. -1.
</event>
<event>
 5   0  0.2937617E-03  0.6996996E+03  0.7818609E-02  0.9717746E-01
       -1   -1    0    0    0  501  0.00000000000E+00  0.00000000000E+00  0.49666769815E+03  0.49666769817E+03  0.50400001928E-02 0.  1.
        1   -1    0    0  501    0  0.00000000000E+00  0.00000000000E+00 -0.24643211302E+03  0.24643211308E+03  0.50400001928E-02 0. -1.
    10030    2    1    2    0    0  0.00000000000E+00  0.00000000000E+00  0.25023558512E+03  0.74309981125E+03  0.69969956511E+03 0.  0.
        3    1    3    3  502    0 -0.16360856694E+03 -0.25614026707E+03 -0.58889714797E+02  0.30958618881E+03  0.10100000352E+00 0. -1.
       -3    1    3    3    0  502  0.16360856694E+03  0.25614026707E+03  0.30912529992E+03  0.43351362244E+03  0.10100000352E+00 0.  1.
</event>
<event>
 5   0  0.5076796E-03  0.6998823E+03  0.7818609E-02  0.9717433E-01
       -2   -1    0    0    0  501  0.00000000000E+00  0.00000000000E+00  0.92446220953E+02  0.92446220989E+02  0.25500000920E-02 0. -1.
        2   -1    0    0  501    0  0.00000000000E+00  0.00000000000E+00 -0.13246492698E+04  0.13246492698E+04  0.25500000920E-02 0.  1.
    10030    2    1    2    0    0  0.00000000000E+00  0.00000000000E+00 -0.12322030488E+04  0.14170954908E+04  0.69988233041E+03 0.  0.
        5    1    3    3  502    0  0.57832681809E+02 -0.20980928619E+03 -0.61330740468E+02  0.22615946892E+03  0.46999998093E+01 0. -1.
       -5    1    3    3    0  502 -0.57832681809E+02  0.20980928619E+03 -0.11708723084E+04  0.11909360218E+04  0.46999998093E+01 0.  1.
</event>
<event>
 5   0  0.2937617E-03  0.7004843E+03  0.7818609E-02  0.9716404E-01
       -1   -1    0    0    0  501  0.00000000000E+00  0.00000000000E+00  0.26891723846E+03  0.26891723851E+03  0.50400001928E-02 0.  1.
        1   -1    0    0  501    0  0.00000000000E+00  0.00000000000E+00 -0.45616104392E+03  0.45616104395E+03  0.50400001928E-02 0. -1.
    10030    2    1    2    0    0  0.00000000000E+00  0.00000000000E+00 -0.18724380546E+03  0.72507828245E+03  0.70048431317E+03 0.  0.
        3    1    3    3  502    0  0.65340743255E+02  0.34159575327E+03 -0.13645703214E+03  0.37360086081E+03  0.10100000352E+00 0.  1.
       -3    1    3    3    0  502 -0.65340743255E+02 -0.34159575327E+03 -0.50786773324E+02  0.35147742164E+03  0.10100000352E+00 0. -1.
</event>
<event>
 5   0  0.2913582E-03  0.7003373E+03  0.7818609E-02  0.9716656E-01
       -1   -1    0    0    0  501  0.00000000000E+00  0.00000000000E+00  0.93487970790E+02  0.93487970926E+02  0.50400001928E-02 0. -1.
        1   -1    0    0  501    0  0.00000000000E+00  0.00000000000E+00 -0.13115920086E+04  0.13115920086E+04  0.50400001928E-02 0.  1.
    10030    2    1    2    0    0  0.00000000000E+00  0.00000000000E+00 -0.12181040378E+04  0.14050799795E+04  0.70033727729E+03 0.  0.
        1    1    3    3  502    0  0.82541609626E+02 -0.64644896925E+02  0.61259179204E+02  0.12142803251E+03  0.50400001928E-02 0. -1.
       -1    1    3    3    0  502 -0.82541609626E+02  0.64644896925E+02 -0.12793632170E+04  0.12836519470E+04  0.50400001928E-02 0.  1.
</event>
<event>
 5   0  0.4878235E-03  0.7010875E+03  0.7818609E-02  0.9715374E-01
       -2   -1    0    0    0  501  0.00000000000E+00  0.00000000000E+00  0.18739168836E+03  0.18739168837E+03  0.25500000920E-02 0.  1.
        2   -1    0    0  501    0  0.00000000000E+00  0.00000000000E+00 -0.65574375125E+03  0.65574375125E+03  0.25500000920E-02 0. -1.
    10030    2    1    2    0    0  0.00000000000E+00  0.00000000000E+00 -0.46835206289E+03  0.84313543963E+03  0.70108752288E+03 0.  0.
        4    1    3    3  502    0  0.29640654549E+03  0.16183472135E+03 -0.34719584869E+03  0.48434893154E+03  0.12699999809E+01 0. -1.
       -4    1    3    3    0  502 -0.29640654549E+03 -0.16183472135E+03 -0.12115621421E+03  0.35878650808E+03  0.12699999809E+01 0.  1.
</event>
<event>
 5   0  0.5023894E-03  0.6996090E+03  0.7818609E-02  0.9717901E-01
       -2   -1    0    0    0  501  0.00000000000E+00  0.00000000000E+00  0.29222769483E+03  0.29222769484E+03  0.25500000920E-02 0. -1.
        2   -1    0    0  501    0  0.00000000000E+00  0.00000000000E+00 -0.41872550045E+03  0.41872550046E+03  0.25500000920E-02 0.  1.
    10030    2    1    2    0    0  0.00000000000E+00  0.00000000000E+00 -0.12649780562E+03  0.71095319530E+03  0.69960899871E+03 0.  0.
        2    1    3    3  502    0  0.20816427584E+03 -0.18937205207E+02  0.22178484473E+03  0.30476138344E+03  0.25500000920E-02 0. -1.
       -2    1    3    3    0  502 -0.20816427584E+03  0.18937205207E+02 -0.34828265035E+03  0.40619181186E+03  0.25500000920E-02 0.  1.
</event>
<event>
 5   0  0.3013140E-03  0.6990197E+03  0.7818609E-02  0.9718910E-01
       -1   -1    0    0    0  501  0.00000000000E+00  0.00000000000E+00  0.84178218415E+02  0.84178218566E+02  0.50400001928E-02 0.  1.
        1   -1    0    0  501    0  0.00000000000E+00  0.00000000000E+00 -0.14511725577E+04  0.14511725577E+04  0.50400001928E-02 0. -1.
    10030    2    1    2    0    0  0.00000000000E+00  0.00000000000E+00 -0.13669943392E+04  0.15353507762E+04  0.69901965821E+03 0.  0.
        2    1    3    3  502    0  0.37491215949E+02  0.26754300831E+02 -0.14444776285E+04  0.14452117503E+04  0.25500000920E-02 0. -1.
       -2    1    3    3    0  502 -0.37491215949E+02 -0.26754300831E+02  0.77483289239E+02  0.90139025977E+02  0.25500000920E-02 0.  1.
</event>
<event>
 5   0  0.5023894E-03  0.6995989E+03  0.7818609E-02  0.9717918E-01
       -2   -1    0    0    0  501  0.00000000000E+00  0.00000000000E+00  0.56203806749E+03  0.56203806750E+03  0.25500000920E-02 0. -1.
        2   -1    0    0  501    0  0.00000000000E+00  0.00000000000E+00 -0.21770704885E+03  0.21770704887E+03  0.25500000920E-02 0.  1.
    10030    2    1    2    0    0  0.00000000000E+00  0.00000000000E+00  0.34433101864E+03  0.77974511637E+03  0.69959888229E+03 0.  0.
        2    1    3    3  502    0  0.55594238916E+02  0.29749170121E+03 -0.23336168599E+02  0.30354012661E+03  0.25500000920E-02 0.  1.
       -2    1    3    3    0  502 -0.55594238916E+02 -0.29749170121E+03  0.36766718724E+03  0.47620498976E+03  0.25500000920E-02 0. -1.
</event>
<event>
 5   0  0.3013140E-03  0.6968243E+03  0.7818609E-02  0.9722678E-01
       -1   -1    0    0    0  501  0.00000000000E+00  0.00000000000E+00  0.26102771932E+03  0.26102771937E+03  0.50400001928E-02 0.  1.
        1   -1    0    0  501    0  0.00000000000E+00  0.00000000000E+00 -0.46505038635E+03  0.46505038637E+03  0.50400001928E-02 0. -1.
    10030    2    1    2    0    0  0.00000000000E+00  0.00000000000E+00 -0.20402266702E+03  0.72607810574E+03  0.69682434442E+03 0.  0.
        2    1    3    3  502    0  0.22182931672E+03 -0.63988391123E+02 -0.37390319853E+03  0.43943868950E+03  0.25500000920E-02 0. -1.
       -2    1    3    3    0  502 -0.22182931672E+03  0.63988391123E+02  0.16988053150E+03  0.28663941624E+03  0.25500000920E-02 0.  1.
</event>
<event>
 5   0  0.2934483E-03  0.7023064E+03  0.7818609E-02  0.9713296E-01
       -1   -1    0    0    0  501  0.00000000000E+00  0.00000000000E+00  0.32814099930E+03  0.32814099934E+03  0.50400001928E-02 0. -1.
        1   -1    0    0  501    0  0.00000000000E+00  0.00000000000E+00 -0.37577924790E+03  0.37577924793E+03  0.50400001928E-02 0.  1.
    10030    2    1    2    0    0  0.00000000000E+00  0.00000000000E+00 -0.47638248601E+02  0.70392024727E+03  0.70230642300E+03 0.  0.
        5    1    3    3  502    0  0.34470777754E+03  0.81858901408E+01 -0.90274023757E+02  0.35645750105E+03  0.46999998093E+01 0.  1.
       -5    1    3    3    0  502 -0.34470777754E+03 -0.81858901408E+01  0.42635775156E+02  0.34746274622E+03  0.46999998093E+01 0. -1.
</event>
<event>
 5   0  0.2913582E-03  0.6989320E+03  0.7818609E-02  0.9719060E-01
       -1   -1    0    0    0  501  0.00000000000E+00  0.00000000000E+00  0.62617846681E+03  0.62617846683E+03  0.50400001928E-02 0.  1.
        1   -1    0    0  501    0  0.00000000000E+00  0.00000000000E+00 -0.19503463074E+03  0.19503463081E+03  0.50400001928E-02 0. -1.
    10030    2    1    2    0    0  0.00000000000E+00  0.00000000000E+00  0.43114383607E+03  0.82121309764E+03  0.69893200267E+03 0.  0.
        1    1    3    3  502    0 -0.15254933080E+03  0.17675424657E+03 -0.89945828761E+02  0.25020714248E+03  0.50400001928E-02 0. -1.
       -1    1    3    3    0  502  0.15254933080E+03 -0.17675424657E+03  0.52108966483E+03  0.57100595516E+03  0.50400001928E-02 0.  1.
</event>
<event>
 5   0  0.5023894E-03  0.6998828E+03  0.7818609E-02  0.9717433E-01
        2   -1    0    0  501    0  0.00000000000E+00  0.00000000000E+00  0.17652086878E+03  0.17652086880E+03  0.25500000920E-02 0.  1.
       -2   -1    0    0    0  501  0.00000000000E+00  0.00000000000E+00 -0.69373649724E+03  0.69373649725E+03  0.25500000920E-02 0. -1.
    10030    2    1    2    0    0  0.00000000000E+00  0.00000000000E+00 -0.51721562846E+03  0.87025736604E+03  0.69988275934E+03 0.  0.
        2    1    3    3  502    0 -0.13898183224E+03  0.31730741645E+03 -0.32026784048E+03  0.47177477241E+03  0.25500000920E-02 0. -1.
       -2    1    3    3    0  502  0.13898183224E+03 -0.31730741645E+03 -0.19694778798E+03  0.39848259363E+03  0.25500000920E-02 0.  1.
</event>
<event>
 5   0  0.4878235E-03  0.7009728E+03  0.7818609E-02  0.9715570E-01
       -2   -1    0    0    0  501  0.00000000000E+00  0.00000000000E+00  0.10832006250E+03  0.10832006253E+03  0.25500000920E-02 0.  1.
        2   -1    0    0  501    0  0.00000000000E+00  0.00000000000E+00 -0.11340531249E+04  0.11340531249E+04  0.25500000920E-02 0. -1.
    10030    2    1    2    0    0  0.00000000000E+00  0.00000000000E+00 -0.10257330624E+04  0.12423731874E+04  0.70097276804E+03 0.  0.
        4    1    3    3  502    0  0.25151521199E+03  0.17734402059E+03 -0.81011702251E+03  0.86660371945E+03  0.12699999809E+01 0. -1.
       -4    1    3    3    0  502 -0.25151521199E+03 -0.17734402059E+03 -0.21561603986E+03  0.37576946795E+03  0.12699999809E+01 0.  1.
</event>
<event>
 5   0  0.5072407E-03  0.7084924E+03  0.7818609E-02  0.9702818E-01
        2   -1    0    0  501    0  0.00000000000E+00  0.00000000000E+00  0.28881190725E+03  0.28881190726E+03  0.25500000920E-02 0.  1.
       -2   -1    0    0    0  501  0.00000000000E+00  0.00000000000E+00 -0.43450552427E+03  0.43450552428E+03  0.25500000920E-02 0. -1.
    10030    2    1    2    0    0  0.00000000000E+00  0.00000000000E+00 -0.14569361703E+03  0.72331743154E+03  0.70849239708E+03 0.  0.
        1    1    3    3  502    0 -0.20145637399E+03  0.67635439483E+02 -0.36220495795E+03  0.41994244234E+03  0.50400001928E-02 0. -1.
       -1    1    3    3    0  502  0.20145637399E+03 -0.67635439483E+02  0.21651134092E+03  0.30337498919E+03  0.50400001928E-02 0.  1.
</event>
<event>
 5   0  0.5072407E-03  0.7000853E+03  0.7818609E-02  0.9717086E-01
       -2   -1    0    0    0  501  0.00000000000E+00  0.00000000000E+00  0.13463707052E+04  0.13463707052E+04  0.25500000920E-02 0.  1.
        2   -1    0    0  501    0  0.00000000000E+00  0.00000000000E+00 -0.91007507621E+02  0.91007507657E+02  0.25500000920E-02 0. -1.
    10030    2    1    2    0    0  0.00000000000E+00  0.00000000000E+00  0.12553631976E+04  0.14373782129E+04  0.70008525836E+03 0.  0.
        1    1    3    3  502    0 -0.18677894656E+03  0.27494867483E+03  0.40233341809E+03  0.52187673641E+03  0.50400001928E-02 0. -1.
       -1    1    3    3    0  502  0.18677894656E+03 -0.27494867483E+03  0.85302977951E+03  0.91550147647E+03  0.50400001928E-02 0.  1.
</event>
<event>
 5   0  0.3013140E-03  0.7005831E+03  0.7818609E-02  0.9716236E-01
        1   -1    0    0  501    0  0.00000000000E+00  0.00000000000E+00  0.58218541128E+03  0.58218541131E+03  0.50400001928E-02 0. -1.
       -1   -1    0    0    0  501  0.00000000000E+00  0.00000000000E+00 -0.21076473938E+03  0.21076473944E+03  0.50400001928E-02 0.  1.
    10030    2    1    2    0    0  0.00000000000E+00  0.00000000000E+00  0.37142067190E+03  0.79295015075E+03  0.70058306150E+03 0.  0.
        2    1    3    3  502    0 -0.32010360403E+03  0.10421618272E+03  0.29531125409E+03  0.44781253539E+03  0.25500000920E-02 0. -1.
       -2    1    3    3    0  502  0.32010360403E+03 -0.10421618272E+03  0.76109417811E+02  0.34513761536E+03  0.25500000920E-02 0.  1.
</event>
<event>
 5   0  0.1981750E-03  0.6991267E+03  0.7818609E-02  0.9718727E-01
       -4   -1    0    0    0  501  0.00000000000E+00  0.00000000000E+00  0.10603512232E+04  0.10603519838E+04  0.12699999809E+01 0. -1.
        4   -1    0    0  501    0  0.00000000000E+00  0.00000000000E+00 -0.11523536816E+03  0.11524236624E+03  0.12699999809E+01 0.  1.
    10030    2    1    2    0    0  0.00000000000E+00  0.00000000000E+00  0.94511585504E+03  0.11755943500E+04  0.69912666684E+03 0.  0.
        4    1    3    3  502    0  0.19354338996E+03  0.16140226024E+03  0.87989921718E+03  0.91527808818E+03  0.12699999809E+01 0. -1.
       -4    1    3    3    0  502 -0.19354338996E+03 -0.16140226024E+03  0.65216637853E+02  0.26031626181E+03  0.12699999809E+01 0.  1.
</event>
<event>
 5   0  0.5072407E-03  0.7040548E+03  0.7818609E-02  0.9710323E-01
        2   -1    0    0  501    0  0.00000000000E+00  0.00000000000E+00  0.64169395507E+03  0.64169395507E+03  0.25500000920E-02 0. -1.
       -2   -1    0    0    0  501  0.00000000000E+00  0.00000000000E+00 -0.19311899115E+03  0.19311899117E+03  0.25500000920E-02 0.  1.
    10030    2    1    2    0    0  0.00000000000E+00  0.00000000000E+00  0.44857496392E+03  0.83481294624E+03  0.70405479685E+03 0.  0.
        1    1    3    3  502    0  0.28489014701E+03  0.19077329720E+03  0.31889619215E+03  0.46824312935E+03  0.50400001928E-02 0.  1.
       -1    1    3    3    0  502 -0.28489014701E+03 -0.19077329720E+03  0.12967877177E+03  0.36656981690E+03  0.50400001928E-02 0. -1.
</event>
<event>
 5   0  0.5076796E-03  0.7004309E+03  0.7818609E-02  0.9716496E-01
        2   -1    0    0  501    0  0.00000000000E+00  0.00000000000E+00  0.73581323468E+03  0.73581323469E+03  0.25500000920E-02 0.  1.
       -2   -1    0    0    0  501  0.00000000000E+00  0.00000000000E+00 -0.16668748864E+03  0.16668748865E+03  0.25500000920E-02 0. -1.
    10030    2    1    2    0    0  0.00000000000E+00  0.00000000000E+00  0.56912574605E+03  0.90250072334E+03  0.70043089653E+03 0.  0.
        5    1    3    3  502    0 -0.80839888455E+02  0.22891594197E+03 -0.40615677885E+02  0.24618960039E+03  0.46999998093E+01 0. -1.
       -5    1    3    3    0  502  0.80839888455E+02 -0.22891594197E+03  0.60974142393E+03  0.65631112295E+03  0.46999998093E+01 0.  1.
</event>
<event>
 5   0  0.4878235E-03  0.6997309E+03  0.7818609E-02  0.9717693E-01
        2   -1    0    0  501    0  0.00000000000E+00  0.00000000000E+00  0.26989841111E+04  0.26989841111E+04  0.25500000920E-02 0.  1.
       -2   -1    0    0    0  501  0.00000000000E+00  0.00000000000E+00 -0.45352553924E+02  0.45352553996E+02  0.25500000920E-02 0. -1.
    10030    2    1    2    0    0  0.00000000000E+00  0.00000000000E+00  0.26536315572E+04  0.27443366651E+04  0.69973086980E+03 0.  0.
        4    1    3    3  502    0  0.31053922618E+02 -0.27547601368E+03  0.48974143168E+03  0.56276075114E+03  0.12699999809E+01 0. -1.
       -4    1    3    3    0  502 -0.31053922618E+02  0.27547601368E+03  0.21638901255E+04  0.21815759139E+04  0.12699999809E+01 0.  1.
</event>
<event>
 5   0  0.2913582E-03  0.6962259E+03  0.7818609E-02  0.9723708E-01
        1   -1    0    0  501    0  0.00000000000E+00  0.00000000000E+00  0.14022756986E+04  0.14022756986E+04  0.50400001928E-02 0.  1.
       -1   -1    0    0    0  501  0.00000000000E+00  0.00000000000E+00 -0.86418534382E+02  0.86418534529E+02  0.50400001928E-02 0. -1.
    10030    2    1    2    0    0  0.00000000000E+00  0.00000000000E+00  0.13158571642E+04  0.14886942331E+04  0.69622585643E+03 0.  0.
        1    1    3    3  502    0  0.34619430227E+03  0.16765795506E+02  0.72724907828E+03  0.80561951857E+03  0.50400001928E-02 0.  1.
       -1    1    3    3    0  502 -0.34619430227E+03 -0.16765795506E+02  0.58860808595E+03  0.68307471457E+03  0.50400001928E-02 0. -1.
</event>
<event>
 5   0  0.5113683E-03  0.7016299E+03  0.7818609E-02  0.9714449E-01
        2   -1    0    0  501    0  0.00000000000E+00  0.00000000000E+00  0.19058597986E+04  0.19058597986E+04  0.25500000920E-02 0. -1.
       -2   -1    0    0    0  501  0.00000000000E+00  0.00000000000E+00 -0.64575117861E+02  0.64575117912E+02  0.25500000920E-02 0.  1.
    10030    2    1    2    0    0  0.00000000000E+00  0.00000000000E+00  0.18412846808E+04  0.19704349165E+04  0.70162987728E+03 0.  0.
        3    1    3    3  502    0  0.16781774698E+03  0.63813045557E+02  0.17670576757E+04  0.17761553256E+04  0.10100000352E+00 0. -1.
       -3    1    3    3    0  502 -0.16781774698E+03 -0.63813045557E+02  0.74227005013E+02  0.19427959095E+03  0.10100000352E+00 0.  1.
</event>
<event>
 5   0  0.5072407E-03  0.6796525E+03  0.7818609E-02  0.9752676E-01
        2   -1    0    0  501    0  0.00000000000E+00  0.00000000000E+00  0.59437232223E+03  0.59437232224E+03  0.25500000920E-02 0. -1.
       -2   -1    0    0    0  501  0.00000000000E+00  0.00000000000E+00 -0.19429213454E+03  0.19429213455E+03  0.25500000920E-02 0.  1.
    10030    2    1    2    0    0  0.00000000000E+00  0.00000000000E+00  0.40008018769E+03  0.78866445679E+03  0.67965246179E+03 0.  0.
        1    1    3    3  502    0  0.28192320157E+03 -0.13387422636E+03  0.35606394039E+03  0.47348128763E+03  0.50400001928E-02 0. -1.
       -1    1    3    3    0  502 -0.28192320157E+03  0.13387422636E+03  0.44016247302E+02  0.31518316916E+03  0.50400001928E-02 0.  1.
</event>
<event>
 5   0  0.2938783E-03  0.6985780E+03  0.7818609E-02  0.9719667E-01
        1   -1    0    0  501    0  0.00000000000E+00  0.00000000000E+00  0.33030395864E+03  0.33030395867E+03  0.50400001928E-02 0. -1.
       -1   -1    0    0    0  501  0.00000000000E+00  0.00000000000E+00 -0.36936524066E+03  0.36936524070E+03  0.50400001928E-02 0.  1.
    10030    2    1    2    0    0  0.00000000000E+00  0.00000000000E+00 -0.39061282026E+02  0.69966919937E+03  0.69857798763E+03 0.  0.
        4    1    3    3  502    0  0.25737124456E+03  0.52675072384E+02  0.21101703701E+03  0.33696353450E+03  0.12699999809E+01 0. -1.
       -4    1    3    3    0  502 -0.25737124456E+03 -0.52675072384E+02 -0.25007831904E+03  0.36270566487E+03  0.12699999809E+01 0.  1.
</event>
<event>
 5   0  0.5113683E-03  0.7004880E+03  0.7818609E-02  0.9716398E-01
       -2   -1    0    0    0  501  0.00000000000E+00  0.00000000000E+00  0.63555632415E+02  0.63555632466E+02  0.25500000920E-02 0. -1.
        2   -1    0    0  501    0  0.00000000000E+00  0.00000000000E+00 -0.19301335032E+04  0.19301335032E+04  0.25500000920E-02 0.  1.
    10030    2    1    2    0    0  0.00000000000E+00  0.00000000000E+00 -0.18665778708E+04  0.19936891357E+04  0.70048798846E+03 0.  0.
        3    1    3    3  502    0  0.43196615981E+02  0.34201308108E+03 -0.11094730175E+04  0.11617957144E+04  0.10100000352E+00 0.  1.
       -3    1    3    3    0  502 -0.43196615981E+02 -0.34201308108E+03 -0.75710485333E+03  0.83189342130E+03  0.10100000352E+00 0. -1.
</event>
<event>
 5   0  0.5072407E-03  0.7003696E+03  0.7818609E-02  0.9716600E-01
       -2   -1    0    0    0  501  0.00000000000E+00  0.00000000000E+00  0.24870604666E+03  0.24870604668E+03  0.25500000920E-02 0. -1.
        2   -1    0    0  501    0  0.00000000000E+00  0.00000000000E+00 -0.49306955297E+03  0.49306955298E+03  0.25500000920E-02 0.  1.
    10030    2    1    2    0    0  0.00000000000E+00  0.00000000000E+00 -0.24436350631E+03  0.74177559965E+03  0.70036955747E+03 0.  0.
        1    1    3    3  502    0  0.80714109245E+02  0.23553743977E+03  0.13862159092E+03  0.28497122392E+03  0.50400001928E-02 0. -1.
       -1    1    3    3    0  502 -0.80714109245E+02 -0.23553743977E+03 -0.38298509723E+03  0.45680437573E+03  0.50400001928E-02 0.  1.
</event>
<event>
 5   0  0.3013140E-03  0.7005910E+03  0.7818609E-02  0.9716222E-01
       -1   -1    0    0    0  501  0.00000000000E+00  0.00000000000E+00  0.44844917416E+03  0.44844917419E+03  0.50400001928E-02 0.  1.
        1   -1    0    0  501    0  0.00000000000E+00  0.00000000000E+00 -0.27362504666E+03  0.27362504671E+03  0.50400001928E-02 0. -1.
    10030    2    1    2    0    0  0.00000000000E+00  0.00000000000E+00  0.17482412750E+03  0.72207422090E+03  0.70059096835E+03 0.  0.
        2    1    3    3  502    0  0.29292208025E+03 -0.21929920716E+02  0.28411150857E+03  0.40866075886E+03  0.25500000920E-02 0.  1.
       -2    1    3    3    0  502 -0.29292208025E+03  0.21929920716E+02 -0.10928738107E+03  0.31341346204E+03  0.25500000920E-02 0. -1.
</event>
<event>
 5   0  0.5076796E-03  0.7006194E+03  0.7818609E-02  0.9716174E-01
        2   -1    0    0  501    0  0.00000000000E+00  0.00000000000E+00  0.33337048489E+03  0.33337048490E+03  0.25500000920E-02 0.  1.
       -2   -1    0    0    0  501  0.00000000000E+00  0.00000000000E+00 -0.36810958019E+03  0.36810958020E+03  0.25500000920E-02 0. -1.
    10030    2    1    2    0    0  0.00000000000E+00  0.00000000000E+00 -0.34739095297E+02  0.70148006510E+03  0.70061935242E+03 0.  0.
        5    1    3    3  502    0 -0.34025022140E+03  0.38063551503E+02  0.56719549393E+02  0.34707095009E+03  0.46999998093E+01 0.  1.
       -5    1    3    3    0  502  0.34025022140E+03 -0.38063551503E+02 -0.91458644691E+02  0.35440911501E+03  0.46999998093E+01 0. -1.
</event>
<event>
 5   0  0.2913582E-03  0.7054951E+03  0.7818609E-02  0.9707881E-01
       -1   -1    0    0    0  501  0.00000000000E+00  0.00000000000E+00  0.61211872549E+02  0.61211872756E+02  0.50400001928E-02 0. -1.
        1   -1    0    0  501    0  0.00000000000E+00  0.00000000000E+00 -0.20327891905E+04  0.20327891905E+04  0.50400001928E-02 0.  1.
    10030    2    1    2    0    0  0.00000000000E+00  0.00000000000E+00 -0.19715773180E+04  0.20940010633E+04  0.70549509728E+03 0.  0.
        1    1    3    3  502    0 -0.97773610653E+02  0.16383525875E+03 -0.10515317281E+03  0.21785054677E+03  0.50400001928E-02 0. -1.
       -1    1    3    3    0  502  0.97773610653E+02 -0.16383525875E+03 -0.18664241451E+04  0.18761505165E+04  0.50400001928E-02 0.  1.
</event>
<event>
 5   0  0.5072407E-03  0.6997057E+03  0.7818609E-02  0.9717736E-01
        2   -1    0    0  501    0  0.00000000000E+00  0.00000000000E+00  0.10196097958E+04  0.10196097958E+04  0.25500000920E-02 0. -1.
       -2   -1    0    0    0  501  0.00000000000E+00  0.00000000000E+00 -0.12004298621E+03  0.12004298624E+03  0.25500000920E-02 0.  1.
    10030    2    1    2    0    0  0.00000000000E+00  0.00000000000E+00  0.89956680955E+03  0.11396527820E+04  0.69970566575E+03 0.  0.
        1    1    3    3  502    0 -0.31169282768E+03 -0.15865465927E+03  0.46372666839E+03  0.58083228452E+03  0.50400001928E-02 0. -1.
       -1    1    3    3    0  502  0.31169282768E+03  0.15865465927E+03  0.43584014116E+03  0.55882049749E+03  0.50400001928E-02 0.  1.
</event>
<event>
 5   0  0.5023894E-03  0.7001341E+03  0.7818609E-02  0.9717003E-01
       -2   -1    0    0    0  501  0.00000000000E+00  0.00000000000E+00  0.17599221222E+03  0.17599221224E+03  0.25500000920E-02 0. -1.
        2   -1    0    0  501    0  0.00000000000E+00  0.00000000000E+00 -0.69632023786E+03  0.69632023787E+03  0.25500000920E-02 0.  1.
    10030    2    1    2    0    0  0.00000000000E+00  0.00000000000E+00 -0.52032802564E+03  0.87231245011E+03  0.70013409883E+03 0.  0.
        2    1    3    3  502    0 -0.15812327439E+02 -0.24554557190E+03  0.50078765442E+02  0.25109866653E+03  0.25500000920E-02 0. -1.
       -2    1    3    3    0  502  0.15812327439E+02  0.24554557190E+03 -0.57040679109E+03  0.62121378357E+03  0.25500000920E-02 0.  1.
</event>
<event>
 5   0  0.2934483E-03  0.6991093E+03  0.7818609E-02  0.9718757E-01
        1   -1    0    0  501    0  0.00000000000E+00  0.00000000000E+00  0.88739602682E+03  0.88739602684E+03  0.50400001928E-02 0.  1.
       -1   -1    0    0    0  501  0.00000000000E+00  0.00000000000E+00 -0.13769324660E+03  0.13769324669E+03  0.50400001928E-02 0. -1.
    10030    2    1    2    0    0  0.00000000000E+00  0.00000000000E+00  0.74970278023E+03  0.10250892735E+04  0.69910926186E+03 0.  0.
        5    1    3    3  502    0 -0.61357534835E+02  0.38165038424E+02 -0.12657538811E+03  0.14582433306E+03  0.46999998093E+01 0. -1.
       -5    1    3    3    0  502  0.61357534835E+02 -0.38165038424E+02  0.87627816834E+03  0.87926494047E+03  0.46999998093E+01 0.  1.
</event>
<event>
 5   0  0.2937617E-03  0.7012140E+03  0.7818609E-02  0.9715158E-01
        1   -1    0    0  501    0  0.00000000000E+00  0.00000000000E+00  0.60818305892E+03  0.60818305894E+03  0.50400001928E-02 0. -1.
       -1   -1    0    0    0  501  0.00000000000E+00  0.00000000000E+00 -0.20211884933E+03  0.20211884939E+03  0.50400001928E-02 0.  1.
    10030    2    1    2    0    0  0.00000000000E+00  0.00000000000E+00  0.40606420959E+03  0.81030190834E+03  0.70121397614E+03 0.  0.
        3    1    3    3  502    0 -0.21562088208E+03 -0.19134713914E+03  0.43362309340E+03  0.52070633737E+03  0.10100000352E+00 0. -1.
       -3    1    3    3    0  502  0.21562088208E+03  0.19134713914E+03 -0.27558883806E+02  0.28959557097E+03  0.10100000352E+00 0.  1.
</event>
<event>
 5   0  0.5113683E-03  0.7052658E+03  0.7818609E-02  0.9708269E-01
       -2   -1    0    0    0  501  0.00000000000E+00  0.00000000000E+00  0.80519895637E+02  0.80519895678E+02  0.25500000920E-02 0.  1.
        2   -1    0    0  501    0  0.00000000000E+00  0.00000000000E+00 -0.15443384929E+04  0.15443384929E+04  0.25500000920E-02 0. -1.
    10030    2    1    2    0    0  0.00000000000E+00  0.00000000000E+00 -0.14638185973E+04  0.16248583886E+04  0.70526583445E+03 0.  0.
        3    1    3    3  502    0  0.14044019161E+02 -0.12585587901E+03  0.26324288965E+02  0.12934417322E+03  0.10100000352E+00 0.  1.
       -3    1    3    3    0  502 -0.14044019161E+02  0.12585587901E+03 -0.14901428862E+04  0.14955142154E+04  0.10100000352E+00 0. -1.
</event>
<event>
 5   0  0.5076796E-03  0.6992805E+03  0.7818609E-02  0.9718463E-01
        2   -1    0    0  501    0  0.00000000000E+00  0.00000000000E+00  0.17072473092E+04  0.17072473092E+04  0.25500000920E-02 0. -1.
       -2   -1    0    0    0  501  0.00000000000E+00  0.00000000000E+00 -0.71605511763E+02  0.71605511808E+02  0.25500000920E-02 0.  1.
    10030    2    1    2    0    0  0.00000000000E+00  0.00000000000E+00  0.16356417974E+04  0.17788528210E+04  0.69928053690E+03 0.  0.
        5    1    3    3  502    0 -0.29223811150E+03  0.22541685592E+02  0.33305560852E+03  0.44368837010E+03  0.46999998093E+01 0.  1.
       -5    1    3    3    0  502  0.29223811150E+03 -0.22541685592E+02  0.13025861889E+04  0.13351644509E+04  0.46999998093E+01 0. -1.
</event>
<event>
 5   0  0.2934483E-03  0.7014460E+03  0.7818609E-02  0.9714763E-01
       -1   -1    0    0    0  501  0.00000000000E+00  0.00000000000E+00  0.99131363387E+02  0.99131363516E+02  0.50400001928E-02 0. -1.
        1   -1    0    0  501    0  0.00000000000E+00  0.00000000000E+00 -0.12408446169E+04  0.12408446169E+04  0.50400001928E-02 0.  1.
    10030    2    1    2    0    0  0.00000000000E+00  0.00000000000E+00 -0.11417132535E+04  0.13399759804E+04  0.70144598855E+03 0.  0.
        5    1    3    3  502    0  0.19549370970E+03  0.19866265242E+03 -0.97744162005E+03  0.10164147040E+04  0.46999998093E+01 0.  1.
       -5    1    3    3    0  502 -0.19549370970E+03 -0.19866265242E+03 -0.16427163343E+03  0.32356127634E+03  0.46999998093E+01 0. -1.
</event>
<event>
 5   0  0.5072407E-03  0.7017597E+03  0.7818609E-02  0.9714228E-01
       -2   -1    0    0    0  501  0.00000000000E+00  0.00000000000E+00  0.26717840181E+03  0.26717840182E+03  0.25500000920E-02 0. -1.
        2   -1    0    0  501    0  0.00000000000E+00  0.00000000000E+00 -0.46080319331E+03  0.46080319332E+03  0.25500000920E-02 0.  1.
    10030    2    1    2    0    0  0.00000000000E+00  0.00000000000E+00 -0.19362479150E+03  0.72798159514E+03  0.70175967608E+03 0.  0.
        1    1    3    3  502    0  0.12759900462E+03  0.18148520136E+03 -0.37881241935E+03  0.43899570997E+03  0.50400001928E-02 0.  1.
       -1    1    3    3    0  502 -0.12759900462E+03 -0.18148520136E+03  0.18518762785E+03  0.28898588517E+03  0.50400001928E-02 0. -1.
</event>
<event>
 5   0  0.2938783E-03  0.7010570E+03  0.7818609E-02  0.9715426E-01
       -1   -1    0    0    0  501  0.00000000000E+00  0.00000000000E+00  0.45063527384E+03  0.45063527387E+03  0.50400001928E-02 0. -1.
        1   -1    0    0  501    0  0.00000000000E+00  0.00000000000E+00 -0.27266002757E+03  0.27266002762E+03  0.50400001928E-02 0.  1.
    10030    2    1    2    0    0  0.00000000000E+00  0.00000000000E+00  0.17797524627E+03  0.72329530149E+03  0.70105699117E+03 0.  0.
        4    1    3    3  502    0 -0.10226190507E+03 -0.16582320619E+03 -0.21165559216E+03  0.28767088058E+03  0.12699999809E+01 0.  1.
       -4    1    3    3    0  502  0.10226190507E+03  0.16582320619E+03  0.38963083843E+03  0.43562442091E+03  0.12699999809E+01 0. -1.
</event>
<event>
 5   0  0.5113683E-03  0.7006953E+03  0.7818609E-02  0.9716044E-01
        2   -1    0    0  501    0  0.00000000000E+00  0.00000000000E+00  0.18961780483E+04  0.18961780483E+04  0.25500000920E-02 0.  1.
       -2   -1    0    0    0  501  0.00000000000E+00  0.00000000000E+00 -0.64732046695E+02  0.64732046745E+02  0.25500000920E-02 0. -1.
    10030    2    1    2    0    0  0.00000000000E+00  0.00000000000E+00  0.18314460016E+04  0.19609100951E+04  0.70069532899E+03 0.  0.
        3    1    3    3  502    0 -0.13576047150E+03 -0.17126356220E+03  0.16820341138E+04  0.16961724216E+04  0.10100000352E+00 0.  1.
       -3    1    3    3    0  502  0.13576047150E+03  0.17126356220E+03  0.14941188779E+03  0.26473767351E+03  0.10100000352E+00 0. -1.
</event>
<event>
 5   0  0.1981750E-03  0.7002402E+03  0.7818609E-02  0.9716822E-01
        3   -1    0    0  501    0  0.00000000000E+00  0.00000000000E+00  0.33025662198E+03  0.33025663742E+03  0.10100000352E+00 0. -1.
       -3   -1    0    0    0  501  0.00000000000E+00  0.00000000000E+00 -0.37117820114E+03  0.37117821488E+03  0.10100000352E+00 0.  1.
    10030    2    1    2    0    0  0.00000000000E+00  0.00000000000E+00 -0.40921579164E+02  0.70143485231E+03  0.70024015622E+03 0.  0.
        3    1    3    3  502    0  0.31318879848E+03 -0.72590781272E+02  0.11843873714E+03  0.34261405353E+03  0.10100000352E+00 0. -1.
       -3    1    3    3    0  502 -0.31318879848E+03  0.72590781272E+02 -0.15936031630E+03  0.35882079878E+03  0.10100000352E+00 0.  1.
</event>
<event>
 5   0  0.4878235E-03  0.7018621E+03  0.7818609E-02  0.9714053E-01
       -2   -1    0    0    0  501  0.00000000000E+00  0.00000000000E+00  0.44311452718E+03  0.44311452719E+03  0.25500000920E-02 0.  1.
        2   -1    0    0  501    0  0.00000000000E+00  0.00000000000E+00 -0.27792501785E+03  0.27792501786E+03  0.25500000920E-02 0. -1.
    10030    2    1    2    0    0  0.00000000000E+00  0.00000000000E+00  0.16518950933E+03  0.72103954505E+03  0.70186213143E+03 0.  0.
        4    1    3    3  502    0 -0.37557213395E+02  0.20165961643E+03 -0.20991993764E+03  0.29350492039E+03  0.12699999809E+01 0. -1.
       -4    1    3    3    0  502  0.37557213395E+02 -0.20165961643E+03  0.37510944697E+03  0.42753462466E+03  0.12699999809E+01 0.  1.
</event>
<event>
 5   0  0.5023894E-03  0.7003070E+03  0.7818609E-02  0.9716707E-01
        2   -1    0    0  501    0  0.00000000000E+00  0.00000000000E+00  0.47154466380E+03  0.47154466380E+03  0.25500000920E-02 0. -1.
       -2   -1    0    0    0  501  0.00000000000E+00  0.00000000000E+00 -0.26001246569E+03  0.26001246570E+03  0.25500000920E-02 0.  1.
    10030    2    1    2    0    0  0.00000000000E+00  0.00000000000E+00  0.21153219811E+03  0.73155712951E+03  0.70030704901E+03 0.  0.
        2    1    3    3  502    0 -0.18166187447E+03  0.15510787326E+03 -0.16168197673E+03  0.28844505645E+03  0.25500000920E-02 0.  1.
       -2    1    3    3    0  502  0.18166187447E+03 -0.15510787326E+03  0.37321417484E+03  0.44311207306E+03  0.25500000920E-02 0. -1.
</event>
<event>
 5   0  0.5023894E-03  0.6984300E+03  0.7818609E-02  0.9719921E-01
        2   -1    0    0  501    0  0.00000000000E+00  0.00000000000E+00  0.14546594500E+04  0.14546594500E+04  0.25500000920E-02 0. -1.
       -2   -1    0    0    0  501  0.00000000000E+00  0.00000000000E+00 -0.83834814067E+02  0.83834814106E+02  0.25500000920E-02 0.  1.
    10030    2    1    2    0    0  0.00000000000E+00  0.00000000000E+00  0.13708246359E+04  0.15384942641E+04  0.69842996658E+03 0.  0.
        2    1    3    3  502    0 -0.46697063161E+02 -0.24407546417E+03  0.14495324826E+03  0.28768888075E+03  0.25500000920E-02 0.  1.
       -2    1    3    3    0  502  0.46697063161E+02  0.24407546417E+03  0.12258713877E+04  0.12508053834E+04  0.25500000920E-02 0. -1.
</event>
<event>
 5   0  0.5072407E-03  0.7007255E+03  0.7818609E-02  0.9715992E-01
       -2   -1    0    0    0  501  0.00000000000E+00  0.00000000000E+00  0.40097847847E+03  0.40097847848E+03  0.25500000920E-02 0. -1.
        2   -1    0    0  501    0  0.00000000000E+00  0.00000000000E+00 -0.30613623241E+03  0.30613623242E+03  0.25500000920E-02 0.  1.
    10030    2    1    2    0    0  0.00000000000E+00  0.00000000000E+00  0.94842246064E+02  0.70711471089E+03  0.70072545460E+03 0.  0.
        1    1    3    3  502    0 -0.79258720966E+02  0.13367064890E+03 -0.26945520957E+03  0.31105609979E+03  0.50400001928E-02 0.  1.
       -1    1    3    3    0  502  0.79258720966E+02 -0.13367064890E+03  0.36429745563E+03  0.39605861111E+03  0.50400001928E-02 0. -1.
</event>
<event>
 5   0  0.2934483E-03  0.7000324E+03  0.7818609E-02  0.9717177E-01
       -1   -1    0    0    0  501  0.00000000000E+00  0.00000000000E+00  0.45404243315E+03  0.45404243317E+03  0.50400001928E-02 0. -1.
        1   -1    0    0  501    0  0.00000000000E+00  0.00000000000E+00 -0.26982354832E+03  0.26982354836E+03  0.50400001928E-02 0.  1.
    10030    2    1    2    0    0  0.00000000000E+00  0.00000000000E+00  0.18421888483E+03  0.72386598154E+03  0.70003240046E+03 0.  0.
        5    1    3    3  502    0 -0.15312429727E+03 -0.22101404723E+03 -0.13956078011E+03  0.30297452176E+03  0.46999998093E+01 0.  1.
       -5    1    3    3    0  502  0.15312429727E+03  0.22101404723E+03  0.32377966494E+03  0.42089145978E+03  0.46999998093E+01 0. -1.
</event>
<event>
 5   0  0.2913582E-03  0.7000731E+03  0.7818609E-02  0.9717107E-01
       -1   -1    0    0    0  501  0.00000000000E+00  0.00000000000E+00  0.27395413284E+03  0.27395413289E+03  0.50400001928E-02 0.  1.
        1   -1    0    0  501    0  0.00000000000E+00  0.00000000000E+00 -0.44724853723E+03  0.44724853726E+03  0.50400001928E-02 0. -1.
    10030    2    1    2    0    0  0.00000000000E+00  0.00000000000E+00 -0.17329440439E+03  0.72120267014E+03  0.70007309678E+03 0.  0.
        1    1    3    3  502    0  0.34947607530E+03  0.33348347826E+01 -0.66540519118E+02  0.35576999457E+03  0.50400001928E-02 0. -1.
       -1    1    3    3    0  502 -0.34947607530E+03 -0.33348347826E+01 -0.10675388527E+03  0.36543267557E+03  0.50400001928E-02 0.  1.
</event>
<event>
 5   0  0.5072407E-03  0.7014601E+03  0.7818609E-02  0.9714739E-01
        2   -1    0    0  501    0  0.00000000000E+00  0.00000000000E+00  0.11059120858E+04  0.11059120858E+04  0.25500000920E-02 0.  1.
       -2   -1    0    0    0  501  0.00000000000E+00  0.00000000000E+00 -0.11123086523E+03  0.11123086526E+03  0.25500000920E-02 0. -1.
    10030    2    1    2    0    0  0.00000000000E+00  0.00000000000E+00  0.99468122061E+03  0.12171429511E+04  0.70146007212E+03 0.  0.
        1    1    3    3  502    0 -0.29698330396E+03 -0.53209349905E+02  0.80764383217E+03  0.86215942691E+03  0.50400001928E-02 0.  1.
       -1    1    3    3    0  502  0.29698330396E+03  0.53209349905E+02  0.18703738845E+03  0.35498352419E+03  0.50400001928E-02 0. -1.
</event>
<event>
 5   0  0.3013140E-03  0.6999504E+03  0.7818609E-02  0.9717317E-01
        1   -1    0    0  501    0  0.00000000000E+00  0.00000000000E+00  0.16282325679E+04  0.16282325680E+04  0.50400001928E-02 0.  1.
       -1   -1    0    0    0  501  0.00000000000E+00  0.00000000000E+00 -0.75224288167E+02  0.75224288336E+02  0.50400001928E-02 0. -1.
    10030    2    1    2    0    0  0.00000000000E+00  0.00000000000E+00  0.15530082798E+04  0.17034568563E+04  0.69995038694E+03 0.  0.
        2    1    3    3  502    0  0.79340427938E+02 -0.32381236630E+03  0.51741944047E+03  0.61552597788E+03  0.25500000920E-02 0. -1.
       -2    1    3    3    0  502 -0.79340427938E+02  0.32381236630E+03  0.10355888393E+04  0.10879308784E+04  0.25500000920E-02 0.  1.
</event>
<event>
 5   0  0.2937617E-03  0.6996106E+03  0.7818609E-02  0.9717898E-01
        1   -1    0    0  501    0  0.00000000000E+00  0.00000000000E+00  0.29164298414E+03  0.29164298418E+03  0.50400001928E-02 0.  1.
       -1   -1    0    0    0  501  0.00000000000E+00  0.00000000000E+00 -0.41956686052E+03  0.41956686055E+03  0.50400001928E-02 0. -1.
    10030    2    1    2    0    0  0.00000000000E+00  0.00000000000E+00 -0.12792387639E+03  0.71120984474E+03  0.69961055245E+03 0.  0.
        3    1    3    3  502    0 -0.15526373824E+03  0.12212284515E+03 -0.35744005318E+03  0.40839223737E+03  0.10100000352E+00 0. -1.
       -3    1    3    3    0  502  0.15526373824E+03 -0.12212284515E+03  0.22951617680E+03  0.30281760737E+03  0.10100000352E+00 0.  1.
</event>
<event>
 5   0  0.2938783E-03  0.6979540E+03  0.7818609E-02  0.9720738E-01
        1   -1    0    0  501    0  0.00000000000E+00  0.00000000000E+00  0.41706683684E+03  0.41706683688E+03  0.50400001928E-02 0. -1.
       -1   -1    0    0    0  501  0.00000000000E+00  0.00000000000E+00 -0.29200343765E+03  0.29200343769E+03  0.50400001928E-02 0.  1.
    10030    2    1    2    0    0  0.00000000000E+00  0.00000000000E+00  0.12506339920E+03  0.70907027457E+03  0.69795401027E+03 0.  0.
        4    1    3    3  502    0 -0.28123540485E+03 -0.18151869976E+03  0.16279985796E+03  0.37222009344E+03  0.12699999809E+01 0.  1.
       -4    1    3    3    0  502  0.28123540485E+03  0.18151869976E+03 -0.37736458766E+02  0.33685018113E+03  0.12699999809E+01 0. -1.
</event>
<event>
 5   0  0.5072407E-03  0.7001540E+03  0.7818609E-02  0.9716969E-01
        2   -1    0    0  501    0  0.00000000000E+00  0.00000000000E+00  0.11443009719E+04  0.11443009719E+04  0.25500000920E-02 0. -1.
       -2   -1    0    0    0  501  0.00000000000E+00  0.00000000000E+00 -0.10709936060E+03  0.10709936063E+03  0.25500000920E-02 0.  1.
    10030    2    1    2    0    0  0.00000000000E+00  0.00000000000E+00  0.10372016112E+04  0.12514003325E+04  0.70015399005E+03 0.  0.
        1    1    3    3  502    0  0.41811197617E+02  0.33793647806E+03  0.37334682987E+03  0.50530891032E+03  0.50400001928E-02 0.  1.
       -1    1    3    3    0  502 -0.41811197617E+02 -0.33793647806E+03  0.66385478138E+03  0.74609142217E+03  0.50400001928E-02 0. -1.
</event>
<event>
 5   0  0.3013140E-03  0.6993812E+03  0.7818609E-02  0.9718291E-01
        1   -1    0    0  501    0  0.00000000000E+00  0.00000000000E+00  0.23218102270E+03  0.23218102276E+03  0.50400001928E-02 0. -1.
       -1   -1    0    0    0  501  0.00000000000E+00  0.00000000000E+00 -0.52667313019E+03  0.52667313021E+03  0.50400001928E-02 0.  1.
    10030    2    1    2    0    0  0.00000000000E+00  0.00000000000E+00 -0.29449210749E+03  0.75885415297E+03  0.69938117226E+03 0.  0.
        2    1    3    3  502    0  0.91822167129E+02  0.28666822027E+03 -0.34035064198E+03  0.45436608411E+03  0.25500000920E-02 0.  1.
       -2    1    3    3    0  502 -0.91822167129E+02 -0.28666822027E+03  0.45858534494E+02  0.30448806886E+03  0.25500000920E-02 0. -1.
</event>
<event>
 5   0  0.2937617E-03  0.6990883E+03  0.7818609E-02  0.9718793E-01
        1   -1    0    0  501    0  0.00000000000E+00  0.00000000000E+00  0.25784639923E+04  0.25784639923E+04  0.50400001928E-02 0.  1.
       -1   -1    0    0    0  501  0.00000000000E+00  0.00000000000E+00 -0.47385233054E+02  0.47385233322E+02  0.50400001928E-02 0. -1.
    10030    2    1    2    0    0  0.00000000000E+00  0.00000000000E+00  0.25310787592E+04  0.26258492256E+04  0.69908831360E+03 0.  0.
        3    1    3    3  502    0 -0.58722136835E+02  0.80796777968E+02  0.25237207929E+04  0.25256965494E+04  0.10100000352E+00 0.  1.
       -3    1    3    3    0  502  0.58722136835E+02 -0.80796777968E+02  0.73579662869E+01  0.10015267622E+03  0.10100000352E+00 0. -1.
</event>
<event>
 5   0  0.2934483E-03  0.6981837E+03  0.7818609E-02  0.9720343E-01
       -1   -1    0    0    0  501  0.00000000000E+00  0.00000000000E+00  0.13125223446E+03  0.13125223456E+03  0.50400001928E-02 0. -1.
        1   -1    0    0  501    0  0.00000000000E+00  0.00000000000E+00 -0.92848047020E+03  0.92848047021E+03  0.50400001928E-02 0.  1.
    10030    2    1    2    0    0  0.00000000000E+00  0.00000000000E+00 -0.79722823573E+03  0.10597327048E+04  0.69818374781E+03 0.  0.
        5    1    3    3  502    0 -0.71401676957E+02  0.32895114251E+03 -0.53884821486E+03  0.63536331519E+03  0.46999998093E+01 0. -1.
       -5    1    3    3    0  502  0.71401676957E+02 -0.32895114251E+03 -0.25838002088E+03  0.42436938959E+03  0.46999998093E+01 0.  1.
</event>
<event>
 5   0  0.5072407E-03  0.6977952E+03  0.7818609E-02  0.9721010E-01
        2   -1    0    0  501    0  0.00000000000E+00  0.00000000000E+00  0.16757401711E+04  0.16757401711E+04  0.25500000920E-02 0.  1.
       -2   -1    0    0    0  501  0.00000000000E+00  0.00000000000E+00 -0.72642243352E+02  0.72642243397E+02  0.25500000920E-02 0. -1.
    10030    2    1    2    0    0  0.00000000000E+00  0.00000000000E+00  0.16030979278E+04  0.17483824145E+04  0.69779517152E+03 0.  0.
        1    1    3    3  502    0  0.13995800443E+03  0.24933582944E+03  0.30060235383E+03  0.41487151505E+03  0.50400001928E-02 0. -1.
       -1    1    3    3    0  502 -0.13995800443E+03 -0.24933582944E+03  0.13024955740E+04  0.13335108995E+04  0.50400001928E-02 0.  1.
</event>
<event>
 5   0  0.1981750E-03  0.7004041E+03  0.7818609E-02  0.9716541E-01
        3   -1    0    0  501    0  0.00000000000E+00  0.00000000000E+00  0.59997902444E+03  0.59997903295E+03  0.10100000352E+00 0.  1.
       -3   -1    0    0    0  501  0.00000000000E+00  0.00000000000E+00 -0.20440955681E+03  0.20440958177E+03  0.10100000352E+00 0. -1.
    10030    2    1    2    0    0  0.00000000000E+00  0.00000000000E+00  0.39556946763E+03  0.80438861471E+03  0.70040405464E+03 0.  0.
        2    1    3    3  502    0 -0.31516140188E+03  0.15196145371E+03  0.21491445691E+03  0.41061809074E+03  0.25500000920E-02 0. -1.
       -2    1    3    3    0  502  0.31516140188E+03 -0.15196145371E+03  0.18065501072E+03  0.39377052397E+03  0.25500000920E-02 0.  1.
</event>
<event>
 5   0  0.2934483E-03  0.6967902E+03  0.7818609E-02  0.9722737E-01
       -1   -1    0    0    0  501  0.00000000000E+00  0.00000000000E+00  0.11661155414E+04  0.11661155414E+04  0.50400001928E-02 0.  1.
        1   -1    0    0  501    0  0.00000000000E+00  0.00000000000E+00 -0.10408844697E+03  0.10408844709E+03  0.50400001928E-02 0. -1.
    10030    2    1    2    0    0  0.00000000000E+00  0.00000000000E+00  0.10620270945E+04  0.12702039885E+04  0.69679022892E+03 0.  0.
        5    1    3    3  502    0  0.17184792941E+03 -0.16911234037E+03  0.72638942142E+02  0.25185154441E+03  0.46999998093E+01 0. -1.
       -5    1    3    3    0  502 -0.17184792941E+03  0.16911234037E+03  0.98938815231E+03  0.10183524441E+04  0.46999998093E+01 0.  1.
</event>
<event>
 5   0  0.1981750E-03  0.7008859E+03  0.7818609E-02  0.9715718E-01
        3   -1    0    0  501    0  0.00000000000E+00  0.00000000000E+00  0.40102162314E+03  0.40102163586E+03  0.10100000352E+00 0.  1.
       -3   -1    0    0    0  501  0.00000000000E+00  0.00000000000E+00 -0.30624345185E+03  0.30624346851E+03  0.10100000352E+00 0. -1.
    10030    2    1    2    0    0  0.00000000000E+00  0.00000000000E+00  0.94778171290E+02  0.70726510436E+03  0.70088588665E+03 0.  0.
        3    1    3    3  502    0  0.16253297117E+03 -0.30586631174E+03  0.10115705699E+03  0.36083781364E+03  0.10100000352E+00 0. -1.
       -3    1    3    3    0  502 -0.16253297117E+03  0.30586631174E+03 -0.63788856976E+01  0.34642729072E+03  0.10100000352E+00 0.  1.
</event>
<event>
 5   0  0.5023894E-03  0.7005576E+03  0.7818609E-02  0.9716279E-01
       -2   -1    0    0    0  501  0.00000000000E+00  0.00000000000E+00  0.16357494897E+03  0.16357494899E+03  0.25500000920E-02 0.  1.
        2   -1    0    0  501    0  0.00000000000E+00  0.00000000000E+00 -0.75008576665E+03  0.75008576665E+03  0.25500000920E-02 0. -1.
    10030    2    1    2    0    0  0.00000000000E+00  0.00000000000E+00 -0.58651081767E+03  0.91366071564E+03  0.70055760938E+03 0.  0.
        2    1    3    3  502    0  0.24616585622E+03  0.51154443129E+02  0.24819657469E+02  0.25264683102E+03  0.25500000920E-02 0.  1.
       -2    1    3    3    0  502 -0.24616585622E+03 -0.51154443129E+02 -0.61133047514E+03  0.66101388462E+03  0.25500000920E-02 0. -1.
</event>
<event>
 5   0  0.3013140E-03  0.7141567E+03  0.7818609E-02  0.9693324E-01
        1   -1    0    0  501    0  0.00000000000E+00  0.00000000000E+00  0.27508125123E+03  0.27508125128E+03  0.50400001928E-02 0. -1.
       -1   -1    0    0    0  501  0.00000000000E+00  0.00000000000E+00 -0.46351744354E+03  0.46351744357E+03  0.50400001928E-02 0.  1.
    10030    2    1    2    0    0  0.00000000000E+00  0.00000000000E+00 -0.18843619231E+03  0.73859869485E+03  0.71415672892E+03 0.  0.
        2    1    3    3  502    0  0.20186871487E+03  0.19444077730E+03  0.13459295573E+03  0.31092355598E+03  0.25500000920E-02 0. -1.
       -2    1    3    3    0  502 -0.20186871487E+03 -0.19444077730E+03 -0.32302914804E+03  0.42767513888E+03  0.25500000920E-02 0.  1.
</event>
<event>
 5   0  0.5076796E-03  0.6948942E+03  0.7818609E-02  0.9726004E-01
        2   -1    0    0  501    0  0.00000000000E+00  0.00000000000E+00  0.21920728271E+03  0.21920728273E+03  0.25500000920E-02 0.  1.
       -2   -1    0    0    0  501  0.00000000000E+00  0.00000000000E+00 -0.55070934753E+03  0.55070934753E+03  0.25500000920E-02 0. -1.
    10030    2    1    2    0    0  0.00000000000E+00  0.00000000000E+00 -0.33150206481E+03  0.76991663026E+03  0.69489423553E+03 0.  0.
        5    1    3    3  502    0  0.12799884234E+03 -0.54050664267E+02 -0.51855002196E+03  0.53686254593E+03  0.46999998093E+01 0. -1.
       -5    1    3    3    0  502 -0.12799884234E+03  0.54050664267E+02  0.18704795715E+03  0.23305408433E+03  0.46999998093E+01 0.  1.
</event>
<event>
 5   0  0.4878235E-03  0.7010312E+03  0.7818609E-02  0.9715470E-01
       -2   -1    0    0    0  501  0.00000000000E+00  0.00000000000E+00  0.24634770718E+03  0.24634770720E+03  0.25500000920E-02 0. -1.
        2   -1    0    0  501    0  0.00000000000E+00  0.00000000000E+00 -0.49873075744E+03  0.49873075744E+03  0.25500000920E-02 0.  1.
    10030    2    1    2    0    0  0.00000000000E+00  0.00000000000E+00 -0.25238305025E+03  0.74507846464E+03  0.70103117934E+03 0.  0.
        4    1    3    3  502    0 -0.22684809876E+03 -0.10917874244E+03 -0.38539950082E+03  0.46034166208E+03  0.12699999809E+01 0.  1.
       -4    1    3    3    0  502  0.22684809876E+03  0.10917874244E+03  0.13301645056E+03  0.28473680256E+03  0.12699999809E+01 0. -1.
</event>
<event>
 5   0  0.4878235E-03  0.7140498E+03  0.7818609E-02  0.9693502E-01
        2   -1    0    0  501    0  0.00000000000E+00  0.00000000000E+00  0.40359818636E+03  0.40359818637E+03  0.25500000920E-02 0. -1.
       -2   -1    0    0    0  501  0.00000000000E+00  0.00000000000E+00 -0.31582595019E+03  0.31582595020E+03  0.25500000920E-02 0.  1.
    10030    2    1    2    0    0  0.00000000000E+00  0.00000000000E+00  0.87772236170E+02  0.71942413657E+03  0.71404980417E+03 0.  0.
        4    1    3    3  502    0 -0.31783821685E+03 -0.11612063327E+03  0.15858510301E+03  0.37370574167E+03  0.12699999809E+01 0. -1.
       -4    1    3    3    0  502  0.31783821685E+03  0.11612063327E+03 -0.70812866836E+02  0.34571839490E+03  0.12699999809E+01 0.  1.
</event>
<event>
 5   0  0.2934483E-03  0.7019040E+03  0.7818609E-02  0.9713982E-01
       -1   -1    0    0    0  501  0.00000000000E+00  0.00000000000E+00  0.10933234381E+03  0.10933234393E+03  0.50400001928E-02 0. -1.
        1   -1    0    0  501    0  0.00000000000E+00  0.00000000000E+00 -0.11265405600E+04  0.11265405600E+04  0.50400001928E-02 0.  1.
    10030    2    1    2    0    0  0.00000000000E+00  0.00000000000E+00 -0.10172082162E+04  0.12358729039E+04  0.70190403873E+03 0.  0.
        5    1    3    3  502    0  0.69182167201E+02  0.19705329996E+03 -0.10051495267E+04  0.10266274087E+04  0.46999998093E+01 0.  1.
       -5    1    3    3    0  502 -0.69182167201E+02 -0.19705329996E+03 -0.12058689496E+02  0.20924549523E+03  0.46999998093E+01 0. -1.
</event>
<event>
 5   0  0.2934483E-03  0.6979331E+03  0.7818609E-02  0.9720773E-01
       -1   -1    0    0    0  501  0.00000000000E+00  0.00000000000E+00  0.19519004248E+03  0.19519004254E+03  0.50400001928E-02 0.  1.
        1   -1    0    0  501    0  0.00000000000E+00  0.00000000000E+00 -0.62389277023E+03  0.62389277025E+03  0.50400001928E-02 0. -1.
    10030    2    1    2    0    0  0.00000000000E+00  0.00000000000E+00 -0.42870272775E+03  0.81908281279E+03  0.69793310957E+03 0.  0.
        5    1    3    3  502    0  0.23914437508E+03 -0.90207296254E+02  0.64428900146E+02  0.26362959167E+03  0.46999998093E+01 0.  1.
       -5    1    3    3    0  502 -0.23914437508E+03  0.90207296254E+02 -0.49313162789E+03  0.55545322112E+03  0.46999998093E+01 0. -1.
</event>
<event>
 5   0  0.2934483E-03  0.7002879E+03  0.7818609E-02  0.9716740E-01
       -1   -1    0    0    0  501  0.00000000000E+00  0.00000000000E+00  0.18611101975E+03  0.18611101982E+03  0.50400001928E-02 0. -1.
        1   -1    0    0  501    0  0.00000000000E+00  0.00000000000E+00 -0.65875075228E+03  0.65875075230E+03  0.50400001928E-02 0.  1.
    10030    2    1    2    0    0  0.00000000000E+00  0.00000000000E+00 -0.47263973254E+03  0.84486177212E+03  0.70028786739E+03 0.  0.
        5    1    3    3  502    0 -0.75129622476E+02 -0.10977802470E+03  0.15439652198E+03  0.20385301293E+03  0.46999998093E+01 0. -1.
       -5    1    3    3    0  502  0.75129622476E+02  0.10977802470E+03 -0.62703625452E+03  0.64100875919E+03  0.46999998093E+01 0.  1.
</event>
<event>
 5   0  0.4878235E-03  0.6953763E+03  0.7818609E-02  0.9725172E-01
        2   -1    0    0  501    0  0.00000000000E+00  0.00000000000E+00  0.42561198119E+03  0.42561198119E+03  0.25500000920E-02 0. -1.
       -2   -1    0    0    0  501  0.00000000000E+00  0.00000000000E+00 -0.28403111470E+03  0.28403111471E+03  0.25500000920E-02 0.  1.
    10030    2    1    2    0    0  0.00000000000E+00  0.00000000000E+00  0.14158086648E+03  0.70964309591E+03  0.69537628793E+03 0.  0.
        4    1    3    3  502    0  0.24232340069E+03 -0.74793808469E+02  0.31351617436E+03  0.40324775113E+03  0.12699999809E+01 0. -1.
       -4    1    3    3    0  502 -0.24232340069E+03  0.74793808469E+02 -0.17193530788E+03  0.30639534478E+03  0.12699999809E+01 0.  1.
</event>
<event>
 5   0  0.5076796E-03  0.7108653E+03  0.7818609E-02  0.9698829E-01
       -2   -1    0    0    0  501  0.00000000000E+00  0.00000000000E+00  0.24407680089E+03  0.24407680091E+03  0.25500000920E-02 0. -1.
        2   -1    0    0  501    0  0.00000000000E+00  0.00000000000E+00 -0.51759267288E+03  0.51759267289E+03  0.25500000920E-02 0.  1.
    10030    2    1    2    0    0  0.00000000000E+00  0.00000000000E+00 -0.27351587199E+03  0.76166947379E+03  0.71086528617E+03 0.  0.
        5    1    3    3  502    0 -0.56679338785E+02 -0.32843848445E+03 -0.26896984092E+03  0.42831209513E+03  0.46999998093E+01 0.  1.
       -5    1    3    3    0  502  0.56679338785E+02  0.32843848445E+03 -0.45460310686E+01  0.33335737866E+03  0.46999998093E+01 0. -1.
</event>
<event>
 5   0  0.2937617E-03  0.7002540E+03  0.7818609E-02  0.9716798E-01
        1   -1    0    0  501    0  0.00000000000E+00  0.00000000000E+00  0.41173582307E+03  0.41173582310E+03  0.50400001928E-02 0. -1.
       -1   -1    0    0    0  501  0.00000000000E+00  0.00000000000E+00 -0.29773681559E+03  0.29773681564E+03  0.50400001928E-02 0.  1.
    10030    2    1    2    0    0  0.00000000000E+00  0.00000000000E+00  0.11399900747E+03  0.70947263873E+03  0.70025399064E+03 0.  0.
        3    1    3    3  502    0  0.13698669186E+03 -0.31597393554E+03  0.12094955048E+03  0.36501189796E+03  0.10100000352E+00 0. -1.
       -3    1    3    3    0  502 -0.13698669186E+03  0.31597393554E+03 -0.69505430023E+01  0.34446074078E+03  0.10100000352E+00 0.  1.
</event>
<event>
 5   0  0.4878235E-03  0.6967217E+03  0.7818609E-02  0.9722855E-01
        2   -1    0    0  501    0  0.00000000000E+00  0.00000000000E+00  0.15882562629E+04  0.15882562629E+04  0.25500000920E-02 0.  1.
       -2   -1    0    0    0  501  0.00000000000E+00  0.00000000000E+00 -0.76407877265E+02  0.76407877308E+02  0.25500000920E-02 0. -1.
    10030    2    1    2    0    0  0.00000000000E+00  0.00000000000E+00  0.15118483856E+04  0.16646641402E+04  0.69672172245E+03 0.  0.
        4    1    3    3  502    0  0.21302336084E+03 -0.23398542876E+03  0.40783007563E+03  0.51619290641E+03  0.12699999809E+01 0. -1.
       -4    1    3    3    0  502 -0.21302336084E+03  0.23398542876E+03  0.11040183100E+04  0.11484712338E+04  0.12699999809E+01 0.  1.
</event>
<event>
 5   0  0.5072407E-03  0.6999601E+03  0.7818609E-02  0.9717300E-01
       -2   -1    0    0    0  501  0.00000000000E+00  0.00000000000E+00  0.35629844338E+03  0.35629844339E+03  0.25500000920E-02 0. -1.
        2   -1    0    0  501    0  0.00000000000E+00  0.00000000000E+00 -0.34377371000E+03  0.34377371001E+03  0.25500000920E-02 0.  1.
    10030    2    1    2    0    0  0.00000000000E+00  0.00000000000E+00  0.12524733379E+02  0.70007215340E+03  0.69996010674E+03 0.  0.
        1    1    3    3  502    0 -0.33948371001E+03 -0.28862224465E+02  0.86299050290E+02  0.35146798357E+03  0.50400001928E-02 0. -1.
       -1    1    3    3    0  502  0.33948371001E+03  0.28862224465E+02 -0.73774316911E+02  0.34860416984E+03  0.50400001928E-02 0.  1.
</event>
<event>
 5   0  0.1981750E-03  0.7009033E+03  0.7818609E-02  0.9715689E-01
       -3   -1    0    0    0  501  0.00000000000E+00  0.00000000000E+00  0.21085718862E+03  0.21085721281E+03  0.10100000352E+00 0. -1.
        3   -1    0    0  501    0  0.00000000000E+00  0.00000000000E+00 -0.58246222872E+03  0.58246223748E+03  0.10100000352E+00 0.  1.
    10030    2    1    2    0    0  0.00000000000E+00  0.00000000000E+00 -0.37160504011E+03  0.79331945029E+03  0.70090330601E+03 0.  0.
        3    1    3    3  502    0 -0.24013761939E+03  0.24221064999E+03 -0.27694497644E+03  0.43935248422E+03  0.10100000352E+00 0. -1.
       -3    1    3    3    0  502  0.24013761939E+03 -0.24221064999E+03 -0.94660063667E+02  0.35396696607E+03  0.10100000352E+00 0.  1.
</event>
<event>
 5   0  0.2913582E-03  0.7018686E+03  0.7818609E-02  0.9714042E-01
       -1   -1    0    0    0  501  0.00000000000E+00  0.00000000000E+00  0.16989890405E+03  0.16989890412E+03  0.50400001928E-02 0.  1.
        1   -1    0    0  501    0  0.00000000000E+00  0.00000000000E+00 -0.72487162204E+03  0.72487162206E+03  0.50400001928E-02 0. -1.
    10030    2    1    2    0    0  0.00000000000E+00  0.00000000000E+00 -0.55497271800E+03  0.89477052618E+03  0.70186863216E+03 0.  0.
        1    1    3    3  502    0 -0.23883343408E+02 -0.34343265756E+03 -0.36431122863E+03  0.50123754418E+03  0.50400001928E-02 0. -1.
       -1    1    3    3    0  502  0.23883343408E+02  0.34343265756E+03 -0.19066148937E+03  0.39353298200E+03  0.50400001928E-02 0.  1.
</event>
<event>
 5   0  0.5113683E-03  0.7009952E+03  0.7818609E-02  0.9715532E-01
       -2   -1    0    0    0  501  0.00000000000E+00  0.00000000000E+00  0.12973397127E+03  0.12973397129E+03  0.25500000920E-02 0. -1.
        2   -1    0    0  501    0  0.00000000000E+00  0.00000000000E+00 -0.94692664539E+03  0.94692664539E+03  0.25500000920E-02 0.  1.
    10030    2    1    2    0    0  0.00000000000E+00  0.00000000000E+00 -0.81719267412E+03  0.10766606167E+04  0.70099516182E+03 0.  0.
        3    1    3    3  502    0  0.10498213393E+03  0.17694600400E+03  0.27225209520E+02  0.20753881326E+03  0.10100000352E+00 0. -1.
       -3    1    3    3    0  502 -0.10498213393E+03 -0.17694600400E+03 -0.84441788364E+03  0.86912180342E+03  0.10100000352E+00 0.  1.
</event>
<event>
 5   0  0.2937617E-03  0.7010564E+03  0.7818609E-02  0.9715427E-01
        1   -1    0    0  501    0  0.00000000000E+00  0.00000000000E+00  0.47838078186E+03  0.47838078189E+03  0.50400001928E-02 0.  1.
       -1   -1    0    0    0  501  0.00000000000E+00  0.00000000000E+00 -0.25684563156E+03  0.25684563161E+03  0.50400001928E-02 0. -1.
    10030    2    1    2    0    0  0.00000000000E+00  0.00000000000E+00  0.22153515030E+03  0.73522641350E+03  0.70105638596E+03 0.  0.
        3    1    3    3  502    0 -0.25601125724E+03 -0.21728869662E+03  0.52981276946E+01  0.33583362231E+03  0.10100000352E+00 0. -1.
       -3    1    3    3    0  502  0.25601125724E+03  0.21728869662E+03  0.21623702261E+03  0.39939279120E+03  0.10100000352E+00 0.  1.
</event>
<event>
 5   0  0.2934483E-03  0.7003741E+03  0.7818609E-02  0.9716593E-01
        1   -1    0    0  501    0  0.00000000000E+00  0.00000000000E+00  0.18840238686E+03  0.18840238693E+03  0.50400001928E-02 0. -1.
       -1   -1    0    0    0  501  0.00000000000E+00  0.00000000000E+00 -0.65089923163E+03  0.65089923165E+03  0.50400001928E-02 0.  1.
    10030    2    1    2    0    0  0.00000000000E+00  0.00000000000E+00 -0.46249684477E+03  0.83930161857E+03  0.70037409683E+03 0.  0.
        5    1    3    3  502    0  0.25982801875E+03  0.70308468630E+02 -0.49962530093E+03  0.56753978839E+03  0.46999998093E+01 0. -1.
       -5    1    3    3    0  502 -0.25982801875E+03 -0.70308468630E+02  0.37128456159E+02  0.27176183018E+03  0.46999998093E+01 0.  1.
</event>
<event>
 5   0  0.1981750E-03  0.6991074E+03  0.7818609E-02  0.9718760E-01
        3   -1    0    0  501    0  0.00000000000E+00  0.00000000000E+00  0.92321997359E+03  0.92321997911E+03  0.10100000352E+00 0. -1.
       -3   -1    0    0    0  501  0.00000000000E+00  0.00000000000E+00 -0.13234958444E+03  0.13234962297E+03  0.10100000352E+00 0.  1.
    10030    2    1    2    0    0  0.00000000000E+00  0.00000000000E+00  0.79087038915E+03  0.10555696021E+04  0.69910743982E+03 0.  0.
        1    1    3    3  502    0 -0.24668407274E+03  0.15827440522E+03  0.68304284520E+03  0.74327070943E+03  0.50400001928E-02 0. -1.
       -1    1    3    3    0  502  0.24668407274E+03 -0.15827440522E+03  0.10782754395E+03  0.31229889266E+03  0.50400001928E-02 0.  1.
</event>
<event>
 5   0  0.2913582E-03  0.6950982E+03  0.7818609E-02  0.9725652E-01
        1   -1    0    0  501    0  0.00000000000E+00  0.00000000000E+00  0.39527070707E+03  0.39527070711E+03  0.50400001928E-02 0. -1.
       -1   -1    0    0    0  501  0.00000000000E+00  0.00000000000E+00 -0.30558901836E+03  0.30558901840E+03  0.50400001928E-02 0.  1.
    10030    2    1    2    0    0  0.00000000000E+00  0.00000000000E+00  0.89681688710E+02  0.70085972551E+03  0.69509823015E+03 0.  0.
        1    1    3    3  502    0 -0.27144244337E+03  0.21635104500E+03  0.62351793300E+02  0.35267055574E+03  0.50400001928E-02 0. -1.
       -1    1    3    3    0  502  0.27144244337E+03 -0.21635104500E+03  0.27329895411E+02  0.34818916977E+03  0.50400001928E-02 0.  1.
</event>
<event>
 5   0  0.2913582E-03  0.7177810E+03  0.7818609E-02  0.9687298E-01
       -1   -1    0    0    0  501  0.00000000000E+00  0.00000000000E+00  0.12583128396E+04  0.12583128396E+04  0.50400001928E-02 0.  1.
        1   -1    0    0  501    0  0.00000000000E+00  0.00000000000E+00 -0.10236119584E+03  0.10236119597E+03  0.50400001928E-02 0. -1.
    10030    2    1    2    0    0  0.00000000000E+00  0.00000000000E+00  0.11559516437E+04  0.13606740356E+04  0.71778104488E+03 0.  0.
        1    1    3    3  502    0  0.21323800489E+03  0.28680314271E+03  0.64015595284E+03  0.73316173754E+03  0.50400001928E-02 0.  1.
       -1    1    3    3    0  502 -0.21323800489E+03 -0.28680314271E+03  0.51579569090E+03  0.62751229803E+03  0.50400001928E-02 0. -1.
</event>
<event>
 5   0  0.1981750E-03  0.6997214E+03  0.7818609E-02  0.9717709E-01
       -3   -1    0    0    0  501  0.00000000000E+00  0.00000000000E+00  0.37286328566E+03  0.37286329934E+03  0.10100000352E+00 0. -1.
        3   -1    0    0  501    0  0.00000000000E+00  0.00000000000E+00 -0.32827715636E+03  0.32827717190E+03  0.10100000352E+00 0.  1.
    10030    2    1    2    0    0  0.00000000000E+00  0.00000000000E+00  0.44586129293E+02  0.70114047124E+03  0.69972139990E+03 0.  0.
        1    1    3    3  502    0 -0.71936900281E+02  0.86880256753E+02  0.35414353536E+03  0.37167289422E+03  0.50400001928E-02 0. -1.
       -1    1    3    3    0  502  0.71936900281E+02 -0.86880256753E+02 -0.30955740606E+03  0.32946757702E+03  0.50400001928E-02 0.  1.
</event>
<event>
 5   0  0.5113683E-03  0.7003200E+03  0.7818609E-02  0.9716685E-01
        2   -1    0    0  501    0  0.00000000000E+00  0.00000000000E+00  0.10657902794E+04  0.10657902794E+04  0.25500000920E-02 0.  1.
       -2   -1    0    0    0  501  0.00000000000E+00  0.00000000000E+00 -0.11504330210E+03  0.11504330213E+03  0.25500000920E-02 0. -1.
    10030    2    1    2    0    0  0.00000000000E+00  0.00000000000E+00  0.95074697727E+03  0.11808335815E+04  0.70032002143E+03 0.  0.
        3    1    3    3  502    0  0.20648043429E+03  0.23549189582E+03  0.73941059363E+03  0.80300600179E+03  0.10100000352E+00 0.  1.
       -3    1    3    3    0  502 -0.20648043429E+03 -0.23549189582E+03  0.21133638365E+03  0.37782757972E+03  0.10100000352E+00 0. -1.
</event>
<event>
 5   0  0.1981750E-03  0.7010163E+03  0.7818609E-02  0.9715496E-01
       -3   -1    0    0    0  501  0.00000000000E+00  0.00000000000E+00  0.43207866261E+03  0.43207867442E+03  0.10100000352E+00 0.  1.
        3   -1    0    0  501    0  0.00000000000E+00  0.00000000000E+00 -0.28433697543E+03  0.28433699337E+03  0.10100000352E+00 0. -1.
    10030    2    1    2    0    0  0.00000000000E+00  0.00000000000E+00  0.14774168718E+03  0.71641566778E+03  0.70101626437E+03 0.  0.
        3    1    3    3  502    0  0.11024203394E+03  0.15708123606E+03 -0.22587777925E+03  0.29639264857E+03  0.10100000352E+00 0. -1.
       -3    1    3    3    0  502 -0.11024203394E+03 -0.15708123606E+03  0.37361946643E+03  0.42002301921E+03  0.10100000352E+00 0.  1.
</event>
<event>
 5   0  0.2913582E-03  0.7019290E+03  0.7818609E-02  0.9713939E-01
        1   -1    0    0  501    0  0.00000000000E+00  0.00000000000E+00  0.60171095085E+03  0.60171095087E+03  0.50400001928E-02 0. -1.
       -1   -1    0    0    0  501  0.00000000000E+00  0.00000000000E+00 -0.20470970887E+03  0.20470970894E+03  0.50400001928E-02 0.  1.
    10030    2    1    2    0    0  0.00000000000E+00  0.00000000000E+00  0.39700124198E+03  0.80642065981E+03  0.70192898105E+03 0.  0.
        1    1    3    3  502    0 -0.19957659786E+03  0.55966494068E+02 -0.12687939007E+03  0.24302560877E+03  0.50400001928E-02 0.  1.
       -1    1    3    3    0  502  0.19957659786E+03 -0.55966494068E+02  0.52388063205E+03  0.56339505103E+03  0.50400001928E-02 0. -1.
</event>
<event>
 5   0  0.3013140E-03  0.7006809E+03  0.7818609E-02  0.9716068E-01
        1   -1    0    0  501    0  0.00000000000E+00  0.00000000000E+00  0.44428301576E+03  0.44428301579E+03  0.50400001928E-02 0. -1.
       -1   -1    0    0    0  501  0.00000000000E+00  0.00000000000E+00 -0.27626181282E+03  0.27626181287E+03  0.50400001928E-02 0.  1.
    10030    2    1    2    0    0  0.00000000000E+00  0.00000000000E+00  0.16802120293E+03  0.72054482866E+03  0.70068090132E+03 0.  0.
        2    1    3    3  502    0  0.11198203653E+03 -0.33135930360E+03  0.63457325360E+02  0.35547967134E+03  0.25500000920E-02 0. -1.
       -2    1    3    3    0  502 -0.11198203653E+03  0.33135930360E+03  0.10456387757E+03  0.36506515732E+03  0.25500000920E-02 0.  1.
</event>
<event>
 5   0  0.2937617E-03  0.6999660E+03  0.7818609E-02  0.9717290E-01
       -1   -1    0    0    0  501  0.00000000000E+00  0.00000000000E+00  0.18235581712E+03  0.18235581719E+03  0.50400001928E-02 0. -1.
        1   -1    0    0  501    0  0.00000000000E+00  0.00000000000E+00 -0.67169833777E+03  0.67169833779E+03  0.50400001928E-02 0.  1.
    10030    2    1    2    0    0  0.00000000000E+00  0.00000000000E+00 -0.48934252065E+03  0.85405415497E+03  0.69996599711E+03 0.  0.
        3    1    3    3  502    0 -0.20952031804E+03  0.22838385706E+03 -0.44303312951E+03  0.54068134227E+03  0.10100000352E+00 0.  1.
       -3    1    3    3    0  502  0.20952031804E+03 -0.22838385706E+03 -0.46309391139E+02  0.31337281270E+03  0.10100000352E+00 0. -1.
</event>
<event>
 5   0  0.4878235E-03  0.6996872E+03  0.7818609E-02  0.9717767E-01
       -2   -1    0    0    0  501  0.00000000000E+00  0.00000000000E+00  0.12599211126E+03  0.12599211128E+03  0.25500000920E-02 0. -1.
        2   -1    0    0  501    0  0.00000000000E+00  0.00000000000E+00 -0.97141448139E+03  0.97141448140E+03  0.25500000920E-02 0.  1.
    10030    2    1    2    0    0  0.00000000000E+00  0.00000000000E+00 -0.84542237014E+03  0.10974065927E+04  0.69968724851E+03 0.  0.
        4    1    3    3  502    0  0.20387433733E+03 -0.16937954132E+03 -0.64592192789E+02  0.27281484327E+03  0.12699999809E+01 0. -1.
       -4    1    3    3    0  502 -0.20387433733E+03  0.16937954132E+03 -0.78083017735E+03  0.82459174941E+03  0.12699999809E+01 0.  1.
</event>
<event>
 5   0  0.5113683E-03  0.6988136E+03  0.7818609E-02  0.9719263E-01
        2   -1    0    0  501    0  0.00000000000E+00  0.00000000000E+00  0.37470769887E+03  0.37470769888E+03  0.25500000920E-02 0. -1.
       -2   -1    0    0    0  501  0.00000000000E+00  0.00000000000E+00 -0.32581424830E+03  0.32581424831E+03  0.25500000920E-02 0.  1.
    10030    2    1    2    0    0  0.00000000000E+00  0.00000000000E+00  0.48893450578E+02  0.70052194719E+03  0.69881358672E+03 0.  0.
        3    1    3    3  502    0  0.68935474581E+02  0.21048840815E+03 -0.24645015373E+03  0.33135352434E+03  0.10100000352E+00 0.  1.
       -3    1    3    3    0  502 -0.68935474581E+02 -0.21048840815E+03  0.29534360431E+03  0.36916842285E+03  0.10100000352E+00 0. -1.
</event>
<event>
 5   0  0.2938783E-03  0.7000312E+03  0.7818609E-02  0.9717179E-01
        1   -1    0    0  501    0  0.00000000000E+00  0.00000000000E+00  0.13694522090E+03  0.13694522100E+03  0.50400001928E-02 0.  1.
       -1   -1    0    0    0  501  0.00000000000E+00  0.00000000000E+00 -0.89459801876E+03  0.89459801877E+03  0.50400001928E-02 0. -1.
    10030    2    1    2    0    0  0.00000000000E+00  0.00000000000E+00 -0.75765279785E+03  0.10315432398E+04  0.70003120889E+03 0.  0.
        4    1    3    3  502    0 -0.19596162446E+02  0.12819920263E+03  0.10023097459E+03  0.16391127571E+03  0.12699999809E+01 0.  1.
       -4    1    3    3    0  502  0.19596162446E+02 -0.12819920263E+03 -0.85788377244E+03  0.86763196406E+03  0.12699999809E+01 0. -1.
</event>
<event>
 5   0  0.3013140E-03  0.6997986E+03  0.7818609E-02  0.9717577E-01
       -1   -1    0    0    0  501  0.00000000000E+00  0.00000000000E+00  0.11791080977E+03  0.11791080988E+03  0.50400001928E-02 0. -1.
        1   -1    0    0  501    0  0.00000000000E+00  0.00000000000E+00 -0.10383231386E+04  0.10383231387E+04  0.50400001928E-02 0.  1.
    10030    2    1    2    0    0  0.00000000000E+00  0.00000000000E+00 -0.92041232888E+03  0.11562339485E+04  0.69979860575E+03 0.  0.
        2    1    3    3  502    0  0.15449403778E+03 -0.80529780886E+02 -0.96156194683E+03  0.97721790350E+03  0.25500000920E-02 0.  1.
       -2    1    3    3    0  502 -0.15449403778E+03  0.80529780886E+02  0.41149617955E+02  0.17901604504E+03  0.25500000920E-02 0. -1.
</event>
<event>
 5   0  0.2938783E-03  0.7003201E+03  0.7818609E-02  0.9716685E-01
        1   -1    0    0  501    0  0.00000000000E+00  0.00000000000E+00  0.83210048838E+03  0.83210048839E+03  0.50400001928E-02 0.  1.
       -1   -1    0    0    0  501  0.00000000000E+00  0.00000000000E+00 -0.14735246074E+03  0.14735246082E+03  0.50400001928E-02 0. -1.
    10030    2    1    2    0    0  0.00000000000E+00  0.00000000000E+00  0.68474802764E+03  0.97945294921E+03  0.70032008280E+03 0.  0.
        4    1    3    3  502    0 -0.29485960310E+02 -0.51889580025E+02  0.82493137580E+03  0.82708847051E+03  0.12699999809E+01 0.  1.
       -4    1    3    3    0  502  0.29485960310E+02  0.51889580025E+02 -0.14018334816E+03  0.15236447871E+03  0.12699999809E+01 0. -1.
</event>
<event>
 5   0  0.2913582E-03  0.6988528E+03  0.7818609E-02  0.9719196E-01
        1   -1    0    0  501    0  0.00000000000E+00  0.00000000000E+00  0.37903849840E+03  0.37903849843E+03  0.50400001928E-02 0. -1.
       -1   -1    0    0    0  501  0.00000000000E+00  0.00000000000E+00 -0.32212774447E+03  0.32212774451E+03  0.50400001928E-02 0.  1.
    10030    2    1    2    0    0  0.00000000000E+00  0.00000000000E+00  0.56910753928E+02  0.70116624294E+03  0.69885282165E+03 0.  0.
        1    1    3    3  502    0  0.30617769711E+03 -0.16286704441E+03  0.71356252397E+02  0.35406520748E+03  0.50400001928E-02 0. -1.
       -1    1    3    3    0  502 -0.30617769711E+03  0.16286704441E+03 -0.14445498470E+02  0.34710103546E+03  0.50400001928E-02 0.  1.
</event>
<event>
 5   0  0.2934483E-03  0.7020780E+03  0.7818609E-02  0.9713685E-01
        1   -1    0    0  501    0  0.00000000000E+00  0.00000000000E+00  0.62213007038E+03  0.62213007040E+03  0.50400001928E-02 0.  1.
       -1   -1    0    0    0  501  0.00000000000E+00  0.00000000000E+00 -0.19807492110E+03  0.19807492117E+03  0.50400001928E-02 0. -1.
    10030    2    1    2    0    0  0.00000000000E+00  0.00000000000E+00  0.42405514928E+03  0.82020499157E+03  0.70207795762E+03 0.  0.
        5    1    3    3  502    0  0.26432162756E+03  0.19242191734E+03  0.62810199476E+02  0.33295544480E+03  0.46999998093E+01 0. -1.
       -5    1    3    3    0  502 -0.26432162756E+03 -0.19242191734E+03  0.36124494980E+03  0.48724954677E+03  0.46999998093E+01 0.  1.
</event>
<event>
 5   0  0.2938783E-03  0.7002269E+03  0.7818609E-02  0.9716844E-01
       -1   -1    0    0    0  501  0.00000000000E+00  0.00000000000E+00  0.10407691647E+04  0.10407691647E+04  0.50400001928E-02 0. -1.
        1   -1    0    0  501    0  0.00000000000E+00  0.00000000000E+00 -0.11777772719E+03  0.11777772729E+03  0.50400001928E-02 0.  1.
    10030    2    1    2    0    0  0.00000000000E+00  0.00000000000E+00  0.92299143751E+03  0.11585468920E+04  0.70022689698E+03 0.  0.
        4    1    3    3  502    0  0.23575467822E+03  0.12014945071E+03  0.82172572780E+02  0.27707418398E+03  0.12699999809E+01 0.  1.
       -4    1    3    3    0  502 -0.23575467822E+03 -0.12014945071E+03  0.84081886473E+03  0.88147270802E+03  0.12699999809E+01 0. -1.
</event>
<event>
 5   0  0.4878235E-03  0.7033277E+03  0.7818609E-02  0.9711558E-01
       -2   -1    0    0    0  501  0.00000000000E+00  0.00000000000E+00  0.79439118304E+03  0.79439118305E+03  0.25500000920E-02 0. -1.
        2   -1    0    0  501    0  0.00000000000E+00  0.00000000000E+00 -0.15567575580E+03  0.15567575582E+03  0.25500000920E-02 0.  1.
    10030    2    1    2    0    0  0.00000000000E+00  0.00000000000E+00  0.63871542725E+03  0.95006693887E+03  0.70332765574E+03 0.  0.
        4    1    3    3  502    0  0.14774734543E+03 -0.35646159348E+02  0.74773052705E+03  0.76302193988E+03  0.12699999809E+01 0. -1.
       -4    1    3    3    0  502 -0.14774734543E+03  0.35646159348E+02 -0.10901509981E+03  0.18704499898E+03  0.12699999809E+01 0.  1.
</event>
<event>
 5   0  0.1981750E-03  0.7000822E+03  0.7818609E-02  0.9717092E-01
        3   -1    0    0  501    0  0.00000000000E+00  0.00000000000E+00  0.98791590798E+03  0.98791591314E+03  0.10100000352E+00 0.  1.
       -3   -1    0    0    0  501  0.00000000000E+00  0.00000000000E+00 -0.12402751082E+03  0.12402755194E+03  0.10100000352E+00 0. -1.
    10030    2    1    2    0    0  0.00000000000E+00  0.00000000000E+00  0.86388839716E+03  0.11119434651E+04  0.70008221430E+03 0.  0.
        4    1    3    3  502    0  0.27582835247E+03 -0.68385292247E+02  0.75655461056E+03  0.80816725984E+03  0.12699999809E+01 0.  1.
       -4    1    3    3    0  502 -0.27582835247E+03  0.68385292247E+02  0.10733378660E+03  0.30377620524E+03  0.12699999809E+01 0. -1.
</event>
<event>
 5   0  0.4878235E-03  0.7001957E+03  0.7818609E-02  0.9716898E-01
        2   -1    0    0  501    0  0.00000000000E+00  0.00000000000E+00  0.84220925850E+03  0.84220925850E+03  0.25500000920E-02 0. -1.
       -2   -1    0    0    0  501  0.00000000000E+00  0.00000000000E+00 -0.14553211800E+03  0.14553211802E+03  0.25500000920E-02 0.  1.
    10030    2    1    2    0    0  0.00000000000E+00  0.00000000000E+00  0.69667714050E+03  0.98774137652E+03  0.70019567893E+03 0.  0.
        4    1    3    3  502    0 -0.15322378285E+03  0.15626720335E+03  0.73381396082E+03  0.76575551481E+03  0.12699999809E+01 0. -1.
       -4    1    3    3    0  502  0.15322378285E+03 -0.15626720335E+03 -0.37136820318E+02  0.22198586171E+03  0.12699999809E+01 0.  1.
</event>
<event>
 5   0  0.2913582E-03  0.7008823E+03  0.7818609E-02  0.9715725E-01
        1   -1    0    0  501    0  0.00000000000E+00  0.00000000000E+00  0.11879409267E+03  0.11879409278E+03  0.50400001928E-02 0.  1.
       -1   -1    0    0    0  501  0.00000000000E+00  0.00000000000E+00 -0.10337970561E+04  0.10337970561E+04  0.50400001928E-02 0. -1.
    10030    2    1    2    0    0  0.00000000000E+00  0.00000000000E+00 -0.91500296339E+03  0.11525911488E+04  0.70088225358E+03 0.  0.
        1    1    3    3  502    0  0.29161533698E+03 -0.64713888909E+02 -0.75885818157E+03  0.81553242238E+03  0.50400001928E-02 0. -1.
       -1    1    3    3    0  502 -0.29161533698E+03  0.64713888909E+02 -0.15614478181E+03  0.33705872647E+03  0.50400001928E-02 0.  1.
</event>
<event>
 5   0  0.2938783E-03  0.6998237E+03  0.7818609E-02  0.9717534E-01
        1   -1    0    0  501    0  0.00000000000E+00  0.00000000000E+00  0.59071371562E+03  0.59071371564E+03  0.50400001928E-02 0.  1.
       -1   -1    0    0    0  501  0.00000000000E+00  0.00000000000E+00 -0.20727181979E+03  0.20727181985E+03  0.50400001928E-02 0. -1.
    10030    2    1    2    0    0  0.00000000000E+00  0.00000000000E+00  0.38344189583E+03  0.79798553549E+03  0.69982371164E+03 0.  0.
        4    1    3    3  502    0 -0.30150468819E+03  0.10978211944E+03  0.32575103016E+02  0.32252122563E+03  0.12699999809E+01 0. -1.
       -4    1    3    3    0  502  0.30150468819E+03 -0.10978211944E+03  0.35086679282E+03  0.47546430986E+03  0.12699999809E+01 0.  1.
</event>
<event>
 5   0  0.4878235E-03  0.7044870E+03  0.7818609E-02  0.9709590E-01
        2   -1    0    0  501    0  0.00000000000E+00  0.00000000000E+00  0.12103389870E+03  0.12103389873E+03  0.25500000920E-02 0. -1.
       -2   -1    0    0    0  501  0.00000000000E+00  0.00000000000E+00 -0.10251299119E+04  0.10251299119E+04  0.25500000920E-02 0.  1.
    10030    2    1    2    0    0  0.00000000000E+00  0.00000000000E+00 -0.90409601315E+03  0.11461638106E+04  0.70448696204E+03 0.  0.
        4    1    3    3  502    0  0.12362053206E+03 -0.15573192394E+03  0.20997894761E+02  0.19994247314E+03  0.12699999809E+01 0. -1.
       -4    1    3    3    0  502 -0.12362053206E+03  0.15573192394E+03 -0.92509390791E+03  0.94622133745E+03  0.12699999809E+01 0.  1.
</event>
<event>
 5   0  0.4878235E-03  0.7001454E+03  0.7818609E-02  0.9716984E-01
       -2   -1    0    0    0  501  0.00000000000E+00  0.00000000000E+00  0.32539639186E+03  0.32539639187E+03  0.25500000920E-02 0. -1.
        2   -1    0    0  501    0  0.00000000000E+00  0.00000000000E+00 -0.37662035888E+03  0.37662035889E+03  0.25500000920E-02 0.  1.
    10030    2    1    2    0    0  0.00000000000E+00  0.00000000000E+00 -0.51223967026E+02  0.70201675076E+03  0.70014543029E+03 0.  0.
        4    1    3    3  502    0  0.27557197493E+03  0.60209731069E+02  0.18226838514E+03  0.33583999494E+03  0.12699999809E+01 0. -1.
       -4    1    3    3    0  502 -0.27557197493E+03 -0.60209731069E+02 -0.23349235217E+03  0.36617675582E+03  0.12699999809E+01 0.  1.
</event>
<event>
 5   0  0.5076796E-03  0.6996105E+03  0.7818609E-02  0.9717898E-01
       -2   -1    0    0    0  501  0.00000000000E+00  0.00000000000E+00  0.20681333644E+03  0.20681333646E+03  0.25500000920E-02 0. -1.
        2   -1    0    0  501    0  0.00000000000E+00  0.00000000000E+00 -0.59166260984E+03  0.59166260984E+03  0.25500000920E-02 0.  1.
    10030    2    1    2    0    0  0.00000000000E+00  0.00000000000E+00 -0.38484927340E+03  0.79847594630E+03  0.69961051563E+03 0.  0.
        5    1    3    3  502    0 -0.18762841838E+03 -0.25974977852E+03 -0.35248264631E+03  0.47638269991E+03  0.46999998093E+01 0.  1.
       -5    1    3    3    0  502  0.18762841838E+03  0.25974977852E+03 -0.32366627090E+02  0.32209324639E+03  0.46999998093E+01 0. -1.
</event>
<event>
 5   0  0.5072407E-03  0.6922957E+03  0.7818609E-02  0.9730499E-01
       -2   -1    0    0    0  501  0.00000000000E+00  0.00000000000E+00  0.31785383762E+03  0.31785383763E+03  0.25500000920E-02 0. -1.
        2   -1    0    0  501    0  0.00000000000E+00  0.00000000000E+00 -0.37696052079E+03  0.37696052080E+03  0.25500000920E-02 0.  1.
    10030    2    1    2    0    0  0.00000000000E+00  0.00000000000E+00 -0.59106683179E+02  0.69481435843E+03  0.69229574077E+03 0.  0.
        1    1    3    3  502    0 -0.23494688680E+03  0.25026736820E+03  0.15157049573E+02  0.34360374180E+03  0.50400001928E-02 0. -1.
       -1    1    3    3    0  502  0.23494688680E+03 -0.25026736820E+03 -0.74263732752E+02  0.35121061663E+03  0.50400001928E-02 0.  1.
</event>
<event>
 5   0  0.2934483E-03  0.6967959E+03  0.7818609E-02  0.9722727E-01
       -1   -1    0    0    0  501  0.00000000000E+00  0.00000000000E+00  0.57079353923E+03  0.57079353926E+03  0.50400001928E-02 0.  1.
        1   -1    0    0  501    0  0.00000000000E+00  0.00000000000E+00 -0.21265328011E+03  0.21265328017E+03  0.50400001928E-02 0. -1.
    10030    2    1    2    0    0  0.00000000000E+00  0.00000000000E+00  0.35814025912E+03  0.78344681943E+03  0.69679586226E+03 0.  0.
        5    1    3    3  502    0 -0.12009759583E+03 -0.14876326357E+03  0.50649744813E+03  0.54140160332E+03  0.46999998093E+01 0.  1.
       -5    1    3    3    0  502  0.12009759583E+03  0.14876326357E+03 -0.14835718901E+03  0.24204521611E+03  0.46999998093E+01 0. -1.
</event>
<event>
 5   0  0.5076796E-03  0.7001926E+03  0.7818609E-02  0.9716903E-01
       -2   -1    0    0    0  501  0.00000000000E+00  0.00000000000E+00  0.39866082906E+03  0.39866082906E+03  0.25500000920E-02 0.  1.
        2   -1    0    0  501    0  0.00000000000E+00  0.00000000000E+00 -0.30744782361E+03  0.30744782362E+03  0.25500000920E-02 0. -1.
    10030    2    1    2    0    0  0.00000000000E+00  0.00000000000E+00  0.91213005446E+02  0.70610865268E+03  0.70019255711E+03 0.  0.
        5    1    3    3  502    0 -0.87475237480E+02  0.16623067458E+03  0.34350172556E+03  0.39153554093E+03  0.46999998093E+01 0.  1.
       -5    1    3    3    0  502  0.87475237480E+02 -0.16623067458E+03 -0.25228872012E+03  0.31457311176E+03  0.46999998093E+01 0. -1.
</event>
<event>
 5   0  0.1981750E-03  0.7000408E+03  0.7818609E-02  0.9717162E-01
        4   -1    0    0  501    0  0.00000000000E+00  0.00000000000E+00  0.18347151083E+03  0.18347590628E+03  0.12699999809E+01 0. -1.
       -4   -1    0    0    0  501  0.00000000000E+00  0.00000000000E+00 -0.66774349878E+03  0.66774470650E+03  0.12699999809E+01 0.  1.
    10030    2    1    2    0    0  0.00000000000E+00  0.00000000000E+00 -0.48427198795E+03  0.85122061278E+03  0.70004083688E+03 0.  0.
        5    1    3    3  502    0 -0.31405750298E+02  0.30292370919E+03 -0.45184251466E+03  0.54491544554E+03  0.46999998093E+01 0.  1.
       -5    1    3    3    0  502  0.31405750298E+02 -0.30292370919E+03 -0.32429473298E+02  0.30630516724E+03  0.46999998093E+01 0. -1.
</event>
<event>
 5   0  0.5076796E-03  0.7063038E+03  0.7818609E-02  0.9706512E-01
        2   -1    0    0  501    0  0.00000000000E+00  0.00000000000E+00  0.13811472264E+04  0.13811472264E+04  0.25500000920E-02 0. -1.
       -2   -1    0    0    0  501  0.00000000000E+00  0.00000000000E+00 -0.90299042133E+02  0.90299042169E+02  0.25500000920E-02 0.  1.
    10030    2    1    2    0    0  0.00000000000E+00  0.00000000000E+00  0.12908481843E+04  0.14714462686E+04  0.70630382023E+03 0.  0.
        5    1    3    3  502    0 -0.12158149776E+03  0.31563272172E+03  0.43411384016E+03  0.55034806426E+03  0.46999998093E+01 0.  1.
       -5    1    3    3    0  502  0.12158149776E+03 -0.31563272172E+03  0.85673434412E+03  0.92109820433E+03  0.46999998093E+01 0. -1.
</event>
<event>
 5   0  0.2937617E-03  0.6995056E+03  0.7818609E-02  0.9718078E-01
       -1   -1    0    0    0  501  0.00000000000E+00  0.00000000000E+00  0.69130728758E+03  0.69130728760E+03  0.50400001928E-02 0. -1.
        1   -1    0    0  501    0  0.00000000000E+00  0.00000000000E+00 -0.17695026398E+03  0.17695026405E+03  0.50400001928E-02 0.  1.
    10030    2    1    2    0    0  0.00000000000E+00  0.00000000000E+00  0.51435702360E+03  0.86825755165E+03  0.69950555986E+03 0.  0.
        3    1    3    3  502    0 -0.69085949914E+02  0.67702209093E+01  0.68267076394E+03  0.68619099856E+03  0.10100000352E+00 0. -1.
       -3    1    3    3    0  502  0.69085949914E+02 -0.67702209093E+01 -0.16831374034E+03  0.18206655309E+03  0.10100000352E+00 0.  1.
</event>
<event>
 5   0  0.3013140E-03  0.7001705E+03  0.7818609E-02  0.9716941E-01
        1   -1    0    0  501    0  0.00000000000E+00  0.00000000000E+00  0.10438221007E+04  0.10438221008E+04  0.50400001928E-02 0. -1.
       -1   -1    0    0    0  501  0.00000000000E+00  0.00000000000E+00 -0.11741433934E+03  0.11741433945E+03  0.50400001928E-02 0.  1.
    10030    2    1    2    0    0  0.00000000000E+00  0.00000000000E+00  0.92640776140E+03  0.11612364402E+04  0.70017050043E+03 0.  0.
        2    1    3    3  502    0 -0.21426301184E+03 -0.52817063635E+02  0.91394338214E+03  0.94020784203E+03  0.25500000920E-02 0. -1.
       -2    1    3    3    0  502  0.21426301184E+03  0.52817063635E+02  0.12464379258E+02  0.22102859817E+03  0.25500000920E-02 0.  1.
</event>
<event>
 5   0  0.2937617E-03  0.6999900E+03  0.7818609E-02  0.9717249E-01
       -1   -1    0    0    0  501  0.00000000000E+00  0.00000000000E+00  0.71275535538E+02  0.71275535716E+02  0.50400001928E-02 0. -1.
        1   -1    0    0  501    0  0.00000000000E+00  0.00000000000E+00 -0.17186333424E+04  0.17186333424E+04  0.50400001928E-02 0.  1.
    10030    2    1    2    0    0  0.00000000000E+00  0.00000000000E+00 -0.16473578068E+04  0.17899088781E+04  0.69999003432E+03 0.  0.
        3    1    3    3  502    0 -0.28143557925E+03 -0.70525035494E+02 -0.32314520906E+03  0.43428401103E+03  0.10100000352E+00 0. -1.
       -3    1    3    3    0  502  0.28143557925E+03  0.70525035494E+02 -0.13242125978E+04  0.13556248671E+04  0.10100000352E+00 0.  1.
</event>
<event>
 5   0  0.2937617E-03  0.7009511E+03  0.7818609E-02  0.9715607E-01
       -1   -1    0    0    0  501  0.00000000000E+00  0.00000000000E+00  0.11490613977E+03  0.11490613988E+03  0.50400001928E-02 0.  1.
        1   -1    0    0  501    0  0.00000000000E+00  0.00000000000E+00 -0.10689865802E+04  0.10689865802E+04  0.50400001928E-02 0. -1.
    10030    2    1    2    0    0  0.00000000000E+00  0.00000000000E+00 -0.95408044043E+03  0.11838927201E+04  0.70095112944E+03 0.  0.
        3    1    3    3  502    0 -0.12542031179E+02 -0.16934638544E+03 -0.99486522383E+03  0.10092533501E+04  0.10100000352E+00 0. -1.
       -3    1    3    3    0  502  0.12542031179E+02  0.16934638544E+03  0.40784783400E+02  0.17463937003E+03  0.10100000352E+00 0.  1.
</event>
<event>
 5   0  0.5023894E-03  0.6995913E+03  0.7818609E-02  0.9717931E-01
       -2   -1    0    0    0  501  0.00000000000E+00  0.00000000000E+00  0.67639402832E+02  0.67639402880E+02  0.25500000920E-02 0. -1.
        2   -1    0    0  501    0  0.00000000000E+00  0.00000000000E+00 -0.18089601783E+04  0.18089601783E+04  0.25500000920E-02 0.  1.
    10030    2    1    2    0    0  0.00000000000E+00  0.00000000000E+00 -0.17413207755E+04  0.18765995812E+04  0.69959126998E+03 0.  0.
        2    1    3    3  502    0  0.29055244679E+03  0.12606478444E+03 -0.47239573292E+03  0.56874491883E+03  0.25500000920E-02 0.  1.
       -2    1    3    3    0  502 -0.29055244679E+03 -0.12606478444E+03 -0.12689250426E+04  0.13078546624E+04  0.25500000920E-02 0. -1.
</event>
<event>
 5   0  0.2937617E-03  0.7001919E+03  0.7818609E-02  0.9716904E-01
       -1   -1    0    0    0  501  0.00000000000E+00  0.00000000000E+00  0.52762412806E+03  0.52762412808E+03  0.50400001928E-02 0. -1.
        1   -1    0    0  501    0  0.00000000000E+00  0.00000000000E+00 -0.23230014089E+03  0.23230014094E+03  0.50400001928E-02 0.  1.
    10030    2    1    2    0    0  0.00000000000E+00  0.00000000000E+00  0.29532398717E+03  0.75992426902E+03  0.70019185746E+03 0.  0.
        3    1    3    3  502    0 -0.25431788449E+02 -0.13910135701E+03  0.49525093140E+03  0.51504316192E+03  0.10100000352E+00 0. -1.
       -3    1    3    3    0  502  0.25431788449E+02  0.13910135701E+03 -0.19992694423E+03  0.24488110710E+03  0.10100000352E+00 0.  1.
</event>
<event>
 5   0  0.3013140E-03  0.6997351E+03  0.7818609E-02  0.9717685E-01
       -1   -1    0    0    0  501  0.00000000000E+00  0.00000000000E+00  0.65570648807E+03  0.65570648809E+03  0.50400001928E-02 0.  1.
        1   -1    0    0  501    0  0.00000000000E+00  0.00000000000E+00 -0.18668000293E+03  0.18668000300E+03  0.50400001928E-02 0. -1.
    10030    2    1    2    0    0  0.00000000000E+00  0.00000000000E+00  0.46902648514E+03  0.84238649108E+03  0.69973506172E+03 0.  0.
        2    1    3    3  502    0 -0.23360194388E+02  0.58010244003E+02  0.64892335062E+03  0.65192975241E+03  0.25500000920E-02 0.  1.
       -2    1    3    3    0  502  0.23360194388E+02 -0.58010244003E+02 -0.17989686548E+03  0.19045673868E+03  0.25500000920E-02 0. -1.
</event>
<event>
 5   0  0.2913582E-03  0.6946036E+03  0.7818609E-02  0.9726505E-01
       -1   -1    0    0    0  501  0.00000000000E+00  0.00000000000E+00  0.15936079449E+03  0.15936079457E+03  0.50400001928E-02 0. -1.
        1   -1    0    0  501    0  0.00000000000E+00  0.00000000000E+00 -0.75688973707E+03  0.75688973708E+03  0.50400001928E-02 0.  1.
    10030    2    1    2    0    0  0.00000000000E+00  0.00000000000E+00 -0.59752894258E+03  0.91625053165E+03  0.69460362764E+03 0.  0.
        1    1    3    3  502    0  0.18626257307E+03  0.12192237521E+03  0.52868017018E+02  0.22880961289E+03  0.50400001928E-02 0. -1.
       -1    1    3    3    0  502 -0.18626257307E+03 -0.12192237521E+03 -0.65039695960E+03  0.68744091876E+03  0.50400001928E-02 0.  1.
</event>
<event>
 5   0  0.5072407E-03  0.6987234E+03  0.7818609E-02  0.9719418E-01
       -2   -1    0    0    0  501  0.00000000000E+00  0.00000000000E+00  0.63088585764E+03  0.63088585764E+03  0.25500000920E-02 0.  1.
        2   -1    0    0  501    0  0.00000000000E+00  0.00000000000E+00 -0.19346383498E+03  0.19346383499E+03  0.25500000920E-02 0. -1.
    10030    2    1    2    0    0  0.00000000000E+00  0.00000000000E+00  0.43742202266E+03  0.82434969264E+03  0.69872340010E+03 0.  0.
        1    1    3    3  502    0  0.83003549107E+02  0.33895743228E+03  0.23816392859E+03  0.42249708516E+03  0.50400001928E-02 0.  1.
       -1    1    3    3    0  502 -0.83003549107E+02 -0.33895743228E+03  0.19925809407E+03  0.40185260748E+03  0.50400001928E-02 0. -1.
</event>
<event>
 5   0  0.5023894E-03  0.6958641E+03  0.7818609E-02  0.9724331E-01
        2   -1    0    0  501    0  0.00000000000E+00  0.00000000000E+00  0.68351883756E+03  0.68351883756E+03  0.25500000920E-02 0. -1.
       -2   -1    0    0    0  501  0.00000000000E+00  0.00000000000E+00 -0.17710810762E+03  0.17710810764E+03  0.25500000920E-02 0.  1.
    10030    2    1    2    0    0  0.00000000000E+00  0.00000000000E+00  0.50641072994E+03  0.86062694520E+03  0.69586414724E+03 0.  0.
        2    1    3    3  502    0  0.60863527599E+02  0.17264499542E+03  0.61914444490E+03  0.64563961085E+03  0.25500000920E-02 0. -1.
       -2    1    3    3    0  502 -0.60863527599E+02 -0.17264499542E+03 -0.11273371497E+03  0.21498733435E+03  0.25500000920E-02 0.  1.
</event>
<event>
 5   0  0.2937617E-03  0.6999120E+03  0.7818609E-02  0.9717383E-01
        1   -1    0    0  501    0  0.00000000000E+00  0.00000000000E+00  0.11878132779E+03  0.11878132789E+03  0.50400001928E-02 0. -1.
       -1   -1    0    0    0  501  0.00000000000E+00  0.00000000000E+00 -0.10310476657E+04  0.10310476657E+04  0.50400001928E-02 0.  1.
    10030    2    1    2    0    0  0.00000000000E+00  0.00000000000E+00 -0.91226633792E+03  0.11498289936E+04  0.69991202537E+03 0.  0.
        3    1    3    3  502    0 -0.81777747952E+00  0.17990014623E+03  0.36998582525E+02  0.18366719000E+03  0.10100000352E+00 0. -1.
       -3    1    3    3    0  502  0.81777747952E+00 -0.17990014623E+03 -0.94926492045E+03  0.96616180362E+03  0.10100000352E+00 0.  1.
</event>
<event>
 5   0  0.5072407E-03  0.7001036E+03  0.7818609E-02  0.9717055E-01
        2   -1    0    0  501    0  0.00000000000E+00  0.00000000000E+00  0.33768697968E+03  0.33768697969E+03  0.25500000920E-02 0.  1.
       -2   -1    0    0    0  501  0.00000000000E+00  0.00000000000E+00 -0.36286937827E+03  0.36286937828E+03  0.25500000920E-02 0. -1.
    10030    2    1    2    0    0  0.00000000000E+00  0.00000000000E+00 -0.25182398590E+02  0.70055635796E+03  0.70010360482E+03 0.  0.
        1    1    3    3  502    0 -0.17608046966E+03  0.60352125489E+02 -0.30924464296E+03  0.36094176825E+03  0.50400001928E-02 0. -1.
       -1    1    3    3    0  502  0.17608046966E+03 -0.60352125489E+02  0.28406224437E+03  0.33961458971E+03  0.50400001928E-02 0.  1.
</event>
<event>
 5   0  0.2913582E-03  0.6980690E+03  0.7818609E-02  0.9720540E-01
       -1   -1    0    0    0  501  0.00000000000E+00  0.00000000000E+00  0.21850229723E+03  0.21850229729E+03  0.50400001928E-02 0.  1.
        1   -1    0    0  501    0  0.00000000000E+00  0.00000000000E+00 -0.55754601366E+03  0.55754601368E+03  0.50400001928E-02 0. -1.
    10030    2    1    2    0    0  0.00000000000E+00  0.00000000000E+00 -0.33904371643E+03  0.77604831097E+03  0.69806900756E+03 0.  0.
        1    1    3    3  502    0  0.18100991215E+03  0.20330394167E+03 -0.41239362743E+03  0.49413114146E+03  0.50400001928E-02 0. -1.
       -1    1    3    3    0  502 -0.18100991215E+03 -0.20330394167E+03  0.73349910997E+02  0.28191716951E+03  0.50400001928E-02 0.  1.
</event>
<event>
 5   0  0.2937617E-03  0.6995497E+03  0.7818609E-02  0.9718003E-01
        1   -1    0    0  501    0  0.00000000000E+00  0.00000000000E+00  0.77062785251E+03  0.77062785253E+03  0.50400001928E-02 0. -1.
       -1   -1    0    0    0  501  0.00000000000E+00  0.00000000000E+00 -0.15875682665E+03  0.15875682673E+03  0.50400001928E-02 0.  1.
    10030    2    1    2    0    0  0.00000000000E+00  0.00000000000E+00  0.61187102586E+03  0.92938467926E+03  0.69954966211E+03 0.  0.
        3    1    3    3  502    0  0.25113803037E+03  0.31037896743E+02  0.62674253363E+03  0.67589930833E+03  0.10100000352E+00 0. -1.
       -3    1    3    3    0  502 -0.25113803037E+03 -0.31037896743E+02 -0.14871507771E+02  0.25348537094E+03  0.10100000352E+00 0.  1.
</event>
<event>
 5   0  0.4878235E-03  0.6998658E+03  0.7818609E-02  0.9717462E-01
       -2   -1    0    0    0  501  0.00000000000E+00  0.00000000000E+00  0.15175145178E+03  0.15175145180E+03  0.25500000920E-02 0.  1.
        2   -1    0    0  501    0  0.00000000000E+00  0.00000000000E+00 -0.80693153324E+03  0.80693153324E+03  0.25500000920E-02 0. -1.
    10030    2    1    2    0    0  0.00000000000E+00  0.00000000000E+00 -0.65518008146E+03  0.95868298504E+03  0.69986579190E+03 0.  0.
        4    1    3    3  502    0  0.19045614717E+03 -0.54443729887E+02  0.67556162154E+02  0.20929192929E+03  0.12699999809E+01 0.  1.
       -4    1    3    3    0  502 -0.19045614717E+03  0.54443729887E+02 -0.72273624361E+03  0.74939105576E+03  0.12699999809E+01 0. -1.
</event>
<event>
 5   0  0.1981750E-03  0.7004486E+03  0.7818609E-02  0.9716465E-01
       -4   -1    0    0    0  501  0.00000000000E+00  0.00000000000E+00  0.27773364564E+03  0.27773654931E+03  0.12699999809E+01 0. -1.
        4   -1    0    0  501    0  0.00000000000E+00  0.00000000000E+00 -0.44162942099E+03  0.44163124707E+03  0.12699999809E+01 0.  1.
    10030    2    1    2    0    0  0.00000000000E+00  0.00000000000E+00 -0.16389577535E+03  0.71936779638E+03  0.70044857148E+03 0.  0.
        2    1    3    3  502    0  0.95901113270E+02  0.26529796585E+03  0.13120810378E+03  0.31111991372E+03  0.25500000920E-02 0. -1.
       -2    1    3    3    0  502 -0.95901113270E+02 -0.26529796585E+03 -0.29510387913E+03  0.40824788266E+03  0.25500000920E-02 0.  1.
</event>
<event>
 5   0  0.1981750E-03  0.7002408E+03  0.7818609E-02  0.9716820E-01
        3   -1    0    0  501    0  0.00000000000E+00  0.00000000000E+00  0.30697299254E+03  0.30697300915E+03  0.10100000352E+00 0. -1.
       -3   -1    0    0    0  501  0.00000000000E+00  0.00000000000E+00 -0.39933248362E+03  0.39933249639E+03  0.10100000352E+00 0.  1.
    10030    2    1    2    0    0  0.00000000000E+00  0.00000000000E+00 -0.92359491076E+02  0.70630550554E+03  0.70024080970E+03 0.  0.
        2    1    3    3  502    0  0.98740622173E+02  0.25506219981E+03 -0.26665432766E+03  0.38198294033E+03  0.25500000920E-02 0.  1.
       -2    1    3    3    0  502 -0.98740622173E+02 -0.25506219981E+03  0.17429483658E+03  0.32432256521E+03  0.25500000920E-02 0. -1.
</event>
<event>
 5   0  0.5072407E-03  0.6983148E+03  0.7818609E-02  0.9720118E-01
        2   -1    0    0  501    0  0.00000000000E+00  0.00000000000E+00  0.68833823647E+03  0.68833823647E+03  0.25500000920E-02 0. -1.
       -2   -1    0    0    0  501  0.00000000000E+00  0.00000000000E+00 -0.17710900606E+03  0.17710900608E+03  0.25500000920E-02 0.  1.
    10030    2    1    2    0    0  0.00000000000E+00  0.00000000000E+00  0.51122923041E+03  0.86544724255E+03  0.69831483130E+03 0.  0.
        1    1    3    3  502    0  0.99573633494E+02 -0.32782864634E+03  0.17225255503E+03  0.38348073301E+03  0.50400001928E-02 0.  1.
       -1    1    3    3    0  502 -0.99573633494E+02  0.32782864634E+03  0.33897667538E+03  0.48196650954E+03  0.50400001928E-02 0. -1.
</event>
<event>
 5   0  0.5076796E-03  0.7005005E+03  0.7818609E-02  0.9716377E-01
        2   -1    0    0  501    0  0.00000000000E+00  0.00000000000E+00  0.63078345109E+03  0.63078345110E+03  0.25500000920E-02 0. -1.
       -2   -1    0    0    0  501  0.00000000000E+00  0.00000000000E+00 -0.19448077033E+03  0.19448077034E+03  0.25500000920E-02 0.  1.
    10030    2    1    2    0    0  0.00000000000E+00  0.00000000000E+00  0.43630268077E+03  0.82526422144E+03  0.70050053958E+03 0.  0.
        5    1    3    3  502    0 -0.73971140818E+02  0.28163932074E+03  0.44738532578E+03  0.53382408749E+03  0.46999998093E+01 0. -1.
       -5    1    3    3    0  502  0.73971140818E+02 -0.28163932074E+03 -0.11082645014E+02  0.29144013396E+03  0.46999998093E+01 0.  1.
</event>
<event>
 5   0  0.4878235E-03  0.7006706E+03  0.7818609E-02  0.9716086E-01
        2   -1    0    0  501    0  0.00000000000E+00  0.00000000000E+00  0.21173313674E+03  0.21173313675E+03  0.25500000920E-02 0.  1.
       -2   -1    0    0    0  501  0.00000000000E+00  0.00000000000E+00 -0.57966757269E+03  0.57966757269E+03  0.25500000920E-02 0. -1.
    10030    2    1    2    0    0  0.00000000000E+00  0.00000000000E+00 -0.36793443595E+03  0.79140070945E+03  0.70067063144E+03 0.  0.
        4    1    3    3  502    0  0.15790153792E+02 -0.29256388859E+03 -0.40090659795E+03  0.49655882939E+03  0.12699999809E+01 0. -1.
       -4    1    3    3    0  502 -0.15790153792E+02  0.29256388859E+03  0.32972162003E+02  0.29484188005E+03  0.12699999809E+01 0.  1.
</event>
<event>
 5   0  0.2937617E-03  0.7012615E+03  0.7818609E-02  0.9715077E-01
        1   -1    0    0  501    0  0.00000000000E+00  0.00000000000E+00  0.79955092196E+03  0.79955092198E+03  0.50400001928E-02 0.  1.
       -1   -1    0    0    0  501  0.00000000000E+00  0.00000000000E+00 -0.15376372163E+03  0.15376372171E+03  0.50400001928E-02 0. -1.
    10030    2    1    2    0    0  0.00000000000E+00  0.00000000000E+00  0.64578720033E+03  0.95331464369E+03  0.70126150740E+03 0.  0.
        3    1    3    3  502    0  0.35010539274E+03  0.11481942441E+02  0.30199665481E+03  0.46250147107E+03  0.10100000352E+00 0. -1.
       -3    1    3    3    0  502 -0.35010539274E+03 -0.11481942441E+02  0.34379054552E+03  0.49081317262E+03  0.10100000352E+00 0.  1.
</event>
<event>
 5   0  0.2937617E-03  0.7003319E+03  0.7818609E-02  0.9716665E-01
        1   -1    0    0  501    0  0.00000000000E+00  0.00000000000E+00  0.79040545086E+03  0.79040545087E+03  0.50400001928E-02 0.  1.
       -1   -1    0    0    0  501  0.00000000000E+00  0.00000000000E+00 -0.15513074113E+03  0.15513074121E+03  0.50400001928E-02 0. -1.
    10030    2    1    2    0    0  0.00000000000E+00  0.00000000000E+00  0.63527470973E+03  0.94553619208E+03  0.70033187398E+03 0.  0.
        3    1    3    3  502    0 -0.15479731618E+03 -0.31375213011E+03  0.29790680071E+03  0.45951178478E+03  0.10100000352E+00 0. -1.
       -3    1    3    3    0  502  0.15479731618E+03  0.31375213011E+03  0.33736790903E+03  0.48602440730E+03  0.10100000352E+00 0.  1.
</event>
<event>
 5   0  0.5113683E-03  0.6982815E+03  0.7818609E-02  0.9720176E-01
       -2   -1    0    0    0  501  0.00000000000E+00  0.00000000000E+00  0.13146211840E+03  0.13146211842E+03  0.25500000920E-02 0.  1.
        2   -1    0    0  501    0  0.00000000000E+00  0.00000000000E+00 -0.92725779199E+03  0.92725779199E+03  0.25500000920E-02 0. -1.
    10030    2    1    2    0    0  0.00000000000E+00  0.00000000000E+00 -0.79579567359E+03  0.10587199104E+04  0.69828152962E+03 0.  0.
        3    1    3    3  502    0 -0.56967242551E+02 -0.11012212989E+03 -0.89275584767E+03  0.90132411704E+03  0.10100000352E+00 0. -1.
       -3    1    3    3    0  502  0.56967242551E+02  0.11012212989E+03  0.96960174074E+02  0.15739579338E+03  0.10100000352E+00 0.  1.
</event>
<event>
 5   0  0.4878235E-03  0.7002297E+03  0.7818609E-02  0.9716839E-01
       -2   -1    0    0    0  501  0.00000000000E+00  0.00000000000E+00  0.27729874217E+03  0.27729874218E+03  0.25500000920E-02 0. -1.
        2   -1    0    0  501    0  0.00000000000E+00  0.00000000000E+00 -0.44205180730E+03  0.44205180731E+03  0.25500000920E-02 0.  1.
    10030    2    1    2    0    0  0.00000000000E+00  0.00000000000E+00 -0.16475306513E+03  0.71935054949E+03  0.70022970558E+03 0.  0.
        4    1    3    3  502    0 -0.29741172902E+03  0.37452725972E+02  0.10345624506E+03  0.31711393975E+03  0.12699999809E+01 0. -1.
       -4    1    3    3    0  502  0.29741172902E+03 -0.37452725972E+02 -0.26820931019E+03  0.40223660974E+03  0.12699999809E+01 0.  1.
</event>
<event>
 5   0  0.3013140E-03  0.7005263E+03  0.7818609E-02  0.9716333E-01
        1   -1    0    0  501    0  0.00000000000E+00  0.00000000000E+00  0.87134434649E+03  0.87134434650E+03  0.50400001928E-02 0. -1.
       -1   -1    0    0    0  501  0.00000000000E+00  0.00000000000E+00 -0.14079885782E+03  0.14079885792E+03  0.50400001928E-02 0.  1.
    10030    2    1    2    0    0  0.00000000000E+00  0.00000000000E+00  0.73054548867E+03  0.10121432044E+04  0.70052634158E+03 0.  0.
        2    1    3    3  502    0  0.43745346086E+02 -0.37262539954E+02 -0.13394172752E+03  0.14574820262E+03  0.25500000920E-02 0.  1.
       -2    1    3    3    0  502 -0.43745346086E+02  0.37262539954E+02  0.86448721619E+03  0.86639500180E+03  0.25500000920E-02 0. -1.
</event>
<event>
 5   0  0.2913582E-03  0.6998639E+03  0.7818609E-02  0.9717465E-01
       -1   -1    0    0    0  501  0.00000000000E+00  0.00000000000E+00  0.10775070303E+03  0.10775070315E+03  0.50400001928E-02 0.  1.
        1   -1    0    0  501    0  0.00000000000E+00  0.00000000000E+00 -0.11364413602E+04  0.11364413602E+04  0.50400001928E-02 0. -1.
    10030    2    1    2    0    0  0.00000000000E+00  0.00000000000E+00 -0.10286906572E+04  0.12441920634E+04  0.69986385991E+03 0.  0.
        1    1    3    3  502    0  0.23601968979E+03  0.21915733574E+03 -0.27112861525E+03  0.42100588810E+03  0.50400001928E-02 0.  1.
       -1    1    3    3    0  502 -0.23601968979E+03 -0.21915733574E+03 -0.75756204194E+03  0.82318617529E+03  0.50400001928E-02 0. -1.
</event>
<event>
 5   0  0.3013140E-03  0.6997228E+03  0.7818609E-02  0.9717706E-01
        1   -1    0    0  501    0  0.00000000000E+00  0.00000000000E+00  0.51344376409E+03  0.51344376411E+03  0.50400001928E-02 0.  1.
       -1   -1    0    0    0  501  0.00000000000E+00  0.00000000000E+00 -0.23839612024E+03  0.23839612029E+03  0.50400001928E-02 0. -1.
    10030    2    1    2    0    0  0.00000000000E+00  0.00000000000E+00  0.27504764385E+03  0.75183988441E+03  0.69972280612E+03 0.  0.
        2    1    3    3  502    0 -0.56071627576E+02 -0.20321251199E+03  0.43754050845E+03  0.48567586824E+03  0.25500000920E-02 0.  1.
       -2    1    3    3    0  502  0.56071627576E+02  0.20321251199E+03 -0.16249286460E+03  0.26616401617E+03  0.25500000920E-02 0. -1.
</event>
<event>
 5   0  0.1981750E-03  0.7009848E+03  0.7818609E-02  0.9715550E-01
       -3   -1    0    0    0  501  0.00000000000E+00  0.00000000000E+00  0.50077665013E+03  0.50077666032E+03  0.10100000352E+00 0.  1.
        3   -1    0    0  501    0  0.00000000000E+00  0.00000000000E+00 -0.24530878075E+03  0.24530880154E+03  0.10100000352E+00 0. -1.
    10030    2    1    2    0    0  0.00000000000E+00  0.00000000000E+00  0.25546786938E+03  0.74608546186E+03  0.70098479592E+03 0.  0.
        4    1    3    3  502    0  0.16447811707E+03 -0.63047197230E+02  0.45023973279E+03  0.48347226389E+03  0.12699999809E+01 0.  1.
       -4    1    3    3    0  502 -0.16447811707E+03  0.63047197230E+02 -0.19477186340E+03  0.26261319797E+03  0.12699999809E+01 0. -1.
</event>
<event>
 5   0  0.4878235E-03  0.6991008E+03  0.7818609E-02  0.9718771E-01
       -2   -1    0    0    0  501  0.00000000000E+00  0.00000000000E+00  0.20907001207E+03  0.20907001209E+03  0.25500000920E-02 0. -1.
        2   -1    0    0  501    0  0.00000000000E+00  0.00000000000E+00 -0.58442382952E+03  0.58442382952E+03  0.25500000920E-02 0.  1.
    10030    2    1    2    0    0  0.00000000000E+00  0.00000000000E+00 -0.37535381745E+03  0.79349384161E+03  0.69910084280E+03 0.  0.
        4    1    3    3  502    0  0.59926324562E+02 -0.24035313396E+02 -0.57759410001E+03  0.58119309866E+03  0.12699999809E+01 0.  1.
       -4    1    3    3    0  502 -0.59926324562E+02  0.24035313396E+02  0.20224028256E+03  0.21230074295E+03  0.12699999809E+01 0. -1.
</event>
<event>
 5   0  0.4878235E-03  0.6999660E+03  0.7818609E-02  0.9717290E-01
        2   -1    0    0  501    0  0.00000000000E+00  0.00000000000E+00  0.19707792086E+03  0.19707792087E+03  0.25500000920E-02 0.  1.
       -2   -1    0    0    0  501  0.00000000000E+00  0.00000000000E+00 -0.62152116336E+03  0.62152116336E+03  0.25500000920E-02 0. -1.
    10030    2    1    2    0    0  0.00000000000E+00  0.00000000000E+00 -0.42444324250E+03  0.81859908423E+03  0.69996599532E+03 0.  0.
        4    1    3    3  502    0 -0.13174341514E+03 -0.30924533778E+03 -0.32619370587E+03  0.46839401471E+03  0.12699999809E+01 0.  1.
       -4    1    3    3    0  502  0.13174341514E+03  0.30924533778E+03 -0.98249536633E+02  0.35020506952E+03  0.12699999809E+01 0. -1.
</event>
<event>
 5   0  0.5076796E-03  0.7002704E+03  0.7818609E-02  0.9716770E-01
       -2   -1    0    0    0  501  0.00000000000E+00  0.00000000000E+00  0.23151733605E+03  0.23151733607E+03  0.25500000920E-02 0. -1.
        2   -1    0    0  501    0  0.00000000000E+00  0.00000000000E+00 -0.52952695299E+03  0.52952695300E+03  0.25500000920E-02 0.  1.
    10030    2    1    2    0    0  0.00000000000E+00  0.00000000000E+00 -0.29800961694E+03  0.76104428906E+03  0.70027043214E+03 0.  0.
        5    1    3    3  502    0 -0.89639310530E+02 -0.20602452137E+03  0.14279532124E+03  0.26625909029E+03  0.46999998093E+01 0. -1.
       -5    1    3    3    0  502  0.89639310530E+02  0.20602452137E+03 -0.44080493818E+03  0.49478519877E+03  0.46999998093E+01 0.  1.
</event>
<event>
 5   0  0.1981750E-03  0.6996799E+03  0.7818609E-02  0.9717780E-01
       -3   -1    0    0    0  501  0.00000000000E+00  0.00000000000E+00  0.17938407420E+04  0.17938407448E+04  0.10100000352E+00 0.  1.
        3   -1    0    0  501    0  0.00000000000E+00  0.00000000000E+00 -0.68226753196E+02  0.68226827954E+02  0.10100000352E+00 0. -1.
    10030    2    1    2    0    0  0.00000000000E+00  0.00000000000E+00  0.17256139888E+04  0.18620675727E+04  0.69967993204E+03 0.  0.
        1    1    3    3  502    0 -0.25640841040E+02  0.17871377647E+03  0.65336387188E+02  0.19200237015E+03  0.50400001928E-02 0. -1.
       -1    1    3    3    0  502  0.25640841040E+02 -0.17871377647E+03  0.16602776016E+04  0.16700652026E+04  0.50400001928E-02 0.  1.
</event>
<event>
 5   0  0.2937617E-03  0.6996512E+03  0.7818609E-02  0.9717829E-01
       -1   -1    0    0    0  501  0.00000000000E+00  0.00000000000E+00  0.15356349799E+03  0.15356349807E+03  0.50400001928E-02 0. -1.
        1   -1    0    0  501    0  0.00000000000E+00  0.00000000000E+00 -0.79692072648E+03  0.79692072650E+03  0.50400001928E-02 0.  1.
    10030    2    1    2    0    0  0.00000000000E+00  0.00000000000E+00 -0.64335722849E+03  0.95048422457E+03  0.69965115430E+03 0.  0.
        3    1    3    3  502    0 -0.15712275025E+03  0.31168800208E+03 -0.35327547264E+03  0.49662917661E+03  0.10100000352E+00 0.  1.
       -3    1    3    3    0  502  0.15712275025E+03 -0.31168800208E+03 -0.29008175585E+03  0.45385504796E+03  0.10100000352E+00 0. -1.
</event>
<event>
 5   0  0.3013140E-03  0.7004306E+03  0.7818609E-02  0.9716496E-01
        1   -1    0    0  501    0  0.00000000000E+00  0.00000000000E+00  0.37767456417E+03  0.37767456420E+03  0.50400001928E-02 0. -1.
       -1   -1    0    0    0  501  0.00000000000E+00  0.00000000000E+00 -0.32475250604E+03  0.32475250608E+03  0.50400001928E-02 0.  1.
    10030    2    1    2    0    0  0.00000000000E+00  0.00000000000E+00  0.52922058131E+02  0.70242707028E+03  0.70043061385E+03 0.  0.
        2    1    3    3  502    0  0.24027389306E+03  0.24339481027E+03 -0.49107478538E+02  0.34552007439E+03  0.25500000920E-02 0.  1.
       -2    1    3    3    0  502 -0.24027389306E+03 -0.24339481027E+03  0.10202953667E+03  0.35690699589E+03  0.25500000920E-02 0. -1.
</event>
<event>
 5   0  0.5072407E-03  0.6997247E+03  0.7818609E-02  0.9717703E-01
        2   -1    0    0  501    0  0.00000000000E+00  0.00000000000E+00  0.23248804151E+04  0.23248804151E+04  0.25500000920E-02 0.  1.
       -2   -1    0    0    0  501  0.00000000000E+00  0.00000000000E+00 -0.52649446393E+02  0.52649446455E+02  0.25500000920E-02 0. -1.
    10030    2    1    2    0    0  0.00000000000E+00  0.00000000000E+00  0.22722309687E+04  0.23775298615E+04  0.69972470833E+03 0.  0.
        1    1    3    3  502    0 -0.27460940059E+03  0.13959626308E+03  0.16996419071E+04  0.17273332197E+04  0.50400001928E-02 0. -1.
       -1    1    3    3    0  502  0.27460940059E+03 -0.13959626308E+03  0.57258906161E+03  0.65019664184E+03  0.50400001928E-02 0.  1.
</event>
<event>
 5   0  0.2938783E-03  0.6979979E+03  0.7818609E-02  0.9720662E-01
       -1   -1    0    0    0  501  0.00000000000E+00  0.00000000000E+00  0.92283294567E+03  0.92283294568E+03  0.50400001928E-02 0. -1.
        1   -1    0    0  501    0  0.00000000000E+00  0.00000000000E+00 -0.13198516176E+03  0.13198516186E+03  0.50400001928E-02 0.  1.
    10030    2    1    2    0    0  0.00000000000E+00  0.00000000000E+00  0.79084778391E+03  0.10548181075E+04  0.69799786725E+03 0.  0.
        4    1    3    3  502    0 -0.26970027743E+03 -0.14384543214E+03  0.64995723943E+03  0.71824492618E+03  0.12699999809E+01 0. -1.
       -4    1    3    3    0  502  0.26970027743E+03  0.14384543214E+03  0.14089054448E+03  0.33657318137E+03  0.12699999809E+01 0.  1.
</event>
<event>
 5   0  0.4878235E-03  0.6999345E+03  0.7818609E-02  0.9717344E-01
        2   -1    0    0  501    0  0.00000000000E+00  0.00000000000E+00  0.19418701152E+03  0.19418701153E+03  0.25500000920E-02 0. -1.
       -2   -1    0    0    0  501  0.00000000000E+00  0.00000000000E+00 -0.63071718661E+03  0.63071718661E+03  0.25500000920E-02 0.  1.
    10030    2    1    2    0    0  0.00000000000E+00  0.00000000000E+00 -0.43653017509E+03  0.82490419814E+03  0.69993452719E+03 0.  0.
        4    1    3    3  502    0 -0.12809508835E+02  0.25156399423E+03  0.68067813364E+02  0.26092789584E+03  0.12699999809E+01 0. -1.
       -4    1    3    3    0  502  0.12809508835E+02 -0.25156399423E+03 -0.50459798846E+03  0.56397630231E+03  0.12699999809E+01 0.  1.
</event>
<event>
 5   0  0.2934483E-03  0.6987178E+03  0.7818609E-02  0.9719427E-01
       -1   -1    0    0    0  501  0.00000000000E+00  0.00000000000E+00  0.17012059563E+03  0.17012059570E+03  0.50400001928E-02 0.  1.
        1   -1    0    0  501    0  0.00000000000E+00  0.00000000000E+00 -0.71744196909E+03  0.71744196911E+03  0.50400001928E-02 0. -1.
    10030    2    1    2    0    0  0.00000000000E+00  0.00000000000E+00 -0.54732137346E+03  0.88756256481E+03  0.69871784048E+03 0.  0.
        5    1    3    3  502    0 -0.25595648447E+03  0.22757848024E+03 -0.18635420136E+03  0.38994315608E+03  0.46999998093E+01 0.  1.
       -5    1    3    3    0  502  0.25595648447E+03 -0.22757848024E+03 -0.36096717210E+03  0.49761940873E+03  0.46999998093E+01 0. -1.
</event>
<event>
 5   0  0.5023894E-03  0.7003955E+03  0.7818609E-02  0.9716556E-01
       -2   -1    0    0    0  501  0.00000000000E+00  0.00000000000E+00  0.20083533297E+03  0.20083533299E+03  0.25500000920E-02 0. -1.
        2   -1    0    0  501    0  0.00000000000E+00  0.00000000000E+00 -0.61064183003E+03  0.61064183003E+03  0.25500000920E-02 0.  1.
    10030    2    1    2    0    0  0.00000000000E+00  0.00000000000E+00 -0.40980649705E+03  0.81147716302E+03  0.70039547477E+03 0.  0.
        2    1    3    3  502    0 -0.19711837959E+03  0.52491250929E+01  0.13040094189E+03  0.23640561444E+03  0.25500000920E-02 0. -1.
       -2    1    3    3    0  502  0.19711837959E+03 -0.52491250929E+01 -0.54020743894E+03  0.57507154858E+03  0.25500000920E-02 0.  1.
</event>
<event>
 5   0  0.2938783E-03  0.6999930E+03  0.7818609E-02  0.9717244E-01
       -1   -1    0    0    0  501  0.00000000000E+00  0.00000000000E+00  0.46705168436E+03  0.46705168439E+03  0.50400001928E-02 0. -1.
        1   -1    0    0  501    0  0.00000000000E+00  0.00000000000E+00 -0.26227836470E+03  0.26227836475E+03  0.50400001928E-02 0.  1.
    10030    2    1    2    0    0  0.00000000000E+00  0.00000000000E+00  0.20477331966E+03  0.72933004913E+03  0.69999300577E+03 0.  0.
        4    1    3    3  502    0  0.27950741319E+03  0.21061445731E+03  0.98616229100E+02  0.36360640424E+03  0.12699999809E+01 0. -1.
       -4    1    3    3    0  502 -0.27950741319E+03 -0.21061445731E+03  0.10615709056E+03  0.36572364490E+03  0.12699999809E+01 0.  1.
</event>
<event>
 5   0  0.4878235E-03  0.6978354E+03  0.7818609E-02  0.9720941E-01
        2   -1    0    0  501    0  0.00000000000E+00  0.00000000000E+00  0.23463841257E+03  0.23463841259E+03  0.25500000920E-02 0. -1.
       -2   -1    0    0    0  501  0.00000000000E+00  0.00000000000E+00 -0.51885602190E+03  0.51885602190E+03  0.25500000920E-02 0.  1.
    10030    2    1    2    0    0  0.00000000000E+00  0.00000000000E+00 -0.28421760932E+03  0.75349443449E+03  0.69783537697E+03 0.  0.
        4    1    3    3  502    0  0.10282509893E+03 -0.33289624032E+03 -0.12193628753E+03  0.36913815693E+03  0.12699999809E+01 0. -1.
       -4    1    3    3    0  502 -0.10282509893E+03  0.33289624032E+03 -0.16228132180E+03  0.38435627755E+03  0.12699999809E+01 0.  1.
</event>
<event>
 5   0  0.2937617E-03  0.7004198E+03  0.7818609E-02  0.9716515E-01
        1   -1    0    0  501    0  0.00000000000E+00  0.00000000000E+00  0.45043229593E+03  0.45043229596E+03  0.50400001928E-02 0.  1.
       -1   -1    0    0    0  501  0.00000000000E+00  0.00000000000E+00 -0.27228724398E+03  0.27228724403E+03  0.50400001928E-02 0. -1.
    10030    2    1    2    0    0  0.00000000000E+00  0.00000000000E+00  0.17814505195E+03  0.72271953999E+03  0.70041978409E+03 0.  0.
        3    1    3    3  502    0  0.22403921671E+03 -0.26686096015E+03  0.12538699240E+03  0.37031101892E+03  0.10100000352E+00 0.  1.
       -3    1    3    3    0  502 -0.22403921671E+03  0.26686096015E+03  0.52758059550E+02  0.35240852107E+03  0.10100000352E+00 0. -1.
</event>
<event>
 5   0  0.5076796E-03  0.6999016E+03  0.7818609E-02  0.9717400E-01
       -2   -1    0    0    0  501  0.00000000000E+00  0.00000000000E+00  0.60057726835E+03  0.60057726836E+03  0.25500000920E-02 0. -1.
        2   -1    0    0  501    0  0.00000000000E+00  0.00000000000E+00 -0.20391310695E+03  0.20391310697E+03  0.25500000920E-02 0.  1.
    10030    2    1    2    0    0  0.00000000000E+00  0.00000000000E+00  0.39666416140E+03  0.80449037533E+03  0.69990164099E+03 0.  0.
        5    1    3    3  502    0  0.14025988249E+03  0.30228038296E+03  0.75621122112E+02  0.34174099647E+03  0.46999998093E+01 0.  1.
       -5    1    3    3    0  502 -0.14025988249E+03 -0.30228038296E+03  0.32104303929E+03  0.46274937886E+03  0.46999998093E+01 0. -1.
</event>
<event>
 5   0  0.5076796E-03  0.6997218E+03  0.7818609E-02  0.9717708E-01
       -2   -1    0    0    0  501  0.00000000000E+00  0.00000000000E+00  0.40471907743E+03  0.40471907744E+03  0.25500000920E-02 0. -1.
        2   -1    0    0  501    0  0.00000000000E+00  0.00000000000E+00 -0.30243852205E+03  0.30243852206E+03  0.25500000920E-02 0.  1.
    10030    2    1    2    0    0  0.00000000000E+00  0.00000000000E+00  0.10228055537E+03  0.70715759950E+03  0.69972177222E+03 0.  0.
        5    1    3    3  502    0 -0.34743584258E+03 -0.96010945120E+01  0.91269976220E+02  0.35938300500E+03  0.46999998093E+01 0. -1.
       -5    1    3    3    0  502  0.34743584258E+03  0.96010945120E+01  0.11010579153E+02  0.34777459450E+03  0.46999998093E+01 0.  1.
</event>
<event>
 5   0  0.5072407E-03  0.7009759E+03  0.7818609E-02  0.9715565E-01
       -2   -1    0    0    0  501  0.00000000000E+00  0.00000000000E+00  0.15194778314E+03  0.15194778316E+03  0.25500000920E-02 0. -1.
        2   -1    0    0  501    0  0.00000000000E+00  0.00000000000E+00 -0.80844757041E+03  0.80844757041E+03  0.25500000920E-02 0.  1.
    10030    2    1    2    0    0  0.00000000000E+00  0.00000000000E+00 -0.65649978727E+03  0.96039535358E+03  0.70097593717E+03 0.  0.
        1    1    3    3  502    0 -0.31483860358E+02 -0.24488043457E+03 -0.66907899881E+03  0.71317905702E+03  0.50400001928E-02 0.  1.
       -1    1    3    3    0  502  0.31483860358E+02  0.24488043457E+03  0.12579211538E+02  0.24721629656E+03  0.50400001928E-02 0. -1.
</event>
<event>
 5   0  0.3013140E-03  0.6936776E+03  0.7818609E-02  0.9728106E-01
        1   -1    0    0  501    0  0.00000000000E+00  0.00000000000E+00  0.16549616036E+04  0.16549616037E+04  0.50400001928E-02 0.  1.
       -1   -1    0    0    0  501  0.00000000000E+00  0.00000000000E+00 -0.72688789957E+02  0.72688790132E+02  0.50400001928E-02 0. -1.
    10030    2    1    2    0    0  0.00000000000E+00  0.00000000000E+00  0.15822728137E+04  0.17276503938E+04  0.69367760971E+03 0.  0.
        2    1    3    3  502    0  0.96401648820E+02  0.48509225440E+02  0.16120822695E+04  0.16156904612E+04  0.25500000920E-02 0.  1.
       -2    1    3    3    0  502 -0.96401648820E+02 -0.48509225440E+02 -0.29809455772E+02  0.11195993260E+03  0.25500000920E-02 0. -1.
</event>
<event>
 5   0  0.2937617E-03  0.7007389E+03  0.7818609E-02  0.9715969E-01
        1   -1    0    0  501    0  0.00000000000E+00  0.00000000000E+00  0.20797918422E+04  0.20797918422E+04  0.50400001928E-02 0.  1.
       -1   -1    0    0    0  501  0.00000000000E+00  0.00000000000E+00 -0.59024534615E+02  0.59024534830E+02  0.50400001928E-02 0. -1.
    10030    2    1    2    0    0  0.00000000000E+00  0.00000000000E+00  0.20207673076E+04  0.21388163770E+04  0.70073888380E+03 0.  0.
        3    1    3    3  502    0  0.30706245741E+02 -0.33457797349E+03  0.13136690983E+04  0.13559542042E+04  0.10100000352E+00 0.  1.
       -3    1    3    3    0  502 -0.30706245741E+02  0.33457797349E+03  0.70709820929E+03  0.78286217283E+03  0.10100000352E+00 0. -1.
</event>
<event>
 5   0  0.2913582E-03  0.6995511E+03  0.7818609E-02  0.9718000E-01
        1   -1    0    0  501    0  0.00000000000E+00  0.00000000000E+00  0.15000048665E+03  0.15000048674E+03  0.50400001928E-02 0.  1.
       -1   -1    0    0    0  501  0.00000000000E+00  0.00000000000E+00 -0.81561685054E+03  0.81561685055E+03  0.50400001928E-02 0. -1.
    10030    2    1    2    0    0  0.00000000000E+00  0.00000000000E+00 -0.66561636389E+03  0.96561733729E+03  0.69955106904E+03 0.  0.
        1    1    3    3  502    0  0.50428623118E+01 -0.51965671213E+02 -0.81020794343E+03  0.81188839939E+03  0.50400001928E-02 0. -1.
       -1    1    3    3    0  502 -0.50428623118E+01  0.51965671213E+02  0.14459157955E+03  0.15372893789E+03  0.50400001928E-02 0.  1.
</event>
<event>
 5   0  0.4878235E-03  0.7004394E+03  0.7818609E-02  0.9716481E-01
        2   -1    0    0  501    0  0.00000000000E+00  0.00000000000E+00  0.16382563042E+04  0.16382563042E+04  0.25500000920E-02 0. -1.
       -2   -1    0    0    0  501  0.00000000000E+00  0.00000000000E+00 -0.74868531813E+02  0.74868531856E+02  0.25500000920E-02 0.  1.
    10030    2    1    2    0    0  0.00000000000E+00  0.00000000000E+00  0.15633877724E+04  0.17131248360E+04  0.70043941712E+03 0.  0.
        4    1    3    3  502    0  0.98794100975E+02  0.25463197181E+03  0.13178429311E+04  0.13458489214E+04  0.12699999809E+01 0. -1.
       -4    1    3    3    0  502 -0.98794100975E+02 -0.25463197181E+03  0.24554484129E+03  0.36727591459E+03  0.12699999809E+01 0.  1.
</event>
<event>
 5   0  0.2934483E-03  0.6994804E+03  0.7818609E-02  0.9718121E-01
       -1   -1    0    0    0  501  0.00000000000E+00  0.00000000000E+00  0.82598222426E+02  0.82598222580E+02  0.50400001928E-02 0.  1.
        1   -1    0    0  501    0  0.00000000000E+00  0.00000000000E+00 -0.14808816680E+04  0.14808816680E+04  0.50400001928E-02 0. -1.
    10030    2    1    2    0    0  0.00000000000E+00  0.00000000000E+00 -0.13982834456E+04  0.15634798906E+04  0.69948036007E+03 0.  0.
        5    1    3    3  502    0  0.89844537456E+02  0.32476357472E+03 -0.90825777839E+03  0.96876091084E+03  0.46999998093E+01 0. -1.
       -5    1    3    3    0  502 -0.89844537456E+02 -0.32476357472E+03 -0.49002566722E+03  0.59471897978E+03  0.46999998093E+01 0.  1.
</event>
<event>
 5   0  0.2938783E-03  0.6989559E+03  0.7818609E-02  0.9719019E-01
        1   -1    0    0  501    0  0.00000000000E+00  0.00000000000E+00  0.51507080070E+03  0.51507080073E+03  0.50400001928E-02 0. -1.
       -1   -1    0    0    0  501  0.00000000000E+00  0.00000000000E+00 -0.23712241748E+03  0.23712241753E+03  0.50400001928E-02 0.  1.
    10030    2    1    2    0    0  0.00000000000E+00  0.00000000000E+00  0.27794838322E+03  0.75219321826E+03  0.69895588835E+03 0.  0.
        4    1    3    3  502    0  0.16087206693E+03 -0.24251274494E+03  0.34720892688E+03  0.45304293967E+03  0.12699999809E+01 0. -1.
       -4    1    3    3    0  502 -0.16087206693E+03  0.24251274494E+03 -0.69260543658E+02  0.29915027859E+03  0.12699999809E+01 0.  1.
</event>
<event>
 5   0  0.3013140E-03  0.6999142E+03  0.7818609E-02  0.9717379E-01
        1   -1    0    0  501    0  0.00000000000E+00  0.00000000000E+00  0.16360635550E+04  0.16360635550E+04  0.50400001928E-02 0.  1.
       -1   -1    0    0    0  501  0.00000000000E+00  0.00000000000E+00 -0.74856495649E+02  0.74856495818E+02  0.50400001928E-02 0. -1.
    10030    2    1    2    0    0  0.00000000000E+00  0.00000000000E+00  0.15612070593E+04  0.17109200508E+04  0.69991423628E+03 0.  0.
        2    1    3    3  502    0 -0.52888967955E+02  0.61338786399E+01 -0.64897670427E+02  0.83943880253E+02  0.25500000920E-02 0. -1.
       -2    1    3    3    0  502  0.52888967955E+02 -0.61338786399E+01  0.16261047298E+04  0.16269761705E+04  0.25500000920E-02 0.  1.
</event>
<event>
 5   0  0.5113683E-03  0.7005947E+03  0.7818609E-02  0.9716216E-01
       -2   -1    0    0    0  501  0.00000000000E+00  0.00000000000E+00  0.38897970580E+03  0.38897970581E+03  0.25500000920E-02 0. -1.
        2   -1    0    0  501    0  0.00000000000E+00  0.00000000000E+00 -0.31546180487E+03  0.31546180488E+03  0.25500000920E-02 0.  1.
    10030    2    1    2    0    0  0.00000000000E+00  0.00000000000E+00  0.73517900936E+02  0.70444151069E+03  0.70059471895E+03 0.  0.
        3    1    3    3  502    0  0.24944101694E+03 -0.15433947124E+03 -0.15577805347E+03  0.33212694178E+03  0.10100000352E+00 0.  1.
       -3    1    3    3    0  502 -0.24944101694E+03  0.15433947124E+03  0.22929595440E+03  0.37231456891E+03  0.10100000352E+00 0. -1.
</event>
<event>
 5   0  0.4878235E-03  0.7000770E+03  0.7818609E-02  0.9717101E-01
       -2   -1    0    0    0  501  0.00000000000E+00  0.00000000000E+00  0.14409151479E+03  0.14409151482E+03  0.25500000920E-02 0. -1.
        2   -1    0    0  501    0  0.00000000000E+00  0.00000000000E+00 -0.85034120566E+03  0.85034120567E+03  0.25500000920E-02 0.  1.
    10030    2    1    2    0    0  0.00000000000E+00  0.00000000000E+00 -0.70624969087E+03  0.99443272048E+03  0.70007700271E+03 0.  0.
        4    1    3    3  502    0  0.11455884584E+03  0.18580960869E+03  0.35563994431E+02  0.22116814970E+03  0.12699999809E+01 0. -1.
       -4    1    3    3    0  502 -0.11455884584E+03 -0.18580960869E+03 -0.74181368530E+03  0.77326457079E+03  0.12699999809E+01 0.  1.
</event>
<event>
 5   0  0.5072407E-03  0.7028295E+03  0.7818609E-02  0.9712406E-01
        2   -1    0    0  501    0  0.00000000000E+00  0.00000000000E+00  0.32705573171E+03  0.32705573172E+03  0.25500000920E-02 0. -1.
       -2   -1    0    0    0  501  0.00000000000E+00  0.00000000000E+00 -0.37758799828E+03  0.37758799829E+03  0.25500000920E-02 0.  1.
    10030    2    1    2    0    0  0.00000000000E+00  0.00000000000E+00 -0.50532266571E+02  0.70464373001E+03  0.70282947880E+03 0.  0.
        1    1    3    3  502    0  0.27635567596E+03 -0.17000084571E+03  0.11006219182E+03  0.34261703587E+03  0.50400001928E-02 0.  1.
       -1    1    3    3    0  502 -0.27635567596E+03  0.17000084571E+03 -0.16059445839E+03  0.36202669414E+03  0.50400001928E-02 0. -1.
</event>
<event>
 5   0  0.5113683E-03  0.7000924E+03  0.7818609E-02  0.9717074E-01
        2   -1    0    0  501    0  0.00000000000E+00  0.00000000000E+00  0.21156462811E+03  0.21156462812E+03  0.25500000920E-02 0.  1.
       -2   -1    0    0    0  501  0.00000000000E+00  0.00000000000E+00 -0.57917223455E+03  0.57917223456E+03  0.25500000920E-02 0. -1.
    10030    2    1    2    0    0  0.00000000000E+00  0.00000000000E+00 -0.36760760644E+03  0.79073686268E+03  0.70009244653E+03 0.  0.
        3    1    3    3  502    0  0.14376961806E+03  0.29230680563E+03 -0.39075015503E+02  0.32808510898E+03  0.10100000352E+00 0.  1.
       -3    1    3    3    0  502 -0.14376961806E+03 -0.29230680563E+03 -0.32853259094E+03  0.46265175371E+03  0.10100000352E+00 0. -1.
</event>
<event>
 5   0  0.2934483E-03  0.6995174E+03  0.7818609E-02  0.9718058E-01
       -1   -1    0    0    0  501  0.00000000000E+00  0.00000000000E+00  0.19449400477E+03  0.19449400483E+03  0.50400001928E-02 0.  1.
        1   -1    0    0  501    0  0.00000000000E+00  0.00000000000E+00 -0.62897131414E+03  0.62897131416E+03  0.50400001928E-02 0. -1.
    10030    2    1    2    0    0  0.00000000000E+00  0.00000000000E+00 -0.43447730938E+03  0.82346531899E+03  0.69951740452E+03 0.  0.
        5    1    3    3  502    0  0.11311289124E+03  0.17822570363E+03  0.11100576887E+03  0.23854412238E+03  0.46999998093E+01 0.  1.
       -5    1    3    3    0  502 -0.11311289124E+03 -0.17822570363E+03 -0.54548307825E+03  0.58492119662E+03  0.46999998093E+01 0. -1.
</event>
<event>
 5   0  0.2938783E-03  0.7005976E+03  0.7818609E-02  0.9716211E-01
        1   -1    0    0  501    0  0.00000000000E+00  0.00000000000E+00  0.25847967776E+03  0.25847967780E+03  0.50400001928E-02 0.  1.
       -1   -1    0    0    0  501  0.00000000000E+00  0.00000000000E+00 -0.47473455388E+03  0.47473455390E+03  0.50400001928E-02 0. -1.
    10030    2    1    2    0    0  0.00000000000E+00  0.00000000000E+00 -0.21625487612E+03  0.73321423171E+03  0.70059755790E+03 0.  0.
        4    1    3    3  502    0  0.31877839175E+03 -0.46961486134E+02 -0.25193870215E+03  0.40902294162E+03  0.12699999809E+01 0. -1.
       -4    1    3    3    0  502 -0.31877839175E+03  0.46961486134E+02  0.35683826027E+02  0.32419129009E+03  0.12699999809E+01 0.  1.
</event>
<event>
 5   0  0.2937617E-03  0.7002606E+03  0.7818609E-02  0.9716787E-01
        1   -1    0    0  501    0  0.00000000000E+00  0.00000000000E+00  0.90446672609E+03  0.90446672611E+03  0.50400001928E-02 0. -1.
       -1   -1    0    0    0  501  0.00000000000E+00  0.00000000000E+00 -0.13553977301E+03  0.13553977311E+03  0.50400001928E-02 0.  1.
    10030    2    1    2    0    0  0.00000000000E+00  0.00000000000E+00  0.76892695308E+03  0.10400064992E+04  0.70026056524E+03 0.  0.
        3    1    3    3  502    0  0.28098723722E+02  0.34246815293E+03  0.48428231503E+03  0.59380413008E+03  0.10100000352E+00 0.  1.
       -3    1    3    3    0  502 -0.28098723722E+02 -0.34246815293E+03  0.28464463805E+03  0.44620236914E+03  0.10100000352E+00 0. -1.
</event>
<event>
 5   0  0.2913582E-03  0.7003641E+03  0.7818609E-02  0.9716610E-01
        1   -1    0    0  501    0  0.00000000000E+00  0.00000000000E+00  0.20513431668E+03  0.20513431675E+03  0.50400001928E-02 0.  1.
       -1   -1    0    0    0  501  0.00000000000E+00  0.00000000000E+00 -0.59779111332E+03  0.59779111334E+03  0.50400001928E-02 0. -1.
    10030    2    1    2    0    0  0.00000000000E+00  0.00000000000E+00 -0.39265679663E+03  0.80292543008E+03  0.70036410983E+03 0.  0.
        1    1    3    3  502    0 -0.54770678194E+02 -0.44652543850E+02  0.19687510984E+03  0.20917333903E+03  0.50400001928E-02 0.  1.
       -1    1    3    3    0  502  0.54770678194E+02  0.44652543850E+02 -0.58953190647E+03  0.59375209105E+03  0.50400001928E-02 0. -1.
</event>
<event>
 5   0  0.4878235E-03  0.6966606E+03  0.7818609E-02  0.9722960E-01
        2   -1    0    0  501    0  0.00000000000E+00  0.00000000000E+00  0.53821486777E+03  0.53821486778E+03  0.25500000920E-02 0.  1.
       -2   -1    0    0    0  501  0.00000000000E+00  0.00000000000E+00 -0.22543786522E+03  0.22543786523E+03  0.25500000920E-02 0. -1.
    10030    2    1    2    0    0  0.00000000000E+00  0.00000000000E+00  0.31277700256E+03  0.76365273301E+03  0.69666063712E+03 0.  0.
        4    1    3    3  502    0 -0.30010139725E+03  0.15784104730E+03  0.68985475734E+02  0.34602782201E+03  0.12699999809E+01 0.  1.
       -4    1    3    3    0  502  0.30010139725E+03 -0.15784104730E+03  0.24379152682E+03  0.41762491101E+03  0.12699999809E+01 0. -1.
</event>
<event>
 5   0  0.5072407E-03  0.7002333E+03  0.7818609E-02  0.9716833E-01
        2   -1    0    0  501    0  0.00000000000E+00  0.00000000000E+00  0.60395954961E+03  0.60395954962E+03  0.25500000920E-02 0.  1.
       -2   -1    0    0    0  501  0.00000000000E+00  0.00000000000E+00 -0.20296338611E+03  0.20296338613E+03  0.25500000920E-02 0. -1.
    10030    2    1    2    0    0  0.00000000000E+00  0.00000000000E+00  0.40099616350E+03  0.80692293575E+03  0.70023331904E+03 0.  0.
        1    1    3    3  502    0 -0.44078045679E+02  0.47974612992E+02  0.59691301078E+03  0.60045780873E+03  0.50400001928E-02 0.  1.
       -1    1    3    3    0  502  0.44078045679E+02 -0.47974612992E+02 -0.19591684728E+03  0.20646512702E+03  0.50400001928E-02 0. -1.
</event>
<event>
 5   0  0.5023894E-03  0.6990574E+03  0.7818609E-02  0.9718846E-01
        2   -1    0    0  501    0  0.00000000000E+00  0.00000000000E+00  0.11694634183E+03  0.11694634186E+03  0.25500000920E-02 0. -1.
       -2   -1    0    0    0  501  0.00000000000E+00  0.00000000000E+00 -0.10446698230E+04  0.10446698230E+04  0.25500000920E-02 0.  1.
    10030    2    1    2    0    0  0.00000000000E+00  0.00000000000E+00 -0.92772348116E+03  0.11616161649E+04  0.69905740604E+03 0.  0.
        2    1    3    3  502    0 -0.13594416574E+03 -0.16312516937E+03 -0.92520029378E+03  0.94925561400E+03  0.25500000920E-02 0.  1.
       -2    1    3    3    0  502  0.13594416574E+03  0.16312516937E+03 -0.25231873809E+01  0.21236055086E+03  0.25500000920E-02 0. -1.
</event>
<event>
 5   0  0.2937617E-03  0.6995621E+03  0.7818609E-02  0.9717981E-01
       -1   -1    0    0    0  501  0.00000000000E+00  0.00000000000E+00  0.77171652639E+02  0.77171652804E+02  0.50400001928E-02 0.  1.
        1   -1    0    0  501    0  0.00000000000E+00  0.00000000000E+00 -0.15853848622E+04  0.15853848622E+04  0.50400001928E-02 0. -1.
    10030    2    1    2    0    0  0.00000000000E+00  0.00000000000E+00 -0.15082132096E+04  0.16625565150E+04  0.69956206309E+03 0.  0.
        3    1    3    3  502    0 -0.28523474032E+03  0.77925179981E+02 -0.11981850866E+04  0.12341307479E+04  0.10100000352E+00 0. -1.
       -3    1    3    3    0  502  0.28523474032E+03 -0.77925179981E+02 -0.31002812294E+03  0.42842576717E+03  0.10100000352E+00 0.  1.
</event>
<event>
 5   0  0.5113683E-03  0.7001693E+03  0.7818609E-02  0.9716943E-01
        2   -1    0    0  501    0  0.00000000000E+00  0.00000000000E+00  0.15369675251E+04  0.15369675251E+04  0.25500000920E-02 0. -1.
       -2   -1    0    0    0  501  0.00000000000E+00  0.00000000000E+00 -0.79740958042E+02  0.79740958083E+02  0.25500000920E-02 0.  1.
    10030    2    1    2    0    0  0.00000000000E+00  0.00000000000E+00  0.14572265670E+04  0.16167084832E+04  0.70016930228E+03 0.  0.
        3    1    3    3  502    0  0.48205720998E+02  0.30778070150E+03  0.35984454793E+03  0.47596308746E+03  0.10100000352E+00 0.  1.
       -3    1    3    3    0  502 -0.48205720998E+02 -0.30778070150E+03  0.10973820191E+04  0.11407453957E+04  0.10100000352E+00 0. -1.
</event>
<event>
 5   0  0.5076796E-03  0.6994828E+03  0.7818609E-02  0.9718117E-01
        2   -1    0    0  501    0  0.00000000000E+00  0.00000000000E+00  0.16559114887E+04  0.16559114887E+04  0.25500000920E-02 0. -1.
       -2   -1    0    0    0  501  0.00000000000E+00  0.00000000000E+00 -0.73868108649E+02  0.73868108693E+02  0.25500000920E-02 0.  1.
    10030    2    1    2    0    0  0.00000000000E+00  0.00000000000E+00  0.15820433801E+04  0.17297795974E+04  0.69948280837E+03 0.  0.
        5    1    3    3  502    0  0.32150446214E+03 -0.43812292351E+01  0.45093481942E+03  0.55384891055E+03  0.46999998093E+01 0.  1.
       -5    1    3    3    0  502 -0.32150446214E+03  0.43812292351E+01  0.11311085606E+04  0.11759306869E+04  0.46999998093E+01 0. -1.
</event>
<event>
 5   0  0.5072407E-03  0.7000556E+03  0.7818609E-02  0.9717137E-01
        2   -1    0    0  501    0  0.00000000000E+00  0.00000000000E+00  0.12269521693E+04  0.12269521693E+04  0.25500000920E-02 0.  1.
       -2   -1    0    0    0  501  0.00000000000E+00  0.00000000000E+00 -0.99856765868E+02  0.99856765901E+02  0.25500000920E-02 0. -1.
    10030    2    1    2    0    0  0.00000000000E+00  0.00000000000E+00  0.11270954035E+04  0.13268089352E+04  0.70005564216E+03 0.  0.
        1    1    3    3  502    0  0.18153341449E+03  0.13163273925E+03  0.54148295662E+02  0.23068072431E+03  0.50400001928E-02 0. -1.
       -1    1    3    3    0  502 -0.18153341449E+03 -0.13163273925E+03  0.10729471078E+04  0.10961282109E+04  0.50400001928E-02 0.  1.
</event>
<event>
 5   0  0.2913582E-03  0.7001358E+03  0.7818609E-02  0.9717000E-01
       -1   -1    0    0    0  501  0.00000000000E+00  0.00000000000E+00  0.17186218849E+03  0.17186218857E+03  0.50400001928E-02 0.  1.
        1   -1    0    0  501    0  0.00000000000E+00  0.00000000000E+00 -0.71305694983E+03  0.71305694985E+03  0.50400001928E-02 0. -1.
    10030    2    1    2    0    0  0.00000000000E+00  0.00000000000E+00 -0.54119476134E+03  0.88491913842E+03  0.70013578100E+03 0.  0.
        1    1    3    3  502    0 -0.22103302251E+03  0.94322679035E+02  0.51133396747E+02  0.24569694567E+03  0.50400001928E-02 0.  1.
       -1    1    3    3    0  502  0.22103302251E+03 -0.94322679035E+02 -0.59232815808E+03  0.63922219275E+03  0.50400001928E-02 0. -1.
</event>
<event>
 5   0  0.2938783E-03  0.6991972E+03  0.7818609E-02  0.9718606E-01
       -1   -1    0    0    0  501  0.00000000000E+00  0.00000000000E+00  0.12885848769E+03  0.12885848779E+03  0.50400001928E-02 0.  1.
        1   -1    0    0  501    0  0.00000000000E+00  0.00000000000E+00 -0.94847597048E+03  0.94847597049E+03  0.50400001928E-02 0. -1.
    10030    2    1    2    0    0  0.00000000000E+00  0.00000000000E+00 -0.81961748279E+03  0.10773344583E+04  0.69919719458E+03 0.  0.
        4    1    3    3  502    0  0.26481005613E+03 -0.75127498755E+02 -0.77731329318E+02  0.28602845899E+03  0.12699999809E+01 0.  1.
       -4    1    3    3    0  502 -0.26481005613E+03  0.75127498755E+02 -0.74188615347E+03  0.79130599929E+03  0.12699999809E+01 0. -1.
</event>
<event>
 5   0  0.2937617E-03  0.7005292E+03  0.7818609E-02  0.9716328E-01
       -1   -1    0    0    0  501  0.00000000000E+00  0.00000000000E+00  0.93908519441E+02  0.93908519576E+02  0.50400001928E-02 0. -1.
        1   -1    0    0  501    0  0.00000000000E+00  0.00000000000E+00 -0.13064340491E+04  0.13064340491E+04  0.50400001928E-02 0.  1.
    10030    2    1    2    0    0  0.00000000000E+00  0.00000000000E+00 -0.12125255297E+04  0.14003425687E+04  0.70052919254E+03 0.  0.
        3    1    3    3  502    0 -0.15158488698E+03  0.37996257451E+02  0.20357379696E+02  0.15759481796E+03  0.10100000352E+00 0. -1.
       -3    1    3    3    0  502  0.15158488698E+03 -0.37996257451E+02 -0.12328829094E+04  0.12427477507E+04  0.10100000352E+00 0.  1.
</event>
<event>
 5   0  0.4878235E-03  0.6998508E+03  0.7818609E-02  0.9717487E-01
        2   -1    0    0  501    0  0.00000000000E+00  0.00000000000E+00  0.15929502773E+04  0.15929502773E+04  0.25500000920E-02 0.  1.
       -2   -1    0    0    0  501  0.00000000000E+00  0.00000000000E+00 -0.76868556270E+02  0.76868556312E+02  0.25500000920E-02 0. -1.
    10030    2    1    2    0    0  0.00000000000E+00  0.00000000000E+00  0.15160817210E+04  0.16698188336E+04  0.69985080714E+03 0.  0.
        4    1    3    3  502    0 -0.38123632850E+02  0.13017770454E+03  0.15276632361E+04  0.15336740925E+04  0.12699999809E+01 0.  1.
       -4    1    3    3    0  502  0.38123632850E+02 -0.13017770454E+03 -0.11581515083E+02  0.13614474111E+03  0.12699999809E+01 0. -1.
</event>
<event>
 5   0  0.5076796E-03  0.7009993E+03  0.7818609E-02  0.9715525E-01
        2   -1    0    0  501    0  0.00000000000E+00  0.00000000000E+00  0.15718848653E+04  0.15718848653E+04  0.25500000920E-02 0. -1.
       -2   -1    0    0    0  501  0.00000000000E+00  0.00000000000E+00 -0.78154570882E+02  0.78154570924E+02  0.25500000920E-02 0.  1.
    10030    2    1    2    0    0  0.00000000000E+00  0.00000000000E+00  0.14937302944E+04  0.16500394362E+04  0.70099925009E+03 0.  0.
        5    1    3    3  502    0  0.32117544338E+02 -0.12157251524E+03  0.15168853324E+04  0.15220954684E+04  0.46999998093E+01 0. -1.
       -5    1    3    3    0  502 -0.32117544338E+02  0.12157251524E+03 -0.23155038045E+02  0.12794396782E+03  0.46999998093E+01 0.  1.
</event>
<event>
 5   0  0.5023894E-03  0.6997954E+03  0.7818609E-02  0.9717582E-01
       -2   -1    0    0    0  501  0.00000000000E+00  0.00000000000E+00  0.14525644506E+03  0.14525644509E+03  0.25500000920E-02 0. -1.
        2   -1    0    0  501    0  0.00000000000E+00  0.00000000000E+00 -0.84284312570E+03  0.84284312571E+03  0.25500000920E-02 0.  1.
    10030    2    1    2    0    0  0.00000000000E+00  0.00000000000E+00 -0.69758668064E+03  0.98809957079E+03  0.69979538781E+03 0.  0.
        2    1    3    3  502    0  0.59658382699E+02  0.33740939566E+03 -0.44887671476E+03  0.56470747115E+03  0.25500000920E-02 0.  1.
       -2    1    3    3    0  502 -0.59658382699E+02 -0.33740939566E+03 -0.24870996588E+03  0.42339209965E+03  0.25500000920E-02 0. -1.
</event>
<event>
 5   0  0.5113683E-03  0.7010141E+03  0.7818609E-02  0.9715499E-01
       -2   -1    0    0    0  501  0.00000000000E+00  0.00000000000E+00  0.10554838242E+03  0.10554838246E+03  0.25500000920E-02 0.  1.
        2   -1    0    0  501    0  0.00000000000E+00  0.00000000000E+00 -0.11639705337E+04  0.11639705337E+04  0.25500000920E-02 0. -1.
    10030    2    1    2    0    0  0.00000000000E+00  0.00000000000E+00 -0.10584221512E+04  0.12695189161E+04  0.70101414262E+03 0.  0.
        3    1    3    3  502    0 -0.28718833801E+03 -0.11018010518E+03 -0.83353243677E+03  0.88847798533E+03  0.10100000352E+00 0. -1.
       -3    1    3    3    0  502  0.28718833801E+03  0.11018010518E+03 -0.22488971446E+03  0.38104093079E+03  0.10100000352E+00 0.  1.
</event>
<event>
 5   0  0.5023894E-03  0.6992093E+03  0.7818609E-02  0.9718585E-01
        2   -1    0    0  501    0  0.00000000000E+00  0.00000000000E+00  0.60255156169E+03  0.60255156169E+03  0.25500000920E-02 0.  1.
       -2   -1    0    0    0  501  0.00000000000E+00  0.00000000000E+00 -0.20284307507E+03  0.20284307509E+03  0.25500000920E-02 0. -1.
    10030    2    1    2    0    0  0.00000000000E+00  0.00000000000E+00  0.39970848662E+03  0.80539463678E+03  0.69920930105E+03 0.  0.
        2    1    3    3  502    0  0.29940646002E+03  0.17825894967E+03  0.23249351349E+03  0.41889582865E+03  0.25500000920E-02 0.  1.
       -2    1    3    3    0  502 -0.29940646002E+03 -0.17825894967E+03  0.16721497312E+03  0.38649880813E+03  0.25500000920E-02 0. -1.
</event>
<event>
 5   0  0.5113683E-03  0.7002763E+03  0.7818609E-02  0.9716760E-01
       -2   -1    0    0    0  501  0.00000000000E+00  0.00000000000E+00  0.32578647246E+03  0.32578647247E+03  0.25500000920E-02 0. -1.
        2   -1    0    0  501    0  0.00000000000E+00  0.00000000000E+00 -0.37631004530E+03  0.37631004531E+03  0.25500000920E-02 0.  1.
    10030    2    1    2    0    0  0.00000000000E+00  0.00000000000E+00 -0.50523572840E+02  0.70209651778E+03  0.70027629467E+03 0.  0.
        3    1    3    3  502    0  0.10220016206E+03 -0.14853388984E+03  0.27566755616E+03  0.32939308019E+03  0.10100000352E+00 0. -1.
       -3    1    3    3    0  502 -0.10220016206E+03  0.14853388984E+03 -0.32619112900E+03  0.37270343760E+03  0.10100000352E+00 0.  1.
</event>
<event>
 5   0  0.5113683E-03  0.6973291E+03  0.7818609E-02  0.9721811E-01
        2   -1    0    0  501    0  0.00000000000E+00  0.00000000000E+00  0.84569319877E+03  0.84569319878E+03  0.25500000920E-02 0. -1.
       -2   -1    0    0    0  501  0.00000000000E+00  0.00000000000E+00 -0.14374831358E+03  0.14374831360E+03  0.25500000920E-02 0.  1.
    10030    2    1    2    0    0  0.00000000000E+00  0.00000000000E+00  0.70194488519E+03  0.98944151238E+03  0.69732910778E+03 0.  0.
        3    1    3    3  502    0  0.39506235750E+02 -0.66379883935E+02 -0.13145401509E+03  0.15247032478E+03  0.10100000352E+00 0.  1.
       -3    1    3    3    0  502 -0.39506235750E+02  0.66379883935E+02  0.83339890029E+03  0.83697118759E+03  0.10100000352E+00 0. -1.
</event>
<event>
 5   0  0.4878235E-03  0.6994869E+03  0.7818609E-02  0.9718110E-01
        2   -1    0    0  501    0  0.00000000000E+00  0.00000000000E+00  0.79047329464E+03  0.79047329465E+03  0.25500000920E-02 0.  1.
       -2   -1    0    0    0  501  0.00000000000E+00  0.00000000000E+00 -0.15474332505E+03  0.15474332507E+03  0.25500000920E-02 0. -1.
    10030    2    1    2    0    0  0.00000000000E+00  0.00000000000E+00  0.63572996959E+03  0.94521661972E+03  0.69948685761E+03 0.  0.
        4    1    3    3  502    0 -0.23124590459E+03 -0.25874130255E+03  0.25900779239E+03  0.43302237754E+03  0.12699999809E+01 0.  1.
       -4    1    3    3    0  502  0.23124590459E+03  0.25874130255E+03  0.37672217720E+03  0.51219424218E+03  0.12699999809E+01 0. -1.
</event>
<event>
 5   0  0.2937617E-03  0.6992215E+03  0.7818609E-02  0.9718564E-01
        1   -1    0    0  501    0  0.00000000000E+00  0.00000000000E+00  0.70952860915E+03  0.70952860917E+03  0.50400001928E-02 0. -1.
       -1   -1    0    0    0  501  0.00000000000E+00  0.00000000000E+00 -0.17226604492E+03  0.17226604499E+03  0.50400001928E-02 0.  1.
    10030    2    1    2    0    0  0.00000000000E+00  0.00000000000E+00  0.53726256423E+03  0.88179465416E+03  0.69922153084E+03 0.  0.
        3    1    3    3  502    0 -0.26767523805E+03 -0.14813036724E+03  0.48203478958E+03  0.57092047373E+03  0.10100000352E+00 0.  1.
       -3    1    3    3    0  502  0.26767523805E+03  0.14813036724E+03  0.55227774649E+02  0.31087418043E+03  0.10100000352E+00 0. -1.
</event>
<event>
 5   0  0.3013140E-03  0.7002486E+03  0.7818609E-02  0.9716807E-01
        1   -1    0    0  501    0  0.00000000000E+00  0.00000000000E+00  0.62638545629E+03  0.62638545631E+03  0.50400001928E-02 0.  1.
       -1   -1    0    0    0  501  0.00000000000E+00  0.00000000000E+00 -0.19570543789E+03  0.19570543795E+03  0.50400001928E-02 0. -1.
    10030    2    1    2    0    0  0.00000000000E+00  0.00000000000E+00  0.43068001840E+03  0.82209089426E+03  0.70024864168E+03 0.  0.
        2    1    3    3  502    0 -0.25478875732E+02  0.24456608971E+03 -0.77278500212E+02  0.25774738010E+03  0.25500000920E-02 0. -1.
       -2    1    3    3    0  502  0.25478875732E+02 -0.24456608971E+03  0.50795851861E+03  0.56434351416E+03  0.25500000920E-02 0.  1.
</event>
<event>
 5   0  0.3013140E-03  0.7109460E+03  0.7818609E-02  0.9698694E-01
        1   -1    0    0  501    0  0.00000000000E+00  0.00000000000E+00  0.81559338139E+03  0.81559338140E+03  0.50400001928E-02 0.  1.
       -1   -1    0    0    0  501  0.00000000000E+00  0.00000000000E+00 -0.15493144958E+03  0.15493144967E+03  0.50400001928E-02 0. -1.
    10030    2    1    2    0    0  0.00000000000E+00  0.00000000000E+00  0.66066193180E+03  0.97052483107E+03  0.71094603142E+03 0.  0.
        2    1    3    3  502    0  0.10522497733E+03 -0.14080808659E+03  0.75210995775E+03  0.77237853521E+03  0.25500000920E-02 0.  1.
       -2    1    3    3    0  502 -0.10522497733E+03  0.14080808659E+03 -0.91448025948E+02  0.19814629585E+03  0.25500000920E-02 0. -1.
</event>
<event>
 5   0  0.2937617E-03  0.6997510E+03  0.7818609E-02  0.9717658E-01
        1   -1    0    0  501    0  0.00000000000E+00  0.00000000000E+00  0.38453301156E+03  0.38453301159E+03  0.50400001928E-02 0.  1.
       -1   -1    0    0    0  501  0.00000000000E+00  0.00000000000E+00 -0.31834161137E+03  0.31834161141E+03  0.50400001928E-02 0. -1.
    10030    2    1    2    0    0  0.00000000000E+00  0.00000000000E+00  0.66191400187E+02  0.70287462300E+03  0.69975098013E+03 0.  0.
        3    1    3    3  502    0 -0.30812438970E+03 -0.45183087564E+02  0.19327761582E+03  0.36652202923E+03  0.10100000352E+00 0.  1.
       -3    1    3    3    0  502  0.30812438970E+03  0.45183087564E+02 -0.12708621564E+03  0.33635259377E+03  0.10100000352E+00 0. -1.
</event>
<event>
 5   0  0.5072407E-03  0.7010168E+03  0.7818609E-02  0.9715495E-01
       -2   -1    0    0    0  501  0.00000000000E+00  0.00000000000E+00  0.12343927852E+03  0.12343927854E+03  0.25500000920E-02 0. -1.
        2   -1    0    0  501    0  0.00000000000E+00  0.00000000000E+00 -0.99527586175E+03  0.99527586176E+03  0.25500000920E-02 0.  1.
    10030    2    1    2    0    0  0.00000000000E+00  0.00000000000E+00 -0.87183658323E+03  0.11187151403E+04  0.70101678815E+03 0.  0.
        1    1    3    3  502    0  0.56576965194E+02 -0.10041732990E+03  0.92332287817E+02  0.14768156464E+03  0.50400001928E-02 0. -1.
       -1    1    3    3    0  502 -0.56576965194E+02  0.10041732990E+03 -0.96416887105E+03  0.97103357566E+03  0.50400001928E-02 0.  1.
</event>
<event>
 5   0  0.2937617E-03  0.6989971E+03  0.7818609E-02  0.9718949E-01
        1   -1    0    0  501    0  0.00000000000E+00  0.00000000000E+00  0.16576883005E+04  0.16576883005E+04  0.50400001928E-02 0. -1.
       -1   -1    0    0    0  501  0.00000000000E+00  0.00000000000E+00 -0.73686491886E+02  0.73686492058E+02  0.50400001928E-02 0.  1.
    10030    2    1    2    0    0  0.00000000000E+00  0.00000000000E+00  0.15840018086E+04  0.17313747925E+04  0.69899709772E+03 0.  0.
        3    1    3    3  502    0  0.23938458393E+02  0.31983769886E+03  0.11359304459E+04  0.11803419807E+04  0.10100000352E+00 0. -1.
       -3    1    3    3    0  502 -0.23938458393E+02 -0.31983769886E+03  0.44807136269E+03  0.55103281179E+03  0.10100000352E+00 0.  1.
</event>
<event>
 5   0  0.5113683E-03  0.6993374E+03  0.7818609E-02  0.9718366E-01
       -2   -1    0    0    0  501  0.00000000000E+00  0.00000000000E+00  0.49266522154E+02  0.49266522220E+02  0.25500000920E-02 0. -1.
        2   -1    0    0  501    0  0.00000000000E+00  0.00000000000E+00 -0.24817706108E+04  0.24817706108E+04  0.25500000920E-02 0.  1.
    10030    2    1    2    0    0  0.00000000000E+00  0.00000000000E+00 -0.24325040887E+04  0.25310371330E+04  0.69933742032E+03 0.  0.
        3    1    3    3  502    0  0.29504121884E+03 -0.17342946156E+03 -0.95675066028E+03  0.10161195476E+04  0.10100000352E+00 0. -1.
       -3    1    3    3    0  502 -0.29504121884E+03  0.17342946156E+03 -0.14757534284E+04  0.15149175854E+04  0.10100000352E+00 0.  1.
</event>
<event>
 5   0  0.2913582E-03  0.6999662E+03  0.7818609E-02  0.9717290E-01
       -1   -1    0    0    0  501  0.00000000000E+00  0.00000000000E+00  0.10422070743E+04  0.10422070743E+04  0.50400001928E-02 0. -1.
        1   -1    0    0  501    0  0.00000000000E+00  0.00000000000E+00 -0.11752766586E+03  0.11752766597E+03  0.50400001928E-02 0.  1.
    10030    2    1    2    0    0  0.00000000000E+00  0.00000000000E+00  0.92467940844E+03  0.11597347403E+04  0.69996618449E+03 0.  0.
        1    1    3    3  502    0 -0.15130498334E+03 -0.59765051792E+02 -0.51076392600E+02  0.17051057828E+03  0.50400001928E-02 0.  1.
       -1    1    3    3    0  502  0.15130498334E+03  0.59765051792E+02  0.97575580104E+03  0.98922416201E+03  0.50400001928E-02 0. -1.
</event>
<event>
 5   0  0.4878235E-03  0.7006531E+03  0.7818609E-02  0.9716116E-01
        2   -1    0    0  501    0  0.00000000000E+00  0.00000000000E+00  0.82159653038E+03  0.82159653038E+03  0.25500000920E-02 0.  1.
       -2   -1    0    0    0  501  0.00000000000E+00  0.00000000000E+00 -0.14937830593E+03  0.14937830595E+03  0.25500000920E-02 0. -1.
    10030    2    1    2    0    0  0.00000000000E+00  0.00000000000E+00  0.67221822445E+03  0.97097483633E+03  0.70065311782E+03 0.  0.
        4    1    3    3  502    0 -0.21542998947E+03 -0.21547283859E+03  0.57569249277E+03  0.65135403865E+03  0.12699999809E+01 0.  1.
       -4    1    3    3    0  502  0.21542998947E+03  0.21547283859E+03  0.96525731673E+02  0.31962079768E+03  0.12699999809E+01 0. -1.
</event>
<event>
 5   0  0.4878235E-03  0.6997193E+03  0.7818609E-02  0.9717712E-01
        2   -1    0    0  501    0  0.00000000000E+00  0.00000000000E+00  0.36101649454E+03  0.36101649455E+03  0.25500000920E-02 0. -1.
       -2   -1    0    0    0  501  0.00000000000E+00  0.00000000000E+00 -0.33904763324E+03  0.33904763325E+03  0.25500000920E-02 0.  1.
    10030    2    1    2    0    0  0.00000000000E+00  0.00000000000E+00  0.21968861301E+02  0.70006412780E+03  0.69971933814E+03 0.  0.
        4    1    3    3  502    0  0.18052687777E+03 -0.26309559813E+03  0.15455053152E+03  0.35453734225E+03  0.12699999809E+01 0. -1.
       -4    1    3    3    0  502 -0.18052687777E+03  0.26309559813E+03 -0.13258167022E+03  0.34552678555E+03  0.12699999809E+01 0.  1.
</event>
<event>
 5   0  0.2934483E-03  0.7010474E+03  0.7818609E-02  0.9715443E-01
        1   -1    0    0  501    0  0.00000000000E+00  0.00000000000E+00  0.62216902980E+03  0.62216902982E+03  0.50400001928E-02 0.  1.
       -1   -1    0    0    0  501  0.00000000000E+00  0.00000000000E+00 -0.19748148724E+03  0.19748148731E+03  0.50400001928E-02 0. -1.
    10030    2    1    2    0    0  0.00000000000E+00  0.00000000000E+00  0.42468754256E+03  0.81965051713E+03  0.70104740312E+03 0.  0.
        5    1    3    3  502    0 -0.74902976815E+02 -0.34588621987E+02 -0.18592967301E+03  0.20346685728E+03  0.46999998093E+01 0. -1.
       -5    1    3    3    0  502  0.74902976815E+02  0.34588621987E+02  0.61061721557E+03  0.61618365984E+03  0.46999998093E+01 0.  1.
</event>
<event>
 5   0  0.2937617E-03  0.6979701E+03  0.7818609E-02  0.9720710E-01
       -1   -1    0    0    0  501  0.00000000000E+00  0.00000000000E+00  0.25794306684E+03  0.25794306689E+03  0.50400001928E-02 0. -1.
        1   -1    0    0  501    0  0.00000000000E+00  0.00000000000E+00 -0.47216068600E+03  0.47216068603E+03  0.50400001928E-02 0.  1.
    10030    2    1    2    0    0  0.00000000000E+00  0.00000000000E+00 -0.21421761917E+03  0.73010375291E+03  0.69797012949E+03 0.  0.
        3    1    3    3  502    0  0.18973182845E+03 -0.10834034576E+03 -0.39176737527E+03  0.44857271849E+03  0.10100000352E+00 0.  1.
       -3    1    3    3    0  502 -0.18973182845E+03  0.10834034576E+03  0.17754975611E+03  0.28153103442E+03  0.10100000352E+00 0. -1.
</event>
<event>
 5   0  0.3013140E-03  0.6997940E+03  0.7818609E-02  0.9717585E-01
       -1   -1    0    0    0  501  0.00000000000E+00  0.00000000000E+00  0.18856637173E+03  0.18856637180E+03  0.50400001928E-02 0. -1.
        1   -1    0    0  501    0  0.00000000000E+00  0.00000000000E+00 -0.64925627147E+03  0.64925627149E+03  0.50400001928E-02 0.  1.
    10030    2    1    2    0    0  0.00000000000E+00  0.00000000000E+00 -0.46068989974E+03  0.83782264329E+03  0.69979396817E+03 0.  0.
        2    1    3    3  502    0  0.15702355592E+03 -0.52547915222E+02  0.13868962596E+03  0.21599188147E+03  0.25500000920E-02 0. -1.
       -2    1    3    3    0  502 -0.15702355592E+03  0.52547915222E+02 -0.59937952570E+03  0.62183076182E+03  0.25500000920E-02 0.  1.
</event>
<event>
 5   0  0.4878235E-03  0.7073035E+03  0.7818609E-02  0.9704823E-01
        2   -1    0    0  501    0  0.00000000000E+00  0.00000000000E+00  0.62695732497E+03  0.62695732497E+03  0.25500000920E-02 0.  1.
       -2   -1    0    0    0  501  0.00000000000E+00  0.00000000000E+00 -0.19948654010E+03  0.19948654012E+03  0.25500000920E-02 0. -1.
    10030    2    1    2    0    0  0.00000000000E+00  0.00000000000E+00  0.42747078486E+03  0.82644386509E+03  0.70730346403E+03 0.  0.
        4    1    3    3  502    0 -0.11300669781E+03  0.12411220501E+03 -0.14997447164E+03  0.22509621993E+03  0.12699999809E+01 0. -1.
       -4    1    3    3    0  502  0.11300669781E+03 -0.12411220501E+03  0.57744525651E+03  0.60134764516E+03  0.12699999809E+01 0.  1.
</event>
<event>
 5   0  0.2937617E-03  0.7005847E+03  0.7818609E-02  0.9716233E-01
       -1   -1    0    0    0  501  0.00000000000E+00  0.00000000000E+00  0.17621639141E+03  0.17621639148E+03  0.50400001928E-02 0. -1.
        1   -1    0    0  501    0  0.00000000000E+00  0.00000000000E+00 -0.69632980250E+03  0.69632980252E+03  0.50400001928E-02 0.  1.
    10030    2    1    2    0    0  0.00000000000E+00  0.00000000000E+00 -0.52011341110E+03  0.87254619400E+03  0.70058468457E+03 0.  0.
        3    1    3    3  502    0  0.25986591012E+03 -0.12946016510E+03 -0.50416094455E+03  0.58178045155E+03  0.10100000352E+00 0.  1.
       -3    1    3    3    0  502 -0.25986591012E+03  0.12946016510E+03 -0.15952466546E+02  0.29076574245E+03  0.10100000352E+00 0. -1.
</event>
<event>
 5   0  0.5023894E-03  0.7005624E+03  0.7818609E-02  0.9716271E-01
        2   -1    0    0  501    0  0.00000000000E+00  0.00000000000E+00  0.13195115865E+04  0.13195115865E+04  0.25500000920E-02 0. -1.
       -2   -1    0    0    0  501  0.00000000000E+00  0.00000000000E+00 -0.92986618301E+02  0.92986618336E+02  0.25500000920E-02 0.  1.
    10030    2    1    2    0    0  0.00000000000E+00  0.00000000000E+00  0.12265249682E+04  0.14124982049E+04  0.70056240340E+03 0.  0.
        2    1    3    3  502    0  0.17666574955E+03 -0.60193958625E+02  0.12109079765E+04  0.12252070140E+04  0.25500000920E-02 0. -1.
       -2    1    3    3    0  502 -0.17666574955E+03  0.60193958625E+02  0.15616991719E+02  0.18729119081E+03  0.25500000920E-02 0.  1.
</event>
<event>
 5   0  0.4878235E-03  0.7000160E+03  0.7818609E-02  0.9717205E-01
       -2   -1    0    0    0  501  0.00000000000E+00  0.00000000000E+00  0.92393003116E+02  0.92393003152E+02  0.25500000920E-02 0. -1.
        2   -1    0    0  501    0  0.00000000000E+00  0.00000000000E+00 -0.13259185156E+04  0.13259185156E+04  0.25500000920E-02 0.  1.
    10030    2    1    2    0    0  0.00000000000E+00  0.00000000000E+00 -0.12335255125E+04  0.14183115188E+04  0.70001598145E+03 0.  0.
        4    1    3    3  502    0  0.23324275209E+03  0.20277242301E+03 -0.94959549813E+03  0.99862508476E+03  0.12699999809E+01 0. -1.
       -4    1    3    3    0  502 -0.23324275209E+03 -0.20277242301E+03 -0.28393001437E+03  0.41968643401E+03  0.12699999809E+01 0.  1.
</event>
<event>
 5   0  0.2934483E-03  0.6962114E+03  0.7818609E-02  0.9723733E-01
       -1   -1    0    0    0  501  0.00000000000E+00  0.00000000000E+00  0.30010372457E+03  0.30010372462E+03  0.50400001928E-02 0.  1.
        1   -1    0    0  501    0  0.00000000000E+00  0.00000000000E+00 -0.40378570099E+03  0.40378570102E+03  0.50400001928E-02 0. -1.
    10030    2    1    2    0    0  0.00000000000E+00  0.00000000000E+00 -0.10368197642E+03  0.70388942564E+03  0.69621144151E+03 0.  0.
        5    1    3    3  502    0  0.25747938541E+03 -0.43047371383E+02  0.18093010615E+03  0.31765784014E+03  0.46999998093E+01 0.  1.
       -5    1    3    3    0  502 -0.25747938541E+03  0.43047371383E+02 -0.28461208256E+03  0.38623158549E+03  0.46999998093E+01 0. -1.
</event>
<event>
 5   0  0.1981750E-03  0.7007891E+03  0.7818609E-02  0.9715884E-01
        4   -1    0    0  501    0  0.00000000000E+00  0.00000000000E+00  0.39346679003E+03  0.39346883963E+03  0.12699999809E+01 0. -1.
       -4   -1    0    0    0  501  0.00000000000E+00  0.00000000000E+00 -0.31203324667E+03  0.31203583116E+03  0.12699999809E+01 0.  1.
    10030    2    1    2    0    0  0.00000000000E+00  0.00000000000E+00  0.81433543358E+02  0.70550467079E+03  0.70078913984E+03 0.  0.
        3    1    3    3  502    0 -0.40610877110E+02  0.13363692034E+01 -0.30965571102E+03  0.31231026046E+03  0.10100000352E+00 0.  1.
       -3    1    3    3    0  502  0.40610877110E+02 -0.13363692034E+01  0.39108925438E+03  0.39319441033E+03  0.10100000352E+00 0. -1.
</event>
<event>
 5   0  0.5023894E-03  0.7006062E+03  0.7818609E-02  0.9716196E-01
        2   -1    0    0  501    0  0.00000000000E+00  0.00000000000E+00  0.13896553673E+04  0.13896553673E+04  0.25500000920E-02 0.  1.
       -2   -1    0    0    0  501  0.00000000000E+00  0.00000000000E+00 -0.88304092369E+02  0.88304092406E+02  0.25500000920E-02 0. -1.
    10030    2    1    2    0    0  0.00000000000E+00  0.00000000000E+00  0.13013512749E+04  0.14779594597E+04  0.70060618308E+03 0.  0.
        2    1    3    3  502    0  0.27904964614E+03 -0.19692305528E+03  0.81496104516E+03  0.88363391732E+03  0.25500000920E-02 0. -1.
       -2    1    3    3    0  502 -0.27904964614E+03  0.19692305528E+03  0.48639022977E+03  0.59432554238E+03  0.25500000920E-02 0.  1.
</event>
<event>
 5   0  0.5113683E-03  0.6995733E+03  0.7818609E-02  0.9717962E-01
        2   -1    0    0  501    0  0.00000000000E+00  0.00000000000E+00  0.10108974800E+04  0.10108974800E+04  0.25500000920E-02 0. -1.
       -2   -1    0    0    0  501  0.00000000000E+00  0.00000000000E+00 -0.12103177510E+03  0.12103177513E+03  0.25500000920E-02 0.  1.
    10030    2    1    2    0    0  0.00000000000E+00  0.00000000000E+00  0.88986570489E+03  0.11319292551E+04  0.69957334560E+03 0.  0.
        3    1    3    3  502    0  0.18988596293E+03 -0.22343588619E+03  0.75350751370E+03  0.80855046692E+03  0.10100000352E+00 0. -1.
       -3    1    3    3    0  502 -0.18988596293E+03  0.22343588619E+03  0.13635819119E+03  0.32337878820E+03  0.10100000352E+00 0.  1.
</event>
<event>
 5   0  0.5076796E-03  0.7001766E+03  0.7818609E-02  0.9716930E-01
        2   -1    0    0  501    0  0.00000000000E+00  0.00000000000E+00  0.36034596766E+03  0.36034596767E+03  0.25500000920E-02 0. -1.
       -2   -1    0    0    0  501  0.00000000000E+00  0.00000000000E+00 -0.34012262073E+03  0.34012262074E+03  0.25500000920E-02 0.  1.
    10030    2    1    2    0    0  0.00000000000E+00  0.00000000000E+00  0.20223346928E+02  0.70046858841E+03  0.70017659171E+03 0.  0.
        5    1    3    3  502    0  0.27010863381E+03 -0.85446188125E+02 -0.19559508732E+03  0.34429529957E+03  0.46999998093E+01 0.  1.
       -5    1    3    3    0  502 -0.27010863381E+03  0.85446188125E+02  0.21581843425E+03  0.35617328884E+03  0.46999998093E+01 0. -1.
</event>
<event>
 5   0  0.3013140E-03  0.6994576E+03  0.7818609E-02  0.9718160E-01
       -1   -1    0    0    0  501  0.00000000000E+00  0.00000000000E+00  0.22498066177E+03  0.22498066183E+03  0.50400001928E-02 0. -1.
        1   -1    0    0  501    0  0.00000000000E+00  0.00000000000E+00 -0.54364781444E+03  0.54364781446E+03  0.50400001928E-02 0.  1.
    10030    2    1    2    0    0  0.00000000000E+00  0.00000000000E+00 -0.31866715267E+03  0.76862847629E+03  0.69945763301E+03 0.  0.
        2    1    3    3  502    0  0.93054391111E+02  0.27868620258E+03 -0.36779061766E+03  0.47073884231E+03  0.25500000920E-02 0.  1.
       -2    1    3    3    0  502 -0.93054391111E+02 -0.27868620258E+03  0.49123464997E+02  0.29788963398E+03  0.25500000920E-02 0. -1.
</event>
<event>
 5   0  0.5023894E-03  0.7008945E+03  0.7818609E-02  0.9715704E-01
       -2   -1    0    0    0  501  0.00000000000E+00  0.00000000000E+00  0.16911157287E+03  0.16911157289E+03  0.25500000920E-02 0. -1.
        2   -1    0    0  501    0  0.00000000000E+00  0.00000000000E+00 -0.72622628070E+03  0.72622628070E+03  0.25500000920E-02 0.  1.
    10030    2    1    2    0    0  0.00000000000E+00  0.00000000000E+00 -0.55711470783E+03  0.89533785359E+03  0.70089448164E+03 0.  0.
        2    1    3    3  502    0 -0.21106120653E+03  0.26251519958E+03 -0.15502198109E+03  0.37080032031E+03  0.25500000920E-02 0.  1.
       -2    1    3    3    0  502  0.21106120653E+03 -0.26251519958E+03 -0.40209272674E+03  0.52453753328E+03  0.25500000920E-02 0. -1.
</event>
<event>
 5   0  0.3013140E-03  0.6989353E+03  0.7818609E-02  0.9719055E-01
       -1   -1    0    0    0  501  0.00000000000E+00  0.00000000000E+00  0.15011570463E+03  0.15011570472E+03  0.50400001928E-02 0.  1.
        1   -1    0    0  501    0  0.00000000000E+00  0.00000000000E+00 -0.81355660794E+03  0.81355660796E+03  0.50400001928E-02 0. -1.
    10030    2    1    2    0    0  0.00000000000E+00  0.00000000000E+00 -0.66344090331E+03  0.96367231267E+03  0.69893525740E+03 0.  0.
        2    1    3    3  502    0  0.13733986625E+03  0.17592586364E+03 -0.70249341216E+03  0.73709507018E+03  0.25500000920E-02 0. -1.
       -2    1    3    3    0  502 -0.13733986625E+03 -0.17592586364E+03  0.39052508848E+02  0.22657724249E+03  0.25500000920E-02 0.  1.
</event>
<event>
 5   0  0.5076796E-03  0.7007450E+03  0.7818609E-02  0.9715959E-01
       -2   -1    0    0    0  501  0.00000000000E+00  0.00000000000E+00  0.16604530764E+03  0.16604530766E+03  0.25500000920E-02 0. -1.
        2   -1    0    0  501    0  0.00000000000E+00  0.00000000000E+00 -0.73932165539E+03  0.73932165540E+03  0.25500000920E-02 0.  1.
    10030    2    1    2    0    0  0.00000000000E+00  0.00000000000E+00 -0.57327634775E+03  0.90536696306E+03  0.70074500848E+03 0.  0.
        5    1    3    3  502    0  0.14992707294E+03 -0.66360395175E+02  0.11337701693E+03  0.19939475222E+03  0.46999998093E+01 0. -1.
       -5    1    3    3    0  502 -0.14992707294E+03  0.66360395175E+02 -0.68665336468E+03  0.70597221084E+03  0.46999998093E+01 0.  1.
</event>
<event>
 5   0  0.2938783E-03  0.7003200E+03  0.7818609E-02  0.9716685E-01
        1   -1    0    0  501    0  0.00000000000E+00  0.00000000000E+00  0.11083464906E+04  0.11083464906E+04  0.50400001928E-02 0. -1.
       -1   -1    0    0    0  501  0.00000000000E+00  0.00000000000E+00 -0.11062608620E+03  0.11062608632E+03  0.50400001928E-02 0.  1.
    10030    2    1    2    0    0  0.00000000000E+00  0.00000000000E+00  0.99772040441E+03  0.12189725769E+04  0.70032002539E+03 0.  0.
        4    1    3    3  502    0  0.22009289399E+03  0.16944116462E+02  0.25743810355E+02  0.22224387897E+03  0.12699999809E+01 0.  1.
       -4    1    3    3    0  502 -0.22009289399E+03 -0.16944116462E+02  0.97197659405E+03  0.99672869797E+03  0.12699999809E+01 0. -1.
</event>
<event>
 5   0  0.3013140E-03  0.6979882E+03  0.7818609E-02  0.9720679E-01
       -1   -1    0    0    0  501  0.00000000000E+00  0.00000000000E+00  0.10311632571E+04  0.10311632571E+04  0.50400001928E-02 0. -1.
        1   -1    0    0  501    0  0.00000000000E+00  0.00000000000E+00 -0.11811600686E+03  0.11811600697E+03  0.50400001928E-02 0.  1.
    10030    2    1    2    0    0  0.00000000000E+00  0.00000000000E+00  0.91304725023E+03  0.11492792641E+04  0.69798821314E+03 0.  0.
        2    1    3    3  502    0  0.28946669066E+03  0.18253126445E+03  0.34378226338E+03  0.48507202777E+03  0.25500000920E-02 0. -1.
       -2    1    3    3    0  502 -0.28946669066E+03 -0.18253126445E+03  0.56926498685E+03  0.66420723631E+03  0.25500000920E-02 0.  1.
</event>
<event>
 5   0  0.2913582E-03  0.7000385E+03  0.7818609E-02  0.9717166E-01
        1   -1    0    0  501    0  0.00000000000E+00  0.00000000000E+00  0.12562605557E+04  0.12562605557E+04  0.50400001928E-02 0. -1.
       -1   -1    0    0    0  501  0.00000000000E+00  0.00000000000E+00 -0.97522348007E+02  0.97522348138E+02  0.50400001928E-02 0.  1.
    10030    2    1    2    0    0  0.00000000000E+00  0.00000000000E+00  0.11587382077E+04  0.13537829039E+04  0.70003851093E+03 0.  0.
        1    1    3    3  502    0  0.33341359187E+03  0.79941942071E+02  0.71554071176E+03  0.79344429392E+03  0.50400001928E-02 0. -1.
       -1    1    3    3    0  502 -0.33341359187E+03 -0.79941942071E+02  0.44319749595E+03  0.56033860994E+03  0.50400001928E-02 0.  1.
</event>
<event>
 5   0  0.5076796E-03  0.7010315E+03  0.7818609E-02  0.9715470E-01
        2   -1    0    0  501    0  0.00000000000E+00  0.00000000000E+00  0.93182635255E+03  0.93182635256E+03  0.25500000920E-02 0. -1.
       -2   -1    0    0    0  501  0.00000000000E+00  0.00000000000E+00 -0.13184997782E+03  0.13184997785E+03  0.25500000920E-02 0.  1.
    10030    2    1    2    0    0  0.00000000000E+00  0.00000000000E+00  0.79997637473E+03  0.10636763304E+04  0.70103147985E+03 0.  0.
        5    1    3    3  502    0 -0.13226769311E+03 -0.22195116585E+03  0.75931053589E+03  0.80207957372E+03  0.46999998093E+01 0. -1.
       -5    1    3    3    0  502  0.13226769311E+03  0.22195116585E+03  0.40665838839E+02  0.26159675669E+03  0.46999998093E+01 0.  1.
</event>
<event>
 5   0  0.2934483E-03  0.6994489E+03  0.7818609E-02  0.9718175E-01
       -1   -1    0    0    0  501  0.00000000000E+00  0.00000000000E+00  0.85399031227E+03  0.85399031228E+03  0.50400001928E-02 0.  1.
        1   -1    0    0  501    0  0.00000000000E+00  0.00000000000E+00 -0.14321849457E+03  0.14321849466E+03  0.50400001928E-02 0. -1.
    10030    2    1    2    0    0  0.00000000000E+00  0.00000000000E+00  0.71077181770E+03  0.99720880694E+03  0.69944894582E+03 0.  0.
        5    1    3    3  502    0  0.17020354999E+03 -0.30015882938E+03  0.43629453307E+03  0.55627293739E+03  0.46999998093E+01 0.  1.
       -5    1    3    3    0  502 -0.17020354999E+03  0.30015882938E+03  0.27447728463E+03  0.44093586955E+03  0.46999998093E+01 0. -1.
</event>
<event>
 5   0  0.2937617E-03  0.6996724E+03  0.7818609E-02  0.9717793E-01
       -1   -1    0    0    0  501  0.00000000000E+00  0.00000000000E+00  0.23042330104E+03  0.23042330110E+03  0.50400001928E-02 0. -1.
        1   -1    0    0  501    0  0.00000000000E+00  0.00000000000E+00 -0.53113275818E+03  0.53113275820E+03  0.50400001928E-02 0.  1.
    10030    2    1    2    0    0  0.00000000000E+00  0.00000000000E+00 -0.30070945714E+03  0.76155605930E+03  0.69967239037E+03 0.  0.
        3    1    3    3  502    0  0.30844817468E+03  0.15946986979E+03 -0.19671843412E+03  0.39908528958E+03  0.10100000352E+00 0.  1.
       -3    1    3    3    0  502 -0.30844817468E+03 -0.15946986979E+03 -0.10399102302E+03  0.36247076972E+03  0.10100000352E+00 0. -1.
</event>
<event>
 5   0  0.5072407E-03  0.6991471E+03  0.7818609E-02  0.9718692E-01
        2   -1    0    0  501    0  0.00000000000E+00  0.00000000000E+00  0.79433307507E+03  0.79433307507E+03  0.25500000920E-02 0. -1.
       -2   -1    0    0    0  501  0.00000000000E+00  0.00000000000E+00 -0.15384184920E+03  0.15384184922E+03  0.25500000920E-02 0.  1.
    10030    2    1    2    0    0  0.00000000000E+00  0.00000000000E+00  0.64049122587E+03  0.94817492429E+03  0.69914710658E+03 0.  0.
        1    1    3    3  502    0  0.24397361622E+03 -0.20204681528E+03  0.11975153577E+03  0.33865391083E+03  0.50400001928E-02 0.  1.
       -1    1    3    3    0  502 -0.24397361622E+03  0.20204681528E+03  0.52073969011E+03  0.60952101346E+03  0.50400001928E-02 0. -1.
</event>
<event>
 5   0  0.2913582E-03  0.7020993E+03  0.7818609E-02  0.9713649E-01
       -1   -1    0    0    0  501  0.00000000000E+00  0.00000000000E+00  0.99777738680E+02  0.99777738808E+02  0.50400001928E-02 0.  1.
        1   -1    0    0  501    0  0.00000000000E+00  0.00000000000E+00 -0.12351035928E+04  0.12351035928E+04  0.50400001928E-02 0. -1.
    10030    2    1    2    0    0  0.00000000000E+00  0.00000000000E+00 -0.11353258541E+04  0.13348813316E+04  0.70209926255E+03 0.  0.
        1    1    3    3  502    0 -0.28086647326E+02  0.28028462187E+03 -0.16935895631E+03  0.32868036923E+03  0.50400001928E-02 0.  1.
       -1    1    3    3    0  502  0.28086647326E+02 -0.28028462187E+03 -0.96596689783E+03  0.10062009624E+04  0.50400001928E-02 0. -1.
</event>
<event>
 5   0  0.5113683E-03  0.6997842E+03  0.7818609E-02  0.9717601E-01
       -2   -1    0    0    0  501  0.00000000000E+00  0.00000000000E+00  0.76064216377E+03  0.76064216377E+03  0.25500000920E-02 0. -1.
        2   -1    0    0  501    0  0.00000000000E+00  0.00000000000E+00 -0.16094884042E+03  0.16094884044E+03  0.25500000920E-02 0.  1.
    10030    2    1    2    0    0  0.00000000000E+00  0.00000000000E+00  0.59969332334E+03  0.92159100421E+03  0.69978417886E+03 0.  0.
        3    1    3    3  502    0 -0.42266205414E+02  0.24408230852E+03 -0.25584485410E+02  0.24903249095E+03  0.10100000352E+00 0.  1.
       -3    1    3    3    0  502  0.42266205414E+02 -0.24408230852E+03  0.62527780875E+03  0.67255851327E+03  0.10100000352E+00 0. -1.
</event>
<event>
 5   0  0.2913582E-03  0.7007313E+03  0.7818609E-02  0.9715982E-01
        1   -1    0    0  501    0  0.00000000000E+00  0.00000000000E+00  0.50742685143E+03  0.50742685145E+03  0.50400001928E-02 0. -1.
       -1   -1    0    0    0  501  0.00000000000E+00  0.00000000000E+00 -0.24191880130E+03  0.24191880136E+03  0.50400001928E-02 0.  1.
    10030    2    1    2    0    0  0.00000000000E+00  0.00000000000E+00  0.26550805012E+03  0.74934565281E+03  0.70073131991E+03 0.  0.
        1    1    3    3  502    0  0.24538658610E+03  0.19331483915E+02  0.39938675355E+03  0.46914609862E+03  0.50400001928E-02 0. -1.
       -1    1    3    3    0  502 -0.24538658610E+03 -0.19331483915E+02 -0.13387870343E+03  0.28019955419E+03  0.50400001928E-02 0.  1.
</event>
<event>
 5   0  0.2938783E-03  0.6978414E+03  0.7818609E-02  0.9720931E-01
        1   -1    0    0  501    0  0.00000000000E+00  0.00000000000E+00  0.58518769161E+03  0.58518769163E+03  0.50400001928E-02 0. -1.
       -1   -1    0    0    0  501  0.00000000000E+00  0.00000000000E+00 -0.20804545764E+03  0.20804545770E+03  0.50400001928E-02 0.  1.
    10030    2    1    2    0    0  0.00000000000E+00  0.00000000000E+00  0.37714223397E+03  0.79323314933E+03  0.69784136060E+03 0.  0.
        4    1    3    3  502    0  0.13574636867E+02 -0.14059900815E+03  0.55123163895E+03  0.56904330638E+03  0.12699999809E+01 0. -1.
       -4    1    3    3    0  502 -0.13574636867E+02  0.14059900815E+03 -0.17408940498E+03  0.22418984296E+03  0.12699999809E+01 0.  1.
</event>
<event>
 5   0  0.5072407E-03  0.6984965E+03  0.7818609E-02  0.9719807E-01
       -2   -1    0    0    0  501  0.00000000000E+00  0.00000000000E+00  0.40376165267E+03  0.40376165268E+03  0.25500000920E-02 0. -1.
        2   -1    0    0  501    0  0.00000000000E+00  0.00000000000E+00 -0.30209493386E+03  0.30209493387E+03  0.25500000920E-02 0.  1.
    10030    2    1    2    0    0  0.00000000000E+00  0.00000000000E+00  0.10166671880E+03  0.70585658655E+03  0.69849652760E+03 0.  0.
        1    1    3    3  502    0  0.34279701239E+03  0.60196872082E+02  0.21529622364E+02  0.34870758492E+03  0.50400001928E-02 0. -1.
       -1    1    3    3    0  502 -0.34279701239E+03 -0.60196872082E+02  0.80137096440E+02  0.35714900163E+03  0.50400001928E-02 0.  1.
</event>
<event>
 5   0  0.2913582E-03  0.6985621E+03  0.7818609E-02  0.9719694E-01
       -1   -1    0    0    0  501  0.00000000000E+00  0.00000000000E+00  0.54376718697E+03  0.54376718700E+03  0.50400001928E-02 0.  1.
        1   -1    0    0  501    0  0.00000000000E+00  0.00000000000E+00 -0.22435566160E+03  0.22435566165E+03  0.50400001928E-02 0. -1.
    10030    2    1    2    0    0  0.00000000000E+00  0.00000000000E+00  0.31941152538E+03  0.76812284865E+03  0.69856208605E+03 0.  0.
        1    1    3    3  502    0  0.18109158360E+03  0.15848546486E+03  0.43806482673E+03  0.49981256154E+03  0.50400001928E-02 0.  1.
       -1    1    3    3    0  502 -0.18109158360E+03 -0.15848546486E+03 -0.11865330136E+03  0.26831028711E+03  0.50400001928E-02 0. -1.
</event>
<event>
 5   0  0.2913582E-03  0.7000276E+03  0.7818609E-02  0.9717185E-01
       -1   -1    0    0    0  501  0.00000000000E+00  0.00000000000E+00  0.82132709889E+03  0.82132709890E+03  0.50400001928E-02 0. -1.
        1   -1    0    0  501    0  0.00000000000E+00  0.00000000000E+00 -0.14916061699E+03  0.14916061708E+03  0.50400001928E-02 0.  1.
    10030    2    1    2    0    0  0.00000000000E+00  0.00000000000E+00  0.67216648190E+03  0.97048771598E+03  0.70002759051E+03 0.  0.
        1    1    3    3  502    0  0.19743604486E+03 -0.41648978963E+02  0.73257638493E+03  0.75985774264E+03  0.50400001928E-02 0. -1.
       -1    1    3    3    0  502 -0.19743604486E+03  0.41648978963E+02 -0.60409903038E+02  0.21062997334E+03  0.50400001928E-02 0.  1.
</event>
<event>
 5   0  0.5113683E-03  0.7007463E+03  0.7818609E-02  0.9715957E-01
        2   -1    0    0  501    0  0.00000000000E+00  0.00000000000E+00  0.37283970914E+03  0.37283970915E+03  0.25500000920E-02 0.  1.
       -2   -1    0    0    0  501  0.00000000000E+00  0.00000000000E+00 -0.32926033822E+03  0.32926033823E+03  0.25500000920E-02 0. -1.
    10030    2    1    2    0    0  0.00000000000E+00  0.00000000000E+00  0.43579370922E+02  0.70210004737E+03  0.70074625575E+03 0.  0.
        3    1    3    3  502    0  0.17344063920E+03  0.25073004295E+03  0.19479089210E+03  0.36178821375E+03  0.10100000352E+00 0.  1.
       -3    1    3    3    0  502 -0.17344063920E+03 -0.25073004295E+03 -0.15121152117E+03  0.34031183362E+03  0.10100000352E+00 0. -1.
</event>
<event>
 5   0  0.5076796E-03  0.6996931E+03  0.7818609E-02  0.9717757E-01
        2   -1    0    0  501    0  0.00000000000E+00  0.00000000000E+00  0.13572352447E+04  0.13572352447E+04  0.25500000920E-02 0. -1.
       -2   -1    0    0    0  501  0.00000000000E+00  0.00000000000E+00 -0.90177882477E+02  0.90177882513E+02  0.25500000920E-02 0.  1.
    10030    2    1    2    0    0  0.00000000000E+00  0.00000000000E+00  0.12670573622E+04  0.14474131272E+04  0.69969307677E+03 0.  0.
        5    1    3    3  502    0 -0.20882027933E+03 -0.23925470842E+03  0.33005286827E+03  0.45804553312E+03  0.46999998093E+01 0.  1.
       -5    1    3    3    0  502  0.20882027933E+03  0.23925470842E+03  0.93700449398E+03  0.98936759412E+03  0.46999998093E+01 0. -1.
</event>
<event>
 5   0  0.1981750E-03  0.7014264E+03  0.7818609E-02  0.9714796E-01
        3   -1    0    0  501    0  0.00000000000E+00  0.00000000000E+00  0.89580453733E+03  0.89580454302E+03  0.10100000352E+00 0.  1.
       -3   -1    0    0    0  501  0.00000000000E+00  0.00000000000E+00 -0.13730645132E+03  0.13730648847E+03  0.10100000352E+00 0. -1.
    10030    2    1    2    0    0  0.00000000000E+00  0.00000000000E+00  0.75849808601E+03  0.10331110315E+04  0.70142644441E+03 0.  0.
        5    1    3    3  502    0 -0.86761619167E+02  0.13043450187E+03 -0.82859405130E+02  0.17728087561E+03  0.46999998093E+01 0. -1.
       -5    1    3    3    0  502  0.86761619167E+02 -0.13043450187E+03  0.84135749114E+03  0.85583015589E+03  0.46999998093E+01 0.  1.
</event>
<event>
 5   0  0.5023894E-03  0.7023796E+03  0.7818609E-02  0.9713171E-01
        2   -1    0    0  501    0  0.00000000000E+00  0.00000000000E+00  0.51828136953E+03  0.51828136954E+03  0.25500000920E-02 0. -1.
       -2   -1    0    0    0  501  0.00000000000E+00  0.00000000000E+00 -0.23796777288E+03  0.23796777290E+03  0.25500000920E-02 0.  1.
    10030    2    1    2    0    0  0.00000000000E+00  0.00000000000E+00  0.28031359664E+03  0.75624914243E+03  0.70237956474E+03 0.  0.
        2    1    3    3  502    0 -0.23572214454E+02 -0.11176086962E+03 -0.21741017496E+03  0.24558771438E+03  0.25500000920E-02 0.  1.
       -2    1    3    3    0  502  0.23572214454E+02  0.11176086962E+03  0.49772377161E+03  0.51066142805E+03  0.25500000920E-02 0. -1.
</event>
<event>
 5   0  0.5023894E-03  0.6997917E+03  0.7818609E-02  0.9717588E-01
       -2   -1    0    0    0  501  0.00000000000E+00  0.00000000000E+00  0.68007999693E+02  0.68007999741E+02  0.25500000920E-02 0.  1.
        2   -1    0    0  501    0  0.00000000000E+00  0.00000000000E+00 -0.18001868348E+04  0.18001868348E+04  0.25500000920E-02 0. -1.
    10030    2    1    2    0    0  0.00000000000E+00  0.00000000000E+00 -0.17321788351E+04  0.18681948346E+04  0.69979169974E+03 0.  0.
        2    1    3    3  502    0 -0.24233814548E+03  0.17402131500E+03 -0.37807794459E+03  0.48161616150E+03  0.25500000920E-02 0.  1.
       -2    1    3    3    0  502  0.24233814548E+03 -0.17402131500E+03 -0.13541008905E+04  0.13865786731E+04  0.25500000920E-02 0. -1.
</event>
<event>
 5   0  0.5113683E-03  0.6950014E+03  0.7818609E-02  0.9725819E-01
        2   -1    0    0  501    0  0.00000000000E+00  0.00000000000E+00  0.11589360799E+04  0.11589360799E+04  0.25500000920E-02 0.  1.
       -2   -1    0    0    0  501  0.00000000000E+00  0.00000000000E+00 -0.10419620811E+03  0.10419620814E+03  0.25500000920E-02 0. -1.
    10030    2    1    2    0    0  0.00000000000E+00  0.00000000000E+00  0.10547398718E+04  0.12631322880E+04  0.69500142440E+03 0.  0.
        3    1    3    3  502    0  0.26454478096E+03 -0.10093368513E+03  0.16123016438E+03  0.32583235879E+03  0.10100000352E+00 0. -1.
       -3    1    3    3    0  502 -0.26454478096E+03  0.10093368513E+03  0.89350970737E+03  0.93729992921E+03  0.10100000352E+00 0.  1.
</event>
<event>
 5   0  0.3013140E-03  0.6998789E+03  0.7818609E-02  0.9717439E-01
       -1   -1    0    0    0  501  0.00000000000E+00  0.00000000000E+00  0.11219187565E+03  0.11219187576E+03  0.50400001928E-02 0. -1.
        1   -1    0    0  501    0  0.00000000000E+00  0.00000000000E+00 -0.10915017363E+04  0.10915017363E+04  0.50400001928E-02 0.  1.
    10030    2    1    2    0    0  0.00000000000E+00  0.00000000000E+00 -0.97930986061E+03  0.12036936120E+04  0.69987892422E+03 0.  0.
        2    1    3    3  502    0 -0.32795518224E+03  0.78093116517E+02 -0.32827662131E+03  0.47055146001E+03  0.25500000920E-02 0. -1.
       -2    1    3    3    0  502  0.32795518224E+03 -0.78093116517E+02 -0.65103323930E+03  0.73314215203E+03  0.25500000920E-02 0.  1.
</event>
<event>
 5   0  0.5072407E-03  0.6994363E+03  0.7818609E-02  0.9718197E-01
       -2   -1    0    0    0  501  0.00000000000E+00  0.00000000000E+00  0.35679636029E+03  0.35679636030E+03  0.25500000920E-02 0. -1.
        2   -1    0    0  501    0  0.00000000000E+00  0.00000000000E+00 -0.34278039800E+03  0.34278039801E+03  0.25500000920E-02 0.  1.
    10030    2    1    2    0    0  0.00000000000E+00  0.00000000000E+00  0.14015962294E+02  0.69957675831E+03  0.69943633990E+03 0.  0.
        1    1    3    3  502    0  0.71354023029E+02 -0.33909243500E+03 -0.40200247487E+02  0.34884256621E+03  0.50400001928E-02 0. -1.
       -1    1    3    3    0  502 -0.71354023029E+02  0.33909243500E+03  0.54216209781E+02  0.35073419210E+03  0.50400001928E-02 0.  1.
</event>
<event>
 5   0  0.2913582E-03  0.6999685E+03  0.7818609E-02  0.9717286E-01
       -1   -1    0    0    0  501  0.00000000000E+00  0.00000000000E+00  0.42595152952E+03  0.42595152955E+03  0.50400001928E-02 0.  1.
        1   -1    0    0  501    0  0.00000000000E+00  0.00000000000E+00 -0.28756555178E+03  0.28756555183E+03  0.50400001928E-02 0. -1.
    10030    2    1    2    0    0  0.00000000000E+00  0.00000000000E+00  0.13838597774E+03  0.71351708138E+03  0.69996853257E+03 0.  0.
        1    1    3    3  502    0  0.13014704047E+03 -0.39091735717E+02 -0.25957509387E+03  0.29299427524E+03  0.50400001928E-02 0. -1.
       -1    1    3    3    0  502 -0.13014704047E+03  0.39091735717E+02  0.39796107160E+03  0.42052280614E+03  0.50400001928E-02 0.  1.
</event>
<event>
 5   0  0.2937617E-03  0.6969977E+03  0.7818609E-02  0.9722380E-01
        1   -1    0    0  501    0  0.00000000000E+00  0.00000000000E+00  0.34392567648E+03  0.34392567652E+03  0.50400001928E-02 0.  1.
       -1   -1    0    0    0  501  0.00000000000E+00  0.00000000000E+00 -0.35313281575E+03  0.35313281578E+03  0.50400001928E-02 0. -1.
    10030    2    1    2    0    0  0.00000000000E+00  0.00000000000E+00 -0.92071392667E+01  0.69705849230E+03  0.69699768312E+03 0.  0.
        3    1    3    3  502    0  0.19701876739E+02 -0.32834734759E+03  0.11052071127E+03  0.34700862012E+03  0.10100000352E+00 0.  1.
       -3    1    3    3    0  502 -0.19701876739E+02  0.32834734759E+03 -0.11972785053E+03  0.35004987218E+03  0.10100000352E+00 0. -1.
</event>
<event>
 5   0  0.2938783E-03  0.6987986E+03  0.7818609E-02  0.9719289E-01
       -1   -1    0    0    0  501  0.00000000000E+00  0.00000000000E+00  0.37191736655E+03  0.37191736658E+03  0.50400001928E-02 0. -1.
        1   -1    0    0  501    0  0.00000000000E+00  0.00000000000E+00 -0.32824463450E+03  0.32824463454E+03  0.50400001928E-02 0.  1.
    10030    2    1    2    0    0  0.00000000000E+00  0.00000000000E+00  0.43672732044E+02  0.70016200112E+03  0.69879862642E+03 0.  0.
        4    1    3    3  502    0 -0.74017626114E+02  0.57893832638E+02  0.35901627792E+03  0.37111265883E+03  0.12699999809E+01 0. -1.
       -4    1    3    3    0  502  0.74017626114E+02 -0.57893832638E+02 -0.31534354588E+03  0.32904934229E+03  0.12699999809E+01 0.  1.
</event>
<event>
 5   0  0.4878235E-03  0.6999003E+03  0.7818609E-02  0.9717403E-01
       -2   -1    0    0    0  501  0.00000000000E+00  0.00000000000E+00  0.14762430764E+03  0.14762430766E+03  0.25500000920E-02 0. -1.
        2   -1    0    0  501    0  0.00000000000E+00  0.00000000000E+00 -0.82957282528E+03  0.82957282528E+03  0.25500000920E-02 0.  1.
    10030    2    1    2    0    0  0.00000000000E+00  0.00000000000E+00 -0.68194851764E+03  0.97719713294E+03  0.69990031856E+03 0.  0.
        4    1    3    3  502    0 -0.56391693008E+01 -0.66960302751E+02 -0.82047724695E+03  0.82322536892E+03  0.12699999809E+01 0.  1.
       -4    1    3    3    0  502  0.56391693008E+01  0.66960302751E+02  0.13852872930E+03  0.15397176402E+03  0.12699999809E+01 0. -1.
</event>
<event>
 5   0  0.2937617E-03  0.7008082E+03  0.7818609E-02  0.9715851E-01
        1   -1    0    0  501    0  0.00000000000E+00  0.00000000000E+00  0.30392100366E+03  0.30392100371E+03  0.50400001928E-02 0. -1.
       -1   -1    0    0    0  501  0.00000000000E+00  0.00000000000E+00 -0.40399654522E+03  0.40399654525E+03  0.50400001928E-02 0.  1.
    10030    2    1    2    0    0  0.00000000000E+00  0.00000000000E+00 -0.10007554155E+03  0.70791754895E+03  0.70080820636E+03 0.  0.
        3    1    3    3  502    0 -0.12156715767E+03 -0.29260625020E+03  0.10109967479E+03  0.33259306355E+03  0.10100000352E+00 0. -1.
       -3    1    3    3    0  502  0.12156715767E+03  0.29260625020E+03 -0.20117521634E+03  0.37532448541E+03  0.10100000352E+00 0.  1.
</event>
<event>
 5   0  0.5076796E-03  0.6997141E+03  0.7818609E-02  0.9717721E-01
       -2   -1    0    0    0  501  0.00000000000E+00  0.00000000000E+00  0.16195316631E+03  0.16195316633E+03  0.25500000920E-02 0. -1.
        2   -1    0    0  501    0  0.00000000000E+00  0.00000000000E+00 -0.75577381375E+03  0.75577381375E+03  0.25500000920E-02 0.  1.
    10030    2    1    2    0    0  0.00000000000E+00  0.00000000000E+00 -0.59382064743E+03  0.91772698008E+03  0.69971411923E+03 0.  0.
        5    1    3    3  502    0  0.15041420112E+03  0.10351218125E+03 -0.68827551027E+03  0.71209863895E+03  0.46999998093E+01 0.  1.
       -5    1    3    3    0  502 -0.15041420112E+03 -0.10351218125E+03  0.94454862834E+02  0.20562834113E+03  0.46999998093E+01 0. -1.
</event>
<event>
 5   0  0.2937617E-03  0.7025767E+03  0.7818609E-02  0.9712836E-01
       -1   -1    0    0    0  501  0.00000000000E+00  0.00000000000E+00  0.13128595415E+04  0.13128595415E+04  0.50400001928E-02 0. -1.
        1   -1    0    0  501    0  0.00000000000E+00  0.00000000000E+00 -0.93995967284E+02  0.93995967419E+02  0.50400001928E-02 0.  1.
    10030    2    1    2    0    0  0.00000000000E+00  0.00000000000E+00  0.12188635742E+04  0.14068555089E+04  0.70257669364E+03 0.  0.
        3    1    3    3  502    0  0.33582558252E+03 -0.10073136027E+03  0.56565864424E+03  0.66550382480E+03  0.10100000352E+00 0.  1.
       -3    1    3    3    0  502 -0.33582558252E+03  0.10073136027E+03  0.65320492996E+03  0.74135168412E+03  0.10100000352E+00 0. -1.
</event>
<event>
 5   0  0.5072407E-03  0.7004109E+03  0.7818609E-02  0.9716530E-01
        2   -1    0    0  501    0  0.00000000000E+00  0.00000000000E+00  0.58225289923E+03  0.58225289924E+03  0.25500000920E-02 0. -1.
       -2   -1    0    0    0  501  0.00000000000E+00  0.00000000000E+00 -0.21063676535E+03  0.21063676536E+03  0.25500000920E-02 0.  1.
    10030    2    1    2    0    0  0.00000000000E+00  0.00000000000E+00  0.37161613389E+03  0.79288966460E+03  0.70041092886E+03 0.  0.
        1    1    3    3  502    0 -0.21882879868E+03 -0.11877772437E+03 -0.92979939716E+02  0.26578084986E+03  0.50400001928E-02 0.  1.
       -1    1    3    3    0  502  0.21882879868E+03  0.11877772437E+03  0.46459607361E+03  0.52710881474E+03  0.50400001928E-02 0. -1.
</event>
<event>
 5   0  0.2937617E-03  0.6994567E+03  0.7818609E-02  0.9718162E-01
       -1   -1    0    0    0  501  0.00000000000E+00  0.00000000000E+00  0.11416135452E+03  0.11416135464E+03  0.50400001928E-02 0.  1.
        1   -1    0    0  501    0  0.00000000000E+00  0.00000000000E+00 -0.10713775720E+04  0.10713775720E+04  0.50400001928E-02 0. -1.
    10030    2    1    2    0    0  0.00000000000E+00  0.00000000000E+00 -0.95721621751E+03  0.11855389267E+04  0.69945668888E+03 0.  0.
        3    1    3    3  502    0 -0.21000887512E+03  0.24641031667E+03 -0.70275189997E+03  0.77374544581E+03  0.10100000352E+00 0. -1.
       -3    1    3    3    0  502  0.21000887512E+03 -0.24641031667E+03 -0.25446431754E+03  0.41179348088E+03  0.10100000352E+00 0.  1.
</event>
<event>
 5   0  0.5076796E-03  0.7044152E+03  0.7818609E-02  0.9709711E-01
        2   -1    0    0  501    0  0.00000000000E+00  0.00000000000E+00  0.20130205195E+03  0.20130205196E+03  0.25500000920E-02 0. -1.
       -2   -1    0    0    0  501  0.00000000000E+00  0.00000000000E+00 -0.61623905005E+03  0.61623905005E+03  0.25500000920E-02 0.  1.
    10030    2    1    2    0    0  0.00000000000E+00  0.00000000000E+00 -0.41493699810E+03  0.81754110201E+03  0.70441517664E+03 0.  0.
        5    1    3    3  502    0 -0.16372339834E+03 -0.23522314116E+03  0.30079118550E+02  0.28820499765E+03  0.46999998093E+01 0. -1.
       -5    1    3    3    0  502  0.16372339834E+03  0.23522314116E+03 -0.44501611665E+03  0.52933610436E+03  0.46999998093E+01 0.  1.
</event>
<event>
 5   0  0.5113683E-03  0.6997297E+03  0.7818609E-02  0.9717695E-01
        2   -1    0    0  501    0  0.00000000000E+00  0.00000000000E+00  0.12340940978E+04  0.12340940978E+04  0.25500000920E-02 0. -1.
       -2   -1    0    0    0  501  0.00000000000E+00  0.00000000000E+00 -0.99186447622E+02  0.99186447654E+02  0.25500000920E-02 0.  1.
    10030    2    1    2    0    0  0.00000000000E+00  0.00000000000E+00  0.11349076501E+04  0.13332805454E+04  0.69972968955E+03 0.  0.
        3    1    3    3  502    0 -0.16458575748E+03 -0.21848021416E+03  0.15181258813E+03  0.31284045081E+03  0.10100000352E+00 0.  1.
       -3    1    3    3    0  502  0.16458575748E+03  0.21848021416E+03  0.98309506200E+03  0.10204400946E+04  0.10100000352E+00 0. -1.
</event>
<event>
 5   0  0.1981750E-03  0.6995282E+03  0.7818609E-02  0.9718039E-01
        3   -1    0    0  501    0  0.00000000000E+00  0.00000000000E+00  0.16325545816E+03  0.16325548940E+03  0.10100000352E+00 0. -1.
       -3   -1    0    0    0  501  0.00000000000E+00  0.00000000000E+00 -0.74934647598E+03  0.74934648279E+03  0.10100000352E+00 0.  1.
    10030    2    1    2    0    0  0.00000000000E+00  0.00000000000E+00 -0.58609101782E+03  0.91260197219E+03  0.69952818276E+03 0.  0.
        1    1    3    3  502    0 -0.10320164166E+03  0.20961739958E+03  0.46512866226E+02  0.23822988855E+03  0.50400001928E-02 0. -1.
       -1    1    3    3    0  502  0.10320164166E+03 -0.20961739958E+03 -0.63260388405E+03  0.67437208364E+03  0.50400001928E-02 0.  1.
</event>
<event>
 5   0  0.5113683E-03  0.6989720E+03  0.7818609E-02  0.9718992E-01
        2   -1    0    0  501    0  0.00000000000E+00  0.00000000000E+00  0.95721919004E+03  0.95721919004E+03  0.25500000920E-02 0. -1.
       -2   -1    0    0    0  501  0.00000000000E+00  0.00000000000E+00 -0.12759926750E+03  0.12759926753E+03  0.25500000920E-02 0.  1.
    10030    2    1    2    0    0  0.00000000000E+00  0.00000000000E+00  0.82961992253E+03  0.10848184576E+04  0.69897200946E+03 0.  0.
        3    1    3    3  502    0 -0.15478310841E+03 -0.14432760419E+03 -0.16841868584E+02  0.21230149956E+03  0.10100000352E+00 0.  1.
       -3    1    3    3    0  502  0.15478310841E+03  0.14432760419E+03  0.84646179112E+03  0.87251695800E+03  0.10100000352E+00 0. -1.
</event>
<event>
 5   0  0.2938783E-03  0.6990923E+03  0.7818609E-02  0.9718786E-01
        1   -1    0    0  501    0  0.00000000000E+00  0.00000000000E+00  0.61884272969E+03  0.61884272971E+03  0.50400001928E-02 0.  1.
       -1   -1    0    0    0  501  0.00000000000E+00  0.00000000000E+00 -0.19743706779E+03  0.19743706785E+03  0.50400001928E-02 0. -1.
    10030    2    1    2    0    0  0.00000000000E+00  0.00000000000E+00  0.42140566190E+03  0.81627979756E+03  0.69909225144E+03 0.  0.
        4    1    3    3  502    0 -0.79695158539E+02 -0.32915965936E+03  0.10969468415E+03  0.35599429247E+03  0.12699999809E+01 0. -1.
       -4    1    3    3    0  502  0.79695158539E+02  0.32915965936E+03  0.31171097775E+03  0.46028550509E+03  0.12699999809E+01 0.  1.
</event>
<event>
 5   0  0.2938783E-03  0.7002135E+03  0.7818609E-02  0.9716867E-01
        1   -1    0    0  501    0  0.00000000000E+00  0.00000000000E+00  0.37818022978E+03  0.37818022982E+03  0.50400001928E-02 0. -1.
       -1   -1    0    0    0  501  0.00000000000E+00  0.00000000000E+00 -0.32411723363E+03  0.32411723367E+03  0.50400001928E-02 0.  1.
    10030    2    1    2    0    0  0.00000000000E+00  0.00000000000E+00  0.54062996155E+02  0.70229746349E+03  0.70021348149E+03 0.  0.
        4    1    3    3  502    0  0.15455316170E+03  0.88662112855E+02  0.32930108423E+03  0.37441750363E+03  0.12699999809E+01 0. -1.
       -4    1    3    3    0  502 -0.15455316170E+03 -0.88662112855E+02 -0.27523808807E+03  0.32787995986E+03  0.12699999809E+01 0.  1.
</event>
<event>
 5   0  0.2913582E-03  0.7017261E+03  0.7818609E-02  0.9714285E-01
        1   -1    0    0  501    0  0.00000000000E+00  0.00000000000E+00  0.56148699508E+03  0.56148699510E+03  0.50400001928E-02 0.  1.
       -1   -1    0    0    0  501  0.00000000000E+00  0.00000000000E+00 -0.21924796474E+03  0.21924796480E+03  0.50400001928E-02 0. -1.
    10030    2    1    2    0    0  0.00000000000E+00  0.00000000000E+00  0.34223903034E+03  0.78073495990E+03  0.70172610306E+03 0.  0.
        1    1    3    3  502    0  0.12426752500E+03  0.14434399480E+03  0.49896112886E+03  0.53407847246E+03  0.50400001928E-02 0.  1.
       -1    1    3    3    0  502 -0.12426752500E+03 -0.14434399480E+03 -0.15672209852E+03  0.24665648744E+03  0.50400001928E-02 0. -1.
</event>
<event>
 5   0  0.2934483E-03  0.7006687E+03  0.7818609E-02  0.9716089E-01
        1   -1    0    0  501    0  0.00000000000E+00  0.00000000000E+00  0.42404318505E+03  0.42404318508E+03  0.50400001928E-02 0.  1.
       -1   -1    0    0    0  501  0.00000000000E+00  0.00000000000E+00 -0.28943787351E+03  0.28943787355E+03  0.50400001928E-02 0. -1.
    10030    2    1    2    0    0  0.00000000000E+00  0.00000000000E+00  0.13460531154E+03  0.71348105864E+03  0.70066870284E+03 0.  0.
        5    1    3    3  502    0 -0.63578489273E+02 -0.26977651620E+03 -0.15083518225E+03  0.31558665243E+03  0.46999998093E+01 0. -1.
       -5    1    3    3    0  502  0.63578489273E+02  0.26977651620E+03  0.28544049379E+03  0.39789440620E+03  0.46999998093E+01 0.  1.
</event>
<event>
 5   0  0.2937617E-03  0.6980685E+03  0.7818609E-02  0.9720541E-01
        1   -1    0    0  501    0  0.00000000000E+00  0.00000000000E+00  0.39551638169E+03  0.39551638173E+03  0.50400001928E-02 0. -1.
       -1   -1    0    0    0  501  0.00000000000E+00  0.00000000000E+00 -0.30801481991E+03  0.30801481995E+03  0.50400001928E-02 0.  1.
    10030    2    1    2    0    0  0.00000000000E+00  0.00000000000E+00  0.87501561787E+02  0.70353120167E+03  0.69806849837E+03 0.  0.
        3    1    3    3  502    0  0.26310714586E+03  0.16890906360E+03  0.20010753515E+03  0.37121244294E+03  0.10100000352E+00 0. -1.
       -3    1    3    3    0  502 -0.26310714586E+03 -0.16890906360E+03 -0.11260597336E+03  0.33231875873E+03  0.10100000352E+00 0.  1.
</event>
<event>
 5   0  0.3013140E-03  0.6998230E+03  0.7818609E-02  0.9717535E-01
       -1   -1    0    0    0  501  0.00000000000E+00  0.00000000000E+00  0.14580339623E+03  0.14580339631E+03  0.50400001928E-02 0. -1.
        1   -1    0    0  501    0  0.00000000000E+00  0.00000000000E+00 -0.83974770170E+03  0.83974770171E+03  0.50400001928E-02 0.  1.
    10030    2    1    2    0    0  0.00000000000E+00  0.00000000000E+00 -0.69394430547E+03  0.98555109803E+03  0.69982302601E+03 0.  0.
        2    1    3    3  502    0  0.23988159447E+03 -0.23886881718E+03 -0.47163989254E+03  0.58055635336E+03  0.25500000920E-02 0.  1.
       -2    1    3    3    0  502 -0.23988159447E+03  0.23886881718E+03 -0.22230441293E+03  0.40499474466E+03  0.25500000920E-02 0. -1.
</event>
<event>
 5   0  0.3013140E-03  0.7005543E+03  0.7818609E-02  0.9716285E-01
        1   -1    0    0  501    0  0.00000000000E+00  0.00000000000E+00  0.83483161462E+03  0.83483161464E+03  0.50400001928E-02 0.  1.
       -1   -1    0    0    0  501  0.00000000000E+00  0.00000000000E+00 -0.14696863953E+03  0.14696863962E+03  0.50400001928E-02 0. -1.
    10030    2    1    2    0    0  0.00000000000E+00  0.00000000000E+00  0.68786297509E+03  0.98180025426E+03  0.70055425683E+03 0.  0.
        2    1    3    3  502    0  0.34283772308E+03  0.13955961663E+02  0.44264848822E+03  0.56006263700E+03  0.25500000920E-02 0. -1.
       -2    1    3    3    0  502 -0.34283772308E+03 -0.13955961663E+02  0.24521448687E+03  0.42173761726E+03  0.25500000920E-02 0.  1.
</event>
<event>
 5   0  0.5023894E-03  0.6890765E+03  0.7818609E-02  0.9736097E-01
        2   -1    0    0  501    0  0.00000000000E+00  0.00000000000E+00  0.11373451803E+04  0.11373451803E+04  0.25500000920E-02 0. -1.
       -2   -1    0    0    0  501  0.00000000000E+00  0.00000000000E+00 -0.10437167043E+03  0.10437167046E+03  0.25500000920E-02 0.  1.
    10030    2    1    2    0    0  0.00000000000E+00  0.00000000000E+00  0.10329735099E+04  0.12417168507E+04  0.68907653085E+03 0.  0.
        2    1    3    3  502    0 -0.13899852985E+03  0.17163352936E+03  0.99300609879E+03  0.10172707466E+04  0.25500000920E-02 0. -1.
       -2    1    3    3    0  502  0.13899852985E+03 -0.17163352936E+03  0.39967411069E+02  0.22444610412E+03  0.25500000920E-02 0.  1.
</event>
<event>
 5   0  0.2937617E-03  0.7002190E+03  0.7818609E-02  0.9716858E-01
        1   -1    0    0  501    0  0.00000000000E+00  0.00000000000E+00  0.19086332121E+04  0.19086332121E+04  0.50400001928E-02 0. -1.
       -1   -1    0    0    0  501  0.00000000000E+00  0.00000000000E+00 -0.64222225043E+02  0.64222225241E+02  0.50400001928E-02 0.  1.
    10030    2    1    2    0    0  0.00000000000E+00  0.00000000000E+00  0.18444109870E+04  0.19728554373E+04  0.70021902823E+03 0.  0.
        3    1    3    3  502    0  0.27381808496E+03 -0.13550545946E+03  0.14039752753E+04  0.14368314644E+04  0.10100000352E+00 0. -1.
       -3    1    3    3    0  502 -0.27381808496E+03  0.13550545946E+03  0.44043571174E+03  0.53602397295E+03  0.10100000352E+00 0.  1.
</event>
<event>
 5   0  0.2913582E-03  0.7026403E+03  0.7818609E-02  0.9712727E-01
       -1   -1    0    0    0  501  0.00000000000E+00  0.00000000000E+00  0.29871943725E+03  0.29871943730E+03  0.50400001928E-02 0.  1.
        1   -1    0    0  501    0  0.00000000000E+00  0.00000000000E+00 -0.41318323118E+03  0.41318323121E+03  0.50400001928E-02 0. -1.
    10030    2    1    2    0    0  0.00000000000E+00  0.00000000000E+00 -0.11446379393E+03  0.71190266851E+03  0.70264034136E+03 0.  0.
        1    1    3    3  502    0  0.14104042058E+03 -0.14012407069E+03 -0.35070288465E+03  0.40313728276E+03  0.50400001928E-02 0. -1.
       -1    1    3    3    0  502 -0.14104042058E+03  0.14012407069E+03  0.23623909072E+03  0.30876538575E+03  0.50400001928E-02 0.  1.
</event>
<event>
 5   0  0.5023894E-03  0.6990867E+03  0.7818609E-02  0.9718795E-01
       -2   -1    0    0    0  501  0.00000000000E+00  0.00000000000E+00  0.40594504288E+03  0.40594504289E+03  0.25500000920E-02 0. -1.
        2   -1    0    0  501    0  0.00000000000E+00  0.00000000000E+00 -0.30097808171E+03  0.30097808172E+03  0.25500000920E-02 0.  1.
    10030    2    1    2    0    0  0.00000000000E+00  0.00000000000E+00  0.10496696117E+03  0.70692312461E+03  0.69908671935E+03 0.  0.
        2    1    3    3  502    0 -0.14023809927E+03  0.22308899716E+03 -0.17975401594E+03  0.31897794813E+03  0.25500000920E-02 0.  1.
       -2    1    3    3    0  502  0.14023809927E+03 -0.22308899716E+03  0.28472097711E+03  0.38794517648E+03  0.25500000920E-02 0. -1.
</event>
<event>
 5   0  0.3013140E-03  0.7046564E+03  0.7818609E-02  0.9709302E-01
        1   -1    0    0  501    0  0.00000000000E+00  0.00000000000E+00  0.11478961944E+04  0.11478961944E+04  0.50400001928E-02 0.  1.
       -1   -1    0    0    0  501  0.00000000000E+00  0.00000000000E+00 -0.10814143967E+03  0.10814143979E+03  0.50400001928E-02 0. -1.
    10030    2    1    2    0    0  0.00000000000E+00  0.00000000000E+00  0.10397547547E+04  0.12560376342E+04  0.70465636202E+03 0.  0.
        2    1    3    3  502    0  0.11221580620E+02 -0.30848728518E+03  0.82260996806E+03  0.87862249490E+03  0.25500000920E-02 0.  1.
       -2    1    3    3    0  502 -0.11221580620E+02  0.30848728518E+03  0.21714478668E+03  0.37741513931E+03  0.25500000920E-02 0. -1.
</event>
<event>
 5   0  0.2937617E-03  0.7002524E+03  0.7818609E-02  0.9716801E-01
        1   -1    0    0  501    0  0.00000000000E+00  0.00000000000E+00  0.50124712332E+03  0.50124712335E+03  0.50400001928E-02 0. -1.
       -1   -1    0    0    0  501  0.00000000000E+00  0.00000000000E+00 -0.24456667520E+03  0.24456667525E+03  0.50400001928E-02 0.  1.
    10030    2    1    2    0    0  0.00000000000E+00  0.00000000000E+00  0.25668044812E+03  0.74581379860E+03  0.70025236146E+03 0.  0.
        3    1    3    3  502    0  0.10111798457E+03  0.12201730140E+03  0.46086425862E+03  0.48734889321E+03  0.10100000352E+00 0. -1.
       -3    1    3    3    0  502 -0.10111798457E+03 -0.12201730140E+03 -0.20418381050E+03  0.25846490538E+03  0.10100000352E+00 0.  1.
</event>
<event>
 5   0  0.5072407E-03  0.7030169E+03  0.7818609E-02  0.9712087E-01
       -2   -1    0    0    0  501  0.00000000000E+00  0.00000000000E+00  0.46825363305E+03  0.46825363305E+03  0.25500000920E-02 0. -1.
        2   -1    0    0  501    0  0.00000000000E+00  0.00000000000E+00 -0.26387022667E+03  0.26387022668E+03  0.25500000920E-02 0.  1.
    10030    2    1    2    0    0  0.00000000000E+00  0.00000000000E+00  0.20438340638E+03  0.73212385974E+03  0.70301690534E+03 0.  0.
        1    1    3    3  502    0 -0.43668232419E+02  0.24625124070E+03 -0.15504030852E+03  0.29425173808E+03  0.50400001928E-02 0.  1.
       -1    1    3    3    0  502  0.43668232419E+02 -0.24625124070E+03  0.35942371490E+03  0.43787212166E+03  0.50400001928E-02 0. -1.
</event>
<event>
 5   0  0.5023894E-03  0.6986431E+03  0.7818609E-02  0.9719556E-01
       -2   -1    0    0    0  501  0.00000000000E+00  0.00000000000E+00  0.29427786953E+03  0.29427786954E+03  0.25500000920E-02 0. -1.
        2   -1    0    0  501    0  0.00000000000E+00  0.00000000000E+00 -0.41466094843E+03  0.41466094844E+03  0.25500000920E-02 0.  1.
    10030    2    1    2    0    0  0.00000000000E+00  0.00000000000E+00 -0.12038307890E+03  0.70893881798E+03  0.69864308625E+03 0.  0.
        2    1    3    3  502    0  0.70888169771E+02 -0.24809704838E+03  0.17875313853E+03  0.31389482725E+03  0.25500000920E-02 0. -1.
       -2    1    3    3    0  502 -0.70888169771E+02  0.24809704838E+03 -0.29913621744E+03  0.39504399074E+03  0.25500000920E-02 0.  1.
</event>
<event>
 5   0  0.4878235E-03  0.7004879E+03  0.7818609E-02  0.9716398E-01
       -2   -1    0    0    0  501  0.00000000000E+00  0.00000000000E+00  0.19267042761E+03  0.19267042762E+03  0.25500000920E-02 0.  1.
        2   -1    0    0  501    0  0.00000000000E+00  0.00000000000E+00 -0.63668726522E+03  0.63668726523E+03  0.25500000920E-02 0. -1.
    10030    2    1    2    0    0  0.00000000000E+00  0.00000000000E+00 -0.44401683762E+03  0.82935769285E+03  0.70048785186E+03 0.  0.
        4    1    3    3  502    0  0.21154024314E+03 -0.10153164803E+03 -0.52986662542E+03  0.57949823438E+03  0.12699999809E+01 0. -1.
       -4    1    3    3    0  502 -0.21154024314E+03  0.10153164803E+03  0.85849787803E+02  0.24985945847E+03  0.12699999809E+01 0.  1.
</event>
<event>
 5   0  0.5076796E-03  0.7106470E+03  0.7818609E-02  0.9699196E-01
        2   -1    0    0  501    0  0.00000000000E+00  0.00000000000E+00  0.27094883046E+03  0.27094883047E+03  0.25500000920E-02 0. -1.
       -2   -1    0    0    0  501  0.00000000000E+00  0.00000000000E+00 -0.46597286937E+03  0.46597286938E+03  0.25500000920E-02 0.  1.
    10030    2    1    2    0    0  0.00000000000E+00  0.00000000000E+00 -0.19502403891E+03  0.73692169985E+03  0.71064704035E+03 0.  0.
        5    1    3    3  502    0 -0.20822545097E+03 -0.28701304366E+03 -0.12066203705E+03  0.37458743018E+03  0.46999998093E+01 0.  1.
       -5    1    3    3    0  502  0.20822545097E+03  0.28701304366E+03 -0.74362001866E+02  0.36233426968E+03  0.46999998093E+01 0. -1.
</event>
<event>
 5   0  0.4878235E-03  0.7003741E+03  0.7818609E-02  0.9716593E-01
       -2   -1    0    0    0  501  0.00000000000E+00  0.00000000000E+00  0.33924264255E+03  0.33924264256E+03  0.25500000920E-02 0.  1.
        2   -1    0    0  501    0  0.00000000000E+00  0.00000000000E+00 -0.36148458556E+03  0.36148458557E+03  0.25500000920E-02 0. -1.
    10030    2    1    2    0    0  0.00000000000E+00  0.00000000000E+00 -0.22241943010E+02  0.70072722813E+03  0.70037414588E+03 0.  0.
        4    1    3    3  502    0  0.17110076305E+03  0.27739734139E+03  0.11702410814E+03  0.34629613182E+03  0.12699999809E+01 0.  1.
       -4    1    3    3    0  502 -0.17110076305E+03 -0.27739734139E+03 -0.13926605115E+03  0.35443109631E+03  0.12699999809E+01 0. -1.
</event>
<event>
 5   0  0.5072407E-03  0.7008828E+03  0.7818609E-02  0.9715724E-01
        2   -1    0    0  501    0  0.00000000000E+00  0.00000000000E+00  0.19767297436E+04  0.19767297436E+04  0.25500000920E-02 0. -1.
       -2   -1    0    0    0  501  0.00000000000E+00  0.00000000000E+00 -0.62127442946E+02  0.62127442998E+02  0.25500000920E-02 0.  1.
    10030    2    1    2    0    0  0.00000000000E+00  0.00000000000E+00  0.19146023007E+04  0.20388571866E+04  0.70088277029E+03 0.  0.
        1    1    3    3  502    0  0.16724252351E+03 -0.20744197974E+03  0.29518323078E+03  0.39766238996E+03  0.50400001928E-02 0.  1.
       -1    1    3    3    0  502 -0.16724252351E+03  0.20744197974E+03  0.16194190699E+04  0.16411947967E+04  0.50400001928E-02 0. -1.
</event>
<event>
 5   0  0.3013140E-03  0.7009953E+03  0.7818609E-02  0.9715532E-01
        1   -1    0    0  501    0  0.00000000000E+00  0.00000000000E+00  0.55555254316E+03  0.55555254318E+03  0.50400001928E-02 0.  1.
       -1   -1    0    0    0  501  0.00000000000E+00  0.00000000000E+00 -0.22112869001E+03  0.22112869007E+03  0.50400001928E-02 0. -1.
    10030    2    1    2    0    0  0.00000000000E+00  0.00000000000E+00  0.33442385315E+03  0.77668123325E+03  0.70099530992E+03 0.  0.
        2    1    3    3  502    0  0.21151215991E+03  0.24371231434E+03  0.31878730124E+03  0.45360602883E+03  0.25500000920E-02 0.  1.
       -2    1    3    3    0  502 -0.21151215991E+03 -0.24371231434E+03  0.15636551913E+02  0.32307520442E+03  0.25500000920E-02 0. -1.
</event>
<event>
 5   0  0.5023894E-03  0.7003477E+03  0.7818609E-02  0.9716638E-01
        2   -1    0    0  501    0  0.00000000000E+00  0.00000000000E+00  0.11889455975E+04  0.11889455975E+04  0.25500000920E-02 0. -1.
       -2   -1    0    0    0  501  0.00000000000E+00  0.00000000000E+00 -0.10313486038E+03  0.10313486041E+03  0.25500000920E-02 0.  1.
    10030    2    1    2    0    0  0.00000000000E+00  0.00000000000E+00  0.10858107371E+04  0.12920804579E+04  0.70034773709E+03 0.  0.
        2    1    3    3  502    0  0.17550717710E+03 -0.30263378521E+03  0.57099176640E+03  0.66964287084E+03  0.25500000920E-02 0. -1.
       -2    1    3    3    0  502 -0.17550717710E+03  0.30263378521E+03  0.51481897071E+03  0.62243758706E+03  0.25500000920E-02 0.  1.
</event>
<event>
 5   0  0.5113683E-03  0.6995464E+03  0.7818609E-02  0.9718008E-01
        2   -1    0    0  501    0  0.00000000000E+00  0.00000000000E+00  0.13291600924E+04  0.13291600924E+04  0.25500000920E-02 0.  1.
       -2   -1    0    0    0  501  0.00000000000E+00  0.00000000000E+00 -0.92044054571E+02  0.92044054606E+02  0.25500000920E-02 0. -1.
    10030    2    1    2    0    0  0.00000000000E+00  0.00000000000E+00  0.12371160378E+04  0.14212041470E+04  0.69954637904E+03 0.  0.
        3    1    3    3  502    0 -0.70205285535E+02 -0.15321840905E+03 -0.41111993537E+01  0.16858699579E+03  0.10100000352E+00 0. -1.
       -3    1    3    3    0  502  0.70205285535E+02  0.15321840905E+03  0.12412272372E+04  0.12526171512E+04  0.10100000352E+00 0.  1.
</event>
<event>
 5   0  0.1981750E-03  0.7004671E+03  0.7818609E-02  0.9716434E-01
        4   -1    0    0  501    0  0.00000000000E+00  0.00000000000E+00  0.14105148890E+03  0.14105720620E+03  0.12699999809E+01 0. -1.
       -4   -1    0    0    0  501  0.00000000000E+00  0.00000000000E+00 -0.86961277620E+03  0.86961370357E+03  0.12699999809E+01 0.  1.
    10030    2    1    2    0    0  0.00000000000E+00  0.00000000000E+00 -0.72856128730E+03  0.10106709098E+04  0.70046708594E+03 0.  0.
        2    1    3    3  502    0 -0.30765625412E+02  0.32628598585E+03 -0.18607537415E+03  0.37687280765E+03  0.25500000920E-02 0. -1.
       -2    1    3    3    0  502  0.30765625412E+02 -0.32628598585E+03 -0.54248591315E+03  0.63379810212E+03  0.25500000920E-02 0.  1.
</event>
<event>
 5   0  0.5072407E-03  0.7023793E+03  0.7818609E-02  0.9713172E-01
       -2   -1    0    0    0  501  0.00000000000E+00  0.00000000000E+00  0.56130304228E+03  0.56130304228E+03  0.25500000920E-02 0.  1.
        2   -1    0    0  501    0  0.00000000000E+00  0.00000000000E+00 -0.21972830444E+03  0.21972830445E+03  0.25500000920E-02 0. -1.
    10030    2    1    2    0    0  0.00000000000E+00  0.00000000000E+00  0.34157473784E+03  0.78103134674E+03  0.70237928718E+03 0.  0.
        1    1    3    3  502    0  0.17240858676E+03  0.26150732780E+02 -0.16818509375E+03  0.24227011248E+03  0.50400001928E-02 0. -1.
       -1    1    3    3    0  502 -0.17240858676E+03 -0.26150732780E+02  0.50975983159E+03  0.53876123426E+03  0.50400001928E-02 0.  1.
</event>
<event>
 5   0  0.2913582E-03  0.6997705E+03  0.7818609E-02  0.9717625E-01
        1   -1    0    0  501    0  0.00000000000E+00  0.00000000000E+00  0.56526167959E+03  0.56526167961E+03  0.50400001928E-02 0.  1.
       -1   -1    0    0    0  501  0.00000000000E+00  0.00000000000E+00 -0.21657171299E+03  0.21657171305E+03  0.50400001928E-02 0. -1.
    10030    2    1    2    0    0  0.00000000000E+00  0.00000000000E+00  0.34868996660E+03  0.78183339265E+03  0.69977050600E+03 0.  0.
        1    1    3    3  502    0 -0.21770757305E+03  0.14876107750E+03  0.43130093791E+03  0.50551651270E+03  0.50400001928E-02 0.  1.
       -1    1    3    3    0  502  0.21770757305E+03 -0.14876107750E+03 -0.82610971314E+02  0.27631687995E+03  0.50400001928E-02 0. -1.
</event>
<event>
 5   0  0.5023894E-03  0.6990037E+03  0.7818609E-02  0.9718937E-01
       -2   -1    0    0    0  501  0.00000000000E+00  0.00000000000E+00  0.88765725503E+02  0.88765725540E+02  0.25500000920E-02 0.  1.
        2   -1    0    0  501    0  0.00000000000E+00  0.00000000000E+00 -0.13761116915E+04  0.13761116915E+04  0.25500000920E-02 0. -1.
    10030    2    1    2    0    0  0.00000000000E+00  0.00000000000E+00 -0.12873459660E+04  0.14648774170E+04  0.69900372730E+03 0.  0.
        2    1    3    3  502    0 -0.38211655245E+02  0.54631055270E+02  0.75316764843E+02  0.10058477951E+03  0.25500000920E-02 0.  1.
       -2    1    3    3    0  502  0.38211655245E+02 -0.54631055270E+02 -0.13626627308E+04  0.13642926375E+04  0.25500000920E-02 0. -1.
</event>
<event>
 5   0  0.2937617E-03  0.7007375E+03  0.7818609E-02  0.9715972E-01
       -1   -1    0    0    0  501  0.00000000000E+00  0.00000000000E+00  0.39636393334E+03  0.39636393337E+03  0.50400001928E-02 0. -1.
        1   -1    0    0  501    0  0.00000000000E+00  0.00000000000E+00 -0.30971097440E+03  0.30971097444E+03  0.50400001928E-02 0.  1.
    10030    2    1    2    0    0  0.00000000000E+00  0.00000000000E+00  0.86652958939E+02  0.70607490781E+03  0.70073749732E+03 0.  0.
        3    1    3    3  502    0 -0.22585965176E+03 -0.72087134161E+02  0.30326255319E+03  0.38493807758E+03  0.10100000352E+00 0. -1.
       -3    1    3    3    0  502  0.22585965176E+03  0.72087134161E+02 -0.21660959425E+03  0.32113683023E+03  0.10100000352E+00 0.  1.
</event>
<event>
 5   0  0.5076796E-03  0.7000329E+03  0.7818609E-02  0.9717176E-01
       -2   -1    0    0    0  501  0.00000000000E+00  0.00000000000E+00  0.97236194504E+02  0.97236194537E+02  0.25500000920E-02 0.  1.
        2   -1    0    0  501    0  0.00000000000E+00  0.00000000000E+00 -0.12599374292E+04  0.12599374292E+04  0.25500000920E-02 0. -1.
    10030    2    1    2    0    0  0.00000000000E+00  0.00000000000E+00 -0.11627012347E+04  0.13571736238E+04  0.70003291624E+03 0.  0.
        5    1    3    3  502    0 -0.46665068833E+02  0.72306094267E+02  0.76343151429E+02  0.11513542759E+03  0.46999998093E+01 0.  1.
       -5    1    3    3    0  502  0.46665068833E+02 -0.72306094267E+02 -0.12390443861E+04  0.12420381962E+04  0.46999998093E+01 0. -1.
</event>
<event>
 5   0  0.3013140E-03  0.6994707E+03  0.7818609E-02  0.9718138E-01
        1   -1    0    0  501    0  0.00000000000E+00  0.00000000000E+00  0.19490734838E+03  0.19490734845E+03  0.50400001928E-02 0. -1.
       -1   -1    0    0    0  501  0.00000000000E+00  0.00000000000E+00 -0.62755359579E+03  0.62755359581E+03  0.50400001928E-02 0.  1.
    10030    2    1    2    0    0  0.00000000000E+00  0.00000000000E+00 -0.43264624741E+03  0.82246094426E+03  0.69947067804E+03 0.  0.
        2    1    3    3  502    0  0.11983593276E+03 -0.30395919129E+03 -0.69636009993E+02  0.33406738039E+03  0.25500000920E-02 0. -1.
       -2    1    3    3    0  502 -0.11983593276E+03  0.30395919129E+03 -0.36301023742E+03  0.48839356387E+03  0.25500000920E-02 0.  1.
</event>
<event>
 5   0  0.4878235E-03  0.7018958E+03  0.7818609E-02  0.9713996E-01
       -2   -1    0    0    0  501  0.00000000000E+00  0.00000000000E+00  0.79568442041E+02  0.79568442082E+02  0.25500000920E-02 0.  1.
        2   -1    0    0  501    0  0.00000000000E+00  0.00000000000E+00 -0.15479053542E+04  0.15479053542E+04  0.25500000920E-02 0. -1.
    10030    2    1    2    0    0  0.00000000000E+00  0.00000000000E+00 -0.14683369121E+04  0.16274737963E+04  0.70189576860E+03 0.  0.
        4    1    3    3  502    0 -0.30597314912E+03  0.18160481233E+02 -0.11304763130E+04  0.11712931649E+04  0.12699999809E+01 0. -1.
       -4    1    3    3    0  502  0.30597314912E+03 -0.18160481233E+02 -0.33786059916E+03  0.45618063136E+03  0.12699999809E+01 0.  1.
</event>
<event>
 5   0  0.2913582E-03  0.6996662E+03  0.7818609E-02  0.9717803E-01
       -1   -1    0    0    0  501  0.00000000000E+00  0.00000000000E+00  0.31391685717E+03  0.31391685721E+03  0.50400001928E-02 0.  1.
        1   -1    0    0  501    0  0.00000000000E+00  0.00000000000E+00 -0.38985859337E+03  0.38985859340E+03  0.50400001928E-02 0. -1.
    10030    2    1    2    0    0  0.00000000000E+00  0.00000000000E+00 -0.75941736198E+02  0.70377545061E+03  0.69966616153E+03 0.  0.
        1    1    3    3  502    0  0.30506562366E+03  0.45476131329E+02  0.12807461389E+03  0.33397038792E+03  0.50400001928E-02 0.  1.
       -1    1    3    3    0  502 -0.30506562366E+03 -0.45476131329E+02 -0.20401635009E+03  0.36980506269E+03  0.50400001928E-02 0. -1.
</event>
<event>
 5   0  0.5072407E-03  0.7084687E+03  0.7818609E-02  0.9702858E-01
        2   -1    0    0  501    0  0.00000000000E+00  0.00000000000E+00  0.20654604645E+04  0.20654604645E+04  0.25500000920E-02 0.  1.
       -2   -1    0    0    0  501  0.00000000000E+00  0.00000000000E+00 -0.60752541850E+02  0.60752541904E+02  0.25500000920E-02 0. -1.
    10030    2    1    2    0    0  0.00000000000E+00  0.00000000000E+00  0.20047079226E+04  0.21262130064E+04  0.70846869618E+03 0.  0.
        1    1    3    3  502    0  0.26426189307E+03 -0.23585622853E+03  0.98911329894E+03  0.10506224949E+04  0.50400001928E-02 0. -1.
       -1    1    3    3    0  502 -0.26426189307E+03  0.23585622853E+03  0.10155946237E+04  0.10755905115E+04  0.50400001928E-02 0.  1.
</event>
<event>
 5   0  0.2938783E-03  0.7015531E+03  0.7818609E-02  0.9714580E-01
        1   -1    0    0  501    0  0.00000000000E+00  0.00000000000E+00  0.41976835714E+03  0.41976835717E+03  0.50400001928E-02 0. -1.
       -1   -1    0    0    0  501  0.00000000000E+00  0.00000000000E+00 -0.29312402149E+03  0.29312402154E+03  0.50400001928E-02 0.  1.
    10030    2    1    2    0    0  0.00000000000E+00  0.00000000000E+00  0.12664433565E+03  0.71289237871E+03  0.70155310267E+03 0.  0.
        4    1    3    3  502    0 -0.11691112408E+03 -0.33070950244E+03  0.60919607103E+02  0.35601937780E+03  0.12699999809E+01 0.  1.
       -4    1    3    3    0  502  0.11691112408E+03  0.33070950244E+03  0.65724728546E+02  0.35687300091E+03  0.12699999809E+01 0. -1.
</event>
<event>
 5   0  0.1981750E-03  0.6981153E+03  0.7818609E-02  0.9720461E-01
        3   -1    0    0  501    0  0.00000000000E+00  0.00000000000E+00  0.22075239943E+03  0.22075242254E+03  0.10100000352E+00 0.  1.
       -3   -1    0    0    0  501  0.00000000000E+00  0.00000000000E+00 -0.55193609326E+03  0.55193610250E+03  0.10100000352E+00 0. -1.
    10030    2    1    2    0    0  0.00000000000E+00  0.00000000000E+00 -0.33118369382E+03  0.77268852504E+03  0.69811526102E+03 0.  0.
        2    1    3    3  502    0  0.31665472205E+03  0.10575205676E+03 -0.52785575581E+02  0.33799412347E+03  0.25500000920E-02 0. -1.
       -2    1    3    3    0  502 -0.31665472205E+03 -0.10575205676E+03 -0.27839811824E+03  0.43469440157E+03  0.25500000920E-02 0.  1.
</event>
<event>
 5   0  0.5113683E-03  0.6970286E+03  0.7818609E-02  0.9722327E-01
       -2   -1    0    0    0  501  0.00000000000E+00  0.00000000000E+00  0.10168478699E+03  0.10168478702E+03  0.25500000920E-02 0.  1.
        2   -1    0    0  501    0  0.00000000000E+00  0.00000000000E+00 -0.11944973394E+04  0.11944973394E+04  0.25500000920E-02 0. -1.
    10030    2    1    2    0    0  0.00000000000E+00  0.00000000000E+00 -0.10928125524E+04  0.12961821264E+04  0.69702857198E+03 0.  0.
        3    1    3    3  502    0  0.13245635596E+03  0.28636105390E+03 -0.82169268950E+03  0.88018533594E+03  0.10100000352E+00 0. -1.
       -3    1    3    3    0  502 -0.13245635596E+03 -0.28636105390E+03 -0.27111986288E+03  0.41599679046E+03  0.10100000352E+00 0.  1.
</event>
<event>
 5   0  0.2937617E-03  0.6991468E+03  0.7818609E-02  0.9718692E-01
        1   -1    0    0  501    0  0.00000000000E+00  0.00000000000E+00  0.73149980152E+03  0.73149980154E+03  0.50400001928E-02 0. -1.
       -1   -1    0    0    0  501  0.00000000000E+00  0.00000000000E+00 -0.16705616877E+03  0.16705616884E+03  0.50400001928E-02 0.  1.
    10030    2    1    2    0    0  0.00000000000E+00  0.00000000000E+00  0.56444363275E+03  0.89855597038E+03  0.69914677812E+03 0.  0.
        3    1    3    3  502    0 -0.45019859256E+02  0.27629884429E+03  0.13142160221E+02  0.28025089770E+03  0.10100000352E+00 0.  1.
       -3    1    3    3    0  502  0.45019859256E+02 -0.27629884429E+03  0.55130147253E+03  0.61830507268E+03  0.10100000352E+00 0. -1.
</event>
<event>
 5   0  0.5072407E-03  0.6995021E+03  0.7818609E-02  0.9718084E-01
       -2   -1    0    0    0  501  0.00000000000E+00  0.00000000000E+00  0.88706465130E+02  0.88706465166E+02  0.25500000920E-02 0. -1.
        2   -1    0    0  501    0  0.00000000000E+00  0.00000000000E+00 -0.13789953625E+04  0.13789953625E+04  0.25500000920E-02 0.  1.
    10030    2    1    2    0    0  0.00000000000E+00  0.00000000000E+00 -0.12902888974E+04  0.14677018277E+04  0.69950212027E+03 0.  0.
        1    1    3    3  502    0 -0.34949313175E+03 -0.12847554640E+02 -0.63693853470E+03  0.72663691471E+03  0.50400001928E-02 0.  1.
       -1    1    3    3    0  502  0.34949313175E+03  0.12847554640E+02 -0.65335036266E+03  0.74106491296E+03  0.50400001928E-02 0. -1.
</event>
<event>
 5   0  0.2938783E-03  0.7002214E+03  0.7818609E-02  0.9716854E-01
        1   -1    0    0  501    0  0.00000000000E+00  0.00000000000E+00  0.44164546522E+03  0.44164546525E+03  0.50400001928E-02 0. -1.
       -1   -1    0    0    0  501  0.00000000000E+00  0.00000000000E+00 -0.27754727706E+03  0.27754727711E+03  0.50400001928E-02 0.  1.
    10030    2    1    2    0    0  0.00000000000E+00  0.00000000000E+00  0.16409818816E+03  0.71919274236E+03  0.70022138307E+03 0.  0.
        4    1    3    3  502    0  0.38123913883E+02  0.34155620319E+03  0.13442557364E+02  0.34394241959E+03  0.12699999809E+01 0. -1.
       -4    1    3    3    0  502 -0.38123913883E+02 -0.34155620319E+03  0.15065563080E+03  0.37525032277E+03  0.12699999809E+01 0.  1.
</event>
<event>
 5   0  0.5113683E-03  0.7004585E+03  0.7818609E-02  0.9716448E-01
        2   -1    0    0  501    0  0.00000000000E+00  0.00000000000E+00  0.28071791330E+04  0.28071791330E+04  0.25500000920E-02 0. -1.
       -2   -1    0    0    0  501  0.00000000000E+00  0.00000000000E+00 -0.43695300913E+02  0.43695300988E+02  0.25500000920E-02 0.  1.
    10030    2    1    2    0    0  0.00000000000E+00  0.00000000000E+00  0.27634838321E+04  0.28508744340E+04  0.70045852709E+03 0.  0.
        3    1    3    3  502    0  0.30755579253E+03  0.13068765289E+03  0.95505599411E+03  0.10118309099E+04  0.10100000352E+00 0.  1.
       -3    1    3    3    0  502 -0.30755579253E+03 -0.13068765289E+03  0.18084278380E+04  0.18390435241E+04  0.10100000352E+00 0. -1.
</event>
<event>
 5   0  0.2938783E-03  0.6993224E+03  0.7818609E-02  0.9718392E-01
        1   -1    0    0  501    0  0.00000000000E+00  0.00000000000E+00  0.25456973376E+03  0.25456973381E+03  0.50400001928E-02 0.  1.
       -1   -1    0    0    0  501  0.00000000000E+00  0.00000000000E+00 -0.48027290426E+03  0.48027290428E+03  0.50400001928E-02 0. -1.
    10030    2    1    2    0    0  0.00000000000E+00  0.00000000000E+00 -0.22570317050E+03  0.73484263810E+03  0.69932237315E+03 0.  0.
        4    1    3    3  502    0  0.78234431338E+02  0.19944893985E+03 -0.40322191351E+03  0.45660708524E+03  0.12699999809E+01 0. -1.
       -4    1    3    3    0  502 -0.78234431338E+02 -0.19944893985E+03  0.17751874301E+03  0.27823555286E+03  0.12699999809E+01 0.  1.
</event>
<event>
 5   0  0.2934483E-03  0.6914966E+03  0.7818609E-02  0.9731886E-01
        1   -1    0    0  501    0  0.00000000000E+00  0.00000000000E+00  0.14448381505E+03  0.14448381514E+03  0.50400001928E-02 0.  1.
       -1   -1    0    0    0  501  0.00000000000E+00  0.00000000000E+00 -0.82737217012E+03  0.82737217013E+03  0.50400001928E-02 0. -1.
    10030    2    1    2    0    0  0.00000000000E+00  0.00000000000E+00 -0.68288835507E+03  0.97185598527E+03  0.69149660203E+03 0.  0.
        5    1    3    3  502    0 -0.13025428147E+03 -0.60829011824E+02 -0.78332767345E+03  0.79642368153E+03  0.46999998093E+01 0. -1.
       -5    1    3    3    0  502  0.13025428147E+03  0.60829011824E+02  0.10043931838E+03  0.17543230374E+03  0.46999998093E+01 0.  1.
</event>
<event>
 5   0  0.2938783E-03  0.7035836E+03  0.7818609E-02  0.9711123E-01
        1   -1    0    0  501    0  0.00000000000E+00  0.00000000000E+00  0.18762975379E+04  0.18762975379E+04  0.50400001928E-02 0.  1.
       -1   -1    0    0    0  501  0.00000000000E+00  0.00000000000E+00 -0.65958338184E+02  0.65958338376E+02  0.50400001928E-02 0. -1.
    10030    2    1    2    0    0  0.00000000000E+00  0.00000000000E+00  0.18103391997E+04  0.19422558763E+04  0.70358359200E+03 0.  0.
        4    1    3    3  502    0 -0.11761254909E+03 -0.18678823602E+02 -0.86174185252E+01  0.11940470241E+03  0.12699999809E+01 0. -1.
       -4    1    3    3    0  502  0.11761254909E+03  0.18678823602E+02  0.18189566182E+04  0.18228511739E+04  0.12699999809E+01 0.  1.
</event>
<event>
 5   0  0.2937617E-03  0.7001958E+03  0.7818609E-02  0.9716897E-01
       -1   -1    0    0    0  501  0.00000000000E+00  0.00000000000E+00  0.31243140443E+03  0.31243140447E+03  0.50400001928E-02 0.  1.
        1   -1    0    0  501    0  0.00000000000E+00  0.00000000000E+00 -0.39230547982E+03  0.39230547985E+03  0.50400001928E-02 0. -1.
    10030    2    1    2    0    0  0.00000000000E+00  0.00000000000E+00 -0.79874075387E+02  0.70473688432E+03  0.70019583561E+03 0.  0.
        3    1    3    3  502    0 -0.31251036199E+03 -0.37971869629E+02  0.11423587064E+03  0.33489466042E+03  0.10100000352E+00 0.  1.
       -3    1    3    3    0  502  0.31251036199E+03  0.37971869629E+02 -0.19410994603E+03  0.36984222390E+03  0.10100000352E+00 0. -1.
</event>
<event>
 5   0  0.5023894E-03  0.7083025E+03  0.7818609E-02  0.9703138E-01
        2   -1    0    0  501    0  0.00000000000E+00  0.00000000000E+00  0.14947505708E+04  0.14947505708E+04  0.25500000920E-02 0.  1.
       -2   -1    0    0    0  501  0.00000000000E+00  0.00000000000E+00 -0.83909058429E+02  0.83909058467E+02  0.25500000920E-02 0. -1.
    10030    2    1    2    0    0  0.00000000000E+00  0.00000000000E+00  0.14108415123E+04  0.15786596292E+04  0.70830251449E+03 0.  0.
        2    1    3    3  502    0  0.73662283018E+00 -0.29113538216E+03  0.11548570537E+04  0.11909891552E+04  0.25500000920E-02 0.  1.
       -2    1    3    3    0  502 -0.73662283018E+00  0.29113538216E+03  0.25598445865E+03  0.38767047403E+03  0.25500000920E-02 0. -1.
</event>
<event>
 5   0  0.4878235E-03  0.7003021E+03  0.7818609E-02  0.9716716E-01
       -2   -1    0    0    0  501  0.00000000000E+00  0.00000000000E+00  0.41721434018E+03  0.41721434019E+03  0.25500000920E-02 0.  1.
        2   -1    0    0  501    0  0.00000000000E+00  0.00000000000E+00 -0.29386753587E+03  0.29386753588E+03  0.25500000920E-02 0. -1.
    10030    2    1    2    0    0  0.00000000000E+00  0.00000000000E+00  0.12334680432E+03  0.71108187607E+03  0.70030207792E+03 0.  0.
        4    1    3    3  502    0  0.56365991152E+02 -0.30060230549E+03  0.23478307942E+03  0.38556916151E+03  0.12699999809E+01 0.  1.
       -4    1    3    3    0  502 -0.56365991152E+02  0.30060230549E+03 -0.11143627510E+03  0.32551271455E+03  0.12699999809E+01 0. -1.
</event>
<event>
 5   0  0.5076796E-03  0.6996085E+03  0.7818609E-02  0.9717902E-01
       -2   -1    0    0    0  501  0.00000000000E+00  0.00000000000E+00  0.12260462741E+03  0.12260462743E+03  0.25500000920E-02 0.  1.
        2   -1    0    0  501    0  0.00000000000E+00  0.00000000000E+00 -0.99802919431E+03  0.99802919431E+03  0.25500000920E-02 0. -1.
    10030    2    1    2    0    0  0.00000000000E+00  0.00000000000E+00 -0.87542456691E+03  0.11206338217E+04  0.69960845485E+03 0.  0.
        5    1    3    3  502    0 -0.15426920545E+03  0.30928820206E+02  0.62668864560E+02  0.16942566586E+03  0.46999998093E+01 0.  1.
       -5    1    3    3    0  502  0.15426920545E+03 -0.30928820206E+02 -0.93809343147E+03  0.95120815589E+03  0.46999998093E+01 0. -1.
</event>
<event>
 5   0  0.1981750E-03  0.7011207E+03  0.7818609E-02  0.9715318E-01
       -4   -1    0    0    0  501  0.00000000000E+00  0.00000000000E+00  0.17979976390E+03  0.17980424911E+03  0.12699999809E+01 0.  1.
        4   -1    0    0  501    0  0.00000000000E+00  0.00000000000E+00 -0.68348315473E+03  0.68348433464E+03  0.12699999809E+01 0. -1.
    10030    2    1    2    0    0  0.00000000000E+00  0.00000000000E+00 -0.50368339083E+03  0.86328858375E+03  0.70112068906E+03 0.  0.
        2    1    3    3  502    0  0.45683582285E+02  0.25761917025E+03  0.35444005799E+02  0.26402822600E+03  0.25500000920E-02 0.  1.
       -2    1    3    3    0  502 -0.45683582285E+02 -0.25761917025E+03 -0.53912739663E+03  0.59926035775E+03  0.25500000920E-02 0. -1.
</event>
<event>
 5   0  0.3013140E-03  0.7002200E+03  0.7818609E-02  0.9716856E-01
        1   -1    0    0  501    0  0.00000000000E+00  0.00000000000E+00  0.10220347992E+03  0.10220348005E+03  0.50400001928E-02 0. -1.
       -1   -1    0    0    0  501  0.00000000000E+00  0.00000000000E+00 -0.11993427349E+04  0.11993427349E+04  0.50400001928E-02 0.  1.
    10030    2    1    2    0    0  0.00000000000E+00  0.00000000000E+00 -0.10971392550E+04  0.13015462150E+04  0.70021996891E+03 0.  0.
        2    1    3    3  502    0 -0.33395695095E+03 -0.31373415145E+02 -0.73505381901E+03  0.80797008181E+03  0.25500000920E-02 0.  1.
       -2    1    3    3    0  502  0.33395695095E+03  0.31373415145E+02 -0.36208543599E+03  0.49357613316E+03  0.25500000920E-02 0. -1.
</event>
<event>
 5   0  0.2913582E-03  0.7007515E+03  0.7818609E-02  0.9715948E-01
       -1   -1    0    0    0  501  0.00000000000E+00  0.00000000000E+00  0.13620173849E+03  0.13620173858E+03  0.50400001928E-02 0.  1.
        1   -1    0    0  501    0  0.00000000000E+00  0.00000000000E+00 -0.90133334802E+03  0.90133334803E+03  0.50400001928E-02 0. -1.
    10030    2    1    2    0    0  0.00000000000E+00  0.00000000000E+00 -0.76513160953E+03  0.10375350866E+04  0.70075150807E+03 0.  0.
        1    1    3    3  502    0  0.29896646543E+03  0.17975949751E+02 -0.11336015047E+03  0.32024148070E+03  0.50400001928E-02 0.  1.
       -1    1    3    3    0  502 -0.29896646543E+03 -0.17975949751E+02 -0.65177145905E+03  0.71729360591E+03  0.50400001928E-02 0. -1.
</event>
<event>
 5   0  0.5113683E-03  0.6987363E+03  0.7818609E-02  0.9719396E-01
       -2   -1    0    0    0  501  0.00000000000E+00  0.00000000000E+00  0.63730015646E+03  0.63730015647E+03  0.25500000920E-02 0. -1.
        2   -1    0    0  501    0  0.00000000000E+00  0.00000000000E+00 -0.19152374749E+03  0.19152374751E+03  0.25500000920E-02 0.  1.
    10030    2    1    2    0    0  0.00000000000E+00  0.00000000000E+00  0.44577640897E+03  0.82882390398E+03  0.69873632868E+03 0.  0.
        3    1    3    3  502    0 -0.10301023637E+03 -0.32525002277E+03  0.31212312230E+03  0.46240624973E+03  0.10100000352E+00 0. -1.
       -3    1    3    3    0  502  0.10301023637E+03  0.32525002277E+03  0.13365328667E+03  0.36641765425E+03  0.10100000352E+00 0.  1.
</event>
<event>
 5   0  0.5072407E-03  0.7014519E+03  0.7818609E-02  0.9714752E-01
       -2   -1    0    0    0  501  0.00000000000E+00  0.00000000000E+00  0.98953156221E+02  0.98953156254E+02  0.25500000920E-02 0.  1.
        2   -1    0    0  501    0  0.00000000000E+00  0.00000000000E+00 -0.12431003646E+04  0.12431003646E+04  0.25500000920E-02 0. -1.
    10030    2    1    2    0    0  0.00000000000E+00  0.00000000000E+00 -0.11441472084E+04  0.13420535209E+04  0.70145193592E+03 0.  0.
        1    1    3    3  502    0 -0.33524654183E+03 -0.89784996456E+01 -0.76847649164E+03  0.83846703900E+03  0.50400001928E-02 0. -1.
       -1    1    3    3    0  502  0.33524654183E+03  0.89784996456E+01 -0.37567071674E+03  0.50358648185E+03  0.50400001928E-02 0.  1.
</event>
<event>
 5   0  0.1981750E-03  0.6997801E+03  0.7818609E-02  0.9717608E-01
        3   -1    0    0  501    0  0.00000000000E+00  0.00000000000E+00  0.31786582404E+03  0.31786584009E+03  0.10100000352E+00 0. -1.
       -3   -1    0    0    0  501  0.00000000000E+00  0.00000000000E+00 -0.38514058213E+03  0.38514059537E+03  0.10100000352E+00 0.  1.
    10030    2    1    2    0    0  0.00000000000E+00  0.00000000000E+00 -0.67274758089E+02  0.70300643546E+03  0.69978007632E+03 0.  0.
        2    1    3    3  502    0  0.24531078001E+03 -0.14705706062E+03  0.16883558950E+03  0.33212740651E+03  0.25500000920E-02 0. -1.
       -2    1    3    3    0  502 -0.24531078001E+03  0.14705706062E+03 -0.23611034758E+03  0.37087902895E+03  0.25500000920E-02 0.  1.
</event>
<event>
 5   0  0.5076796E-03  0.7009461E+03  0.7818609E-02  0.9715616E-01
       -2   -1    0    0    0  501  0.00000000000E+00  0.00000000000E+00  0.60822218532E+02  0.60822218586E+02  0.25500000920E-02 0. -1.
        2   -1    0    0  501    0  0.00000000000E+00  0.00000000000E+00 -0.20195146983E+04  0.20195146983E+04  0.25500000920E-02 0.  1.
    10030    2    1    2    0    0  0.00000000000E+00  0.00000000000E+00 -0.19586924798E+04  0.20803369169E+04  0.70094611595E+03 0.  0.
        5    1    3    3  502    0 -0.16942756721E+02  0.18900315904E+03 -0.10494862744E+03  0.21689987444E+03  0.46999998093E+01 0. -1.
       -5    1    3    3    0  502  0.16942756721E+02 -0.18900315904E+03 -0.18537438523E+04  0.18634370424E+04  0.46999998093E+01 0.  1.
</event>
<event>
 5   0  0.2937617E-03  0.7001008E+03  0.7818609E-02  0.9717060E-01
        1   -1    0    0  501    0  0.00000000000E+00  0.00000000000E+00  0.76959771372E+03  0.76959771373E+03  0.50400001928E-02 0.  1.
       -1   -1    0    0    0  501  0.00000000000E+00  0.00000000000E+00 -0.15921991773E+03  0.15921991781E+03  0.50400001928E-02 0. -1.
    10030    2    1    2    0    0  0.00000000000E+00  0.00000000000E+00  0.61037779599E+03  0.92881763154E+03  0.70010080619E+03 0.  0.
        3    1    3    3  502    0 -0.17705053503E+03 -0.20601397254E+03  0.59810426231E+03  0.65689981552E+03  0.10100000352E+00 0.  1.
       -3    1    3    3    0  502  0.17705053503E+03  0.20601397254E+03  0.12273533675E+02  0.27191781602E+03  0.10100000352E+00 0. -1.
</event>
<event>
 5   0  0.1981750E-03  0.6840569E+03  0.7818609E-02  0.9744892E-01
       -3   -1    0    0    0  501  0.00000000000E+00  0.00000000000E+00  0.24182678112E+03  0.24182680222E+03  0.10100000352E+00 0. -1.
        3   -1    0    0  501    0  0.00000000000E+00  0.00000000000E+00 -0.48374891542E+03  0.48374892596E+03  0.10100000352E+00 0.  1.
    10030    2    1    2    0    0  0.00000000000E+00  0.00000000000E+00 -0.24192213429E+03  0.72557572818E+03  0.68405688233E+03 0.  0.
        4    1    3    3  502    0  0.21162326088E+02 -0.34080251598E+03 -0.10007742001E+03  0.35582481903E+03  0.12699999809E+01 0. -1.
       -4    1    3    3    0  502 -0.21162326088E+02  0.34080251598E+03 -0.14184471429E+03  0.36975090915E+03  0.12699999809E+01 0.  1.
</event>
<event>
 5   0  0.5023894E-03  0.7000765E+03  0.7818609E-02  0.9717101E-01
       -2   -1    0    0    0  501  0.00000000000E+00  0.00000000000E+00  0.29260863460E+03  0.29260863461E+03  0.25500000920E-02 0.  1.
        2   -1    0    0  501    0  0.00000000000E+00  0.00000000000E+00 -0.41873941416E+03  0.41873941417E+03  0.25500000920E-02 0. -1.
    10030    2    1    2    0    0  0.00000000000E+00  0.00000000000E+00 -0.12613077957E+03  0.71134804878E+03  0.70007647650E+03 0.  0.
        2    1    3    3  502    0 -0.22823931714E+03 -0.14357599402E+03 -0.28986192357E+03  0.39588784610E+03  0.25500000920E-02 0. -1.
       -2    1    3    3    0  502  0.22823931714E+03  0.14357599402E+03  0.16373114400E+03  0.31546020268E+03  0.25500000920E-02 0.  1.
</event>
<event>
 5   0  0.2913582E-03  0.7019315E+03  0.7818609E-02  0.9713935E-01
       -1   -1    0    0    0  501  0.00000000000E+00  0.00000000000E+00  0.18015417945E+03  0.18015417952E+03  0.50400001928E-02 0. -1.
        1   -1    0    0  501    0  0.00000000000E+00  0.00000000000E+00 -0.68373087409E+03  0.68373087411E+03  0.50400001928E-02 0.  1.
    10030    2    1    2    0    0  0.00000000000E+00  0.00000000000E+00 -0.50357669464E+03  0.86388505363E+03  0.70193154830E+03 0.  0.
        1    1    3    3  502    0  0.34534560261E+03 -0.54534978868E+02 -0.21406855953E+03  0.40995487235E+03  0.50400001928E-02 0. -1.
       -1    1    3    3    0  502 -0.34534560261E+03  0.54534978868E+02 -0.28950813511E+03  0.45393018128E+03  0.50400001928E-02 0.  1.
</event>
<event>
 5   0  0.5113683E-03  0.6995922E+03  0.7818609E-02  0.9717930E-01
       -2   -1    0    0    0  501  0.00000000000E+00  0.00000000000E+00  0.63585931271E+03  0.63585931272E+03  0.25500000920E-02 0. -1.
        2   -1    0    0  501    0  0.00000000000E+00  0.00000000000E+00 -0.19242828645E+03  0.19242828647E+03  0.25500000920E-02 0.  1.
    10030    2    1    2    0    0  0.00000000000E+00  0.00000000000E+00  0.44343102626E+03  0.82828759919E+03  0.69959221831E+03 0.  0.
        3    1    3    3  502    0 -0.20182875769E+03  0.26795614538E+03  0.33905261823E+03  0.47696124728E+03  0.10100000352E+00 0. -1.
       -3    1    3    3    0  502  0.20182875769E+03 -0.26795614538E+03  0.10437840803E+03  0.35132635191E+03  0.10100000352E+00 0.  1.
</event>
<event>
 5   0  0.5023894E-03  0.6996092E+03  0.7818609E-02  0.9717901E-01
        2   -1    0    0  501    0  0.00000000000E+00  0.00000000000E+00  0.10872881635E+04  0.10872881635E+04  0.25500000920E-02 0. -1.
       -2   -1    0    0    0  501  0.00000000000E+00  0.00000000000E+00 -0.11253986261E+03  0.11253986264E+03  0.25500000920E-02 0.  1.
    10030    2    1    2    0    0  0.00000000000E+00  0.00000000000E+00  0.97474830091E+03  0.11998280262E+04  0.69960920680E+03 0.  0.
        2    1    3    3  502    0  0.25741310825E+03 -0.15967570380E+03  0.78740276129E+03  0.84365926012E+03  0.25500000920E-02 0. -1.
       -2    1    3    3    0  502 -0.25741310825E+03  0.15967570380E+03  0.18734553961E+03  0.35616876604E+03  0.25500000920E-02 0.  1.
</event>
<event>
 5   0  0.2913582E-03  0.6997289E+03  0.7818609E-02  0.9717696E-01
        1   -1    0    0  501    0  0.00000000000E+00  0.00000000000E+00  0.10233232729E+04  0.10233232730E+04  0.50400001928E-02 0.  1.
       -1   -1    0    0    0  501  0.00000000000E+00  0.00000000000E+00 -0.11961530553E+03  0.11961530564E+03  0.50400001928E-02 0. -1.
    10030    2    1    2    0    0  0.00000000000E+00  0.00000000000E+00  0.90370796741E+03  0.11429385786E+04  0.69972887898E+03 0.  0.
        1    1    3    3  502    0 -0.21750316684E+02 -0.33175073721E+03  0.62983858780E+03  0.71219960308E+03  0.50400001928E-02 0.  1.
       -1    1    3    3    0  502  0.21750316684E+02  0.33175073721E+03  0.27386937960E+03  0.43073897551E+03  0.50400001928E-02 0. -1.
</event>
<event>
 5   0  0.5076796E-03  0.6978277E+03  0.7818609E-02  0.9720954E-01
       -2   -1    0    0    0  501  0.00000000000E+00  0.00000000000E+00  0.21789773015E+03  0.21789773017E+03  0.25500000920E-02 0. -1.
        2   -1    0    0  501    0  0.00000000000E+00  0.00000000000E+00 -0.55870644040E+03  0.55870644040E+03  0.25500000920E-02 0.  1.
    10030    2    1    2    0    0  0.00000000000E+00  0.00000000000E+00 -0.34080871024E+03  0.77660417057E+03  0.69782767269E+03 0.  0.
        5    1    3    3  502    0  0.23512878222E+02  0.14629129320E+03 -0.52191635020E+03  0.54256130023E+03  0.46999998093E+01 0.  1.
       -5    1    3    3    0  502 -0.23512878222E+02 -0.14629129320E+03  0.18110763996E+03  0.23404287034E+03  0.46999998093E+01 0. -1.
</event>
<event>
 5   0  0.5023894E-03  0.6994453E+03  0.7818609E-02  0.9718181E-01
        2   -1    0    0  501    0  0.00000000000E+00  0.00000000000E+00  0.10138791496E+04  0.10138791496E+04  0.25500000920E-02 0. -1.
       -2   -1    0    0    0  501  0.00000000000E+00  0.00000000000E+00 -0.12063165332E+03  0.12063165334E+03  0.25500000920E-02 0.  1.
    10030    2    1    2    0    0  0.00000000000E+00  0.00000000000E+00  0.89324749625E+03  0.11345108029E+04  0.69944526045E+03 0.  0.
        2    1    3    3  502    0 -0.30515485146E+03 -0.13875871339E+03  0.60827653230E+03  0.69453135542E+03  0.25500000920E-02 0. -1.
       -2    1    3    3    0  502  0.30515485146E+03  0.13875871339E+03  0.28497096395E+03  0.43997944749E+03  0.25500000920E-02 0.  1.
</event>
<event>
 5   0  0.5076796E-03  0.6996376E+03  0.7818609E-02  0.9717852E-01
       -2   -1    0    0    0  501  0.00000000000E+00  0.00000000000E+00  0.23471823638E+03  0.23471823639E+03  0.25500000920E-02 0. -1.
        2   -1    0    0  501    0  0.00000000000E+00  0.00000000000E+00 -0.52136217382E+03  0.52136217383E+03  0.25500000920E-02 0.  1.
    10030    2    1    2    0    0  0.00000000000E+00  0.00000000000E+00 -0.28664393745E+03  0.75608041022E+03  0.69963764896E+03 0.  0.
        5    1    3    3  502    0 -0.18860737668E+03 -0.12736024244E+03 -0.43037832216E+03  0.48686852853E+03  0.46999998093E+01 0.  1.
       -5    1    3    3    0  502  0.18860737668E+03  0.12736024244E+03  0.14373438472E+03  0.26921188168E+03  0.46999998093E+01 0. -1.
</event>
<event>
 5   0  0.2913582E-03  0.7001450E+03  0.7818609E-02  0.9716984E-01
       -1   -1    0    0    0  501  0.00000000000E+00  0.00000000000E+00  0.29298175094E+03  0.29298175098E+03  0.50400001928E-02 0.  1.
        1   -1    0    0  501    0  0.00000000000E+00  0.00000000000E+00 -0.41828806965E+03  0.41828806968E+03  0.50400001928E-02 0. -1.
    10030    2    1    2    0    0  0.00000000000E+00  0.00000000000E+00 -0.12530631870E+03  0.71126982066E+03  0.70014504517E+03 0.  0.
        1    1    3    3  502    0 -0.26210750326E+03  0.13391493633E+03  0.12987652778E+03  0.32171643715E+03  0.50400001928E-02 0.  1.
       -1    1    3    3    0  502  0.26210750326E+03 -0.13391493633E+03 -0.25518284649E+03  0.38955338351E+03  0.50400001928E-02 0. -1.
</event>
<event>
 5   0  0.4878235E-03  0.6988250E+03  0.7818609E-02  0.9719244E-01
        2   -1    0    0  501    0  0.00000000000E+00  0.00000000000E+00  0.30533864448E+04  0.30533864448E+04  0.25500000920E-02 0. -1.
       -2   -1    0    0    0  501  0.00000000000E+00  0.00000000000E+00 -0.39984816318E+02  0.39984816400E+02  0.25500000920E-02 0.  1.
    10030    2    1    2    0    0  0.00000000000E+00  0.00000000000E+00  0.30134016284E+04  0.30933712612E+04  0.69882500319E+03 0.  0.
        4    1    3    3  502    0 -0.27991036470E+03  0.20010329518E+03  0.17758231267E+04  0.18088506105E+04  0.12699999809E+01 0.  1.
       -4    1    3    3    0  502  0.27991036470E+03 -0.20010329518E+03  0.12375785017E+04  0.12845206506E+04  0.12699999809E+01 0. -1.
</event>
<event>
 5   0  0.5113683E-03  0.6979446E+03  0.7818609E-02  0.9720754E-01
       -2   -1    0    0    0  501  0.00000000000E+00  0.00000000000E+00  0.39580015354E+03  0.39580015354E+03  0.25500000920E-02 0. -1.
        2   -1    0    0  501    0  0.00000000000E+00  0.00000000000E+00 -0.30768472505E+03  0.30768472506E+03  0.25500000920E-02 0.  1.
    10030    2    1    2    0    0  0.00000000000E+00  0.00000000000E+00  0.88115428487E+02  0.70348487860E+03  0.69794458640E+03 0.  0.
        3    1    3    3  502    0  0.34636820330E+03 -0.37083186108E+02  0.23022063074E+02  0.34910760596E+03  0.10100000352E+00 0. -1.
       -3    1    3    3    0  502 -0.34636820330E+03  0.37083186108E+02  0.65093365413E+02  0.35437727265E+03  0.10100000352E+00 0.  1.
</event>
<event>
 5   0  0.5076796E-03  0.6935200E+03  0.7818609E-02  0.9728378E-01
        2   -1    0    0  501    0  0.00000000000E+00  0.00000000000E+00  0.29531801673E+03  0.29531801675E+03  0.25500000920E-02 0.  1.
       -2   -1    0    0    0  501  0.00000000000E+00  0.00000000000E+00 -0.40716278977E+03  0.40716278977E+03  0.25500000920E-02 0. -1.
    10030    2    1    2    0    0  0.00000000000E+00  0.00000000000E+00 -0.11184477303E+03  0.70248080652E+03  0.69352002875E+03 0.  0.
        5    1    3    3  502    0  0.28535931260E+03 -0.18168822059E+03 -0.13293015159E+03  0.36350111690E+03  0.46999998093E+01 0. -1.
       -5    1    3    3    0  502 -0.28535931260E+03  0.18168822059E+03  0.21085378562E+02  0.33897968962E+03  0.46999998093E+01 0.  1.
</event>
<event>
 5   0  0.5113683E-03  0.6989113E+03  0.7818609E-02  0.9719096E-01
        2   -1    0    0  501    0  0.00000000000E+00  0.00000000000E+00  0.13435968090E+04  0.13435968090E+04  0.25500000920E-02 0.  1.
       -2   -1    0    0    0  501  0.00000000000E+00  0.00000000000E+00 -0.90889803939E+02  0.90889803974E+02  0.25500000920E-02 0. -1.
    10030    2    1    2    0    0  0.00000000000E+00  0.00000000000E+00  0.12527070050E+04  0.14344866130E+04  0.69891129786E+03 0.  0.
        3    1    3    3  502    0 -0.61499638367E+02  0.89389044052E+02  0.13081487712E+04  0.13126407827E+04  0.10100000352E+00 0.  1.
       -3    1    3    3    0  502  0.61499638367E+02 -0.89389044052E+02 -0.55441766130E+02  0.12184583025E+03  0.10100000352E+00 0. -1.
</event>
<event>
 5   0  0.2937617E-03  0.6992963E+03  0.7818609E-02  0.9718436E-01
        1   -1    0    0  501    0  0.00000000000E+00  0.00000000000E+00  0.14654351091E+04  0.14654351091E+04  0.50400001928E-02 0. -1.
       -1   -1    0    0    0  501  0.00000000000E+00  0.00000000000E+00 -0.83424939705E+02  0.83424939857E+02  0.50400001928E-02 0.  1.
    10030    2    1    2    0    0  0.00000000000E+00  0.00000000000E+00  0.13820101694E+04  0.15488600489E+04  0.69929631986E+03 0.  0.
        3    1    3    3  502    0 -0.17050835492E+03 -0.23286053420E+03  0.25384348681E+03  0.38436135795E+03  0.10100000352E+00 0.  1.
       -3    1    3    3    0  502  0.17050835492E+03  0.23286053420E+03  0.11281666826E+04  0.11644986910E+04  0.10100000352E+00 0. -1.
</event>
<event>
 5   0  0.2937617E-03  0.6997414E+03  0.7818609E-02  0.9717675E-01
        1   -1    0    0  501    0  0.00000000000E+00  0.00000000000E+00  0.95450058932E+03  0.95450058933E+03  0.50400001928E-02 0.  1.
       -1   -1    0    0    0  501  0.00000000000E+00  0.00000000000E+00 -0.12824454400E+03  0.12824454410E+03  0.50400001928E-02 0. -1.
    10030    2    1    2    0    0  0.00000000000E+00  0.00000000000E+00  0.82625604532E+03  0.10827451334E+04  0.69974136046E+03 0.  0.
        3    1    3    3  502    0 -0.32741822929E+03 -0.10026691150E+03  0.52420722895E+03  0.62613846672E+03  0.10100000352E+00 0.  1.
       -3    1    3    3    0  502  0.32741822929E+03  0.10026691150E+03  0.30204881637E+03  0.45660666671E+03  0.10100000352E+00 0. -1.
</event>
<event>
 5   0  0.4878235E-03  0.6999307E+03  0.7818609E-02  0.9717351E-01
       -2   -1    0    0    0  501  0.00000000000E+00  0.00000000000E+00  0.77164681991E+02  0.77164682033E+02  0.25500000920E-02 0.  1.
        2   -1    0    0  501    0  0.00000000000E+00  0.00000000000E+00 -0.15871995141E+04  0.15871995141E+04  0.25500000920E-02 0. -1.
    10030    2    1    2    0    0  0.00000000000E+00  0.00000000000E+00 -0.15100348322E+04  0.16643641962E+04  0.69993069886E+03 0.  0.
        4    1    3    3  502    0  0.28410189061E+03  0.29560272696E+02 -0.12358379053E+04  0.12684181625E+04  0.12699999809E+01 0.  1.
       -4    1    3    3    0  502 -0.28410189061E+03 -0.29560272696E+02 -0.27419692689E+03  0.39594603368E+03  0.12699999809E+01 0. -1.
</event>
<event>
 5   0  0.2934483E-03  0.6984226E+03  0.7818609E-02  0.9719934E-01
       -1   -1    0    0    0  501  0.00000000000E+00  0.00000000000E+00  0.10450954669E+03  0.10450954681E+03  0.50400001928E-02 0.  1.
        1   -1    0    0  501    0  0.00000000000E+00  0.00000000000E+00 -0.11668649563E+04  0.11668649563E+04  0.50400001928E-02 0. -1.
    10030    2    1    2    0    0  0.00000000000E+00  0.00000000000E+00 -0.10623554096E+04  0.12713745031E+04  0.69842258759E+03 0.  0.
        5    1    3    3  502    0 -0.28054122789E+03 -0.16930733112E+03 -0.31153977401E+03  0.45215868200E+03  0.46999998093E+01 0. -1.
       -5    1    3    3    0  502  0.28054122789E+03  0.16930733112E+03 -0.75081563562E+03  0.81921582114E+03  0.46999998093E+01 0.  1.
</event>
<event>
 5   0  0.2934483E-03  0.7004176E+03  0.7818609E-02  0.9716518E-01
       -1   -1    0    0    0  501  0.00000000000E+00  0.00000000000E+00  0.33622602491E+03  0.33622602494E+03  0.50400001928E-02 0.  1.
        1   -1    0    0  501    0  0.00000000000E+00  0.00000000000E+00 -0.36477309035E+03  0.36477309038E+03  0.50400001928E-02 0. -1.
    10030    2    1    2    0    0  0.00000000000E+00  0.00000000000E+00 -0.28547065442E+02  0.70099911533E+03  0.70041760739E+03 0.  0.
        5    1    3    3  502    0  0.74906623017E+02  0.24352402947E+03  0.22615322256E+03  0.34070856340E+03  0.46999998093E+01 0.  1.
       -5    1    3    3    0  502 -0.74906623017E+02 -0.24352402947E+03 -0.25470028801E+03  0.36029055193E+03  0.46999998093E+01 0. -1.
</event>
<event>
 5   0  0.2937617E-03  0.7028966E+03  0.7818609E-02  0.9712291E-01
       -1   -1    0    0    0  501  0.00000000000E+00  0.00000000000E+00  0.72401960980E+02  0.72401961156E+02  0.50400001928E-02 0. -1.
        1   -1    0    0  501    0  0.00000000000E+00  0.00000000000E+00 -0.17059746758E+04  0.17059746758E+04  0.50400001928E-02 0.  1.
    10030    2    1    2    0    0  0.00000000000E+00  0.00000000000E+00 -0.16335727148E+04  0.17783766370E+04  0.70289661280E+03 0.  0.
        3    1    3    3  502    0  0.27045360490E+03 -0.22137589158E+03 -0.91020942990E+03  0.97500443807E+03  0.10100000352E+00 0. -1.
       -3    1    3    3    0  502 -0.27045360490E+03  0.22137589158E+03 -0.72336328491E+03  0.80337219888E+03  0.10100000352E+00 0.  1.
</event>
<event>
 5   0  0.2934483E-03  0.7013950E+03  0.7818609E-02  0.9714849E-01
        1   -1    0    0  501    0  0.00000000000E+00  0.00000000000E+00  0.39288285491E+03  0.39288285494E+03  0.50400001928E-02 0.  1.
       -1   -1    0    0    0  501  0.00000000000E+00  0.00000000000E+00 -0.31304177314E+03  0.31304177318E+03  0.50400001928E-02 0. -1.
    10030    2    1    2    0    0  0.00000000000E+00  0.00000000000E+00  0.79841081770E+02  0.70592462812E+03  0.70139502582E+03 0.  0.
        5    1    3    3  502    0 -0.22760591387E+03  0.22678728906E+03  0.18129020063E+03  0.36895142411E+03  0.46999998093E+01 0.  1.
       -5    1    3    3    0  502  0.22760591387E+03 -0.22678728906E+03 -0.10144911886E+03  0.33697320401E+03  0.46999998093E+01 0. -1.
</event>
<event>
 5   0  0.2937617E-03  0.7005780E+03  0.7818609E-02  0.9716244E-01
        1   -1    0    0  501    0  0.00000000000E+00  0.00000000000E+00  0.61867950817E+03  0.61867950819E+03  0.50400001928E-02 0.  1.
       -1   -1    0    0    0  501  0.00000000000E+00  0.00000000000E+00 -0.19832947464E+03  0.19832947470E+03  0.50400001928E-02 0. -1.
    10030    2    1    2    0    0  0.00000000000E+00  0.00000000000E+00  0.42035003353E+03  0.81700898289E+03  0.70057799525E+03 0.  0.
        3    1    3    3  502    0 -0.17896991797E+03 -0.20171858519E+03 -0.50546022833E+02  0.27436386382E+03  0.10100000352E+00 0. -1.
       -3    1    3    3    0  502  0.17896991797E+03  0.20171858519E+03  0.47089605636E+03  0.54264511907E+03  0.10100000352E+00 0.  1.
</event>
<event>
 5   0  0.5072407E-03  0.7003231E+03  0.7818609E-02  0.9716680E-01
        2   -1    0    0  501    0  0.00000000000E+00  0.00000000000E+00  0.23703610557E+04  0.23703610557E+04  0.25500000920E-02 0.  1.
       -2   -1    0    0    0  501  0.00000000000E+00  0.00000000000E+00 -0.51727614704E+02  0.51727614767E+02  0.25500000920E-02 0. -1.
    10030    2    1    2    0    0  0.00000000000E+00  0.00000000000E+00  0.23186334410E+04  0.24220886705E+04  0.70032313535E+03 0.  0.
        1    1    3    3  502    0 -0.30160748786E+03 -0.35193959501E+02  0.55622768026E+03  0.63371517564E+03  0.50400001928E-02 0. -1.
       -1    1    3    3    0  502  0.30160748786E+03  0.35193959501E+02  0.17624057607E+04  0.17883734948E+04  0.50400001928E-02 0.  1.
</event>
<event>
 5   0  0.3013140E-03  0.7003307E+03  0.7818609E-02  0.9716667E-01
        1   -1    0    0  501    0  0.00000000000E+00  0.00000000000E+00  0.15491984401E+04  0.15491984401E+04  0.50400001928E-02 0.  1.
       -1   -1    0    0    0  501  0.00000000000E+00  0.00000000000E+00 -0.79147873298E+02  0.79147873459E+02  0.50400001928E-02 0. -1.
    10030    2    1    2    0    0  0.00000000000E+00  0.00000000000E+00  0.14700505668E+04  0.16283463135E+04  0.70033067043E+03 0.  0.
        2    1    3    3  502    0  0.18064356665E+03  0.12762626464E+02  0.14318636242E+04  0.14432700444E+04  0.25500000920E-02 0.  1.
       -2    1    3    3    0  502 -0.18064356665E+03 -0.12762626464E+02  0.38186942585E+02  0.18507626913E+03  0.25500000920E-02 0. -1.
</event>
<event>
 5   0  0.2937617E-03  0.7015513E+03  0.7818609E-02  0.9714583E-01
        1   -1    0    0  501    0  0.00000000000E+00  0.00000000000E+00  0.82925143850E+03  0.82925143852E+03  0.50400001928E-02 0.  1.
       -1   -1    0    0    0  501  0.00000000000E+00  0.00000000000E+00 -0.14837907989E+03  0.14837907997E+03  0.50400001928E-02 0. -1.
    10030    2    1    2    0    0  0.00000000000E+00  0.00000000000E+00  0.68087235862E+03  0.97763051849E+03  0.70155132525E+03 0.  0.
        3    1    3    3  502    0  0.72786895022E+02  0.14264514456E+03 -0.94464703449E+02  0.18592783480E+03  0.10100000352E+00 0. -1.
       -3    1    3    3    0  502 -0.72786895022E+02 -0.14264514456E+03  0.77533706207E+03  0.79170268369E+03  0.10100000352E+00 0.  1.
</event>
<event>
 5   0  0.3013140E-03  0.6995397E+03  0.7818609E-02  0.9718020E-01
       -1   -1    0    0    0  501  0.00000000000E+00  0.00000000000E+00  0.10547059187E+03  0.10547059199E+03  0.50400001928E-02 0.  1.
        1   -1    0    0  501    0  0.00000000000E+00  0.00000000000E+00 -0.11599340800E+04  0.11599340800E+04  0.50400001928E-02 0. -1.
    10030    2    1    2    0    0  0.00000000000E+00  0.00000000000E+00 -0.10544634881E+04  0.12654046720E+04  0.69953966015E+03 0.  0.
        2    1    3    3  502    0  0.32201474439E+02 -0.34171097251E+03 -0.40540715362E+03  0.53118573390E+03  0.25500000920E-02 0.  1.
       -2    1    3    3    0  502 -0.32201474439E+02  0.34171097251E+03 -0.64905633450E+03  0.73421893809E+03  0.25500000920E-02 0. -1.
</event>
<event>
 5   0  0.2937617E-03  0.7003584E+03  0.7818609E-02  0.9716620E-01
       -1   -1    0    0    0  501  0.00000000000E+00  0.00000000000E+00  0.22151031332E+03  0.22151031338E+03  0.50400001928E-02 0.  1.
        1   -1    0    0  501    0  0.00000000000E+00  0.00000000000E+00 -0.55358804770E+03  0.55358804772E+03  0.50400001928E-02 0. -1.
    10030    2    1    2    0    0  0.00000000000E+00  0.00000000000E+00 -0.33207773438E+03  0.77509836110E+03  0.70035837092E+03 0.  0.
        3    1    3    3  502    0 -0.22972505755E+03 -0.26427128857E+03 -0.16995728450E+03  0.38922795992E+03  0.10100000352E+00 0.  1.
       -3    1    3    3    0  502  0.22972505755E+03  0.26427128857E+03 -0.16212044988E+03  0.38587040118E+03  0.10100000352E+00 0. -1.
</event>
<event>
 5   0  0.5076796E-03  0.6997812E+03  0.7818609E-02  0.9717606E-01
        2   -1    0    0  501    0  0.00000000000E+00  0.00000000000E+00  0.14131360492E+04  0.14131360492E+04  0.25500000920E-02 0.  1.
       -2   -1    0    0    0  501  0.00000000000E+00  0.00000000000E+00 -0.86632451638E+02  0.86632451676E+02  0.25500000920E-02 0. -1.
    10030    2    1    2    0    0  0.00000000000E+00  0.00000000000E+00  0.13265035976E+04  0.14997685009E+04  0.69978122430E+03 0.  0.
        5    1    3    3  502    0 -0.61054841516E+02 -0.24429348988E+03  0.14269617395E+03  0.28946725364E+03  0.46999998093E+01 0. -1.
       -5    1    3    3    0  502  0.61054841516E+02  0.24429348988E+03  0.11838074236E+04  0.12103012473E+04  0.46999998093E+01 0.  1.
</event>
<event>
 5   0  0.5072407E-03  0.6999745E+03  0.7818609E-02  0.9717276E-01
       -2   -1    0    0    0  501  0.00000000000E+00  0.00000000000E+00  0.80100272107E+03  0.80100272107E+03  0.25500000920E-02 0. -1.
        2   -1    0    0  501    0  0.00000000000E+00  0.00000000000E+00 -0.15292217645E+03  0.15292217647E+03  0.25500000920E-02 0.  1.
    10030    2    1    2    0    0  0.00000000000E+00  0.00000000000E+00  0.64808054462E+03  0.95392489755E+03  0.69997451229E+03 0.  0.
        1    1    3    3  502    0  0.10642786364E+03 -0.26744998180E+03  0.59535272409E+03  0.66128756909E+03  0.50400001928E-02 0. -1.
       -1    1    3    3    0  502 -0.10642786364E+03  0.26744998180E+03  0.52727820526E+02  0.29263732846E+03  0.50400001928E-02 0.  1.
</event>
<event>
 5   0  0.2913582E-03  0.6963354E+03  0.7818609E-02  0.9723520E-01
       -1   -1    0    0    0  501  0.00000000000E+00  0.00000000000E+00  0.19640961101E+03  0.19640961108E+03  0.50400001928E-02 0. -1.
        1   -1    0    0  501    0  0.00000000000E+00  0.00000000000E+00 -0.61718338884E+03  0.61718338887E+03  0.50400001928E-02 0.  1.
    10030    2    1    2    0    0  0.00000000000E+00  0.00000000000E+00 -0.42077377783E+03  0.81359299994E+03  0.69633540585E+03 0.  0.
        1    1    3    3  502    0  0.22226260764E+03  0.90001099286E+02 -0.50532182283E+03  0.55933085851E+03  0.50400001928E-02 0.  1.
       -1    1    3    3    0  502 -0.22226260764E+03 -0.90001099286E+02  0.84548044997E+02  0.25426214143E+03  0.50400001928E-02 0. -1.
</event>
<event>
 5   0  0.5023894E-03  0.7013195E+03  0.7818609E-02  0.9714978E-01
        2   -1    0    0  501    0  0.00000000000E+00  0.00000000000E+00  0.46966965491E+03  0.46966965492E+03  0.25500000920E-02 0. -1.
       -2   -1    0    0    0  501  0.00000000000E+00  0.00000000000E+00 -0.26180587724E+03  0.26180587726E+03  0.25500000920E-02 0.  1.
    10030    2    1    2    0    0  0.00000000000E+00  0.00000000000E+00  0.20786377767E+03  0.73147553218E+03  0.70131954493E+03 0.  0.
        2    1    3    3  502    0  0.13537436416E+03 -0.20824837387E+03  0.36210029639E+03  0.43910161506E+03  0.25500000920E-02 0. -1.
       -2    1    3    3    0  502 -0.13537436416E+03  0.20824837387E+03 -0.15423651873E+03  0.29237391711E+03  0.25500000920E-02 0.  1.
</event>
<event>
 5   0  0.5076796E-03  0.6984742E+03  0.7818609E-02  0.9719845E-01
        2   -1    0    0  501    0  0.00000000000E+00  0.00000000000E+00  0.50778165058E+03  0.50778165058E+03  0.25500000920E-02 0.  1.
       -2   -1    0    0    0  501  0.00000000000E+00  0.00000000000E+00 -0.24019490803E+03  0.24019490804E+03  0.25500000920E-02 0. -1.
    10030    2    1    2    0    0  0.00000000000E+00  0.00000000000E+00  0.26758674255E+03  0.74797655863E+03  0.69847424252E+03 0.  0.
        5    1    3    3  502    0  0.45819742402E+02  0.29011316143E+03 -0.68483511181E+02  0.30162423068E+03  0.46999998093E+01 0. -1.
       -5    1    3    3    0  502 -0.45819742402E+02 -0.29011316143E+03  0.33607025373E+03  0.44635232795E+03  0.46999998093E+01 0.  1.
</event>
<event>
 5   0  0.3013140E-03  0.6983813E+03  0.7818609E-02  0.9720004E-01
       -1   -1    0    0    0  501  0.00000000000E+00  0.00000000000E+00  0.13044115211E+03  0.13044115221E+03  0.50400001928E-02 0.  1.
        1   -1    0    0  501    0  0.00000000000E+00  0.00000000000E+00 -0.93478261728E+03  0.93478261730E+03  0.50400001928E-02 0. -1.
    10030    2    1    2    0    0  0.00000000000E+00  0.00000000000E+00 -0.80434146517E+03  0.10652237695E+04  0.69838133317E+03 0.  0.
        2    1    3    3  502    0 -0.19919523049E+02  0.16111013175E+03 -0.87372718546E+03  0.88868017676E+03  0.25500000920E-02 0. -1.
       -2    1    3    3    0  502  0.19919523049E+02 -0.16111013175E+03  0.69385720288E+02  0.17654359274E+03  0.25500000920E-02 0.  1.
</event>
<event>
 5   0  0.5023894E-03  0.7001858E+03  0.7818609E-02  0.9716914E-01
        2   -1    0    0  501    0  0.00000000000E+00  0.00000000000E+00  0.11216241982E+04  0.11216241982E+04  0.25500000920E-02 0.  1.
       -2   -1    0    0    0  501  0.00000000000E+00  0.00000000000E+00 -0.10927461623E+03  0.10927461626E+03  0.25500000920E-02 0. -1.
    10030    2    1    2    0    0  0.00000000000E+00  0.00000000000E+00  0.10123495820E+04  0.12308988145E+04  0.70018584344E+03 0.  0.
        2    1    3    3  502    0  0.23507806070E+03 -0.13535092647E+03  0.11709930211E+03  0.29545526646E+03  0.25500000920E-02 0. -1.
       -2    1    3    3    0  502 -0.23507806070E+03  0.13535092647E+03  0.89525027988E+03  0.93544354803E+03  0.25500000920E-02 0.  1.
</event>
<event>
 5   0  0.5113683E-03  0.7005509E+03  0.7818609E-02  0.9716291E-01
        2   -1    0    0  501    0  0.00000000000E+00  0.00000000000E+00  0.72240154358E+03  0.72240154359E+03  0.25500000920E-02 0. -1.
       -2   -1    0    0    0  501  0.00000000000E+00  0.00000000000E+00 -0.16984030507E+03  0.16984030509E+03  0.25500000920E-02 0.  1.
    10030    2    1    2    0    0  0.00000000000E+00  0.00000000000E+00  0.55256123851E+03  0.89224184868E+03  0.70055092194E+03 0.  0.
        3    1    3    3  502    0  0.16616874056E+03  0.11629033810E+03 -0.87445554189E+02  0.22086699215E+03  0.10100000352E+00 0.  1.
       -3    1    3    3    0  502 -0.16616874056E+03 -0.11629033810E+03  0.64000679270E+03  0.67137485652E+03  0.10100000352E+00 0. -1.
</event>
<event>
 5   0  0.2934483E-03  0.7000869E+03  0.7818609E-02  0.9717084E-01
        1   -1    0    0  501    0  0.00000000000E+00  0.00000000000E+00  0.37649592155E+03  0.37649592158E+03  0.50400001928E-02 0. -1.
       -1   -1    0    0    0  501  0.00000000000E+00  0.00000000000E+00 -0.32544951431E+03  0.32544951434E+03  0.50400001928E-02 0.  1.
    10030    2    1    2    0    0  0.00000000000E+00  0.00000000000E+00  0.51046407240E+02  0.70194543592E+03  0.70008689412E+03 0.  0.
        5    1    3    3  502    0  0.13711752086E+03  0.22767473104E+03 -0.20283419493E+03  0.33436626372E+03  0.46999998093E+01 0.  1.
       -5    1    3    3    0  502 -0.13711752086E+03 -0.22767473104E+03  0.25388060217E+03  0.36757917220E+03  0.46999998093E+01 0. -1.
</event>
<event>
 5   0  0.2937617E-03  0.6996418E+03  0.7818609E-02  0.9717845E-01
        1   -1    0    0  501    0  0.00000000000E+00  0.00000000000E+00  0.31111807212E+03  0.31111807216E+03  0.50400001928E-02 0.  1.
       -1   -1    0    0    0  501  0.00000000000E+00  0.00000000000E+00 -0.39333835904E+03  0.39333835908E+03  0.50400001928E-02 0. -1.
    10030    2    1    2    0    0  0.00000000000E+00  0.00000000000E+00 -0.82220286928E+02  0.70445643123E+03  0.69964182831E+03 0.  0.
        3    1    3    3  502    0  0.32843027833E+03  0.58687362164E+02 -0.14701956708E+03  0.36458938206E+03  0.10100000352E+00 0. -1.
       -3    1    3    3    0  502 -0.32843027833E+03 -0.58687362164E+02  0.64799280156E+02  0.33986704917E+03  0.10100000352E+00 0.  1.
</event>
<event>
 5   0  0.5072407E-03  0.7002897E+03  0.7818609E-02  0.9716737E-01
        2   -1    0    0  501    0  0.00000000000E+00  0.00000000000E+00  0.12506251716E+04  0.12506251716E+04  0.25500000920E-02 0. -1.
       -2   -1    0    0    0  501  0.00000000000E+00  0.00000000000E+00 -0.98032111307E+02  0.98032111340E+02  0.25500000920E-02 0.  1.
    10030    2    1    2    0    0  0.00000000000E+00  0.00000000000E+00  0.11525930603E+04  0.13486572830E+04  0.70028972876E+03 0.  0.
        1    1    3    3  502    0 -0.32750490507E+03  0.79569226188E+02  0.39348518463E+03  0.51809392502E+03  0.50400001928E-02 0.  1.
       -1    1    3    3    0  502  0.32750490507E+03 -0.79569226188E+02  0.75910787570E+03  0.83056335795E+03  0.50400001928E-02 0. -1.
</event>
<event>
 5   0  0.2938783E-03  0.7016730E+03  0.7818609E-02  0.9714375E-01
        1   -1    0    0  501    0  0.00000000000E+00  0.00000000000E+00  0.67621561662E+03  0.67621561664E+03  0.50400001928E-02 0.  1.
       -1   -1    0    0    0  501  0.00000000000E+00  0.00000000000E+00 -0.18202218628E+03  0.18202218635E+03  0.50400001928E-02 0. -1.
    10030    2    1    2    0    0  0.00000000000E+00  0.00000000000E+00  0.49419343034E+03  0.85823780299E+03  0.70167298643E+03 0.  0.
        4    1    3    3  502    0  0.20086730991E+02  0.23359598540E+03 -0.72124173026E+02  0.24530403664E+03  0.12699999809E+01 0. -1.
       -4    1    3    3    0  502 -0.20086730991E+02 -0.23359598540E+03  0.56631760337E+03  0.61293376636E+03  0.12699999809E+01 0.  1.
</event>
<event>
 5   0  0.3013140E-03  0.7006181E+03  0.7818609E-02  0.9716176E-01
       -1   -1    0    0    0  501  0.00000000000E+00  0.00000000000E+00  0.54203587268E+03  0.54203587271E+03  0.50400001928E-02 0. -1.
        1   -1    0    0  501    0  0.00000000000E+00  0.00000000000E+00 -0.22639907528E+03  0.22639907534E+03  0.50400001928E-02 0.  1.
    10030    2    1    2    0    0  0.00000000000E+00  0.00000000000E+00  0.31563679740E+03  0.76843494805E+03  0.70061807107E+03 0.  0.
        2    1    3    3  502    0  0.16623017575E+03  0.18583217784E+03 -0.11206993051E+03  0.27336009032E+03  0.25500000920E-02 0.  1.
       -2    1    3    3    0  502 -0.16623017575E+03 -0.18583217784E+03  0.42770672791E+03  0.49507485773E+03  0.25500000920E-02 0. -1.
</event>
<event>
 5   0  0.4878235E-03  0.7004163E+03  0.7818609E-02  0.9716520E-01
       -2   -1    0    0    0  501  0.00000000000E+00  0.00000000000E+00  0.35244984513E+03  0.35244984514E+03  0.25500000920E-02 0. -1.
        2   -1    0    0  501    0  0.00000000000E+00  0.00000000000E+00 -0.34798073518E+03  0.34798073519E+03  0.25500000920E-02 0.  1.
    10030    2    1    2    0    0  0.00000000000E+00  0.00000000000E+00  0.44691099459E+01  0.70043058033E+03  0.70041632257E+03 0.  0.
        4    1    3    3  502    0 -0.17097514945E+03 -0.38134837420E+02  0.30548547353E+03  0.35215018812E+03  0.12699999809E+01 0. -1.
       -4    1    3    3    0  502  0.17097514945E+03  0.38134837420E+02 -0.30101636359E+03  0.34828039221E+03  0.12699999809E+01 0.  1.
</event>
<event>
 5   0  0.5023894E-03  0.6956797E+03  0.7818609E-02  0.9724649E-01
       -2   -1    0    0    0  501  0.00000000000E+00  0.00000000000E+00  0.14751385509E+03  0.14751385511E+03  0.25500000920E-02 0. -1.
        2   -1    0    0  501    0  0.00000000000E+00  0.00000000000E+00 -0.82021145561E+03  0.82021145562E+03  0.25500000920E-02 0.  1.
    10030    2    1    2    0    0  0.00000000000E+00  0.00000000000E+00 -0.67269760053E+03  0.96772531073E+03  0.69567967864E+03 0.  0.
        2    1    3    3  502    0  0.24632224482E+03 -0.15873418913E+03 -0.59704125519E+03  0.66507853033E+03  0.25500000920E-02 0.  1.
       -2    1    3    3    0  502 -0.24632224482E+03  0.15873418913E+03 -0.75656345333E+02  0.30264678040E+03  0.25500000920E-02 0. -1.
</event>
<event>
 5   0  0.5076796E-03  0.6991263E+03  0.7818609E-02  0.9718727E-01
       -2   -1    0    0    0  501  0.00000000000E+00  0.00000000000E+00  0.21052361732E+03  0.21052361733E+03  0.25500000920E-02 0.  1.
        2   -1    0    0  501    0  0.00000000000E+00  0.00000000000E+00 -0.58043087405E+03  0.58043087405E+03  0.25500000920E-02 0. -1.
    10030    2    1    2    0    0  0.00000000000E+00  0.00000000000E+00 -0.36990725673E+03  0.79095449139E+03  0.69912633255E+03 0.  0.
        5    1    3    3  502    0  0.19403566379E+03  0.16744369877E+03  0.83928993391E+02  0.26972837635E+03  0.46999998093E+01 0. -1.
       -5    1    3    3    0  502 -0.19403566379E+03 -0.16744369877E+03 -0.45383625012E+03  0.52122611504E+03  0.46999998093E+01 0.  1.
</event>
<event>
 5   0  0.1981750E-03  0.6987565E+03  0.7818609E-02  0.9719361E-01
        4   -1    0    0  501    0  0.00000000000E+00  0.00000000000E+00  0.20801673441E+03  0.20802061123E+03  0.12699999809E+01 0.  1.
       -4   -1    0    0    0  501  0.00000000000E+00  0.00000000000E+00 -0.58679451691E+03  0.58679589124E+03  0.12699999809E+01 0. -1.
    10030    2    1    2    0    0  0.00000000000E+00  0.00000000000E+00 -0.37877778250E+03  0.79481650247E+03  0.69875651273E+03 0.  0.
        1    1    3    3  502    0  0.10982282741E+03 -0.19363167707E+03  0.11690801722E+03  0.25143938494E+03  0.50400001928E-02 0.  1.
       -1    1    3    3    0  502 -0.10982282741E+03  0.19363167707E+03 -0.49568579972E+03  0.54337711753E+03  0.50400001928E-02 0. -1.
</event>
<event>
 5   0  0.4878235E-03  0.7038191E+03  0.7818609E-02  0.9710723E-01
       -2   -1    0    0    0  501  0.00000000000E+00  0.00000000000E+00  0.14952034158E+03  0.14952034161E+03  0.25500000920E-02 0.  1.
        2   -1    0    0  501    0  0.00000000000E+00  0.00000000000E+00 -0.82825063346E+03  0.82825063347E+03  0.25500000920E-02 0. -1.
    10030    2    1    2    0    0  0.00000000000E+00  0.00000000000E+00 -0.67873029188E+03  0.97777097507E+03  0.70381906097E+03 0.  0.
        4    1    3    3  502    0  0.70597564261E+02 -0.23960363148E+03 -0.68372985937E+03  0.72792997589E+03  0.12699999809E+01 0. -1.
       -4    1    3    3    0  502 -0.70597564261E+02  0.23960363148E+03  0.49995674977E+01  0.24984099918E+03  0.12699999809E+01 0.  1.
</event>
<event>
 5   0  0.5113683E-03  0.6971973E+03  0.7818609E-02  0.9722037E-01
       -2   -1    0    0    0  501  0.00000000000E+00  0.00000000000E+00  0.10944603929E+03  0.10944603932E+03  0.25500000920E-02 0.  1.
        2   -1    0    0  501    0  0.00000000000E+00  0.00000000000E+00 -0.11103280598E+04  0.11103280598E+04  0.25500000920E-02 0. -1.
    10030    2    1    2    0    0  0.00000000000E+00  0.00000000000E+00 -0.10008820205E+04  0.12197740992E+04  0.69719727045E+03 0.  0.
        3    1    3    3  502    0  0.36277083536E+02  0.20421780823E+03 -0.10257476101E+02  0.20766840396E+03  0.10100000352E+00 0.  1.
       -3    1    3    3    0  502 -0.36277083536E+02 -0.20421780823E+03 -0.99062454444E+03  0.10121056952E+04  0.10100000352E+00 0. -1.
</event>
<event>
 5   0  0.2937617E-03  0.6995760E+03  0.7818609E-02  0.9717957E-01
       -1   -1    0    0    0  501  0.00000000000E+00  0.00000000000E+00  0.20365573591E+03  0.20365573598E+03  0.50400001928E-02 0.  1.
        1   -1    0    0  501    0  0.00000000000E+00  0.00000000000E+00 -0.60077689887E+03  0.60077689889E+03  0.50400001928E-02 0. -1.
    10030    2    1    2    0    0  0.00000000000E+00  0.00000000000E+00 -0.39712116295E+03  0.80443263487E+03  0.69957604731E+03 0.  0.
        3    1    3    3  502    0 -0.16170475559E+03  0.30837373734E+03 -0.16026987421E+03  0.38331349134E+03  0.10100000352E+00 0. -1.
       -3    1    3    3    0  502  0.16170475559E+03 -0.30837373734E+03 -0.23685128874E+03  0.42111914352E+03  0.10100000352E+00 0.  1.
</event>
<event>
 5   0  0.5113683E-03  0.6929104E+03  0.7818609E-02  0.9729434E-01
        2   -1    0    0  501    0  0.00000000000E+00  0.00000000000E+00  0.70776183500E+03  0.70776183500E+03  0.25500000920E-02 0.  1.
       -2   -1    0    0    0  501  0.00000000000E+00  0.00000000000E+00 -0.16959266770E+03  0.16959266772E+03  0.25500000920E-02 0. -1.
    10030    2    1    2    0    0  0.00000000000E+00  0.00000000000E+00  0.53816916730E+03  0.87735450272E+03  0.69291043491E+03 0.  0.
        3    1    3    3  502    0  0.24545394759E+03  0.10146635715E+03  0.55075977454E+03  0.61145678627E+03  0.10100000352E+00 0.  1.
       -3    1    3    3    0  502 -0.24545394759E+03 -0.10146635715E+03 -0.12590607242E+02  0.26589771645E+03  0.10100000352E+00 0. -1.
</event>
<event>
 5   0  0.3013140E-03  0.7038313E+03  0.7818609E-02  0.9710703E-01
       -1   -1    0    0    0  501  0.00000000000E+00  0.00000000000E+00  0.23589673747E+03  0.23589673752E+03  0.50400001928E-02 0. -1.
        1   -1    0    0  501    0  0.00000000000E+00  0.00000000000E+00 -0.52499503540E+03  0.52499503543E+03  0.50400001928E-02 0.  1.
    10030    2    1    2    0    0  0.00000000000E+00  0.00000000000E+00 -0.28909829794E+03  0.76089177295E+03  0.70383127543E+03 0.  0.
        2    1    3    3  502    0 -0.15733437053E+03 -0.19015982078E+03 -0.41574456584E+03  0.48348568295E+03  0.25500000920E-02 0.  1.
       -2    1    3    3    0  502  0.15733437053E+03  0.19015982078E+03  0.12664626790E+03  0.27740609000E+03  0.25500000920E-02 0. -1.
</event>
<event>
 5   0  0.2913582E-03  0.7010780E+03  0.7818609E-02  0.9715390E-01
        1   -1    0    0  501    0  0.00000000000E+00  0.00000000000E+00  0.65542905490E+03  0.65542905492E+03  0.50400001928E-02 0. -1.
       -1   -1    0    0    0  501  0.00000000000E+00  0.00000000000E+00 -0.18747656113E+03  0.18747656120E+03  0.50400001928E-02 0.  1.
    10030    2    1    2    0    0  0.00000000000E+00  0.00000000000E+00  0.46795249376E+03  0.84290561612E+03  0.70107798515E+03 0.  0.
        1    1    3    3  502    0  0.11147656535E+03 -0.10163791819E+02  0.63336275585E+03  0.64317859713E+03  0.50400001928E-02 0. -1.
       -1    1    3    3    0  502 -0.11147656535E+03  0.10163791819E+02 -0.16541026209E+03  0.19972701899E+03  0.50400001928E-02 0.  1.
</event>
<event>
 5   0  0.4878235E-03  0.7001545E+03  0.7818609E-02  0.9716968E-01
       -2   -1    0    0    0  501  0.00000000000E+00  0.00000000000E+00  0.16040666894E+03  0.16040666896E+03  0.25500000920E-02 0. -1.
        2   -1    0    0  501    0  0.00000000000E+00  0.00000000000E+00 -0.76402120790E+03  0.76402120791E+03  0.25500000920E-02 0.  1.
    10030    2    1    2    0    0  0.00000000000E+00  0.00000000000E+00 -0.60361453897E+03  0.92442787686E+03  0.70015454570E+03 0.  0.
        4    1    3    3  502    0 -0.66809208813E+02  0.18383973215E+02  0.15125876217E+03  0.16637988727E+03  0.12699999809E+01 0. -1.
       -4    1    3    3    0  502  0.66809208813E+02 -0.18383973215E+02 -0.75487330114E+03  0.75804798960E+03  0.12699999809E+01 0.  1.
</event>
<event>
 5   0  0.4878235E-03  0.6999471E+03  0.7818609E-02  0.9717323E-01
       -2   -1    0    0    0  501  0.00000000000E+00  0.00000000000E+00  0.18785367358E+03  0.18785367360E+03  0.25500000920E-02 0. -1.
        2   -1    0    0  501    0  0.00000000000E+00  0.00000000000E+00 -0.65200478095E+03  0.65200478095E+03  0.25500000920E-02 0.  1.
    10030    2    1    2    0    0  0.00000000000E+00  0.00000000000E+00 -0.46415110736E+03  0.83985845455E+03  0.69994712173E+03 0.  0.
        4    1    3    3  502    0  0.13132872793E+03 -0.25715106023E+03  0.52051608166E+01  0.28879509891E+03  0.12699999809E+01 0. -1.
       -4    1    3    3    0  502 -0.13132872793E+03  0.25715106023E+03 -0.46935626818E+03  0.55106335564E+03  0.12699999809E+01 0.  1.
</event>
<event>
 5   0  0.4878235E-03  0.7014555E+03  0.7818609E-02  0.9714746E-01
       -2   -1    0    0    0  501  0.00000000000E+00  0.00000000000E+00  0.22125167057E+03  0.22125167059E+03  0.25500000920E-02 0. -1.
        2   -1    0    0  501    0  0.00000000000E+00  0.00000000000E+00 -0.55597293623E+03  0.55597293624E+03  0.25500000920E-02 0.  1.
    10030    2    1    2    0    0  0.00000000000E+00  0.00000000000E+00 -0.33472126566E+03  0.77722460683E+03  0.70145546100E+03 0.  0.
        4    1    3    3  502    0  0.28253738033E+02  0.10854994520E+03 -0.53556082152E+03  0.54718220983E+03  0.12699999809E+01 0.  1.
       -4    1    3    3    0  502 -0.28253738033E+02 -0.10854994520E+03  0.20083955586E+03  0.23004239699E+03  0.12699999809E+01 0. -1.
</event>
<event>
 5   0  0.1981750E-03  0.6998842E+03  0.7818609E-02  0.9717430E-01
       -3   -1    0    0    0  501  0.00000000000E+00  0.00000000000E+00  0.11260671608E+03  0.11260676138E+03  0.10100000352E+00 0. -1.
        3   -1    0    0  501    0  0.00000000000E+00  0.00000000000E+00 -0.10874967324E+04  0.10874967371E+04  0.10100000352E+00 0.  1.
    10030    2    1    2    0    0  0.00000000000E+00  0.00000000000E+00 -0.97489001634E+03  0.12001034985E+04  0.69988417837E+03 0.  0.
        2    1    3    3  502    0  0.33277546272E+03 -0.60390534702E+02 -0.64151157389E+03  0.72520591883E+03  0.25500000920E-02 0.  1.
       -2    1    3    3    0  502 -0.33277546272E+03  0.60390534702E+02 -0.33337844245E+03  0.47489757966E+03  0.25500000920E-02 0. -1.
</event>
<event>
 5   0  0.2913582E-03  0.6999165E+03  0.7818609E-02  0.9717375E-01
       -1   -1    0    0    0  501  0.00000000000E+00  0.00000000000E+00  0.39908116879E+03  0.39908116882E+03  0.50400001928E-02 0.  1.
        1   -1    0    0  501    0  0.00000000000E+00  0.00000000000E+00 -0.30688190900E+03  0.30688190904E+03  0.50400001928E-02 0. -1.
    10030    2    1    2    0    0  0.00000000000E+00  0.00000000000E+00  0.92199259785E+02  0.70596307786E+03  0.69991654060E+03 0.  0.
        1    1    3    3  502    0  0.17467107475E+03  0.15069939304E+02 -0.25939261829E+03  0.31308404282E+03  0.50400001928E-02 0. -1.
       -1    1    3    3    0  502 -0.17467107475E+03 -0.15069939304E+02  0.35159187807E+03  0.39287903504E+03  0.50400001928E-02 0.  1.
</event>
<event>
 5   0  0.1981750E-03  0.7007986E+03  0.7818609E-02  0.9715867E-01
        3   -1    0    0  501    0  0.00000000000E+00  0.00000000000E+00  0.12264191883E+04  0.12264191924E+04  0.10100000352E+00 0. -1.
       -3   -1    0    0    0  501  0.00000000000E+00  0.00000000000E+00 -0.10011228624E+03  0.10011233719E+03  0.10100000352E+00 0.  1.
    10030    2    1    2    0    0  0.00000000000E+00  0.00000000000E+00  0.11263069020E+04  0.13265315296E+04  0.70079858841E+03 0.  0.
        2    1    3    3  502    0  0.16691071647E+02 -0.33699819227E+03  0.38424530249E+03  0.51136173689E+03  0.25500000920E-02 0.  1.
       -2    1    3    3    0  502 -0.16691071647E+02  0.33699819227E+03  0.74206159955E+03  0.81516979274E+03  0.25500000920E-02 0. -1.
</event>
<event>
 5   0  0.5113683E-03  0.7000423E+03  0.7818609E-02  0.9717160E-01
       -2   -1    0    0    0  501  0.00000000000E+00  0.00000000000E+00  0.28781840304E+03  0.28781840306E+03  0.25500000920E-02 0. -1.
        2   -1    0    0  501    0  0.00000000000E+00  0.00000000000E+00 -0.42566708833E+03  0.42566708833E+03  0.25500000920E-02 0.  1.
    10030    2    1    2    0    0  0.00000000000E+00  0.00000000000E+00 -0.13784868528E+03  0.71348549139E+03  0.70004234614E+03 0.  0.
        3    1    3    3  502    0  0.30831599188E+03  0.59954243963E+02  0.88513870746E+02  0.32632495726E+03  0.10100000352E+00 0. -1.
       -3    1    3    3    0  502 -0.30831599188E+03 -0.59954243963E+02 -0.22636255603E+03  0.38716053413E+03  0.10100000352E+00 0.  1.
</event>
<event>
 5   0  0.1981750E-03  0.6999907E+03  0.7818609E-02  0.9717248E-01
       -3   -1    0    0    0  501  0.00000000000E+00  0.00000000000E+00  0.62451070508E+03  0.62451071325E+03  0.10100000352E+00 0. -1.
        3   -1    0    0  501    0  0.00000000000E+00  0.00000000000E+00 -0.19614834955E+03  0.19614837556E+03  0.10100000352E+00 0.  1.
    10030    2    1    2    0    0  0.00000000000E+00  0.00000000000E+00  0.42836235553E+03  0.82065908880E+03  0.69999073737E+03 0.  0.
        1    1    3    3  502    0 -0.52360484832E+02 -0.13995188690E+03  0.58523448571E+03  0.60400956475E+03  0.50400001928E-02 0. -1.
       -1    1    3    3    0  502  0.52360484832E+02  0.13995188690E+03 -0.15687213018E+03  0.21664952405E+03  0.50400001928E-02 0.  1.
</event>
<event>
 5   0  0.5072407E-03  0.6929813E+03  0.7818609E-02  0.9729311E-01
       -2   -1    0    0    0  501  0.00000000000E+00  0.00000000000E+00  0.10384875462E+03  0.10384875465E+03  0.25500000920E-02 0. -1.
        2   -1    0    0  501    0  0.00000000000E+00  0.00000000000E+00 -0.11560637380E+04  0.11560637380E+04  0.25500000920E-02 0.  1.
    10030    2    1    2    0    0  0.00000000000E+00  0.00000000000E+00 -0.10522149834E+04  0.12599124926E+04  0.69298132578E+03 0.  0.
        1    1    3    3  502    0  0.26585940843E+03  0.22197940179E+03 -0.50795377679E+03  0.61479518479E+03  0.50400001928E-02 0. -1.
       -1    1    3    3    0  502 -0.26585940843E+03 -0.22197940179E+03 -0.54426120658E+03  0.64511730784E+03  0.50400001928E-02 0.  1.
</event>
<event>
 5   0  0.1981750E-03  0.6957138E+03  0.7818609E-02  0.9724590E-01
        4   -1    0    0  501    0  0.00000000000E+00  0.00000000000E+00  0.32835246420E+03  0.32835492025E+03  0.12699999809E+01 0.  1.
       -4   -1    0    0    0  501  0.00000000000E+00  0.00000000000E+00 -0.36851503684E+03  0.36851722521E+03  0.12699999809E+01 0. -1.
    10030    2    1    2    0    0  0.00000000000E+00  0.00000000000E+00 -0.40162572636E+02  0.69687214546E+03  0.69571384554E+03 0.  0.
        1    1    3    3  502    0  0.84139539331E+02 -0.24807309872E+03 -0.24933941819E+03  0.36164882120E+03  0.50400001928E-02 0. -1.
       -1    1    3    3    0  502 -0.84139539331E+02  0.24807309872E+03  0.20917684555E+03  0.33522332426E+03  0.50400001928E-02 0.  1.
</event>
<event>
 5   0  0.2913582E-03  0.6951810E+03  0.7818609E-02  0.9725509E-01
       -1   -1    0    0    0  501  0.00000000000E+00  0.00000000000E+00  0.26291475643E+03  0.26291475648E+03  0.50400001928E-02 0.  1.
        1   -1    0    0  501    0  0.00000000000E+00  0.00000000000E+00 -0.45953730868E+03  0.45953730871E+03  0.50400001928E-02 0. -1.
    10030    2    1    2    0    0  0.00000000000E+00  0.00000000000E+00 -0.19662255224E+03  0.72245206519E+03  0.69518095374E+03 0.  0.
        1    1    3    3  502    0 -0.26531097042E+03 -0.51538213777E+02  0.12883342809E+03  0.29940633047E+03  0.50400001928E-02 0.  1.
       -1    1    3    3    0  502  0.26531097042E+03  0.51538213777E+02 -0.32545598033E+03  0.42304573472E+03  0.50400001928E-02 0. -1.
</event>
<event>
 5   0  0.3013140E-03  0.7017036E+03  0.7818609E-02  0.9714323E-01
        1   -1    0    0  501    0  0.00000000000E+00  0.00000000000E+00  0.78796288651E+03  0.78796288652E+03  0.50400001928E-02 0.  1.
       -1   -1    0    0    0  501  0.00000000000E+00  0.00000000000E+00 -0.15622178453E+03  0.15622178461E+03  0.50400001928E-02 0. -1.
    10030    2    1    2    0    0  0.00000000000E+00  0.00000000000E+00  0.63174110198E+03  0.94418467113E+03  0.70170355084E+03 0.  0.
        2    1    3    3  502    0 -0.27413327610E+03 -0.19948185902E+03  0.19436036783E+03  0.39079152720E+03  0.25500000920E-02 0. -1.
       -2    1    3    3    0  502  0.27413327610E+03  0.19948185902E+03  0.43738073415E+03  0.55339314393E+03  0.25500000920E-02 0.  1.
</event>
<event>
 5   0  0.5113683E-03  0.6986361E+03  0.7818609E-02  0.9719568E-01
       -2   -1    0    0    0  501  0.00000000000E+00  0.00000000000E+00  0.21387327967E+03  0.21387327968E+03  0.25500000920E-02 0. -1.
        2   -1    0    0  501    0  0.00000000000E+00  0.00000000000E+00 -0.57053919894E+03  0.57053919895E+03  0.25500000920E-02 0.  1.
    10030    2    1    2    0    0  0.00000000000E+00  0.00000000000E+00 -0.35666591927E+03  0.78441247863E+03  0.69863607025E+03 0.  0.
        3    1    3    3  502    0 -0.23747313623E+03  0.16766910689E+03 -0.39580607263E+03  0.49108947980E+03  0.10100000352E+00 0.  1.
       -3    1    3    3    0  502  0.23747313623E+03 -0.16766910689E+03  0.39140153354E+02  0.29332299883E+03  0.10100000352E+00 0. -1.
</event>
<event>
 5   0  0.3013140E-03  0.6984080E+03  0.7818609E-02  0.9719959E-01
       -1   -1    0    0    0  501  0.00000000000E+00  0.00000000000E+00  0.25778582916E+03  0.25778582921E+03  0.50400001928E-02 0. -1.
        1   -1    0    0  501    0  0.00000000000E+00  0.00000000000E+00 -0.47304166350E+03  0.47304166353E+03  0.50400001928E-02 0.  1.
    10030    2    1    2    0    0  0.00000000000E+00  0.00000000000E+00 -0.21525583434E+03  0.73082749274E+03  0.69840801107E+03 0.  0.
        2    1    3    3  502    0 -0.62642179273E+02  0.19611355651E+03  0.18752695821E+03  0.27847967562E+03  0.25500000920E-02 0. -1.
       -2    1    3    3    0  502  0.62642179273E+02 -0.19611355651E+03 -0.40278279255E+03  0.45234781712E+03  0.25500000920E-02 0.  1.
</event>
<event>
 5   0  0.4878235E-03  0.6953774E+03  0.7818609E-02  0.9725170E-01
        2   -1    0    0  501    0  0.00000000000E+00  0.00000000000E+00  0.10236841590E+04  0.10236841590E+04  0.25500000920E-02 0.  1.
       -2   -1    0    0    0  501  0.00000000000E+00  0.00000000000E+00 -0.11809055101E+03  0.11809055104E+03  0.25500000920E-02 0. -1.
    10030    2    1    2    0    0  0.00000000000E+00  0.00000000000E+00  0.90559360798E+03  0.11417747100E+04  0.69537738363E+03 0.  0.
        4    1    3    3  502    0  0.13007142127E+03 -0.22038475902E+03  0.66335420355E+02  0.26436720207E+03  0.12699999809E+01 0. -1.
       -4    1    3    3    0  502 -0.13007142127E+03  0.22038475902E+03  0.83925818763E+03  0.87740750797E+03  0.12699999809E+01 0.  1.
</event>
<event>
 5   0  0.2937617E-03  0.7008844E+03  0.7818609E-02  0.9715721E-01
       -1   -1    0    0    0  501  0.00000000000E+00  0.00000000000E+00  0.12053702675E+03  0.12053702685E+03  0.50400001928E-02 0. -1.
        1   -1    0    0  501    0  0.00000000000E+00  0.00000000000E+00 -0.10188549035E+04  0.10188549035E+04  0.50400001928E-02 0.  1.
    10030    2    1    2    0    0  0.00000000000E+00  0.00000000000E+00 -0.89831787674E+03  0.11393919304E+04  0.70088441507E+03 0.  0.
        3    1    3    3  502    0 -0.24510024619E+03  0.10556803374E+03 -0.79914750569E+02  0.27857695165E+03  0.10100000352E+00 0. -1.
       -3    1    3    3    0  502  0.24510024619E+03 -0.10556803374E+03 -0.81840312617E+03  0.86081497870E+03  0.10100000352E+00 0.  1.
</event>
<event>
 5   0  0.2913582E-03  0.7005677E+03  0.7818609E-02  0.9716262E-01
        1   -1    0    0  501    0  0.00000000000E+00  0.00000000000E+00  0.46115051719E+03  0.46115051721E+03  0.50400001928E-02 0. -1.
       -1   -1    0    0    0  501  0.00000000000E+00  0.00000000000E+00 -0.26607096024E+03  0.26607096028E+03  0.50400001928E-02 0.  1.
    10030    2    1    2    0    0  0.00000000000E+00  0.00000000000E+00  0.19507955695E+03  0.72722147750E+03  0.70056765826E+03 0.  0.
        1    1    3    3  502    0 -0.12858228310E+03  0.30075097543E+03 -0.32585857028E+02  0.32870410837E+03  0.50400001928E-02 0. -1.
       -1    1    3    3    0  502  0.12858228310E+03 -0.30075097543E+03  0.22766541398E+03  0.39851736913E+03  0.50400001928E-02 0.  1.
</event>
<event>
 5   0  0.4878235E-03  0.7000300E+03  0.7818609E-02  0.9717181E-01
       -2   -1    0    0    0  501  0.00000000000E+00  0.00000000000E+00  0.90475376173E+02  0.90475376209E+02  0.25500000920E-02 0. -1.
        2   -1    0    0  501    0  0.00000000000E+00  0.00000000000E+00 -0.13540755106E+04  0.13540755106E+04  0.25500000920E-02 0.  1.
    10030    2    1    2    0    0  0.00000000000E+00  0.00000000000E+00 -0.12636001344E+04  0.14445508868E+04  0.70002997426E+03 0.  0.
        4    1    3    3  502    0  0.17576796755E+03  0.42370412073E+02 -0.13355303892E+02  0.18129977186E+03  0.12699999809E+01 0. -1.
       -4    1    3    3    0  502 -0.17576796755E+03 -0.42370412073E+02 -0.12502448305E+04  0.12632511149E+04  0.12699999809E+01 0.  1.
</event>
<event>
 5   0  0.5076796E-03  0.7009512E+03  0.7818609E-02  0.9715607E-01
       -2   -1    0    0    0  501  0.00000000000E+00  0.00000000000E+00  0.14587532365E+03  0.14587532367E+03  0.25500000920E-02 0. -1.
        2   -1    0    0  501    0  0.00000000000E+00  0.00000000000E+00 -0.84204197170E+03  0.84204197170E+03  0.25500000920E-02 0.  1.
    10030    2    1    2    0    0  0.00000000000E+00  0.00000000000E+00 -0.69616664805E+03  0.98791729538E+03  0.70095119706E+03 0.  0.
        5    1    3    3  502    0  0.21656204171E+03 -0.26471717653E+03 -0.24040742890E+03  0.41808147929E+03  0.46999998093E+01 0. -1.
       -5    1    3    3    0  502 -0.21656204171E+03  0.26471717653E+03 -0.45575921915E+03  0.56983581609E+03  0.46999998093E+01 0.  1.
</event>
<event>
 5   0  0.3013140E-03  0.6998212E+03  0.7818609E-02  0.9717538E-01
       -1   -1    0    0    0  501  0.00000000000E+00  0.00000000000E+00  0.27540954886E+03  0.27540954891E+03  0.50400001928E-02 0. -1.
        1   -1    0    0  501    0  0.00000000000E+00  0.00000000000E+00 -0.44456490845E+03  0.44456490848E+03  0.50400001928E-02 0.  1.
    10030    2    1    2    0    0  0.00000000000E+00  0.00000000000E+00 -0.16915535959E+03  0.71997445739E+03  0.69982117974E+03 0.  0.
        2    1    3    3  502    0  0.74102583220E+02 -0.29426259861E+03 -0.26382410325E+03  0.40210051883E+03  0.25500000920E-02 0.  1.
       -2    1    3    3    0  502 -0.74102583220E+02  0.29426259861E+03  0.94668743659E+02  0.31787393856E+03  0.25500000920E-02 0. -1.
</event>
<event>
 5   0  0.3013140E-03  0.7006334E+03  0.7818609E-02  0.9716150E-01
        1   -1    0    0  501    0  0.00000000000E+00  0.00000000000E+00  0.12364737006E+04  0.12364737006E+04  0.50400001928E-02 0.  1.
       -1   -1    0    0    0  501  0.00000000000E+00  0.00000000000E+00 -0.99251436143E+02  0.99251436271E+02  0.50400001928E-02 0. -1.
    10030    2    1    2    0    0  0.00000000000E+00  0.00000000000E+00  0.11372222644E+04  0.13357251368E+04  0.70063340094E+03 0.  0.
        2    1    3    3  502    0  0.13113423895E+03 -0.26380816226E+01 -0.50674293374E+02  0.14060950222E+03  0.25500000920E-02 0. -1.
       -2    1    3    3    0  502 -0.13113423895E+03  0.26380816226E+01  0.11878965578E+04  0.11951156346E+04  0.25500000920E-02 0.  1.
</event>
<event>
 5   0  0.2913582E-03  0.6996023E+03  0.7818609E-02  0.9717913E-01
       -1   -1    0    0    0  501  0.00000000000E+00  0.00000000000E+00  0.35860327605E+03  0.35860327609E+03  0.50400001928E-02 0.  1.
        1   -1    0    0  501    0  0.00000000000E+00  0.00000000000E+00 -0.34121504837E+03  0.34121504840E+03  0.50400001928E-02 0. -1.
    10030    2    1    2    0    0  0.00000000000E+00  0.00000000000E+00  0.17388227683E+02  0.69981832449E+03  0.69960227046E+03 0.  0.
        1    1    3    3  502    0 -0.17454349376E+03  0.37249093267E+02  0.30963234454E+03  0.35738650642E+03  0.50400001928E-02 0.  1.
       -1    1    3    3    0  502  0.17454349376E+03 -0.37249093267E+02 -0.29224411685E+03  0.34243181807E+03  0.50400001928E-02 0. -1.
</event>
<event>
 5   0  0.2934483E-03  0.7002374E+03  0.7818609E-02  0.9716826E-01
        1   -1    0    0  501    0  0.00000000000E+00  0.00000000000E+00  0.29783163390E+03  0.29783163394E+03  0.50400001928E-02 0.  1.
       -1   -1    0    0    0  501  0.00000000000E+00  0.00000000000E+00 -0.41158520377E+03  0.41158520380E+03  0.50400001928E-02 0. -1.
    10030    2    1    2    0    0  0.00000000000E+00  0.00000000000E+00 -0.11375356987E+03  0.70941683774E+03  0.70023737047E+03 0.  0.
        5    1    3    3  502    0  0.13268443106E+03 -0.18802821756E+03  0.21040211802E+03  0.31185078180E+03  0.46999998093E+01 0.  1.
       -5    1    3    3    0  502 -0.13268443106E+03  0.18802821756E+03 -0.32415568789E+03  0.39756605594E+03  0.46999998093E+01 0. -1.
</event>
<event>
 5   0  0.2937617E-03  0.7007472E+03  0.7818609E-02  0.9715955E-01
        1   -1    0    0  501    0  0.00000000000E+00  0.00000000000E+00  0.19470839117E+03  0.19470839123E+03  0.50400001928E-02 0. -1.
       -1   -1    0    0    0  501  0.00000000000E+00  0.00000000000E+00 -0.63048983446E+03  0.63048983448E+03  0.50400001928E-02 0.  1.
    10030    2    1    2    0    0  0.00000000000E+00  0.00000000000E+00 -0.43578144329E+03  0.82519822571E+03  0.70074720506E+03 0.  0.
        3    1    3    3  502    0  0.19700144619E+03  0.77299295595E+02 -0.54672712902E+03  0.58625533235E+03  0.10100000352E+00 0.  1.
       -3    1    3    3    0  502 -0.19700144619E+03 -0.77299295595E+02  0.11094568573E+03  0.23894289335E+03  0.10100000352E+00 0. -1.
</event>
<event>
 5   0  0.5072407E-03  0.6993142E+03  0.7818609E-02  0.9718406E-01
       -2   -1    0    0    0  501  0.00000000000E+00  0.00000000000E+00  0.78868716577E+02  0.78868716619E+02  0.25500000920E-02 0.  1.
        2   -1    0    0  501    0  0.00000000000E+00  0.00000000000E+00 -0.15501719644E+04  0.15501719644E+04  0.25500000920E-02 0. -1.
    10030    2    1    2    0    0  0.00000000000E+00  0.00000000000E+00 -0.14713032478E+04  0.16290406810E+04  0.69931415928E+03 0.  0.
        1    1    3    3  502    0 -0.13271949181E+03 -0.19673379842E+03 -0.13338410935E+04  0.13547880697E+04  0.50400001928E-02 0. -1.
       -1    1    3    3    0  502  0.13271949181E+03  0.19673379842E+03 -0.13746215433E+03  0.27425261137E+03  0.50400001928E-02 0.  1.
</event>
<event>
 5   0  0.2937617E-03  0.7001198E+03  0.7818609E-02  0.9717027E-01
       -1   -1    0    0    0  501  0.00000000000E+00  0.00000000000E+00  0.74886211061E+02  0.74886211231E+02  0.50400001928E-02 0. -1.
        1   -1    0    0  501    0  0.00000000000E+00  0.00000000000E+00 -0.16363749027E+04  0.16363749027E+04  0.50400001928E-02 0.  1.
    10030    2    1    2    0    0  0.00000000000E+00  0.00000000000E+00 -0.15614886916E+04  0.17112611139E+04  0.70011975115E+03 0.  0.
        3    1    3    3  502    0  0.14277984773E+03 -0.16300906073E+03 -0.10876100423E+03  0.24246031643E+03  0.10100000352E+00 0. -1.
       -3    1    3    3    0  502 -0.14277984773E+03  0.16300906073E+03 -0.14527276874E+04  0.14688007975E+04  0.10100000352E+00 0.  1.
</event>
<event>
 5   0  0.2913582E-03  0.6974384E+03  0.7818609E-02  0.9721623E-01
       -1   -1    0    0    0  501  0.00000000000E+00  0.00000000000E+00  0.76528244153E+02  0.76528244319E+02  0.50400001928E-02 0. -1.
        1   -1    0    0  501    0  0.00000000000E+00  0.00000000000E+00 -0.15890222897E+04  0.15890222897E+04  0.50400001928E-02 0.  1.
    10030    2    1    2    0    0  0.00000000000E+00  0.00000000000E+00 -0.15124940455E+04  0.16655505340E+04  0.69743841561E+03 0.  0.
        1    1    3    3  502    0 -0.18681569703E+03  0.26915938937E+03 -0.10414042387E+04  0.10917278370E+04  0.50400001928E-02 0.  1.
       -1    1    3    3    0  502  0.18681569703E+03 -0.26915938937E+03 -0.47108980680E+03  0.57382269704E+03  0.50400001928E-02 0. -1.
</event>
<event>
 5   0  0.2913582E-03  0.6997391E+03  0.7818609E-02  0.9717678E-01
        1   -1    0    0  501    0  0.00000000000E+00  0.00000000000E+00  0.89142908533E+03  0.89142908534E+03  0.50400001928E-02 0.  1.
       -1   -1    0    0    0  501  0.00000000000E+00  0.00000000000E+00 -0.13731736837E+03  0.13731736846E+03  0.50400001928E-02 0. -1.
    10030    2    1    2    0    0  0.00000000000E+00  0.00000000000E+00  0.75411171696E+03  0.10287464538E+04  0.69973908320E+03 0.  0.
        1    1    3    3  502    0  0.28588177011E+03 -0.19680362366E+03  0.44195491735E+03  0.56194679620E+03  0.50400001928E-02 0.  1.
       -1    1    3    3    0  502 -0.28588177011E+03  0.19680362366E+03  0.31215679961E+03  0.46679965760E+03  0.50400001928E-02 0. -1.
</event>
<event>
 5   0  0.3013140E-03  0.7003243E+03  0.7818609E-02  0.9716678E-01
       -1   -1    0    0    0  501  0.00000000000E+00  0.00000000000E+00  0.19564928717E+03  0.19564928723E+03  0.50400001928E-02 0. -1.
        1   -1    0    0  501    0  0.00000000000E+00  0.00000000000E+00 -0.62670065518E+03  0.62670065520E+03  0.50400001928E-02 0.  1.
    10030    2    1    2    0    0  0.00000000000E+00  0.00000000000E+00 -0.43105136801E+03  0.82234994243E+03  0.70032431484E+03 0.  0.
        2    1    3    3  502    0  0.25660094825E+03 -0.23399724798E+03 -0.26823301653E+03  0.43880258644E+03  0.25500000920E-02 0. -1.
       -2    1    3    3    0  502 -0.25660094825E+03  0.23399724798E+03 -0.16281835149E+03  0.38354735600E+03  0.25500000920E-02 0.  1.
</event>
<event>
 5   0  0.2937617E-03  0.6998642E+03  0.7818609E-02  0.9717464E-01
       -1   -1    0    0    0  501  0.00000000000E+00  0.00000000000E+00  0.10742225481E+03  0.10742225493E+03  0.50400001928E-02 0. -1.
        1   -1    0    0  501    0  0.00000000000E+00  0.00000000000E+00 -0.11399173241E+04  0.11399173241E+04  0.50400001928E-02 0.  1.
    10030    2    1    2    0    0  0.00000000000E+00  0.00000000000E+00 -0.10324950693E+04  0.12473395791E+04  0.69986424207E+03 0.  0.
        3    1    3    3  502    0 -0.33060389328E+03 -0.11212881455E+03 -0.47330012005E+03  0.58811973198E+03  0.10100000352E+00 0. -1.
       -3    1    3    3    0  502  0.33060389328E+03  0.11212881455E+03 -0.55919494926E+03  0.65921984708E+03  0.10100000352E+00 0.  1.
</event>
<event>
 5   0  0.5072407E-03  0.6999029E+03  0.7818609E-02  0.9717398E-01
       -2   -1    0    0    0  501  0.00000000000E+00  0.00000000000E+00  0.42975165540E+03  0.42975165541E+03  0.25500000920E-02 0. -1.
        2   -1    0    0  501    0  0.00000000000E+00  0.00000000000E+00 -0.28496929746E+03  0.28496929747E+03  0.25500000920E-02 0.  1.
    10030    2    1    2    0    0  0.00000000000E+00  0.00000000000E+00  0.14478235795E+03  0.71472095288E+03  0.69990292849E+03 0.  0.
        1    1    3    3  502    0  0.28894020626E+03 -0.12977473808E+03  0.22433004970E+03  0.38813901718E+03  0.50400001928E-02 0. -1.
       -1    1    3    3    0  502 -0.28894020626E+03  0.12977473808E+03 -0.79547691752E+02  0.32658193570E+03  0.50400001928E-02 0.  1.
</event>
<event>
 5   0  0.5113683E-03  0.6982309E+03  0.7818609E-02  0.9720262E-01
       -2   -1    0    0    0  501  0.00000000000E+00  0.00000000000E+00  0.37979239123E+03  0.37979239124E+03  0.25500000920E-02 0.  1.
        2   -1    0    0  501    0  0.00000000000E+00  0.00000000000E+00 -0.32091640470E+03  0.32091640471E+03  0.25500000920E-02 0. -1.
    10030    2    1    2    0    0  0.00000000000E+00  0.00000000000E+00  0.58875986535E+02  0.70070879595E+03  0.69823093238E+03 0.  0.
        3    1    3    3  502    0 -0.17703649693E+03  0.17298566105E+03 -0.21763815715E+03  0.32959420174E+03  0.10100000352E+00 0. -1.
       -3    1    3    3    0  502  0.17703649693E+03 -0.17298566105E+03  0.27651414369E+03  0.37111459421E+03  0.10100000352E+00 0.  1.
</event>
<event>
 5   0  0.2937617E-03  0.7003375E+03  0.7818609E-02  0.9716655E-01
       -1   -1    0    0    0  501  0.00000000000E+00  0.00000000000E+00  0.35314680696E+03  0.35314680699E+03  0.50400001928E-02 0. -1.
        1   -1    0    0  501    0  0.00000000000E+00  0.00000000000E+00 -0.34721579791E+03  0.34721579795E+03  0.50400001928E-02 0.  1.
    10030    2    1    2    0    0  0.00000000000E+00  0.00000000000E+00  0.59310090465E+01  0.70036260494E+03  0.70033749116E+03 0.  0.
        3    1    3    3  502    0  0.90949142927E+01  0.33269531980E+03  0.11182365410E+03  0.35110316590E+03  0.10100000352E+00 0. -1.
       -3    1    3    3    0  502 -0.90949142927E+01 -0.33269531980E+03 -0.10589264505E+03  0.34925943905E+03  0.10100000352E+00 0.  1.
</event>
<event>
 5   0  0.1981750E-03  0.7002603E+03  0.7818609E-02  0.9716787E-01
        4   -1    0    0  501    0  0.00000000000E+00  0.00000000000E+00  0.12688907312E+03  0.12689542851E+03  0.12699999809E+01 0.  1.
       -4   -1    0    0    0  501  0.00000000000E+00  0.00000000000E+00 -0.96609743525E+03  0.96609827000E+03  0.12699999809E+01 0. -1.
    10030    2    1    2    0    0  0.00000000000E+00  0.00000000000E+00 -0.83920836213E+03  0.10929936985E+04  0.70026034438E+03 0.  0.
        4    1    3    3  502    0 -0.17229850925E+03 -0.13928143965E+03 -0.84277130963E+03  0.87140759060E+03  0.12699999809E+01 0. -1.
       -4    1    3    3    0  502  0.17229850925E+03  0.13928143965E+03  0.35629475001E+01  0.22158610791E+03  0.12699999809E+01 0.  1.
</event>
<event>
 5   0  0.2938783E-03  0.6997053E+03  0.7818609E-02  0.9717736E-01
       -1   -1    0    0    0  501  0.00000000000E+00  0.00000000000E+00  0.21997184333E+03  0.21997184339E+03  0.50400001928E-02 0.  1.
        1   -1    0    0  501    0  0.00000000000E+00  0.00000000000E+00 -0.55642069914E+03  0.55642069916E+03  0.50400001928E-02 0. -1.
    10030    2    1    2    0    0  0.00000000000E+00  0.00000000000E+00 -0.33644885581E+03  0.77639254256E+03  0.69970532909E+03 0.  0.
        4    1    3    3  502    0  0.43367709609E+01 -0.25831869565E+03  0.93527948570E+02  0.27476616635E+03  0.12699999809E+01 0.  1.
       -4    1    3    3    0  502 -0.43367709609E+01  0.25831869565E+03 -0.42997680438E+03  0.50162637621E+03  0.12699999809E+01 0. -1.
</event>
<event>
 5   0  0.3013140E-03  0.7011807E+03  0.7818609E-02  0.9715215E-01
        1   -1    0    0  501    0  0.00000000000E+00  0.00000000000E+00  0.11015916791E+04  0.11015916791E+04  0.50400001928E-02 0.  1.
       -1   -1    0    0    0  501  0.00000000000E+00  0.00000000000E+00 -0.11157819199E+03  0.11157819210E+03  0.50400001928E-02 0. -1.
    10030    2    1    2    0    0  0.00000000000E+00  0.00000000000E+00  0.99001348712E+03  0.12131698712E+04  0.70118074116E+03 0.  0.
        2    1    3    3  502    0  0.83596720976E+02  0.33544580050E+03  0.39410124893E+03  0.52424048990E+03  0.25500000920E-02 0. -1.
       -2    1    3    3    0  502 -0.83596720976E+02 -0.33544580050E+03  0.59591223819E+03  0.68892938133E+03  0.25500000920E-02 0.  1.
</event>
<event>
 5   0  0.2913582E-03  0.6997031E+03  0.7818609E-02  0.9717740E-01
        1   -1    0    0  501    0  0.00000000000E+00  0.00000000000E+00  0.25988842142E+03  0.25988842147E+03  0.50400001928E-02 0.  1.
       -1   -1    0    0    0  501  0.00000000000E+00  0.00000000000E+00 -0.47095634055E+03  0.47095634057E+03  0.50400001928E-02 0. -1.
    10030    2    1    2    0    0  0.00000000000E+00  0.00000000000E+00 -0.21106791912E+03  0.73084476205E+03  0.69970307969E+03 0.  0.
        1    1    3    3  502    0 -0.11388683265E+03 -0.12397244069E+03  0.21480242935E+03  0.27290925301E+03  0.50400001928E-02 0.  1.
       -1    1    3    3    0  502  0.11388683265E+03  0.12397244069E+03 -0.42587034847E+03  0.45793550903E+03  0.50400001928E-02 0. -1.
</event>
<event>
 5   0  0.2937617E-03  0.6999035E+03  0.7818609E-02  0.9717397E-01
        1   -1    0    0  501    0  0.00000000000E+00  0.00000000000E+00  0.45706798627E+03  0.45706798630E+03  0.50400001928E-02 0. -1.
       -1   -1    0    0    0  501  0.00000000000E+00  0.00000000000E+00 -0.26793876763E+03  0.26793876767E+03  0.50400001928E-02 0.  1.
    10030    2    1    2    0    0  0.00000000000E+00  0.00000000000E+00  0.18912921865E+03  0.72500675397E+03  0.69990351618E+03 0.  0.
        3    1    3    3  502    0 -0.28490897426E+03  0.16997610938E+03 -0.20790306831E+02  0.33241126400E+03  0.10100000352E+00 0.  1.
       -3    1    3    3    0  502  0.28490897426E+03 -0.16997610938E+03  0.20991952548E+03  0.39259548998E+03  0.10100000352E+00 0. -1.
</event>
<event>
 5   0  0.5076796E-03  0.7020953E+03  0.7818609E-02  0.9713656E-01
        2   -1    0    0  501    0  0.00000000000E+00  0.00000000000E+00  0.87352354514E+03  0.87352354514E+03  0.25500000920E-02 0. -1.
       -2   -1    0    0    0  501  0.00000000000E+00  0.00000000000E+00 -0.14107740956E+03  0.14107740958E+03  0.25500000920E-02 0.  1.
    10030    2    1    2    0    0  0.00000000000E+00  0.00000000000E+00  0.73244613558E+03  0.10146009547E+04  0.70209526121E+03 0.  0.
        5    1    3    3  502    0 -0.33283481809E+03 -0.10999147735E+03  0.33976511474E+03  0.48820033225E+03  0.46999998093E+01 0. -1.
       -5    1    3    3    0  502  0.33283481809E+03  0.10999147735E+03  0.39268102084E+03  0.52640062247E+03  0.46999998093E+01 0.  1.
</event>
<event>
 5   0  0.4878235E-03  0.7004457E+03  0.7818609E-02  0.9716470E-01
       -2   -1    0    0    0  501  0.00000000000E+00  0.00000000000E+00  0.14021436297E+03  0.14021436300E+03  0.25500000920E-02 0.  1.
        2   -1    0    0  501    0  0.00000000000E+00  0.00000000000E+00 -0.87477522646E+03  0.87477522646E+03  0.25500000920E-02 0. -1.
    10030    2    1    2    0    0  0.00000000000E+00  0.00000000000E+00 -0.73456086349E+03  0.10149895895E+04  0.70044571848E+03 0.  0.
        4    1    3    3  502    0 -0.21042499662E+03 -0.22575484625E+03 -0.60718893896E+03  0.68111962995E+03  0.12699999809E+01 0. -1.
       -4    1    3    3    0  502  0.21042499662E+03  0.22575484625E+03 -0.12737192453E+03  0.33386995951E+03  0.12699999809E+01 0.  1.
</event>
<event>
 5   0  0.2934483E-03  0.6998127E+03  0.7818609E-02  0.9717553E-01
        1   -1    0    0  501    0  0.00000000000E+00  0.00000000000E+00  0.35230753756E+03  0.35230753760E+03  0.50400001928E-02 0. -1.
       -1   -1    0    0    0  501  0.00000000000E+00  0.00000000000E+00 -0.34752155285E+03  0.34752155289E+03  0.50400001928E-02 0.  1.
    10030    2    1    2    0    0  0.00000000000E+00  0.00000000000E+00  0.47859847132E+01  0.69982909049E+03  0.69981272512E+03 0.  0.
        5    1    3    3  502    0 -0.80691937873E+02 -0.33369856814E+01 -0.33804124296E+03  0.34758638674E+03  0.46999998093E+01 0.  1.
       -5    1    3    3    0  502  0.80691937873E+02  0.33369856814E+01  0.34282722767E+03  0.35224270374E+03  0.46999998093E+01 0. -1.
</event>
<event>
 5   0  0.2934483E-03  0.6996900E+03  0.7818609E-02  0.9717762E-01
       -1   -1    0    0    0  501  0.00000000000E+00  0.00000000000E+00  0.15933300391E+03  0.15933300399E+03  0.50400001928E-02 0. -1.
        1   -1    0    0  501    0  0.00000000000E+00  0.00000000000E+00 -0.76814928299E+03  0.76814928301E+03  0.50400001928E-02 0.  1.
    10030    2    1    2    0    0  0.00000000000E+00  0.00000000000E+00 -0.60881627908E+03  0.92748228699E+03  0.69969002495E+03 0.  0.
        5    1    3    3  502    0  0.34378145415E+03 -0.25872203331E+02 -0.22582587760E+03  0.41215831438E+03  0.46999998093E+01 0. -1.
       -5    1    3    3    0  502 -0.34378145415E+03  0.25872203331E+02 -0.38299040149E+03  0.51532397261E+03  0.46999998093E+01 0.  1.
</event>
<event>
 5   0  0.5072407E-03  0.7000322E+03  0.7818609E-02  0.9717177E-01
        2   -1    0    0  501    0  0.00000000000E+00  0.00000000000E+00  0.12743453790E+04  0.12743453790E+04  0.25500000920E-02 0. -1.
       -2   -1    0    0    0  501  0.00000000000E+00  0.00000000000E+00 -0.96136619543E+02  0.96136619577E+02  0.25500000920E-02 0.  1.
    10030    2    1    2    0    0  0.00000000000E+00  0.00000000000E+00  0.11782087594E+04  0.13704819986E+04  0.70003216181E+03 0.  0.
        1    1    3    3  502    0  0.19398573318E+03  0.16308359153E+03  0.10617460491E+04  0.10915728997E+04  0.50400001928E-02 0. -1.
       -1    1    3    3    0  502 -0.19398573318E+03 -0.16308359153E+03  0.11646271031E+03  0.27890909885E+03  0.50400001928E-02 0.  1.
</event>
<event>
 5   0  0.4878235E-03  0.7000842E+03  0.7818609E-02  0.9717088E-01
       -2   -1    0    0    0  501  0.00000000000E+00  0.00000000000E+00  0.29267692420E+03  0.29267692421E+03  0.25500000920E-02 0.  1.
        2   -1    0    0  501    0  0.00000000000E+00  0.00000000000E+00 -0.41865095475E+03  0.41865095476E+03  0.25500000920E-02 0. -1.
    10030    2    1    2    0    0  0.00000000000E+00  0.00000000000E+00 -0.12597403055E+03  0.71132787897E+03  0.70008420567E+03 0.  0.
        4    1    3    3  502    0  0.55024283975E+02  0.43217845787E+02 -0.41147117490E+03  0.41737943732E+03  0.12699999809E+01 0. -1.
       -4    1    3    3    0  502 -0.55024283975E+02 -0.43217845787E+02  0.28549714434E+03  0.29394844165E+03  0.12699999809E+01 0.  1.
</event>
<event>
 5   0  0.4878235E-03  0.6981521E+03  0.7818609E-02  0.9720398E-01
        2   -1    0    0  501    0  0.00000000000E+00  0.00000000000E+00  0.12110524501E+04  0.12110524501E+04  0.25500000920E-02 0. -1.
       -2   -1    0    0    0  501  0.00000000000E+00  0.00000000000E+00 -0.10061832746E+03  0.10061832749E+03  0.25500000920E-02 0.  1.
    10030    2    1    2    0    0  0.00000000000E+00  0.00000000000E+00  0.11104341226E+04  0.13116707776E+04  0.69815205225E+03 0.  0.
        4    1    3    3  502    0 -0.81264993562E+02 -0.11852276070E+03 -0.42460332163E+02  0.14985371764E+03  0.12699999809E+01 0.  1.
       -4    1    3    3    0  502  0.81264993562E+02  0.11852276070E+03  0.11528944548E+04  0.11618170599E+04  0.12699999809E+01 0. -1.
</event>
<event>
 5   0  0.2938783E-03  0.7004888E+03  0.7818609E-02  0.9716397E-01
       -1   -1    0    0    0  501  0.00000000000E+00  0.00000000000E+00  0.11552260935E+04  0.11552260935E+04  0.50400001928E-02 0. -1.
        1   -1    0    0  501    0  0.00000000000E+00  0.00000000000E+00 -0.10618799044E+03  0.10618799056E+03  0.50400001928E-02 0.  1.
    10030    2    1    2    0    0  0.00000000000E+00  0.00000000000E+00  0.10490381031E+04  0.12614140841E+04  0.70048879352E+03 0.  0.
        4    1    3    3  502    0  0.25115000275E+03  0.10349155620E+03  0.12638064856E+03  0.29960057963E+03  0.12699999809E+01 0.  1.
       -4    1    3    3    0  502 -0.25115000275E+03 -0.10349155620E+03  0.92265745453E+03  0.96181350448E+03  0.12699999809E+01 0. -1.
</event>
<event>
 5   0  0.2937617E-03  0.6996631E+03  0.7818609E-02  0.9717808E-01
        1   -1    0    0  501    0  0.00000000000E+00  0.00000000000E+00  0.12564883771E+04  0.12564883771E+04  0.50400001928E-02 0.  1.
       -1   -1    0    0    0  501  0.00000000000E+00  0.00000000000E+00 -0.97400122297E+02  0.97400122428E+02  0.50400001928E-02 0. -1.
    10030    2    1    2    0    0  0.00000000000E+00  0.00000000000E+00  0.11590882548E+04  0.13538884995E+04  0.69966312376E+03 0.  0.
        3    1    3    3  502    0 -0.21418798265E+03 -0.13280146092E+03  0.11004078532E+03  0.27499400824E+03  0.10100000352E+00 0. -1.
       -3    1    3    3    0  502  0.21418798265E+03  0.13280146092E+03  0.10490474695E+04  0.10788944913E+04  0.10100000352E+00 0.  1.
</event>
<event>
 5   0  0.2913582E-03  0.6974263E+03  0.7818609E-02  0.9721644E-01
       -1   -1    0    0    0  501  0.00000000000E+00  0.00000000000E+00  0.62715505176E+03  0.62715505178E+03  0.50400001928E-02 0.  1.
        1   -1    0    0  501    0  0.00000000000E+00  0.00000000000E+00 -0.19389280022E+03  0.19389280028E+03  0.50400001928E-02 0. -1.
    10030    2    1    2    0    0  0.00000000000E+00  0.00000000000E+00  0.43326225154E+03  0.82104785206E+03  0.69742626619E+03 0.  0.
        1    1    3    3  502    0 -0.17972114338E+02  0.18073464269E+03 -0.13381277074E+03  0.22559668792E+03  0.50400001928E-02 0. -1.
       -1    1    3    3    0  502  0.17972114338E+02 -0.18073464269E+03  0.56707502228E+03  0.59545116414E+03  0.50400001928E-02 0.  1.
</event>
<event>
 5   0  0.4878235E-03  0.6983588E+03  0.7818609E-02  0.9720043E-01
       -2   -1    0    0    0  501  0.00000000000E+00  0.00000000000E+00  0.12579974057E+03  0.12579974059E+03  0.25500000920E-02 0.  1.
        2   -1    0    0  501    0  0.00000000000E+00  0.00000000000E+00 -0.96920912751E+03  0.96920912752E+03  0.25500000920E-02 0. -1.
    10030    2    1    2    0    0  0.00000000000E+00  0.00000000000E+00 -0.84340938695E+03  0.10950088681E+04  0.69835880981E+03 0.  0.
        4    1    3    3  502    0  0.29234211728E+02  0.78827062313E+02  0.10968904077E+03  0.13820869529E+03  0.12699999809E+01 0.  1.
       -4    1    3    3    0  502 -0.29234211728E+02 -0.78827062313E+02 -0.95309842772E+03  0.95680017282E+03  0.12699999809E+01 0. -1.
</event>
<event>
 5   0  0.2938783E-03  0.7152176E+03  0.7818609E-02  0.9691556E-01
        1   -1    0    0  501    0  0.00000000000E+00  0.00000000000E+00  0.33223184958E+03  0.33223184961E+03  0.50400001928E-02 0.  1.
       -1   -1    0    0    0  501  0.00000000000E+00  0.00000000000E+00 -0.38492415550E+03  0.38492415554E+03  0.50400001928E-02 0. -1.
    10030    2    1    2    0    0  0.00000000000E+00  0.00000000000E+00 -0.52692305927E+02  0.71715600515E+03  0.71521762885E+03 0.  0.
        4    1    3    3  502    0  0.12014591556E+02 -0.11866038193E+03 -0.36439159101E+03  0.38341554631E+03  0.12699999809E+01 0. -1.
       -4    1    3    3    0  502 -0.12014591556E+02  0.11866038193E+03  0.31169928508E+03  0.33374045885E+03  0.12699999809E+01 0.  1.
</event>
<event>
 5   0  0.1981750E-03  0.6831674E+03  0.7818609E-02  0.9746459E-01
       -3   -1    0    0    0  501  0.00000000000E+00  0.00000000000E+00  0.97190745785E+03  0.97190746309E+03  0.10100000352E+00 0. -1.
        3   -1    0    0  501    0  0.00000000000E+00  0.00000000000E+00 -0.12005196198E+03  0.12005200447E+03  0.10100000352E+00 0.  1.
    10030    2    1    2    0    0  0.00000000000E+00  0.00000000000E+00  0.85185549586E+03  0.10919594676E+04  0.68316739748E+03 0.  0.
        3    1    3    3  502    0 -0.22691029886E+02 -0.17400574060E+03 -0.42499252457E+02  0.18055214554E+03  0.10100000352E+00 0.  1.
       -3    1    3    3    0  502  0.22691029886E+02  0.17400574060E+03  0.89435474832E+03  0.91140732202E+03  0.10100000352E+00 0. -1.
</event>
<event>
 5   0  0.5072407E-03  0.7004808E+03  0.7818609E-02  0.9716410E-01
       -2   -1    0    0    0  501  0.00000000000E+00  0.00000000000E+00  0.17197267376E+03  0.17197267378E+03  0.25500000920E-02 0.  1.
        2   -1    0    0  501    0  0.00000000000E+00  0.00000000000E+00 -0.71330129526E+03  0.71330129526E+03  0.25500000920E-02 0. -1.
    10030    2    1    2    0    0  0.00000000000E+00  0.00000000000E+00 -0.54132862149E+03  0.88527396904E+03  0.70048078047E+03 0.  0.
        1    1    3    3  502    0  0.18736405432E+02  0.33760369459E+03 -0.15524163413E+03  0.37205815739E+03  0.50400001928E-02 0.  1.
       -1    1    3    3    0  502 -0.18736405432E+02 -0.33760369459E+03 -0.38608698736E+03  0.51321581165E+03  0.50400001928E-02 0. -1.
</event>
<event>
 5   0  0.2937617E-03  0.6996293E+03  0.7818609E-02  0.9717866E-01
        1   -1    0    0  501    0  0.00000000000E+00  0.00000000000E+00  0.34755012830E+03  0.34755012833E+03  0.50400001928E-02 0.  1.
       -1   -1    0    0    0  501  0.00000000000E+00  0.00000000000E+00 -0.35209389041E+03  0.35209389045E+03  0.50400001928E-02 0. -1.
    10030    2    1    2    0    0  0.00000000000E+00  0.00000000000E+00 -0.45437621152E+01  0.69964401878E+03  0.69962926414E+03 0.  0.
        3    1    3    3  502    0 -0.50757825594E+02  0.46314594919E+02 -0.34527892231E+03  0.35204963138E+03  0.10100000352E+00 0. -1.
       -3    1    3    3    0  502  0.50757825594E+02 -0.46314594919E+02  0.34073516019E+03  0.34759438740E+03  0.10100000352E+00 0.  1.
</event>
<event>
 5   0  0.5113683E-03  0.7001259E+03  0.7818609E-02  0.9717017E-01
       -2   -1    0    0    0  501  0.00000000000E+00  0.00000000000E+00  0.16805410970E+03  0.16805410972E+03  0.25500000920E-02 0.  1.
        2   -1    0    0  501    0  0.00000000000E+00  0.00000000000E+00 -0.72919407528E+03  0.72919407529E+03  0.25500000920E-02 0. -1.
    10030    2    1    2    0    0  0.00000000000E+00  0.00000000000E+00 -0.56113996558E+03  0.89724818501E+03  0.70012587763E+03 0.  0.
        3    1    3    3  502    0 -0.78045617422E+02 -0.33844909716E+03 -0.22463287095E+03  0.41364096349E+03  0.10100000352E+00 0.  1.
       -3    1    3    3    0  502  0.78045617422E+02  0.33844909716E+03 -0.33650709463E+03  0.48360722152E+03  0.10100000352E+00 0. -1.
</event>
<event>
 5   0  0.5072407E-03  0.6998685E+03  0.7818609E-02  0.9717457E-01
        2   -1    0    0  501    0  0.00000000000E+00  0.00000000000E+00  0.18630714008E+04  0.18630714008E+04  0.25500000920E-02 0.  1.
       -2   -1    0    0    0  501  0.00000000000E+00  0.00000000000E+00 -0.65726934772E+02  0.65726934822E+02  0.25500000920E-02 0. -1.
    10030    2    1    2    0    0  0.00000000000E+00  0.00000000000E+00  0.17973444660E+04  0.19287983356E+04  0.69986848046E+03 0.  0.
        1    1    3    3  502    0 -0.13024956383E+03 -0.27705241622E+03  0.13658106930E+04  0.13997006249E+04  0.50400001928E-02 0.  1.
       -1    1    3    3    0  502  0.13024956383E+03  0.27705241622E+03  0.43153377306E+03  0.52909771075E+03  0.50400001928E-02 0. -1.
</event>
<event>
 5   0  0.2934483E-03  0.7002827E+03  0.7818609E-02  0.9716749E-01
       -1   -1    0    0    0  501  0.00000000000E+00  0.00000000000E+00  0.25342795917E+03  0.25342795922E+03  0.50400001928E-02 0.  1.
        1   -1    0    0  501    0  0.00000000000E+00  0.00000000000E+00 -0.48376265233E+03  0.48376265236E+03  0.50400001928E-02 0. -1.
    10030    2    1    2    0    0  0.00000000000E+00  0.00000000000E+00 -0.23033469316E+03  0.73719061158E+03  0.70028274784E+03 0.  0.
        5    1    3    3  502    0 -0.24575356715E+03  0.21631404509E+03  0.15428706080E+02  0.32779066009E+03  0.46999998093E+01 0.  1.
       -5    1    3    3    0  502  0.24575356715E+03 -0.21631404509E+03 -0.24576339924E+03  0.40939995149E+03  0.46999998093E+01 0. -1.
</event>
<event>
 5   0  0.3013140E-03  0.7014421E+03  0.7818609E-02  0.9714769E-01
        1   -1    0    0  501    0  0.00000000000E+00  0.00000000000E+00  0.10934370003E+04  0.10934370003E+04  0.50400001928E-02 0. -1.
       -1   -1    0    0    0  501  0.00000000000E+00  0.00000000000E+00 -0.11249415051E+03  0.11249415062E+03  0.50400001928E-02 0.  1.
    10030    2    1    2    0    0  0.00000000000E+00  0.00000000000E+00  0.98094284980E+03  0.12059311509E+04  0.70144213320E+03 0.  0.
        2    1    3    3  502    0 -0.17362459290E+02  0.79745245835E+02 -0.95941599168E+02  0.12595852366E+03  0.25500000920E-02 0.  1.
       -2    1    3    3    0  502  0.17362459290E+02 -0.79745245835E+02  0.10768844490E+04  0.10799726273E+04  0.25500000920E-02 0. -1.
</event>
<event>
 5   0  0.5023894E-03  0.6990166E+03  0.7818609E-02  0.9718915E-01
        2   -1    0    0  501    0  0.00000000000E+00  0.00000000000E+00  0.36156759697E+03  0.36156759698E+03  0.25500000920E-02 0. -1.
       -2   -1    0    0    0  501  0.00000000000E+00  0.00000000000E+00 -0.33785120009E+03  0.33785120010E+03  0.25500000920E-02 0.  1.
    10030    2    1    2    0    0  0.00000000000E+00  0.00000000000E+00  0.23716396880E+02  0.69941879709E+03  0.69901658509E+03 0.  0.
        2    1    3    3  502    0 -0.18289849249E+03 -0.55483546415E+02 -0.28092897687E+03  0.33978135989E+03  0.25500000920E-02 0.  1.
       -2    1    3    3    0  502  0.18289849249E+03  0.55483546415E+02  0.30464537375E+03  0.35963743720E+03  0.25500000920E-02 0. -1.
</event>
<event>
 5   0  0.5023894E-03  0.7007971E+03  0.7818609E-02  0.9715870E-01
        2   -1    0    0  501    0  0.00000000000E+00  0.00000000000E+00  0.75526894330E+03  0.75526894331E+03  0.25500000920E-02 0. -1.
       -2   -1    0    0    0  501  0.00000000000E+00  0.00000000000E+00 -0.16256347888E+03  0.16256347890E+03  0.25500000920E-02 0.  1.
    10030    2    1    2    0    0  0.00000000000E+00  0.00000000000E+00  0.59270546443E+03  0.91783242220E+03  0.70079710879E+03 0.  0.
        2    1    3    3  502    0  0.12150821297E+03  0.29715154961E+03  0.11245391728E+03  0.34016051030E+03  0.25500000920E-02 0.  1.
       -2    1    3    3    0  502 -0.12150821297E+03 -0.29715154961E+03  0.48025154715E+03  0.57767191190E+03  0.25500000920E-02 0. -1.
</event>
<event>
 5   0  0.2913582E-03  0.7001625E+03  0.7818609E-02  0.9716954E-01
       -1   -1    0    0    0  501  0.00000000000E+00  0.00000000000E+00  0.12476916787E+04  0.12476916787E+04  0.50400001928E-02 0. -1.
        1   -1    0    0  501    0  0.00000000000E+00  0.00000000000E+00 -0.98226899993E+02  0.98226900122E+02  0.50400001928E-02 0.  1.
    10030    2    1    2    0    0  0.00000000000E+00  0.00000000000E+00  0.11494647787E+04  0.13459185788E+04  0.70016251211E+03 0.  0.
        1    1    3    3  502    0 -0.16959391122E+03  0.10310246078E+03  0.11290891876E+04  0.11464007178E+04  0.50400001928E-02 0. -1.
       -1    1    3    3    0  502  0.16959391122E+03 -0.10310246078E+03  0.20375591106E+02  0.19951786105E+03  0.50400001928E-02 0.  1.
</event>
<event>
 5   0  0.3013140E-03  0.7004820E+03  0.7818609E-02  0.9716408E-01
        1   -1    0    0  501    0  0.00000000000E+00  0.00000000000E+00  0.34799791380E+03  0.34799791383E+03  0.50400001928E-02 0.  1.
       -1   -1    0    0    0  501  0.00000000000E+00  0.00000000000E+00 -0.35249849558E+03  0.35249849561E+03  0.50400001928E-02 0. -1.
    10030    2    1    2    0    0  0.00000000000E+00  0.00000000000E+00 -0.45005817816E+01  0.70049640945E+03  0.70048195153E+03 0.  0.
        2    1    3    3  502    0  0.24149612163E+03  0.67555058222E+02  0.24226381172E+03  0.34867723919E+03  0.25500000920E-02 0.  1.
       -2    1    3    3    0  502 -0.24149612163E+03 -0.67555058222E+02 -0.24676439350E+03  0.35181917026E+03  0.25500000920E-02 0. -1.
</event>
<event>
 5   0  0.5072407E-03  0.7018696E+03  0.7818609E-02  0.9714040E-01
        2   -1    0    0  501    0  0.00000000000E+00  0.00000000000E+00  0.10707501540E+04  0.10707501540E+04  0.25500000920E-02 0. -1.
       -2   -1    0    0    0  501  0.00000000000E+00  0.00000000000E+00 -0.11501770971E+03  0.11501770974E+03  0.25500000920E-02 0.  1.
    10030    2    1    2    0    0  0.00000000000E+00  0.00000000000E+00  0.95573244432E+03  0.11857678638E+04  0.70186959018E+03 0.  0.
        1    1    3    3  502    0 -0.13042581855E+03 -0.12619945164E+03  0.98531233595E+03  0.10018870171E+04  0.50400001928E-02 0. -1.
       -1    1    3    3    0  502  0.13042581855E+03  0.12619945164E+03 -0.29579891626E+02  0.18388084662E+03  0.50400001928E-02 0.  1.
</event>
<event>
 5   0  0.2938783E-03  0.6988684E+03  0.7818609E-02  0.9719169E-01
       -1   -1    0    0    0  501  0.00000000000E+00  0.00000000000E+00  0.17861322779E+03  0.17861322787E+03  0.50400001928E-02 0.  1.
        1   -1    0    0  501    0  0.00000000000E+00  0.00000000000E+00 -0.68362383570E+03  0.68362383572E+03  0.50400001928E-02 0. -1.
    10030    2    1    2    0    0  0.00000000000E+00  0.00000000000E+00 -0.50501060791E+03  0.86223706358E+03  0.69886839943E+03 0.  0.
        4    1    3    3  502    0  0.13294223089E+03 -0.19595074034E+03 -0.56954201505E+03  0.61680633038E+03  0.12699999809E+01 0. -1.
       -4    1    3    3    0  502 -0.13294223089E+03  0.19595074034E+03  0.64531407141E+02  0.24543073320E+03  0.12699999809E+01 0.  1.
</event>
<event>
 5   0  0.5072407E-03  0.7041406E+03  0.7818609E-02  0.9710177E-01
       -2   -1    0    0    0  501  0.00000000000E+00  0.00000000000E+00  0.16201372356E+03  0.16201372358E+03  0.25500000920E-02 0. -1.
        2   -1    0    0  501    0  0.00000000000E+00  0.00000000000E+00 -0.76508013765E+03  0.76508013765E+03  0.25500000920E-02 0.  1.
    10030    2    1    2    0    0  0.00000000000E+00  0.00000000000E+00 -0.60306641409E+03  0.92709386124E+03  0.70414055964E+03 0.  0.
        1    1    3    3  502    0  0.21078544799E+03  0.96323758880E+02  0.47423184350E+02  0.23655386289E+03  0.50400001928E-02 0. -1.
       -1    1    3    3    0  502 -0.21078544799E+03 -0.96323758880E+02 -0.65048959844E+03  0.69053999834E+03  0.50400001928E-02 0.  1.
</event>
<event>
 5   0  0.2913582E-03  0.7070930E+03  0.7818609E-02  0.9705179E-01
        1   -1    0    0  501    0  0.00000000000E+00  0.00000000000E+00  0.36047153450E+03  0.36047153453E+03  0.50400001928E-02 0.  1.
       -1   -1    0    0    0  501  0.00000000000E+00  0.00000000000E+00 -0.34675446973E+03  0.34675446976E+03  0.50400001928E-02 0. -1.
    10030    2    1    2    0    0  0.00000000000E+00  0.00000000000E+00  0.13717064767E+02  0.70722600430E+03  0.70709296651E+03 0.  0.
        1    1    3    3  502    0 -0.12234972442E+03  0.31289693937E+03  0.11697541404E+03  0.35574878390E+03  0.50400001928E-02 0.  1.
       -1    1    3    3    0  502  0.12234972442E+03 -0.31289693937E+03 -0.10325834927E+03  0.35147722039E+03  0.50400001928E-02 0. -1.
</event>
<event>
 5   0  0.4878235E-03  0.6998002E+03  0.7818609E-02  0.9717574E-01
       -2   -1    0    0    0  501  0.00000000000E+00  0.00000000000E+00  0.11317720967E+03  0.11317720970E+03  0.25500000920E-02 0. -1.
        2   -1    0    0  501    0  0.00000000000E+00  0.00000000000E+00 -0.10817555182E+04  0.10817555182E+04  0.25500000920E-02 0.  1.
    10030    2    1    2    0    0  0.00000000000E+00  0.00000000000E+00 -0.96857830852E+03  0.11949327279E+04  0.69980017467E+03 0.  0.
        4    1    3    3  502    0  0.14241886393E+03 -0.19083914057E+03 -0.92205026509E+03  0.95230300569E+03  0.12699999809E+01 0.  1.
       -4    1    3    3    0  502 -0.14241886393E+03  0.19083914057E+03 -0.46528043429E+02  0.24262972221E+03  0.12699999809E+01 0. -1.
</event>
<event>
 5   0  0.2934483E-03  0.6992222E+03  0.7818609E-02  0.9718563E-01
        1   -1    0    0  501    0  0.00000000000E+00  0.00000000000E+00  0.14133362561E+03  0.14133362570E+03  0.50400001928E-02 0.  1.
       -1   -1    0    0    0  501  0.00000000000E+00  0.00000000000E+00 -0.86481830073E+03  0.86481830074E+03  0.50400001928E-02 0. -1.
    10030    2    1    2    0    0  0.00000000000E+00  0.00000000000E+00 -0.72348467511E+03  0.10061519264E+04  0.69922215637E+03 0.  0.
        5    1    3    3  502    0 -0.36446674362E+01  0.34625930781E+03 -0.29277695305E+03  0.45348564043E+03  0.46999998093E+01 0. -1.
       -5    1    3    3    0  502  0.36446674362E+01 -0.34625930781E+03 -0.43070772207E+03  0.55266628601E+03  0.46999998093E+01 0.  1.
</event>
<event>
 5   0  0.5113683E-03  0.7000064E+03  0.7818609E-02  0.9717221E-01
        2   -1    0    0  501    0  0.00000000000E+00  0.00000000000E+00  0.63948985686E+03  0.63948985686E+03  0.25500000920E-02 0. -1.
       -2   -1    0    0    0  501  0.00000000000E+00  0.00000000000E+00 -0.19156244427E+03  0.19156244428E+03  0.25500000920E-02 0.  1.
    10030    2    1    2    0    0  0.00000000000E+00  0.00000000000E+00  0.44792741259E+03  0.83105230114E+03  0.70000640017E+03 0.  0.
        3    1    3    3  502    0 -0.16781843084E+03 -0.88871574666E+01 -0.14053045512E+03  0.21906808602E+03  0.10100000352E+00 0.  1.
       -3    1    3    3    0  502  0.16781843084E+03  0.88871574666E+01  0.58845786771E+03  0.61198421512E+03  0.10100000352E+00 0. -1.
</event>
<event>
 5   0  0.5023894E-03  0.6997120E+03  0.7818609E-02  0.9717725E-01
       -2   -1    0    0    0  501  0.00000000000E+00  0.00000000000E+00  0.54441413640E+02  0.54441413700E+02  0.25500000920E-02 0.  1.
        2   -1    0    0  501    0  0.00000000000E+00  0.00000000000E+00 -0.22482742730E+04  0.22482742730E+04  0.25500000920E-02 0. -1.
    10030    2    1    2    0    0  0.00000000000E+00  0.00000000000E+00 -0.21938328593E+04  0.23027156867E+04  0.69971202574E+03 0.  0.
        2    1    3    3  502    0  0.12589432399E+03 -0.32616960221E+03 -0.11389632958E+04  0.11914165432E+04  0.25500000920E-02 0. -1.
       -2    1    3    3    0  502 -0.12589432399E+03  0.32616960221E+03 -0.10548695635E+04  0.11112991435E+04  0.25500000920E-02 0.  1.
</event>
<event>
 5   0  0.5072407E-03  0.6999148E+03  0.7818609E-02  0.9717378E-01
        2   -1    0    0  501    0  0.00000000000E+00  0.00000000000E+00  0.80195295765E+03  0.80195295765E+03  0.25500000920E-02 0.  1.
       -2   -1    0    0    0  501  0.00000000000E+00  0.00000000000E+00 -0.15271492590E+03  0.15271492592E+03  0.25500000920E-02 0. -1.
    10030    2    1    2    0    0  0.00000000000E+00  0.00000000000E+00  0.64923803175E+03  0.95466788357E+03  0.69991481342E+03 0.  0.
        1    1    3    3  502    0 -0.21384795402E+03  0.18864415806E+01 -0.53219129929E+02  0.22037872383E+03  0.50400001928E-02 0. -1.
       -1    1    3    3    0  502  0.21384795402E+03 -0.18864415806E+01  0.70245716168E+03  0.73428915975E+03  0.50400001928E-02 0.  1.
</event>
<event>
 5   0  0.3013140E-03  0.6992960E+03  0.7818609E-02  0.9718437E-01
       -1   -1    0    0    0  501  0.00000000000E+00  0.00000000000E+00  0.71126757407E+02  0.71126757585E+02  0.50400001928E-02 0. -1.
        1   -1    0    0  501    0  0.00000000000E+00  0.00000000000E+00 -0.17188147998E+04  0.17188147998E+04  0.50400001928E-02 0.  1.
    10030    2    1    2    0    0  0.00000000000E+00  0.00000000000E+00 -0.16476880424E+04  0.17899415574E+04  0.69929599872E+03 0.  0.
        2    1    3    3  502    0  0.29014505857E+03  0.81013855774E+01 -0.13228343138E+04  0.13543044005E+04  0.25500000920E-02 0.  1.
       -2    1    3    3    0  502 -0.29014505857E+03 -0.81013855774E+01 -0.32485372855E+03  0.43563715684E+03  0.25500000920E-02 0. -1.
</event>
<event>
 5   0  0.5023894E-03  0.6999521E+03  0.7818609E-02  0.9717314E-01
        2   -1    0    0  501    0  0.00000000000E+00  0.00000000000E+00  0.10861280414E+04  0.10861280414E+04  0.25500000920E-02 0.  1.
       -2   -1    0    0    0  501  0.00000000000E+00  0.00000000000E+00 -0.11277051550E+03  0.11277051553E+03  0.25500000920E-02 0. -1.
    10030    2    1    2    0    0  0.00000000000E+00  0.00000000000E+00  0.97335752587E+03  0.11988985569E+04  0.69995205307E+03 0.  0.
        2    1    3    3  502    0  0.24932548624E+03 -0.22440381997E+03  0.65764409247E+03  0.73825200635E+03  0.25500000920E-02 0.  1.
       -2    1    3    3    0  502 -0.24932548624E+03  0.22440381997E+03  0.31571343340E+03  0.46064655056E+03  0.25500000920E-02 0. -1.
</event>
<event>
 5   0  0.2937617E-03  0.6995546E+03  0.7818609E-02  0.9717994E-01
       -1   -1    0    0    0  501  0.00000000000E+00  0.00000000000E+00  0.84333945557E+02  0.84333945707E+02  0.50400001928E-02 0. -1.
        1   -1    0    0  501    0  0.00000000000E+00  0.00000000000E+00 -0.14507109032E+04  0.14507109033E+04  0.50400001928E-02 0.  1.
    10030    2    1    2    0    0  0.00000000000E+00  0.00000000000E+00 -0.13663769577E+04  0.15350448490E+04  0.69955464248E+03 0.  0.
        3    1    3    3  502    0  0.12558075303E+03 -0.24832052946E+03 -0.21816634064E+03  0.35359605947E+03  0.10100000352E+00 0. -1.
       -3    1    3    3    0  502 -0.12558075303E+03  0.24832052946E+03 -0.11482106171E+04  0.11814487895E+04  0.10100000352E+00 0.  1.
</event>
<event>
 5   0  0.2938783E-03  0.6996834E+03  0.7818609E-02  0.9717774E-01
       -1   -1    0    0    0  501  0.00000000000E+00  0.00000000000E+00  0.45130035171E+03  0.45130035174E+03  0.50400001928E-02 0.  1.
        1   -1    0    0  501    0  0.00000000000E+00  0.00000000000E+00 -0.27119236362E+03  0.27119236366E+03  0.50400001928E-02 0. -1.
    10030    2    1    2    0    0  0.00000000000E+00  0.00000000000E+00  0.18010798809E+03  0.72249271540E+03  0.69968338299E+03 0.  0.
        4    1    3    3  502    0 -0.17092132274E+03  0.29450315555E+03  0.71793498438E+01  0.34058679240E+03  0.12699999809E+01 0.  1.
       -4    1    3    3    0  502  0.17092132274E+03 -0.29450315555E+03  0.17292863825E+03  0.38190592300E+03  0.12699999809E+01 0. -1.
</event>
<event>
 5   0  0.3013140E-03  0.6994304E+03  0.7818609E-02  0.9718207E-01
        1   -1    0    0  501    0  0.00000000000E+00  0.00000000000E+00  0.37838447290E+03  0.37838447293E+03  0.50400001928E-02 0.  1.
       -1   -1    0    0    0  501  0.00000000000E+00  0.00000000000E+00 -0.32321814392E+03  0.32321814396E+03  0.50400001928E-02 0. -1.
    10030    2    1    2    0    0  0.00000000000E+00  0.00000000000E+00  0.55166328975E+02  0.70160261689E+03  0.69943041697E+03 0.  0.
        2    1    3    3  502    0  0.10970307062E+03 -0.17903650558E+02 -0.30502680445E+03  0.32464851123E+03  0.25500000920E-02 0. -1.
       -2    1    3    3    0  502 -0.10970307062E+03  0.17903650558E+02  0.36019313342E+03  0.37695410566E+03  0.25500000920E-02 0.  1.
</event>
<event>
 5   0  0.2934483E-03  0.6911805E+03  0.7818609E-02  0.9732435E-01
        1   -1    0    0  501    0  0.00000000000E+00  0.00000000000E+00  0.32410261826E+03  0.32410261830E+03  0.50400001928E-02 0.  1.
       -1   -1    0    0    0  501  0.00000000000E+00  0.00000000000E+00 -0.36850247683E+03  0.36850247687E+03  0.50400001928E-02 0. -1.
    10030    2    1    2    0    0  0.00000000000E+00  0.00000000000E+00 -0.44399858568E+02  0.69260509517E+03  0.69118049047E+03 0.  0.
        5    1    3    3  502    0 -0.23165147743E+03 -0.17136686058E+03 -0.21333246835E+03  0.35855521185E+03  0.46999998093E+01 0. -1.
       -5    1    3    3    0  502  0.23165147743E+03  0.17136686058E+03  0.16893260978E+03  0.33404988331E+03  0.46999998093E+01 0.  1.
</event>
<event>
 5   0  0.5113683E-03  0.7000152E+03  0.7818609E-02  0.9717206E-01
        2   -1    0    0  501    0  0.00000000000E+00  0.00000000000E+00  0.92750762098E+03  0.92750762099E+03  0.25500000920E-02 0.  1.
       -2   -1    0    0    0  501  0.00000000000E+00  0.00000000000E+00 -0.13208013423E+03  0.13208013425E+03  0.25500000920E-02 0. -1.
    10030    2    1    2    0    0  0.00000000000E+00  0.00000000000E+00  0.79542748676E+03  0.10595877552E+04  0.70001523153E+03 0.  0.
        3    1    3    3  502    0  0.19277327276E+03 -0.26317146615E+03  0.58968407240E+03  0.67390509030E+03  0.10100000352E+00 0.  1.
       -3    1    3    3    0  502 -0.19277327276E+03  0.26317146615E+03  0.20574341436E+03  0.38568266494E+03  0.10100000352E+00 0. -1.
</event>
<event>
 5   0  0.4878235E-03  0.6994532E+03  0.7818609E-02  0.9718168E-01
        2   -1    0    0  501    0  0.00000000000E+00  0.00000000000E+00  0.22157411904E+03  0.22157411906E+03  0.25500000920E-02 0. -1.
       -2   -1    0    0    0  501  0.00000000000E+00  0.00000000000E+00 -0.55199905119E+03  0.55199905120E+03  0.25500000920E-02 0.  1.
    10030    2    1    2    0    0  0.00000000000E+00  0.00000000000E+00 -0.33042493215E+03  0.77357317025E+03  0.69945322499E+03 0.  0.
        4    1    3    3  502    0 -0.63776451293E+02  0.33996837516E+03 -0.10815951510E+03  0.36241692214E+03  0.12699999809E+01 0. -1.
       -4    1    3    3    0  502  0.63776451293E+02 -0.33996837516E+03 -0.22226541704E+03  0.41115624811E+03  0.12699999809E+01 0.  1.
</event>
<event>
 5   0  0.5076796E-03  0.7003069E+03  0.7818609E-02  0.9716707E-01
       -2   -1    0    0    0  501  0.00000000000E+00  0.00000000000E+00  0.12783090638E+03  0.12783090641E+03  0.25500000920E-02 0. -1.
        2   -1    0    0  501    0  0.00000000000E+00  0.00000000000E+00 -0.95913772265E+03  0.95913772265E+03  0.25500000920E-02 0.  1.
    10030    2    1    2    0    0  0.00000000000E+00  0.00000000000E+00 -0.83130681626E+03  0.10869686291E+04  0.70030691686E+03 0.  0.
        5    1    3    3  502    0 -0.13730761893E+03  0.26296486534E+03 -0.12701760215E+03  0.32273745348E+03  0.46999998093E+01 0. -1.
       -5    1    3    3    0  502  0.13730761893E+03 -0.26296486534E+03 -0.70428921411E+03  0.76423117558E+03  0.46999998093E+01 0.  1.
</event>
<event>
 5   0  0.3013140E-03  0.7018285E+03  0.7818609E-02  0.9714110E-01
        1   -1    0    0  501    0  0.00000000000E+00  0.00000000000E+00  0.13994027703E+04  0.13994027703E+04  0.50400001928E-02 0.  1.
       -1   -1    0    0    0  501  0.00000000000E+00  0.00000000000E+00 -0.87995268159E+02  0.87995268303E+02  0.50400001928E-02 0. -1.
    10030    2    1    2    0    0  0.00000000000E+00  0.00000000000E+00  0.13114075021E+04  0.14873980386E+04  0.70182853219E+03 0.  0.
        2    1    3    3  502    0  0.10607028727E+03  0.15493452143E+03  0.27422524830E+02  0.18975670383E+03  0.25500000920E-02 0. -1.
       -2    1    3    3    0  502 -0.10607028727E+03 -0.15493452143E+03  0.12839849773E+04  0.12976413348E+04  0.25500000920E-02 0.  1.
</event>
<event>
 5   0  0.1981750E-03  0.6977164E+03  0.7818609E-02  0.9721145E-01
        4   -1    0    0  501    0  0.00000000000E+00  0.00000000000E+00  0.56945772390E+03  0.56945914007E+03  0.12699999809E+01 0. -1.
       -4   -1    0    0    0  501  0.00000000000E+00  0.00000000000E+00 -0.21371211752E+03  0.21371589102E+03  0.12699999809E+01 0.  1.
    10030    2    1    2    0    0  0.00000000000E+00  0.00000000000E+00  0.35574560637E+03  0.78317503109E+03  0.69771641293E+03 0.  0.
        1    1    3    3  502    0 -0.33440017444E+03 -0.66810562779E+02  0.26047201920E+03  0.42910698057E+03  0.50400001928E-02 0. -1.
       -1    1    3    3    0  502  0.33440017444E+03  0.66810562779E+02  0.95273587175E+02  0.35406805052E+03  0.50400001928E-02 0.  1.
</event>
<event>
 5   0  0.2934483E-03  0.6995251E+03  0.7818609E-02  0.9718045E-01
        1   -1    0    0  501    0  0.00000000000E+00  0.00000000000E+00  0.91405570953E+03  0.91405570955E+03  0.50400001928E-02 0. -1.
       -1   -1    0    0    0  501  0.00000000000E+00  0.00000000000E+00 -0.13383631007E+03  0.13383631016E+03  0.50400001928E-02 0.  1.
    10030    2    1    2    0    0  0.00000000000E+00  0.00000000000E+00  0.78021939947E+03  0.10478920197E+04  0.69952510582E+03 0.  0.
        5    1    3    3  502    0  0.13116949540E+03 -0.10532442349E+03 -0.69201858117E+02  0.18196059429E+03  0.46999998093E+01 0.  1.
       -5    1    3    3    0  502 -0.13116949540E+03  0.10532442349E+03  0.84942125758E+03  0.86593142543E+03  0.46999998093E+01 0. -1.
</event>
<event>
 5   0  0.2934483E-03  0.7002168E+03  0.7818609E-02  0.9716861E-01
       -1   -1    0    0    0  501  0.00000000000E+00  0.00000000000E+00  0.17422644006E+03  0.17422644014E+03  0.50400001928E-02 0.  1.
        1   -1    0    0  501    0  0.00000000000E+00  0.00000000000E+00 -0.70354359220E+03  0.70354359222E+03  0.50400001928E-02 0. -1.
    10030    2    1    2    0    0  0.00000000000E+00  0.00000000000E+00 -0.52931715214E+03  0.87777003236E+03  0.70021681082E+03 0.  0.
        5    1    3    3  502    0  0.37992127570E+02 -0.82462573565E+02 -0.68848785132E+03  0.69446460616E+03  0.46999998093E+01 0. -1.
       -5    1    3    3    0  502 -0.37992127570E+02  0.82462573565E+02  0.15917069918E+03  0.18330542620E+03  0.46999998093E+01 0.  1.
</event>
<event>
 5   0  0.2938783E-03  0.6999696E+03  0.7818609E-02  0.9717284E-01
       -1   -1    0    0    0  501  0.00000000000E+00  0.00000000000E+00  0.11999101106E+03  0.11999101117E+03  0.50400001928E-02 0.  1.
        1   -1    0    0  501    0  0.00000000000E+00  0.00000000000E+00 -0.10208211035E+04  0.10208211035E+04  0.50400001928E-02 0. -1.
    10030    2    1    2    0    0  0.00000000000E+00  0.00000000000E+00 -0.90083009244E+03  0.11408121147E+04  0.69996958903E+03 0.  0.
        4    1    3    3  502    0 -0.32701067717E+02 -0.96332307225E+01  0.11727482900E+03  0.12213581531E+03  0.12699999809E+01 0.  1.
       -4    1    3    3    0  502  0.32701067717E+02  0.96332307225E+01 -0.10181049214E+04  0.10186762994E+04  0.12699999809E+01 0. -1.
</event>
<event>
 5   0  0.2913582E-03  0.6876951E+03  0.7818609E-02  0.9738510E-01
       -1   -1    0    0    0  501  0.00000000000E+00  0.00000000000E+00  0.11994318661E+03  0.11994318671E+03  0.50400001928E-02 0.  1.
        1   -1    0    0  501    0  0.00000000000E+00  0.00000000000E+00 -0.98572622486E+03  0.98572622487E+03  0.50400001928E-02 0. -1.
    10030    2    1    2    0    0  0.00000000000E+00  0.00000000000E+00 -0.86578303825E+03  0.11056694116E+04  0.68769512023E+03 0.  0.
        1    1    3    3  502    0 -0.59383756683E+02  0.26932391732E+03 -0.10272900548E+03  0.29430435197E+03  0.50400001928E-02 0.  1.
       -1    1    3    3    0  502  0.59383756683E+02 -0.26932391732E+03 -0.76305403278E+03  0.81136505961E+03  0.50400001928E-02 0. -1.
</event>
<event>
 5   0  0.4878235E-03  0.7017192E+03  0.7818609E-02  0.9714297E-01
       -2   -1    0    0    0  501  0.00000000000E+00  0.00000000000E+00  0.17022896058E+03  0.17022896060E+03  0.25500000920E-02 0. -1.
        2   -1    0    0  501    0  0.00000000000E+00  0.00000000000E+00 -0.72315823497E+03  0.72315823497E+03  0.25500000920E-02 0.  1.
    10030    2    1    2    0    0  0.00000000000E+00  0.00000000000E+00 -0.55292927439E+03  0.89338719558E+03  0.70171924496E+03 0.  0.
        4    1    3    3  502    0  0.19737606675E+02 -0.98367897659E+02 -0.70450319564E+03  0.71161238183E+03  0.12699999809E+01 0.  1.
       -4    1    3    3    0  502 -0.19737606675E+02  0.98367897659E+02  0.15157392126E+03  0.18177481375E+03  0.12699999809E+01 0. -1.
</event>
<event>
 5   0  0.5076796E-03  0.7007279E+03  0.7818609E-02  0.9715988E-01
       -2   -1    0    0    0  501  0.00000000000E+00  0.00000000000E+00  0.92737649857E+02  0.92737649892E+02  0.25500000920E-02 0.  1.
        2   -1    0    0  501    0  0.00000000000E+00  0.00000000000E+00 -0.13236793709E+04  0.13236793709E+04  0.25500000920E-02 0. -1.
    10030    2    1    2    0    0  0.00000000000E+00  0.00000000000E+00 -0.12309417210E+04  0.14164170208E+04  0.70072794734E+03 0.  0.
        5    1    3    3  502    0  0.77171613087E+02  0.11264194104E+03 -0.12676162803E+04  0.12749575635E+04  0.46999998093E+01 0. -1.
       -5    1    3    3    0  502 -0.77171613087E+02 -0.11264194104E+03  0.36674559272E+02  0.14145945724E+03  0.46999998093E+01 0.  1.
</event>
<event>
 5   0  0.2934483E-03  0.7001197E+03  0.7818609E-02  0.9717027E-01
        1   -1    0    0  501    0  0.00000000000E+00  0.00000000000E+00  0.65031779380E+03  0.65031779382E+03  0.50400001928E-02 0.  1.
       -1   -1    0    0    0  501  0.00000000000E+00  0.00000000000E+00 -0.18843389230E+03  0.18843389237E+03  0.50400001928E-02 0. -1.
    10030    2    1    2    0    0  0.00000000000E+00  0.00000000000E+00  0.46188390150E+03  0.83875168619E+03  0.70011974163E+03 0.  0.
        5    1    3    3  502    0 -0.23331196790E+03 -0.25149365643E+03  0.31425580579E+03  0.46525512900E+03  0.46999998093E+01 0. -1.
       -5    1    3    3    0  502  0.23331196790E+03  0.25149365643E+03  0.14762809571E+03  0.37349655719E+03  0.46999998093E+01 0.  1.
</event>
<event>
 5   0  0.5072407E-03  0.6999329E+03  0.7818609E-02  0.9717347E-01
        2   -1    0    0  501    0  0.00000000000E+00  0.00000000000E+00  0.33955419694E+03  0.33955419695E+03  0.25500000920E-02 0.  1.
       -2   -1    0    0    0  501  0.00000000000E+00  0.00000000000E+00 -0.36069800898E+03  0.36069800899E+03  0.25500000920E-02 0. -1.
    10030    2    1    2    0    0  0.00000000000E+00  0.00000000000E+00 -0.21143812035E+02  0.70025220594E+03  0.69993291903E+03 0.  0.
        1    1    3    3  502    0 -0.12474643942E+03  0.27321456672E+03 -0.19028861559E+03  0.35555257117E+03  0.50400001928E-02 0. -1.
       -1    1    3    3    0  502  0.12474643942E+03 -0.27321456672E+03  0.16914480356E+03  0.34469963477E+03  0.50400001928E-02 0.  1.
</event>
<event>
 5   0  0.5023894E-03  0.6929586E+03  0.7818609E-02  0.9729350E-01
        2   -1    0    0  501    0  0.00000000000E+00  0.00000000000E+00  0.88962890127E+03  0.88962890127E+03  0.25500000920E-02 0.  1.
       -2   -1    0    0    0  501  0.00000000000E+00  0.00000000000E+00 -0.13494155254E+03  0.13494155256E+03  0.25500000920E-02 0. -1.
    10030    2    1    2    0    0  0.00000000000E+00  0.00000000000E+00  0.75468734873E+03  0.10245704538E+04  0.69295859944E+03 0.  0.
        2    1    3    3  502    0  0.18983462668E+03 -0.79501970594E+02  0.78945783420E+03  0.81584399293E+03  0.25500000920E-02 0.  1.
       -2    1    3    3    0  502 -0.18983462668E+03  0.79501970594E+02 -0.34770485464E+02  0.20872646091E+03  0.25500000920E-02 0. -1.
</event>
<event>
 5   0  0.5023894E-03  0.7002621E+03  0.7818609E-02  0.9716784E-01
        2   -1    0    0  501    0  0.00000000000E+00  0.00000000000E+00  0.80739523478E+03  0.80739523478E+03  0.25500000920E-02 0. -1.
       -2   -1    0    0    0  501  0.00000000000E+00  0.00000000000E+00 -0.15183611502E+03  0.15183611504E+03  0.25500000920E-02 0.  1.
    10030    2    1    2    0    0  0.00000000000E+00  0.00000000000E+00  0.65555911975E+03  0.95923134983E+03  0.70026211021E+03 0.  0.
        2    1    3    3  502    0 -0.37007764057E+02  0.17007874865E+03 -0.88373186402E+02  0.19520803114E+03  0.25500000920E-02 0.  1.
       -2    1    3    3    0  502  0.37007764057E+02 -0.17007874865E+03  0.74393230616E+03  0.76402331868E+03  0.25500000920E-02 0. -1.
</event>
<event>
 5   0  0.2938783E-03  0.6999935E+03  0.7818609E-02  0.9717243E-01
        1   -1    0    0  501    0  0.00000000000E+00  0.00000000000E+00  0.40218718227E+03  0.40218718230E+03  0.50400001928E-02 0. -1.
       -1   -1    0    0    0  501  0.00000000000E+00  0.00000000000E+00 -0.30457891758E+03  0.30457891762E+03  0.50400001928E-02 0.  1.
    10030    2    1    2    0    0  0.00000000000E+00  0.00000000000E+00  0.97608264687E+02  0.70676609993E+03  0.69999353331E+03 0.  0.
        4    1    3    3  502    0  0.13376736235E+03 -0.74987630923E+02 -0.26884948807E+03  0.30951334730E+03  0.12699999809E+01 0.  1.
       -4    1    3    3    0  502 -0.13376736235E+03  0.74987630923E+02  0.36645775275E+03  0.39725275263E+03  0.12699999809E+01 0. -1.
</event>
<event>
 5   0  0.2913582E-03  0.6996276E+03  0.7818609E-02  0.9717869E-01
        1   -1    0    0  501    0  0.00000000000E+00  0.00000000000E+00  0.50997793962E+03  0.50997793964E+03  0.50400001928E-02 0.  1.
       -1   -1    0    0    0  501  0.00000000000E+00  0.00000000000E+00 -0.23995095437E+03  0.23995095442E+03  0.50400001928E-02 0. -1.
    10030    2    1    2    0    0  0.00000000000E+00  0.00000000000E+00  0.27002698525E+03  0.74992889406E+03  0.69962759621E+03 0.  0.
        1    1    3    3  502    0  0.28003058716E+03  0.19264260597E+03  0.46353982435E+02  0.34304080675E+03  0.50400001928E-02 0.  1.
       -1    1    3    3    0  502 -0.28003058716E+03 -0.19264260597E+03  0.22367300282E+03  0.40688808731E+03  0.50400001928E-02 0. -1.
</event>
<event>
 5   0  0.5076796E-03  0.6985283E+03  0.7818609E-02  0.9719752E-01
        2   -1    0    0  501    0  0.00000000000E+00  0.00000000000E+00  0.47675198244E+03  0.47675198244E+03  0.25500000920E-02 0. -1.
       -2   -1    0    0    0  501  0.00000000000E+00  0.00000000000E+00 -0.25586772525E+03  0.25586772526E+03  0.25500000920E-02 0.  1.
    10030    2    1    2    0    0  0.00000000000E+00  0.00000000000E+00  0.22088425719E+03  0.73261970770E+03  0.69852829652E+03 0.  0.
        5    1    3    3  502    0 -0.23906801396E+03  0.24841411588E+03  0.52044643819E+02  0.34870305880E+03  0.46999998093E+01 0. -1.
       -5    1    3    3    0  502  0.23906801396E+03 -0.24841411588E+03  0.16883961337E+03  0.38391664891E+03  0.46999998093E+01 0.  1.
</event>
<event>
 5   0  0.2934483E-03  0.7016309E+03  0.7818609E-02  0.9714447E-01
       -1   -1    0    0    0  501  0.00000000000E+00  0.00000000000E+00  0.14257875413E+03  0.14257875422E+03  0.50400001928E-02 0. -1.
        1   -1    0    0  501    0  0.00000000000E+00  0.00000000000E+00 -0.86318234300E+03  0.86318234301E+03  0.50400001928E-02 0.  1.
    10030    2    1    2    0    0  0.00000000000E+00  0.00000000000E+00 -0.72060358887E+03  0.10057610972E+04  0.70163085195E+03 0.  0.
        5    1    3    3  502    0 -0.26144806039E+03  0.26478113102E+02 -0.69338724797E+03  0.74152824923E+03  0.46999998093E+01 0.  1.
       -5    1    3    3    0  502  0.26144806039E+03 -0.26478113102E+02 -0.27216340901E+02  0.26423284800E+03  0.46999998093E+01 0. -1.
</event>
<event>
 5   0  0.5023894E-03  0.6974384E+03  0.7818609E-02  0.9721623E-01
       -2   -1    0    0    0  501  0.00000000000E+00  0.00000000000E+00  0.97922861396E+03  0.97922861396E+03  0.25500000920E-02 0.  1.
        2   -1    0    0  501    0  0.00000000000E+00  0.00000000000E+00 -0.12418456155E+03  0.12418456158E+03  0.25500000920E-02 0. -1.
    10030    2    1    2    0    0  0.00000000000E+00  0.00000000000E+00  0.85504405240E+03  0.11034131755E+04  0.69743838754E+03 0.  0.
        2    1    3    3  502    0 -0.29032126120E+02  0.10374022323E+03 -0.97199657544E+02  0.14509538827E+03  0.25500000920E-02 0. -1.
       -2    1    3    3    0  502  0.29032126120E+02 -0.10374022323E+03  0.95224370994E+03  0.95831778727E+03  0.25500000920E-02 0.  1.
</event>
<event>
 5   0  0.4878235E-03  0.6999317E+03  0.7818609E-02  0.9717349E-01
       -2   -1    0    0    0  501  0.00000000000E+00  0.00000000000E+00  0.84781314329E+02  0.84781314368E+02  0.25500000920E-02 0. -1.
        2   -1    0    0  501    0  0.00000000000E+00  0.00000000000E+00 -0.14446117868E+04  0.14446117868E+04  0.25500000920E-02 0.  1.
    10030    2    1    2    0    0  0.00000000000E+00  0.00000000000E+00 -0.13598304725E+04  0.15293931012E+04  0.69993167099E+03 0.  0.
        4    1    3    3  502    0  0.71369922218E+02  0.27984087275E+03 -0.24801385399E+03  0.38067974010E+03  0.12699999809E+01 0. -1.
       -4    1    3    3    0  502 -0.71369922218E+02 -0.27984087275E+03 -0.11118166185E+04  0.11487133611E+04  0.12699999809E+01 0.  1.
</event>
<event>
 5   0  0.2938783E-03  0.6997011E+03  0.7818609E-02  0.9717743E-01
        1   -1    0    0  501    0  0.00000000000E+00  0.00000000000E+00  0.23821925976E+03  0.23821925981E+03  0.50400001928E-02 0.  1.
       -1   -1    0    0    0  501  0.00000000000E+00  0.00000000000E+00 -0.51379311563E+03  0.51379311566E+03  0.50400001928E-02 0. -1.
    10030    2    1    2    0    0  0.00000000000E+00  0.00000000000E+00 -0.27557385588E+03  0.75201237547E+03  0.69970112392E+03 0.  0.
        4    1    3    3  502    0  0.32184060976E+03  0.56438635427E+02 -0.34325930797E+01  0.32677223452E+03  0.12699999809E+01 0.  1.
       -4    1    3    3    0  502 -0.32184060976E+03 -0.56438635427E+02 -0.27214126280E+03  0.42524014095E+03  0.12699999809E+01 0. -1.
</event>
<event>
 5   0  0.5076796E-03  0.7001566E+03  0.7818609E-02  0.9716964E-01
       -2   -1    0    0    0  501  0.00000000000E+00  0.00000000000E+00  0.22306837733E+03  0.22306837735E+03  0.25500000920E-02 0. -1.
        2   -1    0    0  501    0  0.00000000000E+00  0.00000000000E+00 -0.54940465457E+03  0.54940465457E+03  0.25500000920E-02 0.  1.
    10030    2    1    2    0    0  0.00000000000E+00  0.00000000000E+00 -0.32633627724E+03  0.77247303192E+03  0.70015656763E+03 0.  0.
        5    1    3    3  502    0  0.29232072490E+03 -0.41182884305E+02  0.44370741746E+02  0.29856036055E+03  0.46999998093E+01 0. -1.
       -5    1    3    3    0  502 -0.29232072490E+03  0.41182884305E+02 -0.37070701898E+03  0.47391267137E+03  0.46999998093E+01 0.  1.
</event>
<event>
 5   0  0.5113683E-03  0.6996290E+03  0.7818609E-02  0.9717867E-01
       -2   -1    0    0    0  501  0.00000000000E+00  0.00000000000E+00  0.18907766955E+03  0.18907766957E+03  0.25500000920E-02 0.  1.
        2   -1    0    0  501    0  0.00000000000E+00  0.00000000000E+00 -0.64719532375E+03  0.64719532375E+03  0.25500000920E-02 0. -1.
    10030    2    1    2    0    0  0.00000000000E+00  0.00000000000E+00 -0.45811765420E+03  0.83627299332E+03  0.69962899759E+03 0.  0.
        3    1    3    3  502    0 -0.22462532215E+03 -0.73507429161E+02 -0.53732417636E+03  0.58700694901E+03  0.10100000352E+00 0. -1.
       -3    1    3    3    0  502  0.22462532215E+03  0.73507429161E+02  0.79206522160E+02  0.24926604431E+03  0.10100000352E+00 0.  1.
</event>
<event>
 5   0  0.4878235E-03  0.6998390E+03  0.7818609E-02  0.9717508E-01
       -2   -1    0    0    0  501  0.00000000000E+00  0.00000000000E+00  0.38791035908E+03  0.38791035909E+03  0.25500000920E-02 0. -1.
        2   -1    0    0  501    0  0.00000000000E+00  0.00000000000E+00 -0.31564938374E+03  0.31564938375E+03  0.25500000920E-02 0.  1.
    10030    2    1    2    0    0  0.00000000000E+00  0.00000000000E+00  0.72260975339E+02  0.70355974284E+03  0.69983902663E+03 0.  0.
        4    1    3    3  502    0 -0.57468576067E+02  0.37345663529E+02 -0.30883332519E+03  0.31634944518E+03  0.12699999809E+01 0.  1.
       -4    1    3    3    0  502  0.57468576067E+02 -0.37345663529E+02  0.38109430053E+03  0.38721029766E+03  0.12699999809E+01 0. -1.
</event>
<event>
 5   0  0.3013140E-03  0.6997293E+03  0.7818609E-02  0.9717695E-01
       -1   -1    0    0    0  501  0.00000000000E+00  0.00000000000E+00  0.10587884323E+03  0.10587884335E+03  0.50400001928E-02 0.  1.
        1   -1    0    0  501    0  0.00000000000E+00  0.00000000000E+00 -0.11560882001E+04  0.11560882001E+04  0.50400001928E-02 0. -1.
    10030    2    1    2    0    0  0.00000000000E+00  0.00000000000E+00 -0.10502093569E+04  0.12619670435E+04  0.69972932305E+03 0.  0.
        2    1    3    3  502    0 -0.42330336756E+02  0.97406194722E+02  0.76103278486E+02  0.13065807737E+03  0.25500000920E-02 0.  1.
       -2    1    3    3    0  502  0.42330336756E+02 -0.97406194722E+02 -0.11263126354E+04  0.11313089661E+04  0.25500000920E-02 0. -1.
</event>
<event>
 5   0  0.5076796E-03  0.7006538E+03  0.7818609E-02  0.9716115E-01
        2   -1    0    0  501    0  0.00000000000E+00  0.00000000000E+00  0.20407787469E+04  0.20407787469E+04  0.25500000920E-02 0. -1.
       -2   -1    0    0    0  501  0.00000000000E+00  0.00000000000E+00 -0.60138277867E+02  0.60138277921E+02  0.25500000920E-02 0.  1.
    10030    2    1    2    0    0  0.00000000000E+00  0.00000000000E+00  0.19806404691E+04  0.21009170249E+04  0.70065375017E+03 0.  0.
        5    1    3    3  502    0 -0.39548417126E+02  0.16783015062E+03  0.76016709151E+02  0.18849845310E+03  0.46999998093E+01 0.  1.
       -5    1    3    3    0  502  0.39548417126E+02 -0.16783015062E+03  0.19046237599E+04  0.19124185718E+04  0.46999998093E+01 0. -1.
</event>
<event>
 5   0  0.2937617E-03  0.6993238E+03  0.7818609E-02  0.9718389E-01
       -1   -1    0    0    0  501  0.00000000000E+00  0.00000000000E+00  0.13961016457E+03  0.13961016466E+03  0.50400001928E-02 0.  1.
        1   -1    0    0  501    0  0.00000000000E+00  0.00000000000E+00 -0.87574898039E+03  0.87574898040E+03  0.50400001928E-02 0. -1.
    10030    2    1    2    0    0  0.00000000000E+00  0.00000000000E+00 -0.73613881582E+03  0.10153591451E+04  0.69932384295E+03 0.  0.
        3    1    3    3  502    0 -0.15711585744E+03  0.98423147313E+02  0.62371367708E+02  0.19560855374E+03  0.10100000352E+00 0.  1.
       -3    1    3    3    0  502  0.15711585744E+03 -0.98423147313E+02 -0.79851018353E+03  0.81975059133E+03  0.10100000352E+00 0. -1.
</event>
<event>
 5   0  0.4878235E-03  0.6997906E+03  0.7818609E-02  0.9717590E-01
        2   -1    0    0  501    0  0.00000000000E+00  0.00000000000E+00  0.15103460878E+04  0.15103460878E+04  0.25500000920E-02 0.  1.
       -2   -1    0    0    0  501  0.00000000000E+00  0.00000000000E+00 -0.81058720725E+02  0.81058720765E+02  0.25500000920E-02 0. -1.
    10030    2    1    2    0    0  0.00000000000E+00  0.00000000000E+00  0.14292873671E+04  0.15914048086E+04  0.69979060229E+03 0.  0.
        4    1    3    3  502    0  0.87337958847E+02 -0.33623689224E+03  0.61972987098E+03  0.71045752346E+03  0.12699999809E+01 0.  1.
       -4    1    3    3    0  502 -0.87337958847E+02  0.33623689224E+03  0.80955749610E+03  0.88094728511E+03  0.12699999809E+01 0. -1.
</event>
<event>
 5   0  0.2913582E-03  0.6989663E+03  0.7818609E-02  0.9719002E-01
       -1   -1    0    0    0  501  0.00000000000E+00  0.00000000000E+00  0.23780468334E+03  0.23780468339E+03  0.50400001928E-02 0. -1.
        1   -1    0    0  501    0  0.00000000000E+00  0.00000000000E+00 -0.51360828349E+03  0.51360828351E+03  0.50400001928E-02 0.  1.
    10030    2    1    2    0    0  0.00000000000E+00  0.00000000000E+00 -0.27580360015E+03  0.75141296690E+03  0.69896625167E+03 0.  0.
        1    1    3    3  502    0 -0.19319366358E+03 -0.22798369884E+03  0.56908298642E+02  0.30420209247E+03  0.50400001928E-02 0. -1.
       -1    1    3    3    0  502  0.19319366358E+03  0.22798369884E+03 -0.33271189879E+03  0.44721087443E+03  0.50400001928E-02 0.  1.
</event>
<event>
 5   0  0.5076796E-03  0.7008653E+03  0.7818609E-02  0.9715754E-01
        2   -1    0    0  501    0  0.00000000000E+00  0.00000000000E+00  0.35528068107E+03  0.35528068108E+03  0.25500000920E-02 0. -1.
       -2   -1    0    0    0  501  0.00000000000E+00  0.00000000000E+00 -0.34565079369E+03  0.34565079370E+03  0.25500000920E-02 0.  1.
    10030    2    1    2    0    0  0.00000000000E+00  0.00000000000E+00  0.96298873842E+01  0.70093147478E+03  0.70086532059E+03 0.  0.
        5    1    3    3  502    0  0.25732137416E+03  0.19680796965E+03  0.13836890129E+03  0.35230059517E+03  0.46999998093E+01 0. -1.
       -5    1    3    3    0  502 -0.25732137416E+03 -0.19680796965E+03 -0.12873901391E+03  0.34863087961E+03  0.46999998093E+01 0.  1.
</event>
<event>
 5   0  0.2934483E-03  0.7006482E+03  0.7818609E-02  0.9716124E-01
       -1   -1    0    0    0  501  0.00000000000E+00  0.00000000000E+00  0.41777118906E+03  0.41777118909E+03  0.50400001928E-02 0.  1.
        1   -1    0    0  501    0  0.00000000000E+00  0.00000000000E+00 -0.29376602683E+03  0.29376602687E+03  0.50400001928E-02 0. -1.
    10030    2    1    2    0    0  0.00000000000E+00  0.00000000000E+00  0.12400516224E+03  0.71153721596E+03  0.70064822089E+03 0.  0.
        5    1    3    3  502    0  0.18372307040E+03  0.14101343954E+03 -0.20488572566E+03  0.30925589292E+03  0.46999998093E+01 0. -1.
       -5    1    3    3    0  502 -0.18372307040E+03 -0.14101343954E+03  0.32889088790E+03  0.40228132304E+03  0.46999998093E+01 0.  1.
</event>
<event>
 5   0  0.2934483E-03  0.6994668E+03  0.7818609E-02  0.9718144E-01
       -1   -1    0    0    0  501  0.00000000000E+00  0.00000000000E+00  0.33177686542E+03  0.33177686546E+03  0.50400001928E-02 0. -1.
        1   -1    0    0  501    0  0.00000000000E+00  0.00000000000E+00 -0.36866177749E+03  0.36866177752E+03  0.50400001928E-02 0.  1.
    10030    2    1    2    0    0  0.00000000000E+00  0.00000000000E+00 -0.36884912064E+02  0.70043864299E+03  0.69946679396E+03 0.  0.
        5    1    3    3  502    0 -0.41402756537E+02  0.27940930414E+03  0.18801774566E+03  0.33934718236E+03  0.46999998093E+01 0. -1.
       -5    1    3    3    0  502  0.41402756537E+02 -0.27940930414E+03 -0.22490265772E+03  0.36109146063E+03  0.46999998093E+01 0.  1.
</event>
<event>
 5   0  0.5076796E-03  0.6984573E+03  0.7818609E-02  0.9719874E-01
       -2   -1    0    0    0  501  0.00000000000E+00  0.00000000000E+00  0.98698636417E+02  0.98698636450E+02  0.25500000920E-02 0.  1.
        2   -1    0    0  501    0  0.00000000000E+00  0.00000000000E+00 -0.12356874190E+04  0.12356874190E+04  0.25500000920E-02 0. -1.
    10030    2    1    2    0    0  0.00000000000E+00  0.00000000000E+00 -0.11369887826E+04  0.13343860555E+04  0.69845733819E+03 0.  0.
        5    1    3    3  502    0  0.18435078718E+03  0.18911790864E+03 -0.10049358616E+04  0.10390712065E+04  0.46999998093E+01 0. -1.
       -5    1    3    3    0  502 -0.18435078718E+03 -0.18911790864E+03 -0.13205292094E+03  0.29531484898E+03  0.46999998093E+01 0.  1.
</event>
<event>
 5   0  0.2938783E-03  0.7001635E+03  0.7818609E-02  0.9716953E-01
        1   -1    0    0  501    0  0.00000000000E+00  0.00000000000E+00  0.13501962944E+04  0.13501962944E+04  0.50400001928E-02 0. -1.
       -1   -1    0    0    0  501  0.00000000000E+00  0.00000000000E+00 -0.90769937464E+02  0.90769937604E+02  0.50400001928E-02 0.  1.
    10030    2    1    2    0    0  0.00000000000E+00  0.00000000000E+00  0.12594263569E+04  0.14409662320E+04  0.70016350466E+03 0.  0.
        4    1    3    3  502    0  0.18441444789E+03  0.18335904021E+03  0.14738250834E+03  0.29891878977E+03  0.12699999809E+01 0.  1.
       -4    1    3    3    0  502 -0.18441444789E+03 -0.18335904021E+03  0.11120438486E+04  0.11420474422E+04  0.12699999809E+01 0. -1.
</event>
<event>
 5   0  0.2938783E-03  0.7003107E+03  0.7818609E-02  0.9716701E-01
        1   -1    0    0  501    0  0.00000000000E+00  0.00000000000E+00  0.25679812860E+03  0.25679812865E+03  0.50400001928E-02 0. -1.
       -1   -1    0    0    0  501  0.00000000000E+00  0.00000000000E+00 -0.47745192854E+03  0.47745192856E+03  0.50400001928E-02 0.  1.
    10030    2    1    2    0    0  0.00000000000E+00  0.00000000000E+00 -0.22065379994E+03  0.73425005721E+03  0.70031067898E+03 0.  0.
        4    1    3    3  502    0 -0.19262055071E+03  0.29201803611E+03 -0.94428278687E+02  0.36234724049E+03  0.12699999809E+01 0. -1.
       -4    1    3    3    0  502  0.19262055071E+03 -0.29201803611E+03 -0.12622552125E+03  0.37190281672E+03  0.12699999809E+01 0.  1.
</event>
<event>
 5   0  0.2934483E-03  0.6997672E+03  0.7818609E-02  0.9717630E-01
        1   -1    0    0  501    0  0.00000000000E+00  0.00000000000E+00  0.52843514629E+03  0.52843514631E+03  0.50400001928E-02 0. -1.
       -1   -1    0    0    0  501  0.00000000000E+00  0.00000000000E+00 -0.23166235719E+03  0.23166235725E+03  0.50400001928E-02 0.  1.
    10030    2    1    2    0    0  0.00000000000E+00  0.00000000000E+00  0.29677278910E+03  0.76009750356E+03  0.69976719455E+03 0.  0.
        5    1    3    3  502    0  0.16754063993E+03 -0.13462598192E+03  0.44823367280E+03  0.49712124926E+03  0.46999998093E+01 0. -1.
       -5    1    3    3    0  502 -0.16754063993E+03  0.13462598192E+03 -0.15146088370E+03  0.26297625430E+03  0.46999998093E+01 0.  1.
</event>
<event>
 5   0  0.3013140E-03  0.6998658E+03  0.7818609E-02  0.9717462E-01
       -1   -1    0    0    0  501  0.00000000000E+00  0.00000000000E+00  0.78540573086E+02  0.78540573247E+02  0.50400001928E-02 0.  1.
        1   -1    0    0  501    0  0.00000000000E+00  0.00000000000E+00 -0.15591053738E+04  0.15591053738E+04  0.50400001928E-02 0. -1.
    10030    2    1    2    0    0  0.00000000000E+00  0.00000000000E+00 -0.14805648007E+04  0.16376459471E+04  0.69986578628E+03 0.  0.
        2    1    3    3  502    0  0.22783713966E+03  0.23444840999E+03 -0.10323276164E+04  0.10828555429E+04  0.25500000920E-02 0. -1.
       -2    1    3    3    0  502 -0.22783713966E+03 -0.23444840999E+03 -0.44823718431E+03  0.55479040417E+03  0.25500000920E-02 0.  1.
</event>
<event>
 5   0  0.2938783E-03  0.6998348E+03  0.7818609E-02  0.9717515E-01
        1   -1    0    0  501    0  0.00000000000E+00  0.00000000000E+00  0.34180057856E+03  0.34180057860E+03  0.50400001928E-02 0.  1.
       -1   -1    0    0    0  501  0.00000000000E+00  0.00000000000E+00 -0.35822702421E+03  0.35822702425E+03  0.50400001928E-02 0. -1.
    10030    2    1    2    0    0  0.00000000000E+00  0.00000000000E+00 -0.16426445650E+02  0.70002760285E+03  0.69983484954E+03 0.  0.
        4    1    3    3  502    0  0.87364469688E+02 -0.69445373971E+02 -0.33994500443E+03  0.35779802887E+03  0.12699999809E+01 0. -1.
       -4    1    3    3    0  502 -0.87364469688E+02  0.69445373971E+02  0.32351855878E+03  0.34222957398E+03  0.12699999809E+01 0.  1.
</event>
<event>
 5   0  0.2938783E-03  0.6996808E+03  0.7818609E-02  0.9717778E-01
       -1   -1    0    0    0  501  0.00000000000E+00  0.00000000000E+00  0.36412198779E+03  0.36412198783E+03  0.50400001928E-02 0.  1.
        1   -1    0    0  501    0  0.00000000000E+00  0.00000000000E+00 -0.33611899602E+03  0.33611899606E+03  0.50400001928E-02 0. -1.
    10030    2    1    2    0    0  0.00000000000E+00  0.00000000000E+00  0.28002991766E+02  0.70024098389E+03  0.69968083293E+03 0.  0.
        4    1    3    3  502    0 -0.11939281853E+02  0.30521427627E+03  0.18469126438E+03  0.35694646228E+03  0.12699999809E+01 0.  1.
       -4    1    3    3    0  502  0.11939281853E+02 -0.30521427627E+03 -0.15668827262E+03  0.34329452161E+03  0.12699999809E+01 0. -1.
</event>
<event>
 5   0  0.2913582E-03  0.6998389E+03  0.7818609E-02  0.9717508E-01
        1   -1    0    0  501    0  0.00000000000E+00  0.00000000000E+00  0.19200372900E+04  0.19200372901E+04  0.50400001928E-02 0. -1.
       -1   -1    0    0    0  501  0.00000000000E+00  0.00000000000E+00 -0.63771472311E+02  0.63771472510E+02  0.50400001928E-02 0.  1.
    10030    2    1    2    0    0  0.00000000000E+00  0.00000000000E+00  0.18562658177E+04  0.19838087626E+04  0.69983885311E+03 0.  0.
        1    1    3    3  502    0 -0.29954244208E+03 -0.76714911052E+02  0.13924710624E+04  0.14263893269E+04  0.50400001928E-02 0. -1.
       -1    1    3    3    0  502  0.29954244208E+03  0.76714911052E+02  0.46379475536E+03  0.55741943571E+03  0.50400001928E-02 0.  1.
</event>
<event>
 5   0  0.5023894E-03  0.7025203E+03  0.7818609E-02  0.9712932E-01
        2   -1    0    0  501    0  0.00000000000E+00  0.00000000000E+00  0.23359179088E+03  0.23359179090E+03  0.25500000920E-02 0.  1.
       -2   -1    0    0    0  501  0.00000000000E+00  0.00000000000E+00 -0.52820216776E+03  0.52820216777E+03  0.25500000920E-02 0. -1.
    10030    2    1    2    0    0  0.00000000000E+00  0.00000000000E+00 -0.29461037688E+03  0.76179395866E+03  0.70252029244E+03 0.  0.
        2    1    3    3  502    0 -0.29054792073E+03  0.62812337579E+02 -0.35023133149E+03  0.45937508592E+03  0.25500000920E-02 0. -1.
       -2    1    3    3    0  502  0.29054792073E+03 -0.62812337579E+02  0.55620954613E+02  0.30241887275E+03  0.25500000920E-02 0.  1.
</event>
<event>
 5   0  0.2913582E-03  0.6986887E+03  0.7818609E-02  0.9719477E-01
        1   -1    0    0  501    0  0.00000000000E+00  0.00000000000E+00  0.40046599196E+03  0.40046599199E+03  0.50400001928E-02 0.  1.
       -1   -1    0    0    0  501  0.00000000000E+00  0.00000000000E+00 -0.30474867425E+03  0.30474867429E+03  0.50400001928E-02 0. -1.
    10030    2    1    2    0    0  0.00000000000E+00  0.00000000000E+00  0.95717317706E+02  0.70521466628E+03  0.69868871511E+03 0.  0.
        1    1    3    3  502    0 -0.10864185899E+03  0.27059243146E+03  0.24205678568E+03  0.37896544038E+03  0.50400001928E-02 0.  1.
       -1    1    3    3    0  502  0.10864185899E+03 -0.27059243146E+03 -0.14633946797E+03  0.32624922590E+03  0.50400001928E-02 0. -1.
</event>
<event>
 5   0  0.2938783E-03  0.7004225E+03  0.7818609E-02  0.9716510E-01
       -1   -1    0    0    0  501  0.00000000000E+00  0.00000000000E+00  0.87803855991E+02  0.87803856135E+02  0.50400001928E-02 0. -1.
        1   -1    0    0  501    0  0.00000000000E+00  0.00000000000E+00 -0.13968397858E+04  0.13968397858E+04  0.50400001928E-02 0.  1.
    10030    2    1    2    0    0  0.00000000000E+00  0.00000000000E+00 -0.13090359298E+04  0.14846436419E+04  0.70042249966E+03 0.  0.
        4    1    3    3  502    0 -0.15925859072E+03  0.17828649966E+03 -0.11205185316E+03  0.26402008517E+03  0.12699999809E+01 0. -1.
       -4    1    3    3    0  502  0.15925859072E+03 -0.17828649966E+03 -0.11969840766E+04  0.12206235568E+04  0.12699999809E+01 0.  1.
</event>
<event>
 5   0  0.5076796E-03  0.7015869E+03  0.7818609E-02  0.9714522E-01
       -2   -1    0    0    0  501  0.00000000000E+00  0.00000000000E+00  0.12499597228E+03  0.12499597230E+03  0.25500000920E-02 0.  1.
        2   -1    0    0  501    0  0.00000000000E+00  0.00000000000E+00 -0.98448020969E+03  0.98448020969E+03  0.25500000920E-02 0. -1.
    10030    2    1    2    0    0  0.00000000000E+00  0.00000000000E+00 -0.85948423741E+03  0.11094761820E+04  0.70158694690E+03 0.  0.
        5    1    3    3  502    0  0.19145398879E+03  0.28331006133E+03 -0.30608308514E+03  0.45894244267E+03  0.46999998093E+01 0.  1.
       -5    1    3    3    0  502 -0.19145398879E+03 -0.28331006133E+03 -0.55340115227E+03  0.65053373933E+03  0.46999998093E+01 0. -1.
</event>
<event>
 5   0  0.1981750E-03  0.7004802E+03  0.7818609E-02  0.9716411E-01
        4   -1    0    0  501    0  0.00000000000E+00  0.00000000000E+00  0.46625016816E+03  0.46625189781E+03  0.12699999809E+01 0.  1.
       -4   -1    0    0    0  501  0.00000000000E+00  0.00000000000E+00 -0.26309133463E+03  0.26309439989E+03  0.12699999809E+01 0. -1.
    10030    2    1    2    0    0  0.00000000000E+00  0.00000000000E+00  0.20315883354E+03  0.72934629771E+03  0.70048019981E+03 0.  0.
        4    1    3    3  502    0 -0.22591039352E+03 -0.22770928270E+03  0.24801461470E+03  0.40546255725E+03  0.12699999809E+01 0.  1.
       -4    1    3    3    0  502  0.22591039352E+03  0.22770928270E+03 -0.44855781159E+02  0.32388374046E+03  0.12699999809E+01 0. -1.
</event>
<event>
 5   0  0.2937617E-03  0.6999878E+03  0.7818609E-02  0.9717253E-01
        1   -1    0    0  501    0  0.00000000000E+00  0.00000000000E+00  0.30246194589E+03  0.30246194594E+03  0.50400001928E-02 0.  1.
       -1   -1    0    0    0  501  0.00000000000E+00  0.00000000000E+00 -0.40499556408E+03  0.40499556411E+03  0.50400001928E-02 0. -1.
    10030    2    1    2    0    0  0.00000000000E+00  0.00000000000E+00 -0.10253361818E+03  0.70745751004E+03  0.69998784679E+03 0.  0.
        3    1    3    3  502    0  0.13879887210E+03 -0.30301928906E+03 -0.15922389590E+03  0.36937525048E+03  0.10100000352E+00 0.  1.
       -3    1    3    3    0  502 -0.13879887210E+03  0.30301928906E+03  0.56690277719E+02  0.33808225956E+03  0.10100000352E+00 0. -1.
</event>
<event>
 5   0  0.2938783E-03  0.6983772E+03  0.7818609E-02  0.9720011E-01
       -1   -1    0    0    0  501  0.00000000000E+00  0.00000000000E+00  0.10538528755E+03  0.10538528767E+03  0.50400001928E-02 0.  1.
        1   -1    0    0  501    0  0.00000000000E+00  0.00000000000E+00 -0.11570179115E+04  0.11570179115E+04  0.50400001928E-02 0. -1.
    10030    2    1    2    0    0  0.00000000000E+00  0.00000000000E+00 -0.10516326240E+04  0.12624031992E+04  0.69837716283E+03 0.  0.
        4    1    3    3  502    0  0.22566942874E+03 -0.36116695064E+02 -0.48590113639E+02  0.23365298795E+03  0.12699999809E+01 0.  1.
       -4    1    3    3    0  502 -0.22566942874E+03  0.36116695064E+02 -0.10030425103E+04  0.10287502113E+04  0.12699999809E+01 0. -1.
</event>
<event>
 5   0  0.3013140E-03  0.6998742E+03  0.7818609E-02  0.9717447E-01
        1   -1    0    0  501    0  0.00000000000E+00  0.00000000000E+00  0.19379736606E+03  0.19379736613E+03  0.50400001928E-02 0.  1.
       -1   -1    0    0    0  501  0.00000000000E+00  0.00000000000E+00 -0.63187643168E+03  0.63187643170E+03  0.50400001928E-02 0. -1.
    10030    2    1    2    0    0  0.00000000000E+00  0.00000000000E+00 -0.43807906562E+03  0.82567379783E+03  0.69987424062E+03 0.  0.
        2    1    3    3  502    0  0.12606537382E+02 -0.34802789289E+03 -0.25945593380E+03  0.43428069334E+03  0.25500000920E-02 0.  1.
       -2    1    3    3    0  502 -0.12606537382E+02  0.34802789289E+03 -0.17862313182E+03  0.39139310449E+03  0.25500000920E-02 0. -1.
</event>
<event>
 5   0  0.4878235E-03  0.7030672E+03  0.7818609E-02  0.9712001E-01
       -2   -1    0    0    0  501  0.00000000000E+00  0.00000000000E+00  0.83576783409E+02  0.83576783448E+02  0.25500000920E-02 0. -1.
        2   -1    0    0  501    0  0.00000000000E+00  0.00000000000E+00 -0.14785910867E+04  0.14785910867E+04  0.25500000920E-02 0.  1.
    10030    2    1    2    0    0  0.00000000000E+00  0.00000000000E+00 -0.13950143033E+04  0.15621678702E+04  0.70306724298E+03 0.  0.
        4    1    3    3  502    0  0.24678283614E+03  0.13575797976E+03 -0.11648650341E+04  0.11984340440E+04  0.12699999809E+01 0.  1.
       -4    1    3    3    0  502 -0.24678283614E+03 -0.13575797976E+03 -0.23014926925E+03  0.36373382619E+03  0.12699999809E+01 0. -1.
</event>
<event>
 5   0  0.2934483E-03  0.6993236E+03  0.7818609E-02  0.9718390E-01
       -1   -1    0    0    0  501  0.00000000000E+00  0.00000000000E+00  0.23452304797E+03  0.23452304802E+03  0.50400001928E-02 0.  1.
        1   -1    0    0  501    0  0.00000000000E+00  0.00000000000E+00 -0.52132771965E+03  0.52132771968E+03  0.50400001928E-02 0. -1.
    10030    2    1    2    0    0  0.00000000000E+00  0.00000000000E+00 -0.28680467169E+03  0.75585076770E+03  0.69932357556E+03 0.  0.
        5    1    3    3  502    0  0.58489389248E+02  0.87260377219E+02  0.21702837762E+03  0.24116133351E+03  0.46999998093E+01 0.  1.
       -5    1    3    3    0  502 -0.58489389248E+02 -0.87260377219E+02 -0.50383304931E+03  0.51468943419E+03  0.46999998093E+01 0. -1.
</event>
<event>
 5   0  0.2937617E-03  0.6973905E+03  0.7818609E-02  0.9721705E-01
        1   -1    0    0  501    0  0.00000000000E+00  0.00000000000E+00  0.16950226369E+03  0.16950226376E+03  0.50400001928E-02 0. -1.
       -1   -1    0    0    0  501  0.00000000000E+00  0.00000000000E+00 -0.71732607546E+03  0.71732607548E+03  0.50400001928E-02 0.  1.
    10030    2    1    2    0    0  0.00000000000E+00  0.00000000000E+00 -0.54782381178E+03  0.88682833924E+03  0.69739054663E+03 0.  0.
        3    1    3    3  502    0  0.44921898413E+02  0.16146013751E+03 -0.66275259615E+03  0.68361419446E+03  0.10100000352E+00 0.  1.
       -3    1    3    3    0  502 -0.44921898413E+02 -0.16146013751E+03  0.11492878437E+03  0.20321414478E+03  0.10100000352E+00 0. -1.
</event>
<event>
 5   0  0.5023894E-03  0.7038371E+03  0.7818609E-02  0.9710693E-01
        2   -1    0    0  501    0  0.00000000000E+00  0.00000000000E+00  0.13208304658E+04  0.13208304658E+04  0.25500000920E-02 0. -1.
       -2   -1    0    0    0  501  0.00000000000E+00  0.00000000000E+00 -0.93764248550E+02  0.93764248584E+02  0.25500000920E-02 0.  1.
    10030    2    1    2    0    0  0.00000000000E+00  0.00000000000E+00  0.12270662172E+04  0.14145947144E+04  0.70383712920E+03 0.  0.
        2    1    3    3  502    0  0.20697209254E+03  0.27519311550E+03  0.46751939263E+03  0.58064023319E+03  0.25500000920E-02 0. -1.
       -2    1    3    3    0  502 -0.20697209254E+03 -0.27519311550E+03  0.75954682459E+03  0.83395448117E+03  0.25500000920E-02 0.  1.
</event>
<event>
 5   0  0.5076796E-03  0.7009847E+03  0.7818609E-02  0.9715550E-01
       -2   -1    0    0    0  501  0.00000000000E+00  0.00000000000E+00  0.60489958700E+02  0.60489958754E+02  0.25500000920E-02 0. -1.
        2   -1    0    0  501    0  0.00000000000E+00  0.00000000000E+00 -0.20308311358E+04  0.20308311358E+04  0.25500000920E-02 0.  1.
    10030    2    1    2    0    0  0.00000000000E+00  0.00000000000E+00 -0.19703411771E+04  0.20913210945E+04  0.70098471193E+03 0.  0.
        5    1    3    3  502    0  0.22020870760E+03  0.24870566374E+03 -0.65193056512E+03  0.73169797992E+03  0.46999998093E+01 0. -1.
       -5    1    3    3    0  502 -0.22020870760E+03 -0.24870566374E+03 -0.13184106120E+04  0.13596231146E+04  0.46999998093E+01 0.  1.
</event>
<event>
 5   0  0.5113683E-03  0.6994177E+03  0.7818609E-02  0.9718228E-01
        2   -1    0    0  501    0  0.00000000000E+00  0.00000000000E+00  0.43923966557E+03  0.43923966557E+03  0.25500000920E-02 0. -1.
       -2   -1    0    0    0  501  0.00000000000E+00  0.00000000000E+00 -0.27842724803E+03  0.27842724804E+03  0.25500000920E-02 0.  1.
    10030    2    1    2    0    0  0.00000000000E+00  0.00000000000E+00  0.16081241754E+03  0.71766691361E+03  0.69941773302E+03 0.  0.
        3    1    3    3  502    0 -0.19453579616E+02  0.19681689591E+03  0.37634249561E+03  0.42514587671E+03  0.10100000352E+00 0. -1.
       -3    1    3    3    0  502  0.19453579616E+02 -0.19681689591E+03 -0.21553007807E+03  0.29252103690E+03  0.10100000352E+00 0.  1.
</event>
<event>
 5   0  0.1981750E-03  0.6999228E+03  0.7818609E-02  0.9717364E-01
        4   -1    0    0  501    0  0.00000000000E+00  0.00000000000E+00  0.23580665996E+03  0.23581007990E+03  0.12699999809E+01 0. -1.
       -4   -1    0    0    0  501  0.00000000000E+00  0.00000000000E+00 -0.51937077164E+03  0.51937232438E+03  0.12699999809E+01 0.  1.
    10030    2    1    2    0    0  0.00000000000E+00  0.00000000000E+00 -0.28356411167E+03  0.75518240428E+03  0.69992275167E+03 0.  0.
        5    1    3    3  502    0 -0.34157029869E+03 -0.41604968636E+02 -0.21044296392E+03  0.40337274750E+03  0.46999998093E+01 0. -1.
       -5    1    3    3    0  502  0.34157029869E+03  0.41604968636E+02 -0.73121147750E+02  0.35180965679E+03  0.46999998093E+01 0.  1.
</event>
<event>
 5   0  0.5113683E-03  0.6998426E+03  0.7818609E-02  0.9717501E-01
       -2   -1    0    0    0  501  0.00000000000E+00  0.00000000000E+00  0.10398977590E+03  0.10398977594E+03  0.25500000920E-02 0. -1.
        2   -1    0    0  501    0  0.00000000000E+00  0.00000000000E+00 -0.11774706526E+04  0.11774706526E+04  0.25500000920E-02 0.  1.
    10030    2    1    2    0    0  0.00000000000E+00  0.00000000000E+00 -0.10734808767E+04  0.12814604286E+04  0.69984258037E+03 0.  0.
        3    1    3    3  502    0 -0.16773144792E+03 -0.12696741571E+03 -0.24726980300E+02  0.21181595084E+03  0.10100000352E+00 0. -1.
       -3    1    3    3    0  502  0.16773144792E+03  0.12696741571E+03 -0.10487538964E+04  0.10696444777E+04  0.10100000352E+00 0.  1.
</event>
<event>
 5   0  0.2934483E-03  0.6997770E+03  0.7818609E-02  0.9717614E-01
       -1   -1    0    0    0  501  0.00000000000E+00  0.00000000000E+00  0.10311561042E+03  0.10311561055E+03  0.50400001928E-02 0. -1.
        1   -1    0    0  501    0  0.00000000000E+00  0.00000000000E+00 -0.11872301244E+04  0.11872301244E+04  0.50400001928E-02 0.  1.
    10030    2    1    2    0    0  0.00000000000E+00  0.00000000000E+00 -0.10841145139E+04  0.12903457349E+04  0.69977699040E+03 0.  0.
        5    1    3    3  502    0 -0.20687214958E+03 -0.24659662582E+03 -0.28927025611E+03  0.43278788477E+03  0.46999998093E+01 0. -1.
       -5    1    3    3    0  502  0.20687214958E+03  0.24659662582E+03 -0.79484425784E+03  0.85755785015E+03  0.46999998093E+01 0.  1.
</event>
<event>
 5   0  0.2937617E-03  0.7000515E+03  0.7818609E-02  0.9717144E-01
       -1   -1    0    0    0  501  0.00000000000E+00  0.00000000000E+00  0.37566737802E+03  0.37566737806E+03  0.50400001928E-02 0. -1.
        1   -1    0    0  501    0  0.00000000000E+00  0.00000000000E+00 -0.32613433500E+03  0.32613433503E+03  0.50400001928E-02 0.  1.
    10030    2    1    2    0    0  0.00000000000E+00  0.00000000000E+00  0.49533043029E+02  0.70180171309E+03  0.70005151393E+03 0.  0.
        3    1    3    3  502    0  0.28992280996E+03  0.17850768136E+03  0.10619639210E+03  0.35664816267E+03  0.10100000352E+00 0. -1.
       -3    1    3    3    0  502 -0.28992280996E+03 -0.17850768136E+03 -0.56663349074E+02  0.34515355042E+03  0.10100000352E+00 0.  1.
</event>
<event>
 5   0  0.1981750E-03  0.7000641E+03  0.7818609E-02  0.9717123E-01
       -3   -1    0    0    0  501  0.00000000000E+00  0.00000000000E+00  0.13679470642E+04  0.13679470679E+04  0.10100000352E+00 0.  1.
        3   -1    0    0  501    0  0.00000000000E+00  0.00000000000E+00 -0.89566608279E+02  0.89566665226E+02  0.10100000352E+00 0. -1.
    10030    2    1    2    0    0  0.00000000000E+00  0.00000000000E+00  0.12783804559E+04  0.14575137332E+04  0.70006406296E+03 0.  0.
        4    1    3    3  502    0  0.18978018795E+03  0.30744692469E+02  0.12481769998E+04  0.12628971421E+04  0.12699999809E+01 0.  1.
       -4    1    3    3    0  502 -0.18978018795E+03 -0.30744692469E+02  0.30203456158E+02  0.19461659107E+03  0.12699999809E+01 0. -1.
</event>
<event>
 5   0  0.2938783E-03  0.7013901E+03  0.7818609E-02  0.9714858E-01
        1   -1    0    0  501    0  0.00000000000E+00  0.00000000000E+00  0.10982244580E+04  0.10982244580E+04  0.50400001928E-02 0.  1.
       -1   -1    0    0    0  501  0.00000000000E+00  0.00000000000E+00 -0.11198713301E+03  0.11198713313E+03  0.50400001928E-02 0. -1.
    10030    2    1    2    0    0  0.00000000000E+00  0.00000000000E+00  0.98623732498E+03  0.12102115911E+04  0.70139007274E+03 0.  0.
        4    1    3    3  502    0  0.24663332316E+03 -0.19460560123E+03  0.76201211100E+03  0.82423504314E+03  0.12699999809E+01 0.  1.
       -4    1    3    3    0  502 -0.24663332316E+03  0.19460560123E+03  0.22422521398E+03  0.38597654800E+03  0.12699999809E+01 0. -1.
</event>
<event>
 5   0  0.4878235E-03  0.6995684E+03  0.7818609E-02  0.9717971E-01
       -2   -1    0    0    0  501  0.00000000000E+00  0.00000000000E+00  0.17531612212E+03  0.17531612214E+03  0.25500000920E-02 0. -1.
        2   -1    0    0  501    0  0.00000000000E+00  0.00000000000E+00 -0.69787644259E+03  0.69787644259E+03  0.25500000920E-02 0.  1.
    10030    2    1    2    0    0  0.00000000000E+00  0.00000000000E+00 -0.52256032047E+03  0.87319256473E+03  0.69956841450E+03 0.  0.
        4    1    3    3  502    0  0.29741527393E+03 -0.33976126510E+02 -0.35440447467E+02  0.30144296402E+03  0.12699999809E+01 0. -1.
       -4    1    3    3    0  502 -0.29741527393E+03  0.33976126510E+02 -0.48711987300E+03  0.57174960071E+03  0.12699999809E+01 0.  1.
</event>
<event>
 5   0  0.2938783E-03  0.6976646E+03  0.7818609E-02  0.9721234E-01
       -1   -1    0    0    0  501  0.00000000000E+00  0.00000000000E+00  0.24817792711E+03  0.24817792716E+03  0.50400001928E-02 0.  1.
        1   -1    0    0  501    0  0.00000000000E+00  0.00000000000E+00 -0.49030940593E+03  0.49030940596E+03  0.50400001928E-02 0. -1.
    10030    2    1    2    0    0  0.00000000000E+00  0.00000000000E+00 -0.24213147882E+03  0.73848733312E+03  0.69766459574E+03 0.  0.
        4    1    3    3  502    0  0.76264761325E+02  0.30312218874E+03 -0.28499178972E+03  0.42299090798E+03  0.12699999809E+01 0. -1.
       -4    1    3    3    0  502 -0.76264761325E+02 -0.30312218874E+03  0.42860310901E+02  0.31549642514E+03  0.12699999809E+01 0.  1.
</event>
<event>
 5   0  0.1981750E-03  0.6993897E+03  0.7818609E-02  0.9718276E-01
        4   -1    0    0  501    0  0.00000000000E+00  0.00000000000E+00  0.41699200816E+03  0.41699394213E+03  0.12699999809E+01 0.  1.
       -4   -1    0    0    0  501  0.00000000000E+00  0.00000000000E+00 -0.29325459506E+03  0.29325734504E+03  0.12699999809E+01 0. -1.
    10030    2    1    2    0    0  0.00000000000E+00  0.00000000000E+00  0.12373741311E+03  0.71025128717E+03  0.69938969361E+03 0.  0.
        2    1    3    3  502    0  0.19562501706E+03  0.28455430957E+03  0.58193242493E+01  0.34536092271E+03  0.25500000920E-02 0. -1.
       -2    1    3    3    0  502 -0.19562501706E+03 -0.28455430957E+03  0.11791808886E+03  0.36489036446E+03  0.25500000920E-02 0.  1.
</event>
<event>
 5   0  0.2937617E-03  0.7027127E+03  0.7818609E-02  0.9712604E-01
        1   -1    0    0  501    0  0.00000000000E+00  0.00000000000E+00  0.16793552909E+03  0.16793552916E+03  0.50400001928E-02 0. -1.
       -1   -1    0    0    0  501  0.00000000000E+00  0.00000000000E+00 -0.73511118682E+03  0.73511118683E+03  0.50400001928E-02 0.  1.
    10030    2    1    2    0    0  0.00000000000E+00  0.00000000000E+00 -0.56717565773E+03  0.90304671600E+03  0.70271270414E+03 0.  0.
        3    1    3    3  502    0  0.26555428795E+03  0.15206141451E+02  0.11425551740E+02  0.26623459584E+03  0.10100000352E+00 0. -1.
       -3    1    3    3    0  502 -0.26555428795E+03 -0.15206141451E+02 -0.57860120947E+03  0.63681212016E+03  0.10100000352E+00 0.  1.
</event>
<event>
 5   0  0.5023894E-03  0.6995220E+03  0.7818609E-02  0.9718050E-01
       -2   -1    0    0    0  501  0.00000000000E+00  0.00000000000E+00  0.15972092367E+03  0.15972092370E+03  0.25500000920E-02 0. -1.
        2   -1    0    0  501    0  0.00000000000E+00  0.00000000000E+00 -0.76591560156E+03  0.76591560156E+03  0.25500000920E-02 0.  1.
    10030    2    1    2    0    0  0.00000000000E+00  0.00000000000E+00 -0.60619467788E+03  0.92563652526E+03  0.69952197206E+03 0.  0.
        2    1    3    3  502    0 -0.15791830579E+03  0.13247637228E+03 -0.67700279946E+03  0.70768705725E+03  0.25500000920E-02 0.  1.
       -2    1    3    3    0  502  0.15791830579E+03 -0.13247637228E+03  0.70808121578E+02  0.21794946801E+03  0.25500000920E-02 0. -1.
</event>
<event>
 5   0  0.4878235E-03  0.7007940E+03  0.7818609E-02  0.9715875E-01
        2   -1    0    0  501    0  0.00000000000E+00  0.00000000000E+00  0.20834119385E+04  0.20834119385E+04  0.25500000920E-02 0. -1.
       -2   -1    0    0    0  501  0.00000000000E+00  0.00000000000E+00 -0.58931243868E+02  0.58931243923E+02  0.25500000920E-02 0.  1.
    10030    2    1    2    0    0  0.00000000000E+00  0.00000000000E+00  0.20244806946E+04  0.21423431824E+04  0.70079399850E+03 0.  0.
        4    1    3    3  502    0  0.10576835115E+03  0.20178034432E+03  0.18260872790E+04  0.18402441726E+04  0.12699999809E+01 0. -1.
       -4    1    3    3    0  502 -0.10576835115E+03 -0.20178034432E+03  0.19839341564E+03  0.30209900981E+03  0.12699999809E+01 0.  1.
</event>
<event>
 5   0  0.5023894E-03  0.6992341E+03  0.7818609E-02  0.9718543E-01
        2   -1    0    0  501    0  0.00000000000E+00  0.00000000000E+00  0.30131527761E+03  0.30131527762E+03  0.25500000920E-02 0. -1.
       -2   -1    0    0    0  501  0.00000000000E+00  0.00000000000E+00 -0.40566177516E+03  0.40566177516E+03  0.25500000920E-02 0.  1.
    10030    2    1    2    0    0  0.00000000000E+00  0.00000000000E+00 -0.10434649755E+03  0.70697705278E+03  0.69923412503E+03 0.  0.
        2    1    3    3  502    0 -0.15634021414E+03 -0.28828016926E+03 -0.17469420826E+03  0.37157204544E+03  0.25500000920E-02 0.  1.
       -2    1    3    3    0  502  0.15634021414E+03  0.28828016926E+03  0.70347710711E+02  0.33540500735E+03  0.25500000920E-02 0. -1.
</event>
<event>
 5   0  0.2938783E-03  0.6991977E+03  0.7818609E-02  0.9718605E-01
       -1   -1    0    0    0  501  0.00000000000E+00  0.00000000000E+00  0.12399969942E+03  0.12399969952E+03  0.50400001928E-02 0.  1.
        1   -1    0    0  501    0  0.00000000000E+00  0.00000000000E+00 -0.98564240060E+03  0.98564240061E+03  0.50400001928E-02 0. -1.
    10030    2    1    2    0    0  0.00000000000E+00  0.00000000000E+00 -0.86164270118E+03  0.11096421001E+04  0.69919771589E+03 0.  0.
        4    1    3    3  502    0  0.51713081619E+02  0.23899133419E+03 -0.82734393912E+03  0.86272284490E+03  0.12699999809E+01 0. -1.
       -4    1    3    3    0  502 -0.51713081619E+02 -0.23899133419E+03 -0.34298762062E+02  0.24691925523E+03  0.12699999809E+01 0.  1.
</event>
<event>
 5   0  0.5076796E-03  0.6992510E+03  0.7818609E-02  0.9718514E-01
       -2   -1    0    0    0  501  0.00000000000E+00  0.00000000000E+00  0.15195911192E+03  0.15195911195E+03  0.25500000920E-02 0.  1.
        2   -1    0    0  501    0  0.00000000000E+00  0.00000000000E+00 -0.80441366409E+03  0.80441366409E+03  0.25500000920E-02 0. -1.
    10030    2    1    2    0    0  0.00000000000E+00  0.00000000000E+00 -0.65245455216E+03  0.95637277604E+03  0.69925098792E+03 0.  0.
        5    1    3    3  502    0 -0.34204228111E+03 -0.67571681781E+00 -0.22738697424E+03  0.41075577258E+03  0.46999998093E+01 0.  1.
       -5    1    3    3    0  502  0.34204228111E+03  0.67571681781E+00 -0.42506757793E+03  0.54561700346E+03  0.46999998093E+01 0. -1.
</event>
<event>
 5   0  0.3013140E-03  0.7024542E+03  0.7818609E-02  0.9713044E-01
        1   -1    0    0  501    0  0.00000000000E+00  0.00000000000E+00  0.39259219264E+03  0.39259219267E+03  0.50400001928E-02 0. -1.
       -1   -1    0    0    0  501  0.00000000000E+00  0.00000000000E+00 -0.31422042136E+03  0.31422042140E+03  0.50400001928E-02 0.  1.
    10030    2    1    2    0    0  0.00000000000E+00  0.00000000000E+00  0.78371771284E+02  0.70681261407E+03  0.70245422404E+03 0.  0.
        2    1    3    3  502    0  0.21364087721E+03  0.98263382947E+02 -0.22332044933E+03  0.32429946028E+03  0.25500000920E-02 0.  1.
       -2    1    3    3    0  502 -0.21364087721E+03 -0.98263382947E+02  0.30169222061E+03  0.38251315379E+03  0.25500000920E-02 0. -1.
</event>
<event>
 5   0  0.2913582E-03  0.7002957E+03  0.7818609E-02  0.9716727E-01
       -1   -1    0    0    0  501  0.00000000000E+00  0.00000000000E+00  0.15437586433E+03  0.15437586442E+03  0.50400001928E-02 0.  1.
        1   -1    0    0  501    0  0.00000000000E+00  0.00000000000E+00 -0.79418840752E+03  0.79418840754E+03  0.50400001928E-02 0. -1.
    10030    2    1    2    0    0  0.00000000000E+00  0.00000000000E+00 -0.63981254319E+03  0.94856427196E+03  0.70029571440E+03 0.  0.
        1    1    3    3  502    0 -0.88267638878E+02 -0.76231918295E+02  0.12729251433E+03  0.17264375364E+03  0.50400001928E-02 0.  1.
       -1    1    3    3    0  502  0.88267638878E+02  0.76231918295E+02 -0.76710505752E+03  0.77592051832E+03  0.50400001928E-02 0. -1.
</event>
<event>
 5   0  0.2934483E-03  0.6996042E+03  0.7818609E-02  0.9717909E-01
       -1   -1    0    0    0  501  0.00000000000E+00  0.00000000000E+00  0.18016614239E+03  0.18016614246E+03  0.50400001928E-02 0. -1.
        1   -1    0    0  501    0  0.00000000000E+00  0.00000000000E+00 -0.67915936609E+03  0.67915936611E+03  0.50400001928E-02 0.  1.
    10030    2    1    2    0    0  0.00000000000E+00  0.00000000000E+00 -0.49899322370E+03  0.85932550857E+03  0.69960423982E+03 0.  0.
        5    1    3    3  502    0  0.28085490455E+03  0.18909574538E+03 -0.14169424241E+03  0.36706406343E+03  0.46999998093E+01 0. -1.
       -5    1    3    3    0  502 -0.28085490455E+03 -0.18909574538E+03 -0.35729898129E+03  0.49226144514E+03  0.46999998093E+01 0.  1.
</event>
<event>
 5   0  0.2938783E-03  0.7004559E+03  0.7818609E-02  0.9716453E-01
        1   -1    0    0  501    0  0.00000000000E+00  0.00000000000E+00  0.85965389448E+03  0.85965389450E+03  0.50400001928E-02 0. -1.
       -1   -1    0    0    0  501  0.00000000000E+00  0.00000000000E+00 -0.14268488113E+03  0.14268488122E+03  0.50400001928E-02 0.  1.
    10030    2    1    2    0    0  0.00000000000E+00  0.00000000000E+00  0.71696901335E+03  0.10023387757E+04  0.70045589098E+03 0.  0.
        4    1    3    3  502    0 -0.14783394435E+03 -0.21865588663E+03  0.29070636003E+02  0.26554093213E+03  0.12699999809E+01 0. -1.
       -4    1    3    3    0  502  0.14783394435E+03  0.21865588663E+03  0.68789837735E+03  0.73679784359E+03  0.12699999809E+01 0.  1.
</event>
<event>
 5   0  0.5072407E-03  0.6992912E+03  0.7818609E-02  0.9718445E-01
       -2   -1    0    0    0  501  0.00000000000E+00  0.00000000000E+00  0.10944121583E+03  0.10944121586E+03  0.25500000920E-02 0.  1.
        2   -1    0    0  501    0  0.00000000000E+00  0.00000000000E+00 -0.11170565815E+04  0.11170565815E+04  0.25500000920E-02 0. -1.
    10030    2    1    2    0    0  0.00000000000E+00  0.00000000000E+00 -0.10076153657E+04  0.12264977974E+04  0.69929115669E+03 0.  0.
        1    1    3    3  502    0  0.20793952728E+03  0.63906125943E+02 -0.98391050275E+03  0.10076719294E+04  0.50400001928E-02 0. -1.
       -1    1    3    3    0  502 -0.20793952728E+03 -0.63906125943E+02 -0.23704862956E+02  0.21882586796E+03  0.50400001928E-02 0.  1.
</event>
<event>
 5   0  0.2913582E-03  0.6994562E+03  0.7818609E-02  0.9718163E-01
       -1   -1    0    0    0  501  0.00000000000E+00  0.00000000000E+00  0.42410247098E+03  0.42410247101E+03  0.50400001928E-02 0.  1.
        1   -1    0    0  501    0  0.00000000000E+00  0.00000000000E+00 -0.28839668350E+03  0.28839668354E+03  0.50400001928E-02 0. -1.
    10030    2    1    2    0    0  0.00000000000E+00  0.00000000000E+00  0.13570578748E+03  0.71249915455E+03  0.69945620626E+03 0.  0.
        1    1    3    3  502    0 -0.20629782510E+03 -0.18253162102E+03  0.28735462464E+03  0.39805686232E+03  0.50400001928E-02 0.  1.
       -1    1    3    3    0  502  0.20629782510E+03  0.18253162102E+03 -0.15164883716E+03  0.31444229224E+03  0.50400001928E-02 0. -1.
</event>
<event>
 5   0  0.5113683E-03  0.6997398E+03  0.7818609E-02  0.9717677E-01
        2   -1    0    0  501    0  0.00000000000E+00  0.00000000000E+00  0.41586600788E+03  0.41586600789E+03  0.25500000920E-02 0.  1.
       -2   -1    0    0    0  501  0.00000000000E+00  0.00000000000E+00 -0.29434711588E+03  0.29434711589E+03  0.25500000920E-02 0. -1.
    10030    2    1    2    0    0  0.00000000000E+00  0.00000000000E+00  0.12151889200E+03  0.71021312378E+03  0.69973983742E+03 0.  0.
        3    1    3    3  502    0 -0.30371986652E+03  0.12869394441E+03  0.17912858547E+03  0.37535975940E+03  0.10100000352E+00 0. -1.
       -3    1    3    3    0  502  0.30371986652E+03 -0.12869394441E+03 -0.57609693467E+02  0.33485336437E+03  0.10100000352E+00 0.  1.
</event>
<event>
 5   0  0.5072407E-03  0.7000073E+03  0.7818609E-02  0.9717220E-01
       -2   -1    0    0    0  501  0.00000000000E+00  0.00000000000E+00  0.16712136413E+03  0.16712136415E+03  0.25500000920E-02 0.  1.
        2   -1    0    0  501    0  0.00000000000E+00  0.00000000000E+00 -0.73301562790E+03  0.73301562790E+03  0.25500000920E-02 0. -1.
    10030    2    1    2    0    0  0.00000000000E+00  0.00000000000E+00 -0.56589426377E+03  0.90013699205E+03  0.70000734760E+03 0.  0.
        1    1    3    3  502    0  0.25921923790E+03  0.23515930417E+03 -0.27929645136E+03  0.44777340185E+03  0.50400001928E-02 0.  1.
       -1    1    3    3    0  502 -0.25921923790E+03 -0.23515930417E+03 -0.28659781241E+03  0.45236359020E+03  0.50400001928E-02 0. -1.
</event>
<event>
 5   0  0.5072407E-03  0.6996118E+03  0.7818609E-02  0.9717896E-01
       -2   -1    0    0    0  501  0.00000000000E+00  0.00000000000E+00  0.12695775255E+03  0.12695775258E+03  0.25500000920E-02 0.  1.
        2   -1    0    0  501    0  0.00000000000E+00  0.00000000000E+00 -0.96381799033E+03  0.96381799034E+03  0.25500000920E-02 0. -1.
    10030    2    1    2    0    0  0.00000000000E+00  0.00000000000E+00 -0.83686023778E+03  0.10907757429E+04  0.69961179503E+03 0.  0.
        1    1    3    3  502    0 -0.69071661026E+02 -0.10698474720E+03  0.89534315783E+02  0.15566959953E+03  0.50400001928E-02 0.  1.
       -1    1    3    3    0  502  0.69071661026E+02  0.10698474720E+03 -0.92639455357E+03  0.93510614338E+03  0.50400001928E-02 0. -1.
</event>
<event>
 5   0  0.5076796E-03  0.7001363E+03  0.7818609E-02  0.9716999E-01
        2   -1    0    0  501    0  0.00000000000E+00  0.00000000000E+00  0.16505848688E+04  0.16505848688E+04  0.25500000920E-02 0.  1.
       -2   -1    0    0    0  501  0.00000000000E+00  0.00000000000E+00 -0.74245025242E+02  0.74245025286E+02  0.25500000920E-02 0. -1.
    10030    2    1    2    0    0  0.00000000000E+00  0.00000000000E+00  0.15763398436E+04  0.17248298941E+04  0.70013631613E+03 0.  0.
        5    1    3    3  502    0 -0.40572748859E+02 -0.34790793390E+02  0.16403956439E+04  0.16412728310E+04  0.46999998093E+01 0.  1.
       -5    1    3    3    0  502  0.40572748859E+02  0.34790793390E+02 -0.64055800280E+02  0.83557063151E+02  0.46999998093E+01 0. -1.
</event>
<event>
 5   0  0.2934483E-03  0.7019884E+03  0.7818609E-02  0.9713838E-01
       -1   -1    0    0    0  501  0.00000000000E+00  0.00000000000E+00  0.52999785811E+03  0.52999785813E+03  0.50400001928E-02 0. -1.
        1   -1    0    0  501    0  0.00000000000E+00  0.00000000000E+00 -0.23244795485E+03  0.23244795490E+03  0.50400001928E-02 0.  1.
    10030    2    1    2    0    0  0.00000000000E+00  0.00000000000E+00  0.29754990326E+03  0.76244581304E+03  0.70198837091E+03 0.  0.
        5    1    3    3  502    0 -0.20942957813E+03 -0.24106692373E+03 -0.93700165740E+01  0.31950570749E+03  0.46999998093E+01 0.  1.
       -5    1    3    3    0  502  0.20942957813E+03  0.24106692373E+03  0.30691991983E+03  0.44294010554E+03  0.46999998093E+01 0. -1.
</event>
<event>
 5   0  0.5113683E-03  0.6995453E+03  0.7818609E-02  0.9718010E-01
        2   -1    0    0  501    0  0.00000000000E+00  0.00000000000E+00  0.61902289585E+03  0.61902289586E+03  0.25500000920E-02 0. -1.
       -2   -1    0    0    0  501  0.00000000000E+00  0.00000000000E+00 -0.19763549449E+03  0.19763549451E+03  0.25500000920E-02 0.  1.
    10030    2    1    2    0    0  0.00000000000E+00  0.00000000000E+00  0.42138740136E+03  0.81665839037E+03  0.69954526982E+03 0.  0.
        3    1    3    3  502    0 -0.21000986259E+02 -0.14874933258E+03 -0.15805641514E+03  0.21805789583E+03  0.10100000352E+00 0.  1.
       -3    1    3    3    0  502  0.21000986259E+02  0.14874933258E+03  0.57944381651E+03  0.59860049453E+03  0.10100000352E+00 0. -1.
</event>
<event>
 5   0  0.3013140E-03  0.6994033E+03  0.7818609E-02  0.9718253E-01
        1   -1    0    0  501    0  0.00000000000E+00  0.00000000000E+00  0.22897165415E+03  0.22897165420E+03  0.50400001928E-02 0. -1.
       -1   -1    0    0    0  501  0.00000000000E+00  0.00000000000E+00 -0.53408901469E+03  0.53408901471E+03  0.50400001928E-02 0.  1.
    10030    2    1    2    0    0  0.00000000000E+00  0.00000000000E+00 -0.30511736054E+03  0.76306066892E+03  0.69940330336E+03 0.  0.
        2    1    3    3  502    0  0.28063184288E+03  0.12125912663E+03  0.32699800927E+02  0.30745289723E+03  0.25500000920E-02 0. -1.
       -2    1    3    3    0  502 -0.28063184288E+03 -0.12125912663E+03 -0.33781716147E+03  0.45560777168E+03  0.25500000920E-02 0.  1.
</event>
<event>
 5   0  0.2913582E-03  0.7007062E+03  0.7818609E-02  0.9716025E-01
       -1   -1    0    0    0  501  0.00000000000E+00  0.00000000000E+00  0.14016769592E+03  0.14016769601E+03  0.50400001928E-02 0.  1.
        1   -1    0    0  501    0  0.00000000000E+00  0.00000000000E+00 -0.87571736277E+03  0.87571736278E+03  0.50400001928E-02 0. -1.
    10030    2    1    2    0    0  0.00000000000E+00  0.00000000000E+00 -0.73554966685E+03  0.10158850588E+04  0.70070617257E+03 0.  0.
        1    1    3    3  502    0 -0.27238324017E+03  0.13386911067E+03 -0.11402341663E+03  0.32421429315E+03  0.50400001928E-02 0.  1.
       -1    1    3    3    0  502  0.27238324017E+03 -0.13386911067E+03 -0.62152625021E+03  0.69167076564E+03  0.50400001928E-02 0. -1.
</event>
<event>
 5   0  0.2937617E-03  0.6996456E+03  0.7818609E-02  0.9717838E-01
       -1   -1    0    0    0  501  0.00000000000E+00  0.00000000000E+00  0.27669842186E+03  0.27669842190E+03  0.50400001928E-02 0.  1.
        1   -1    0    0  501    0  0.00000000000E+00  0.00000000000E+00 -0.44227213690E+03  0.44227213693E+03  0.50400001928E-02 0. -1.
    10030    2    1    2    0    0  0.00000000000E+00  0.00000000000E+00 -0.16557371504E+03  0.71897055883E+03  0.69964563127E+03 0.  0.
        3    1    3    3  502    0 -0.29593255536E+03 -0.13142690939E+00  0.10891307623E+03  0.31533817240E+03  0.10100000352E+00 0.  1.
       -3    1    3    3    0  502  0.29593255536E+03  0.13142690939E+00 -0.27448679127E+03  0.40363238643E+03  0.10100000352E+00 0. -1.
</event>
<event>
 5   0  0.2937617E-03  0.7034887E+03  0.7818609E-02  0.9711285E-01
        1   -1    0    0  501    0  0.00000000000E+00  0.00000000000E+00  0.23168914900E+03  0.23168914905E+03  0.50400001928E-02 0.  1.
       -1   -1    0    0    0  501  0.00000000000E+00  0.00000000000E+00 -0.53400897812E+03  0.53400897814E+03  0.50400001928E-02 0. -1.
    10030    2    1    2    0    0  0.00000000000E+00  0.00000000000E+00 -0.30231982912E+03  0.76569812720E+03  0.70348869423E+03 0.  0.
        3    1    3    3  502    0 -0.22676244203E+03  0.49295638635E+02 -0.43886965716E+03  0.49644521478E+03  0.10100000352E+00 0. -1.
       -3    1    3    3    0  502  0.22676244203E+03 -0.49295638635E+02  0.13654982804E+03  0.26925291241E+03  0.10100000352E+00 0.  1.
</event>
<event>
 5   0  0.5023894E-03  0.6976939E+03  0.7818609E-02  0.9721184E-01
       -2   -1    0    0    0  501  0.00000000000E+00  0.00000000000E+00  0.12605815082E+03  0.12605815084E+03  0.25500000920E-02 0.  1.
        2   -1    0    0  501    0  0.00000000000E+00  0.00000000000E+00 -0.96538129938E+03  0.96538129938E+03  0.25500000920E-02 0. -1.
    10030    2    1    2    0    0  0.00000000000E+00  0.00000000000E+00 -0.83932314856E+03  0.10914394502E+04  0.69769386252E+03 0.  0.
        2    1    3    3  502    0  0.20903753396E+03 -0.40753191710E+02 -0.85187807724E+03  0.87809667561E+03  0.25500000920E-02 0.  1.
       -2    1    3    3    0  502 -0.20903753396E+03  0.40753191710E+02  0.12554928683E+02  0.21334277461E+03  0.25500000920E-02 0. -1.
</event>
<event>
 5   0  0.2934483E-03  0.6999502E+03  0.7818609E-02  0.9717317E-01
        1   -1    0    0  501    0  0.00000000000E+00  0.00000000000E+00  0.16678411746E+03  0.16678411753E+03  0.50400001928E-02 0. -1.
       -1   -1    0    0    0  501  0.00000000000E+00  0.00000000000E+00 -0.73437795615E+03  0.73437795617E+03  0.50400001928E-02 0.  1.
    10030    2    1    2    0    0  0.00000000000E+00  0.00000000000E+00 -0.56759383869E+03  0.90116207370E+03  0.69995022491E+03 0.  0.
        5    1    3    3  502    0 -0.33860169473E+03  0.76870986057E+02 -0.33991970196E+03  0.48592977883E+03  0.46999998093E+01 0. -1.
       -5    1    3    3    0  502  0.33860169473E+03 -0.76870986057E+02 -0.22767413673E+03  0.41523229487E+03  0.46999998093E+01 0.  1.
</event>
<event>
 5   0  0.5076796E-03  0.7016928E+03  0.7818609E-02  0.9714342E-01
       -2   -1    0    0    0  501  0.00000000000E+00  0.00000000000E+00  0.16847966445E+03  0.16847966447E+03  0.25500000920E-02 0. -1.
        2   -1    0    0  501    0  0.00000000000E+00  0.00000000000E+00 -0.73061165107E+03  0.73061165108E+03  0.25500000920E-02 0.  1.
    10030    2    1    2    0    0  0.00000000000E+00  0.00000000000E+00 -0.56213198662E+03  0.89909131555E+03  0.70169282690E+03 0.  0.
        5    1    3    3  502    0 -0.64099672952E+02  0.33279463335E+03 -0.39716552135E+03  0.52213367772E+03  0.46999998093E+01 0.  1.
       -5    1    3    3    0  502  0.64099672952E+02 -0.33279463335E+03 -0.16496646527E+03  0.37695763784E+03  0.46999998093E+01 0. -1.
</event>
<event>
 5   0  0.1981750E-03  0.6998196E+03  0.7818609E-02  0.9717541E-01
       -4   -1    0    0    0  501  0.00000000000E+00  0.00000000000E+00  0.34774814685E+03  0.34775046590E+03  0.12699999809E+01 0. -1.
        4   -1    0    0  501    0  0.00000000000E+00  0.00000000000E+00 -0.35208027121E+03  0.35208256173E+03  0.12699999809E+01 0.  1.
    10030    2    1    2    0    0  0.00000000000E+00  0.00000000000E+00 -0.43321243625E+01  0.69983302764E+03  0.69981961909E+03 0.  0.
        5    1    3    3  502    0 -0.18554148159E+03 -0.42922219467E+02  0.29134735775E+03  0.34809959952E+03  0.46999998093E+01 0. -1.
       -5    1    3    3    0  502  0.18554148159E+03  0.42922219467E+02 -0.29567948212E+03  0.35173342812E+03  0.46999998093E+01 0.  1.
</event>
<event>
 5   0  0.1981750E-03  0.6998792E+03  0.7818609E-02  0.9717439E-01
       -4   -1    0    0    0  501  0.00000000000E+00  0.00000000000E+00  0.41091219360E+03  0.41091415618E+03  0.12699999809E+01 0.  1.
        4   -1    0    0  501    0  0.00000000000E+00  0.00000000000E+00 -0.29801033664E+03  0.29801304274E+03  0.12699999809E+01 0. -1.
    10030    2    1    2    0    0  0.00000000000E+00  0.00000000000E+00  0.11290185696E+03  0.70892719892E+03  0.69987923534E+03 0.  0.
        4    1    3    3  502    0 -0.25867207953E+03 -0.70729238948E+02  0.28417336903E+03  0.39073006864E+03  0.12699999809E+01 0.  1.
       -4    1    3    3    0  502  0.25867207953E+03  0.70729238948E+02 -0.17127151207E+03  0.31819713028E+03  0.12699999809E+01 0. -1.
</event>
<event>
 5   0  0.2913582E-03  0.6998464E+03  0.7818609E-02  0.9717495E-01
       -1   -1    0    0    0  501  0.00000000000E+00  0.00000000000E+00  0.18426114481E+03  0.18426114488E+03  0.50400001928E-02 0.  1.
        1   -1    0    0  501    0  0.00000000000E+00  0.00000000000E+00 -0.66452559064E+03  0.66452559066E+03  0.50400001928E-02 0. -1.
    10030    2    1    2    0    0  0.00000000000E+00  0.00000000000E+00 -0.48026444583E+03  0.84878673554E+03  0.69984640065E+03 0.  0.
        1    1    3    3  502    0 -0.99325779873E+02 -0.10191556057E+03  0.14757888143E+03  0.20501687322E+03  0.50400001928E-02 0.  1.
       -1    1    3    3    0  502  0.99325779873E+02  0.10191556057E+03 -0.62784332725E+03  0.64376986233E+03  0.50400001928E-02 0. -1.
</event>
<event>
 5   0  0.3013140E-03  0.7007395E+03  0.7818609E-02  0.9715968E-01
        1   -1    0    0  501    0  0.00000000000E+00  0.00000000000E+00  0.80033740487E+03  0.80033740489E+03  0.50400001928E-02 0.  1.
       -1   -1    0    0    0  501  0.00000000000E+00  0.00000000000E+00 -0.15338399402E+03  0.15338399411E+03  0.50400001928E-02 0. -1.
    10030    2    1    2    0    0  0.00000000000E+00  0.00000000000E+00  0.64695341085E+03  0.95372139899E+03  0.70073946021E+03 0.  0.
        2    1    3    3  502    0 -0.29673580396E+03  0.14674391452E+03  0.47968635520E+03  0.58282494213E+03  0.25500000920E-02 0.  1.
       -2    1    3    3    0  502  0.29673580396E+03 -0.14674391452E+03  0.16726705565E+03  0.37089645686E+03  0.25500000920E-02 0. -1.
</event>
<event>
 5   0  0.5072407E-03  0.6986533E+03  0.7818609E-02  0.9719538E-01
        2   -1    0    0  501    0  0.00000000000E+00  0.00000000000E+00  0.75825183349E+03  0.75825183350E+03  0.25500000920E-02 0.  1.
       -2   -1    0    0    0  501  0.00000000000E+00  0.00000000000E+00 -0.16093479349E+03  0.16093479351E+03  0.25500000920E-02 0. -1.
    10030    2    1    2    0    0  0.00000000000E+00  0.00000000000E+00  0.59731704000E+03  0.91918662701E+03  0.69865328239E+03 0.  0.
        1    1    3    3  502    0 -0.12615379830E+03 -0.19191536115E+03 -0.47643287042E+02  0.23455525894E+03  0.50400001928E-02 0. -1.
       -1    1    3    3    0  502  0.12615379830E+03  0.19191536115E+03  0.64496032704E+03  0.68463136807E+03  0.50400001928E-02 0.  1.
</event>
<event>
 5   0  0.5072407E-03  0.7006431E+03  0.7818609E-02  0.9716133E-01
       -2   -1    0    0    0  501  0.00000000000E+00  0.00000000000E+00  0.37614005538E+03  0.37614005539E+03  0.25500000920E-02 0. -1.
        2   -1    0    0  501    0  0.00000000000E+00  0.00000000000E+00 -0.32627528091E+03  0.32627528092E+03  0.25500000920E-02 0.  1.
    10030    2    1    2    0    0  0.00000000000E+00  0.00000000000E+00  0.49864774465E+02  0.70241533631E+03  0.70064313952E+03 0.  0.
        1    1    3    3  502    0 -0.17819359943E+03  0.16236881856E+03 -0.22989277567E+03  0.33311751747E+03  0.50400001928E-02 0.  1.
       -1    1    3    3    0  502  0.17819359943E+03 -0.16236881856E+03  0.27975755013E+03  0.36929781884E+03  0.50400001928E-02 0. -1.
</event>
<event>
 5   0  0.2934483E-03  0.6988198E+03  0.7818609E-02  0.9719253E-01
       -1   -1    0    0    0  501  0.00000000000E+00  0.00000000000E+00  0.45144974410E+03  0.45144974413E+03  0.50400001928E-02 0. -1.
        1   -1    0    0  501    0  0.00000000000E+00  0.00000000000E+00 -0.27043383520E+03  0.27043383524E+03  0.50400001928E-02 0.  1.
    10030    2    1    2    0    0  0.00000000000E+00  0.00000000000E+00  0.18101590890E+03  0.72188357937E+03  0.69881982148E+03 0.  0.
        5    1    3    3  502    0  0.11688983584E+01 -0.19415630535E+03  0.39055451947E+03  0.43617996275E+03  0.46999998093E+01 0. -1.
       -5    1    3    3    0  502 -0.11688983584E+01  0.19415630535E+03 -0.20953861057E+03  0.28570361662E+03  0.46999998093E+01 0.  1.
</event>
<event>
 5   0  0.2938783E-03  0.7007403E+03  0.7818609E-02  0.9715967E-01
        1   -1    0    0  501    0  0.00000000000E+00  0.00000000000E+00  0.12978355953E+04  0.12978355953E+04  0.50400001928E-02 0. -1.
       -1   -1    0    0    0  501  0.00000000000E+00  0.00000000000E+00 -0.94587672295E+02  0.94587672429E+02  0.50400001928E-02 0.  1.
    10030    2    1    2    0    0  0.00000000000E+00  0.00000000000E+00  0.12032479230E+04  0.13924232677E+04  0.70074031732E+03 0.  0.
        4    1    3    3  502    0  0.90628620883E+02  0.10048189607E+03 -0.40565453359E+02  0.14127040478E+03  0.12699999809E+01 0.  1.
       -4    1    3    3    0  502 -0.90628620883E+02 -0.10048189607E+03  0.12438133763E+04  0.12511528629E+04  0.12699999809E+01 0. -1.
</event>
<event>
 5   0  0.5076796E-03  0.6972500E+03  0.7818609E-02  0.9721947E-01
        2   -1    0    0  501    0  0.00000000000E+00  0.00000000000E+00  0.15096267984E+04  0.15096267984E+04  0.25500000920E-02 0. -1.
       -2   -1    0    0    0  501  0.00000000000E+00  0.00000000000E+00 -0.80509554877E+02  0.80509554918E+02  0.25500000920E-02 0.  1.
    10030    2    1    2    0    0  0.00000000000E+00  0.00000000000E+00  0.14291172436E+04  0.15901363533E+04  0.69724997413E+03 0.  0.
        5    1    3    3  502    0 -0.29139481030E+03  0.14352724559E+03  0.10030887340E+04  0.10543813845E+04  0.46999998093E+01 0. -1.
       -5    1    3    3    0  502  0.29139481030E+03 -0.14352724559E+03  0.42602850954E+03  0.53575496884E+03  0.46999998093E+01 0.  1.
</event>
<event>
 5   0  0.2934483E-03  0.6990516E+03  0.7818609E-02  0.9718855E-01
        1   -1    0    0  501    0  0.00000000000E+00  0.00000000000E+00  0.64520085451E+03  0.64520085453E+03  0.50400001928E-02 0. -1.
       -1   -1    0    0    0  501  0.00000000000E+00  0.00000000000E+00 -0.18934924884E+03  0.18934924891E+03  0.50400001928E-02 0.  1.
    10030    2    1    2    0    0  0.00000000000E+00  0.00000000000E+00  0.45585160567E+03  0.83455010344E+03  0.69905163526E+03 0.  0.
        5    1    3    3  502    0 -0.18900504044E+03  0.25348652921E+03  0.40567402018E+03  0.51436546001E+03  0.46999998093E+01 0. -1.
       -5    1    3    3    0  502  0.18900504044E+03 -0.25348652921E+03  0.50177585484E+02  0.32018464343E+03  0.46999998093E+01 0.  1.
</event>
<event>
 5   0  0.3013140E-03  0.6996854E+03  0.7818609E-02  0.9717770E-01
       -1   -1    0    0    0  501  0.00000000000E+00  0.00000000000E+00  0.41329966986E+03  0.41329966989E+03  0.50400001928E-02 0.  1.
        1   -1    0    0  501    0  0.00000000000E+00  0.00000000000E+00 -0.29612874703E+03  0.29612874707E+03  0.50400001928E-02 0. -1.
    10030    2    1    2    0    0  0.00000000000E+00  0.00000000000E+00  0.11717092283E+03  0.70942841696E+03  0.69968539619E+03 0.  0.
        2    1    3    3  502    0  0.12864810060E+03 -0.87007961528E+02  0.37642979162E+03  0.40721015112E+03  0.25500000920E-02 0.  1.
       -2    1    3    3    0  502 -0.12864810060E+03  0.87007961528E+02 -0.25925886878E+03  0.30221826584E+03  0.25500000920E-02 0. -1.
</event>
<event>
 5   0  0.5076796E-03  0.6990792E+03  0.7818609E-02  0.9718808E-01
       -2   -1    0    0    0  501  0.00000000000E+00  0.00000000000E+00  0.34810322426E+03  0.34810322427E+03  0.25500000920E-02 0.  1.
        2   -1    0    0  501    0  0.00000000000E+00  0.00000000000E+00 -0.35098189080E+03  0.35098189081E+03  0.25500000920E-02 0. -1.
    10030    2    1    2    0    0  0.00000000000E+00  0.00000000000E+00 -0.28786665456E+01  0.69908511508E+03  0.69907918822E+03 0.  0.
        5    1    3    3  502    0 -0.16865850459E+03  0.23452726302E+03 -0.19818222618E+03  0.35035269807E+03  0.46999998093E+01 0.  1.
       -5    1    3    3    0  502  0.16865850459E+03 -0.23452726302E+03  0.19530355963E+03  0.34873241701E+03  0.46999998093E+01 0. -1.
</event>
<event>
 5   0  0.5072407E-03  0.7016926E+03  0.7818609E-02  0.9714342E-01
       -2   -1    0    0    0  501  0.00000000000E+00  0.00000000000E+00  0.11205795314E+03  0.11205795317E+03  0.25500000920E-02 0.  1.
        2   -1    0    0  501    0  0.00000000000E+00  0.00000000000E+00 -0.10984773669E+04  0.10984773669E+04  0.25500000920E-02 0. -1.
    10030    2    1    2    0    0  0.00000000000E+00  0.00000000000E+00 -0.98641941374E+03  0.12105353201E+04  0.70169259744E+03 0.  0.
        1    1    3    3  502    0  0.22162324926E+03 -0.59450846830E+02 -0.95108369327E+03  0.97837184108E+03  0.50400001928E-02 0. -1.
       -1    1    3    3    0  502 -0.22162324926E+03  0.59450846830E+02 -0.35335720471E+02  0.23216347897E+03  0.50400001928E-02 0.  1.
</event>
<event>
 5   0  0.3013140E-03  0.6987744E+03  0.7818609E-02  0.9719330E-01
        1   -1    0    0  501    0  0.00000000000E+00  0.00000000000E+00  0.28915765036E+03  0.28915765040E+03  0.50400001928E-02 0. -1.
       -1   -1    0    0    0  501  0.00000000000E+00  0.00000000000E+00 -0.42216218914E+03  0.42216218917E+03  0.50400001928E-02 0.  1.
    10030    2    1    2    0    0  0.00000000000E+00  0.00000000000E+00 -0.13300453878E+03  0.71131983957E+03  0.69877443201E+03 0.  0.
        2    1    3    3  502    0  0.70041146734E+02  0.11648692731E+03 -0.39414487735E+03  0.41692343520E+03  0.25500000920E-02 0.  1.
       -2    1    3    3    0  502 -0.70041146734E+02 -0.11648692731E+03  0.26114033857E+03  0.29439640437E+03  0.25500000920E-02 0. -1.
</event>
<event>
 5   0  0.2934483E-03  0.6960838E+03  0.7818609E-02  0.9723953E-01
        1   -1    0    0  501    0  0.00000000000E+00  0.00000000000E+00  0.40477334301E+03  0.40477334304E+03  0.50400001928E-02 0.  1.
       -1   -1    0    0    0  501  0.00000000000E+00  0.00000000000E+00 -0.29926169770E+03  0.29926169774E+03  0.50400001928E-02 0. -1.
    10030    2    1    2    0    0  0.00000000000E+00  0.00000000000E+00  0.10551164531E+03  0.70403504078E+03  0.69608378185E+03 0.  0.
        5    1    3    3  502    0 -0.19127099215E+03  0.17423492559E+03  0.28815602432E+03  0.38729625106E+03  0.46999998093E+01 0.  1.
       -5    1    3    3    0  502  0.19127099215E+03 -0.17423492559E+03 -0.18264437902E+03  0.31673878972E+03  0.46999998093E+01 0. -1.
</event>
<event>
 5   0  0.2937617E-03  0.7031230E+03  0.7818609E-02  0.9711906E-01
        1   -1    0    0  501    0  0.00000000000E+00  0.00000000000E+00  0.83425342795E+03  0.83425342797E+03  0.50400001928E-02 0. -1.
       -1   -1    0    0    0  501  0.00000000000E+00  0.00000000000E+00 -0.14815100747E+03  0.14815100756E+03  0.50400001928E-02 0.  1.
    10030    2    1    2    0    0  0.00000000000E+00  0.00000000000E+00  0.68610242048E+03  0.98240443553E+03  0.70312299319E+03 0.  0.
        3    1    3    3  502    0 -0.14577069024E+03 -0.24190207308E+03  0.63556315366E+03  0.69548992774E+03  0.10100000352E+00 0. -1.
       -3    1    3    3    0  502  0.14577069024E+03  0.24190207308E+03  0.50539266820E+02  0.28691450779E+03  0.10100000352E+00 0.  1.
</event>
<event>
 5   0  0.2937617E-03  0.7020731E+03  0.7818609E-02  0.9713693E-01
       -1   -1    0    0    0  501  0.00000000000E+00  0.00000000000E+00  0.32946657039E+03  0.32946657043E+03  0.50400001928E-02 0. -1.
        1   -1    0    0  501    0  0.00000000000E+00  0.00000000000E+00 -0.37401869797E+03  0.37401869800E+03  0.50400001928E-02 0.  1.
    10030    2    1    2    0    0  0.00000000000E+00  0.00000000000E+00 -0.44552127573E+02  0.70348526843E+03  0.70207309508E+03 0.  0.
        3    1    3    3  502    0 -0.32387213844E+03 -0.12826938324E+03 -0.65727452569E+02  0.35449443572E+03  0.10100000352E+00 0.  1.
       -3    1    3    3    0  502  0.32387213844E+03  0.12826938324E+03  0.21175324997E+02  0.34899083272E+03  0.10100000352E+00 0. -1.
</event>
<event>
 5   0  0.2934483E-03  0.6991619E+03  0.7818609E-02  0.9718667E-01
        1   -1    0    0  501    0  0.00000000000E+00  0.00000000000E+00  0.36702959340E+03  0.36702959344E+03  0.50400001928E-02 0. -1.
       -1   -1    0    0    0  501  0.00000000000E+00  0.00000000000E+00 -0.33296179255E+03  0.33296179259E+03  0.50400001928E-02 0.  1.
    10030    2    1    2    0    0  0.00000000000E+00  0.00000000000E+00  0.34067800852E+02  0.69999138602E+03  0.69916187357E+03 0.  0.
        5    1    3    3  502    0  0.34384906302E+03 -0.62047725236E+02  0.68905911386E+01  0.34950202945E+03  0.46999998093E+01 0.  1.
       -5    1    3    3    0  502 -0.34384906302E+03  0.62047725236E+02  0.27177209713E+02  0.35048935657E+03  0.46999998093E+01 0. -1.
</event>
<event>
 5   0  0.2938783E-03  0.7014189E+03  0.7818609E-02  0.9714809E-01
       -1   -1    0    0    0  501  0.00000000000E+00  0.00000000000E+00  0.10985501913E+03  0.10985501924E+03  0.50400001928E-02 0.  1.
        1   -1    0    0  501    0  0.00000000000E+00  0.00000000000E+00 -0.11196312446E+04  0.11196312446E+04  0.50400001928E-02 0. -1.
    10030    2    1    2    0    0  0.00000000000E+00  0.00000000000E+00 -0.10097762254E+04  0.12294862638E+04  0.70141888160E+03 0.  0.
        4    1    3    3  502    0 -0.18037316084E+03 -0.28722063481E+02 -0.10296806126E+04  0.10457548522E+04  0.12699999809E+01 0. -1.
       -4    1    3    3    0  502  0.18037316084E+03  0.28722063481E+02  0.19904387157E+02  0.18373141160E+03  0.12699999809E+01 0.  1.
</event>
<event>
 5   0  0.2937617E-03  0.7008530E+03  0.7818609E-02  0.9715774E-01
       -1   -1    0    0    0  501  0.00000000000E+00  0.00000000000E+00  0.17807769846E+03  0.17807769854E+03  0.50400001928E-02 0. -1.
        1   -1    0    0  501    0  0.00000000000E+00  0.00000000000E+00 -0.68957958604E+03  0.68957958606E+03  0.50400001928E-02 0.  1.
    10030    2    1    2    0    0  0.00000000000E+00  0.00000000000E+00 -0.51150188757E+03  0.86765728459E+03  0.70085303917E+03 0.  0.
        3    1    3    3  502    0  0.16865572215E+03 -0.20985258159E+03 -0.53344960050E+03  0.59753773528E+03  0.10100000352E+00 0.  1.
       -3    1    3    3    0  502 -0.16865572215E+03  0.20985258159E+03  0.21947712925E+02  0.27011954931E+03  0.10100000352E+00 0. -1.
</event>
<event>
 5   0  0.4878235E-03  0.6987914E+03  0.7818609E-02  0.9719301E-01
       -2   -1    0    0    0  501  0.00000000000E+00  0.00000000000E+00  0.63609827193E+02  0.63609827244E+02  0.25500000920E-02 0.  1.
        2   -1    0    0  501    0  0.00000000000E+00  0.00000000000E+00 -0.19191585105E+04  0.19191585105E+04  0.25500000920E-02 0. -1.
    10030    2    1    2    0    0  0.00000000000E+00  0.00000000000E+00 -0.18555486833E+04  0.19827683378E+04  0.69879136018E+03 0.  0.
        4    1    3    3  502    0  0.84946459165E+02  0.27269688606E+03 -0.35678003680E+03  0.45702636701E+03  0.12699999809E+01 0.  1.
       -4    1    3    3    0  502 -0.84946459165E+02 -0.27269688606E+03 -0.14987686465E+04  0.15257419708E+04  0.12699999809E+01 0. -1.
</event>
<event>
 5   0  0.2937617E-03  0.7077422E+03  0.7818609E-02  0.9704083E-01
        1   -1    0    0  501    0  0.00000000000E+00  0.00000000000E+00  0.12665697046E+04  0.12665697046E+04  0.50400001928E-02 0.  1.
       -1   -1    0    0    0  501  0.00000000000E+00  0.00000000000E+00 -0.98869220726E+02  0.98869220855E+02  0.50400001928E-02 0. -1.
    10030    2    1    2    0    0  0.00000000000E+00  0.00000000000E+00  0.11677004839E+04  0.13654389255E+04  0.70774221234E+03 0.  0.
        3    1    3    3  502    0  0.44696697497E+02 -0.14550306579E+03  0.12001841377E+04  0.12097978804E+04  0.10100000352E+00 0.  1.
       -3    1    3    3    0  502 -0.44696697497E+02  0.14550306579E+03 -0.32483653849E+02  0.15564104501E+03  0.10100000352E+00 0. -1.
</event>
<event>
 5   0  0.5113683E-03  0.7004455E+03  0.7818609E-02  0.9716471E-01
        2   -1    0    0  501    0  0.00000000000E+00  0.00000000000E+00  0.35937039970E+03  0.35937039971E+03  0.25500000920E-02 0.  1.
       -2   -1    0    0    0  501  0.00000000000E+00  0.00000000000E+00 -0.34130793111E+03  0.34130793112E+03  0.25500000920E-02 0. -1.
    10030    2    1    2    0    0  0.00000000000E+00  0.00000000000E+00  0.18062468583E+02  0.70067833083E+03  0.70044548005E+03 0.  0.
        3    1    3    3  502    0  0.98966291713E+02 -0.34993121469E+02 -0.32520124155E+03  0.34172313816E+03  0.10100000352E+00 0. -1.
       -3    1    3    3    0  502 -0.98966291713E+02  0.34993121469E+02  0.34326371014E+03  0.35895519267E+03  0.10100000352E+00 0.  1.
</event>
<event>
 5   0  0.5113683E-03  0.7013021E+03  0.7818609E-02  0.9715008E-01
       -2   -1    0    0    0  501  0.00000000000E+00  0.00000000000E+00  0.24221665897E+03  0.24221665898E+03  0.25500000920E-02 0. -1.
        2   -1    0    0  501    0  0.00000000000E+00  0.00000000000E+00 -0.50762877698E+03  0.50762877699E+03  0.25500000920E-02 0.  1.
    10030    2    1    2    0    0  0.00000000000E+00  0.00000000000E+00 -0.26541211801E+03  0.74984543597E+03  0.70130206434E+03 0.  0.
        3    1    3    3  502    0 -0.38790597191E+02 -0.31957067882E+03  0.15934627008E+02  0.32231048964E+03  0.10100000352E+00 0. -1.
       -3    1    3    3    0  502  0.38790597191E+02  0.31957067882E+03 -0.28134674502E+03  0.42753494632E+03  0.10100000352E+00 0.  1.
</event>
<event>
 5   0  0.1981750E-03  0.7002186E+03  0.7818609E-02  0.9716858E-01
        4   -1    0    0  501    0  0.00000000000E+00  0.00000000000E+00  0.12339299745E+03  0.12339953290E+03  0.12699999809E+01 0.  1.
       -4   -1    0    0    0  501  0.00000000000E+00  0.00000000000E+00 -0.99334996579E+03  0.99335077763E+03  0.12699999809E+01 0. -1.
    10030    2    1    2    0    0  0.00000000000E+00  0.00000000000E+00 -0.86995696833E+03  0.11167503105E+04  0.70021862966E+03 0.  0.
        1    1    3    3  502    0  0.17996290953E+03 -0.13476642982E+03 -0.86300707146E+03  0.89181267361E+03  0.50400001928E-02 0. -1.
       -1    1    3    3    0  502 -0.17996290953E+03  0.13476642982E+03 -0.69498968790E+01  0.22493763692E+03  0.50400001928E-02 0.  1.
</event>
<event>
 5   0  0.5076796E-03  0.7008318E+03  0.7818609E-02  0.9715811E-01
       -2   -1    0    0    0  501  0.00000000000E+00  0.00000000000E+00  0.21263344043E+03  0.21263344045E+03  0.25500000920E-02 0.  1.
        2   -1    0    0  501    0  0.00000000000E+00  0.00000000000E+00 -0.57747882177E+03  0.57747882178E+03  0.25500000920E-02 0. -1.
    10030    2    1    2    0    0  0.00000000000E+00  0.00000000000E+00 -0.36484538134E+03  0.79011226223E+03  0.70083181623E+03 0.  0.
        5    1    3    3  502    0  0.31164046699E+03 -0.22080961291E+02 -0.35901930773E+01  0.31247772561E+03  0.46999998093E+01 0.  1.
       -5    1    3    3    0  502 -0.31164046699E+03  0.22080961291E+02 -0.36125518826E+03  0.47763453661E+03  0.46999998093E+01 0. -1.
</event>
<event>
 5   0  0.2934483E-03  0.7000863E+03  0.7818609E-02  0.9717085E-01
        1   -1    0    0  501    0  0.00000000000E+00  0.00000000000E+00  0.22824510951E+03  0.22824510957E+03  0.50400001928E-02 0.  1.
       -1   -1    0    0    0  501  0.00000000000E+00  0.00000000000E+00 -0.53683609635E+03  0.53683609637E+03  0.50400001928E-02 0. -1.
    10030    2    1    2    0    0  0.00000000000E+00  0.00000000000E+00 -0.30859098684E+03  0.76508120594E+03  0.70008631934E+03 0.  0.
        5    1    3    3  502    0  0.28731091554E+02  0.72118248652E+02 -0.52727469769E+03  0.53297956268E+03  0.46999998093E+01 0. -1.
       -5    1    3    3    0  502 -0.28731091554E+02 -0.72118248652E+02  0.21868371086E+03  0.23210164326E+03  0.46999998093E+01 0.  1.
</event>
<event>
 5   0  0.3013140E-03  0.7002356E+03  0.7818609E-02  0.9716829E-01
        1   -1    0    0  501    0  0.00000000000E+00  0.00000000000E+00  0.10491532243E+04  0.10491532243E+04  0.50400001928E-02 0.  1.
       -1   -1    0    0    0  501  0.00000000000E+00  0.00000000000E+00 -0.11683944220E+03  0.11683944231E+03  0.50400001928E-02 0. -1.
    10030    2    1    2    0    0  0.00000000000E+00  0.00000000000E+00  0.93231378209E+03  0.11659926666E+04  0.70023561057E+03 0.  0.
        2    1    3    3  502    0  0.31544081884E+03  0.56368152481E+02  0.23124653909E+03  0.39516482719E+03  0.25500000920E-02 0.  1.
       -2    1    3    3    0  502 -0.31544081884E+03 -0.56368152481E+02  0.70106724301E+03  0.77082783942E+03  0.25500000920E-02 0. -1.
</event>
<event>
 5   0  0.5076796E-03  0.6995922E+03  0.7818609E-02  0.9717930E-01
        2   -1    0    0  501    0  0.00000000000E+00  0.00000000000E+00  0.74275757598E+03  0.74275757599E+03  0.25500000920E-02 0. -1.
       -2   -1    0    0    0  501  0.00000000000E+00  0.00000000000E+00 -0.16473382239E+03  0.16473382241E+03  0.25500000920E-02 0.  1.
    10030    2    1    2    0    0  0.00000000000E+00  0.00000000000E+00  0.57802375359E+03  0.90749139840E+03  0.69959215150E+03 0.  0.
        5    1    3    3  502    0  0.13736674277E+03  0.15947093608E+03  0.65137267002E+03  0.68455025142E+03  0.46999998093E+01 0. -1.
       -5    1    3    3    0  502 -0.13736674277E+03 -0.15947093608E+03 -0.73348916427E+02  0.22294114698E+03  0.46999998093E+01 0.  1.
</event>
<event>
 5   0  0.5072407E-03  0.6997308E+03  0.7818609E-02  0.9717693E-01
        2   -1    0    0  501    0  0.00000000000E+00  0.00000000000E+00  0.52398572689E+03  0.52398572690E+03  0.25500000920E-02 0. -1.
       -2   -1    0    0    0  501  0.00000000000E+00  0.00000000000E+00 -0.23360521323E+03  0.23360521325E+03  0.25500000920E-02 0.  1.
    10030    2    1    2    0    0  0.00000000000E+00  0.00000000000E+00  0.29038051366E+03  0.75759094014E+03  0.69973079815E+03 0.  0.
        1    1    3    3  502    0  0.13573049146E+03  0.24327824821E+03  0.37434909421E+03  0.46663081416E+03  0.50400001928E-02 0.  1.
       -1    1    3    3    0  502 -0.13573049146E+03 -0.24327824821E+03 -0.83968580553E+02  0.29096012598E+03  0.50400001928E-02 0. -1.
</event>
<event>
 5   0  0.3013140E-03  0.7023866E+03  0.7818609E-02  0.9713159E-01
        1   -1    0    0  501    0  0.00000000000E+00  0.00000000000E+00  0.18220686995E+03  0.18220687002E+03  0.50400001928E-02 0.  1.
       -1   -1    0    0    0  501  0.00000000000E+00  0.00000000000E+00 -0.67690503285E+03  0.67690503287E+03  0.50400001928E-02 0. -1.
    10030    2    1    2    0    0  0.00000000000E+00  0.00000000000E+00 -0.49469816290E+03  0.85911190289E+03  0.70238663805E+03 0.  0.
        2    1    3    3  502    0 -0.27391897339E+03 -0.21806265056E+03 -0.21376693826E+03  0.41021851183E+03  0.25500000920E-02 0.  1.
       -2    1    3    3    0  502  0.27391897339E+03  0.21806265056E+03 -0.28093122464E+03  0.44889339106E+03  0.25500000920E-02 0. -1.
</event>
<event>
 5   0  0.5072407E-03  0.7025526E+03  0.7818609E-02  0.9712877E-01
        2   -1    0    0  501    0  0.00000000000E+00  0.00000000000E+00  0.12671975055E+04  0.12671975055E+04  0.25500000920E-02 0. -1.
       -2   -1    0    0    0  501  0.00000000000E+00  0.00000000000E+00 -0.97376315925E+02  0.97376315958E+02  0.25500000920E-02 0.  1.
    10030    2    1    2    0    0  0.00000000000E+00  0.00000000000E+00  0.11698211895E+04  0.13645738214E+04  0.70255255933E+03 0.  0.
        1    1    3    3  502    0  0.25018011292E+03  0.73549025569E+02  0.10420570606E+04  0.10741892131E+04  0.50400001928E-02 0. -1.
       -1    1    3    3    0  502 -0.25018011292E+03 -0.73549025569E+02  0.12776412895E+03  0.29038460829E+03  0.50400001928E-02 0.  1.
</event>
<event>
 5   0  0.2938783E-03  0.6999507E+03  0.7818609E-02  0.9717316E-01
       -1   -1    0    0    0  501  0.00000000000E+00  0.00000000000E+00  0.92062346103E+02  0.92062346241E+02  0.50400001928E-02 0. -1.
        1   -1    0    0  501    0  0.00000000000E+00  0.00000000000E+00 -0.13304326638E+04  0.13304326638E+04  0.50400001928E-02 0.  1.
    10030    2    1    2    0    0  0.00000000000E+00  0.00000000000E+00 -0.12383703177E+04  0.14224950100E+04  0.69995071960E+03 0.  0.
        4    1    3    3  502    0  0.57753114844E+02 -0.31290321820E+03 -0.32302074761E+03  0.45341797772E+03  0.12699999809E+01 0. -1.
       -4    1    3    3    0  502 -0.57753114844E+02  0.31290321820E+03 -0.91534957008E+03  0.96907703233E+03  0.12699999809E+01 0.  1.
</event>
<event>
 5   0  0.1981750E-03  0.6991595E+03  0.7818609E-02  0.9718671E-01
        3   -1    0    0  501    0  0.00000000000E+00  0.00000000000E+00  0.13401918971E+03  0.13401922777E+03  0.10100000352E+00 0.  1.
       -3   -1    0    0    0  501  0.00000000000E+00  0.00000000000E+00 -0.91185431494E+03  0.91185432054E+03  0.10100000352E+00 0. -1.
    10030    2    1    2    0    0  0.00000000000E+00  0.00000000000E+00 -0.77783512523E+03  0.10458735483E+04  0.69915949325E+03 0.  0.
        4    1    3    3  502    0 -0.14086056998E+03 -0.20644452481E+03 -0.75455249858E+03  0.79486610698E+03  0.12699999809E+01 0. -1.
       -4    1    3    3    0  502  0.14086056998E+03  0.20644452481E+03 -0.23282626648E+02  0.25100744133E+03  0.12699999809E+01 0.  1.
</event>
<event>
 5   0  0.5113683E-03  0.6992581E+03  0.7818609E-02  0.9718502E-01
        2   -1    0    0  501    0  0.00000000000E+00  0.00000000000E+00  0.53110520056E+03  0.53110520056E+03  0.25500000920E-02 0. -1.
       -2   -1    0    0    0  501  0.00000000000E+00  0.00000000000E+00 -0.23016241436E+03  0.23016241437E+03  0.25500000920E-02 0.  1.
    10030    2    1    2    0    0  0.00000000000E+00  0.00000000000E+00  0.30094278620E+03  0.76126761493E+03  0.69925805035E+03 0.  0.
        3    1    3    3  502    0 -0.59423893272E+02  0.11304431501E+03  0.50480295210E+03  0.52070744847E+03  0.10100000352E+00 0. -1.
       -3    1    3    3    0  502  0.59423893272E+02 -0.11304431501E+03 -0.20386016590E+03  0.24056016646E+03  0.10100000352E+00 0.  1.
</event>
<event>
 5   0  0.2938783E-03  0.6997823E+03  0.7818609E-02  0.9717605E-01
       -1   -1    0    0    0  501  0.00000000000E+00  0.00000000000E+00  0.85542979204E+02  0.85542979352E+02  0.50400001928E-02 0.  1.
        1   -1    0    0  501    0  0.00000000000E+00  0.00000000000E+00 -0.14311381573E+04  0.14311381573E+04  0.50400001928E-02 0. -1.
    10030    2    1    2    0    0  0.00000000000E+00  0.00000000000E+00 -0.13455951781E+04  0.15166811367E+04  0.69978231400E+03 0.  0.
        4    1    3    3  502    0  0.18612182755E+03  0.25631837642E+03 -0.99486605592E+03  0.10440787934E+04  0.12699999809E+01 0. -1.
       -4    1    3    3    0  502 -0.18612182755E+03 -0.25631837642E+03 -0.35072912218E+03  0.47260234323E+03  0.12699999809E+01 0.  1.
</event>
<event>
 5   0  0.5113683E-03  0.7003052E+03  0.7818609E-02  0.9716710E-01
        2   -1    0    0  501    0  0.00000000000E+00  0.00000000000E+00  0.19893776193E+03  0.19893776194E+03  0.25500000920E-02 0. -1.
       -2   -1    0    0    0  501  0.00000000000E+00  0.00000000000E+00 -0.61630761707E+03  0.61630761707E+03  0.25500000920E-02 0.  1.
    10030    2    1    2    0    0  0.00000000000E+00  0.00000000000E+00 -0.41736985514E+03  0.81524537902E+03  0.70030524204E+03 0.  0.
        3    1    3    3  502    0  0.24489531168E+03  0.66869588137E+02  0.72064650671E+02  0.26389122679E+03  0.10100000352E+00 0. -1.
       -3    1    3    3    0  502 -0.24489531168E+03 -0.66869588137E+02 -0.48943450581E+03  0.55135415223E+03  0.10100000352E+00 0.  1.
</event>
<event>
 5   0  0.4878235E-03  0.7007125E+03  0.7818609E-02  0.9716014E-01
        2   -1    0    0  501    0  0.00000000000E+00  0.00000000000E+00  0.12894671375E+04  0.12894671375E+04  0.25500000920E-02 0.  1.
       -2   -1    0    0    0  501  0.00000000000E+00  0.00000000000E+00 -0.95193981776E+02  0.95193981810E+02  0.25500000920E-02 0. -1.
    10030    2    1    2    0    0  0.00000000000E+00  0.00000000000E+00  0.11942731558E+04  0.13846611193E+04  0.70071252655E+03 0.  0.
        4    1    3    3  502    0  0.53363017463E+01  0.34527957186E+03  0.48020631482E+03  0.59147795949E+03  0.12699999809E+01 0. -1.
       -4    1    3    3    0  502 -0.53363017463E+01 -0.34527957186E+03  0.71406684093E+03  0.79318315986E+03  0.12699999809E+01 0.  1.
</event>
<event>
 5   0  0.5023894E-03  0.6891346E+03  0.7818609E-02  0.9735996E-01
        2   -1    0    0  501    0  0.00000000000E+00  0.00000000000E+00  0.22882139891E+04  0.22882139891E+04  0.25500000920E-02 0. -1.
       -2   -1    0    0    0  501  0.00000000000E+00  0.00000000000E+00 -0.51886147012E+02  0.51886147074E+02  0.25500000920E-02 0.  1.
    10030    2    1    2    0    0  0.00000000000E+00  0.00000000000E+00  0.22363278421E+04  0.23401001362E+04  0.68913455147E+03 0.  0.
        2    1    3    3  502    0  0.10648943531E+03 -0.32530296202E+03  0.98384698648E+03  0.10416894498E+04  0.25500000920E-02 0.  1.
       -2    1    3    3    0  502 -0.10648943531E+03  0.32530296202E+03  0.12524808556E+04  0.12984106864E+04  0.25500000920E-02 0. -1.
</event>
<event>
 5   0  0.5023894E-03  0.6989627E+03  0.7818609E-02  0.9719008E-01
       -2   -1    0    0    0  501  0.00000000000E+00  0.00000000000E+00  0.13638462977E+03  0.13638462979E+03  0.25500000920E-02 0.  1.
        2   -1    0    0  501    0  0.00000000000E+00  0.00000000000E+00 -0.89553491401E+03  0.89553491401E+03  0.25500000920E-02 0. -1.
    10030    2    1    2    0    0  0.00000000000E+00  0.00000000000E+00 -0.75915028424E+03  0.10319195438E+04  0.69896265338E+03 0.  0.
        2    1    3    3  502    0 -0.34240407557E+02 -0.26986202015E+03 -0.55652227256E+02  0.27766001843E+03  0.25500000920E-02 0.  1.
       -2    1    3    3    0  502  0.34240407557E+02  0.26986202015E+03 -0.70349805699E+03  0.75425952537E+03  0.25500000920E-02 0. -1.
</event>
<event>
 5   0  0.3013140E-03  0.6986303E+03  0.7818609E-02  0.9719577E-01
       -1   -1    0    0    0  501  0.00000000000E+00  0.00000000000E+00  0.25731558534E+03  0.25731558539E+03  0.50400001928E-02 0.  1.
        1   -1    0    0  501    0  0.00000000000E+00  0.00000000000E+00 -0.47420792468E+03  0.47420792471E+03  0.50400001928E-02 0. -1.
    10030    2    1    2    0    0  0.00000000000E+00  0.00000000000E+00 -0.21689233934E+03  0.73152351010E+03  0.69863034501E+03 0.  0.
        2    1    3    3  502    0  0.18547301918E+03  0.14315559552E+03 -0.37973412444E+03  0.44619700878E+03  0.25500000920E-02 0. -1.
       -2    1    3    3    0  502 -0.18547301918E+03 -0.14315559552E+03  0.16284178511E+03  0.28532650132E+03  0.25500000920E-02 0.  1.
</event>
<event>
 5   0  0.5023894E-03  0.6909799E+03  0.7818609E-02  0.9732783E-01
        2   -1    0    0  501    0  0.00000000000E+00  0.00000000000E+00  0.14856770986E+04  0.14856770986E+04  0.25500000920E-02 0.  1.
       -2   -1    0    0    0  501  0.00000000000E+00  0.00000000000E+00 -0.80342685954E+02  0.80342685995E+02  0.25500000920E-02 0. -1.
    10030    2    1    2    0    0  0.00000000000E+00  0.00000000000E+00  0.14053344126E+04  0.15660197846E+04  0.69097985092E+03 0.  0.
        2    1    3    3  502    0  0.33770910597E+03  0.71112468362E+02  0.73913157291E+03  0.81573274146E+03  0.25500000920E-02 0.  1.
       -2    1    3    3    0  502 -0.33770910597E+03 -0.71112468362E+02  0.66620283971E+03  0.75028704311E+03  0.25500000920E-02 0. -1.
</event>
<event>
 5   0  0.5076796E-03  0.7003539E+03  0.7818609E-02  0.9716627E-01
        2   -1    0    0  501    0  0.00000000000E+00  0.00000000000E+00  0.62910954653E+03  0.62910954653E+03  0.25500000920E-02 0.  1.
       -2   -1    0    0    0  501  0.00000000000E+00  0.00000000000E+00 -0.19491659917E+03  0.19491659919E+03  0.25500000920E-02 0. -1.
    10030    2    1    2    0    0  0.00000000000E+00  0.00000000000E+00  0.43419294735E+03  0.82402614572E+03  0.70035389147E+03 0.  0.
        5    1    3    3  502    0  0.28312154182E+02 -0.22089343257E+03 -0.10081314245E+03  0.24450126036E+03  0.46999998093E+01 0. -1.
       -5    1    3    3    0  502 -0.28312154182E+02  0.22089343257E+03  0.53500608980E+03  0.57952488536E+03  0.46999998093E+01 0.  1.
</event>
<event>
 5   0  0.5076796E-03  0.7004218E+03  0.7818609E-02  0.9716511E-01
       -2   -1    0    0    0  501  0.00000000000E+00  0.00000000000E+00  0.11825393198E+03  0.11825393200E+03  0.25500000920E-02 0.  1.
        2   -1    0    0  501    0  0.00000000000E+00  0.00000000000E+00 -0.10371552156E+04  0.10371552156E+04  0.25500000920E-02 0. -1.
    10030    2    1    2    0    0  0.00000000000E+00  0.00000000000E+00 -0.91890128360E+03  0.11554091476E+04  0.70042182242E+03 0.  0.
        5    1    3    3  502    0  0.29907869097E+03  0.18141260513E+03 -0.43249633185E+03  0.55626770871E+03  0.46999998093E+01 0. -1.
       -5    1    3    3    0  502 -0.29907869097E+03 -0.18141260513E+03 -0.48640495176E+03  0.59914143888E+03  0.46999998093E+01 0.  1.
</event>
<event>
 5   0  0.5113683E-03  0.7001823E+03  0.7818609E-02  0.9716921E-01
        2   -1    0    0  501    0  0.00000000000E+00  0.00000000000E+00  0.10106232661E+03  0.10106232664E+03  0.25500000920E-02 0.  1.
       -2   -1    0    0    0  501  0.00000000000E+00  0.00000000000E+00 -0.12127546609E+04  0.12127546609E+04  0.25500000920E-02 0. -1.
    10030    2    1    2    0    0  0.00000000000E+00  0.00000000000E+00 -0.11116923343E+04  0.13138169875E+04  0.70018228386E+03 0.  0.
        3    1    3    3  502    0 -0.26884321542E+03 -0.14856371625E+03 -0.87103517019E+03  0.92360712977E+03  0.10100000352E+00 0. -1.
       -3    1    3    3    0  502  0.26884321542E+03  0.14856371625E+03 -0.24065716411E+03  0.39020985777E+03  0.10100000352E+00 0.  1.
</event>
<event>
 5   0  0.2934483E-03  0.7006139E+03  0.7818609E-02  0.9716183E-01
        1   -1    0    0  501    0  0.00000000000E+00  0.00000000000E+00  0.32681420344E+03  0.32681420348E+03  0.50400001928E-02 0. -1.
       -1   -1    0    0    0  501  0.00000000000E+00  0.00000000000E+00 -0.37548843279E+03  0.37548843282E+03  0.50400001928E-02 0.  1.
    10030    2    1    2    0    0  0.00000000000E+00  0.00000000000E+00 -0.48674229346E+02  0.70230263630E+03  0.70061388250E+03 0.  0.
        5    1    3    3  502    0  0.22212735881E+03  0.20731814682E+03  0.15035712209E+03  0.33904384923E+03  0.46999998093E+01 0. -1.
       -5    1    3    3    0  502 -0.22212735881E+03 -0.20731814682E+03 -0.19903135144E+03  0.36325878708E+03  0.46999998093E+01 0.  1.
</event>
<event>
 5   0  0.2913582E-03  0.6992993E+03  0.7818609E-02  0.9718431E-01
        1   -1    0    0  501    0  0.00000000000E+00  0.00000000000E+00  0.78348480178E+03  0.78348480180E+03  0.50400001928E-02 0. -1.
       -1   -1    0    0    0  501  0.00000000000E+00  0.00000000000E+00 -0.15603988875E+03  0.15603988883E+03  0.50400001928E-02 0.  1.
    10030    2    1    2    0    0  0.00000000000E+00  0.00000000000E+00  0.62744491303E+03  0.93952469062E+03  0.69929931031E+03 0.  0.
        1    1    3    3  502    0  0.43697512434E+02 -0.26785429907E+03  0.17538913860E+02  0.27196141574E+03  0.50400001928E-02 0.  1.
       -1    1    3    3    0  502 -0.43697512434E+02  0.26785429907E+03  0.60990599917E+03  0.66756327489E+03  0.50400001928E-02 0. -1.
</event>
<event>
 5   0  0.5113683E-03  0.6996681E+03  0.7818609E-02  0.9717800E-01
       -2   -1    0    0    0  501  0.00000000000E+00  0.00000000000E+00  0.10775153570E+03  0.10775153573E+03  0.25500000920E-02 0.  1.
        2   -1    0    0  501    0  0.00000000000E+00  0.00000000000E+00 -0.11357967812E+04  0.11357967812E+04  0.25500000920E-02 0. -1.
    10030    2    1    2    0    0  0.00000000000E+00  0.00000000000E+00 -0.10280452455E+04  0.12435483169E+04  0.69966805683E+03 0.  0.
        3    1    3    3  502    0 -0.17561372746E+02 -0.61991671130E+02  0.97114964304E+02  0.11654482226E+03  0.10100000352E+00 0.  1.
       -3    1    3    3    0  502  0.17561372746E+02  0.61991671130E+02 -0.11251602098E+04  0.11270034946E+04  0.10100000352E+00 0. -1.
</event>
<event>
 5   0  0.1981750E-03  0.7034314E+03  0.7818609E-02  0.9711382E-01
       -4   -1    0    0    0  501  0.00000000000E+00  0.00000000000E+00  0.20075702782E+03  0.20076104483E+03  0.12699999809E+01 0. -1.
        4   -1    0    0  501    0  0.00000000000E+00  0.00000000000E+00 -0.61617652188E+03  0.61617783067E+03  0.12699999809E+01 0.  1.
    10030    2    1    2    0    0  0.00000000000E+00  0.00000000000E+00 -0.41541949405E+03  0.81693887550E+03  0.70343142542E+03 0.  0.
        3    1    3    3  502    0 -0.15020642085E+03 -0.29553256154E+02  0.16003815553E+03  0.22146689423E+03  0.10100000352E+00 0. -1.
       -3    1    3    3    0  502  0.15020642085E+03  0.29553256154E+02 -0.57545764958E+03  0.59547198127E+03  0.10100000352E+00 0.  1.
</event>
<event>
 5   0  0.4878235E-03  0.6996961E+03  0.7818609E-02  0.9717752E-01
       -2   -1    0    0    0  501  0.00000000000E+00  0.00000000000E+00  0.82115469328E+02  0.82115469368E+02  0.25500000920E-02 0. -1.
        2   -1    0    0  501    0  0.00000000000E+00  0.00000000000E+00 -0.14905065186E+04  0.14905065186E+04  0.25500000920E-02 0.  1.
    10030    2    1    2    0    0  0.00000000000E+00  0.00000000000E+00 -0.14083910493E+04  0.15726219880E+04  0.69969605500E+03 0.  0.
        4    1    3    3  502    0 -0.75126720068E+02  0.25519237137E+03 -0.19352080706E+03  0.32896669458E+03  0.12699999809E+01 0. -1.
       -4    1    3    3    0  502  0.75126720068E+02 -0.25519237137E+03 -0.12148702422E+04  0.12436552934E+04  0.12699999809E+01 0.  1.
</event>
<event>
 5   0  0.1981750E-03  0.7007683E+03  0.7818609E-02  0.9715919E-01
       -3   -1    0    0    0  501  0.00000000000E+00  0.00000000000E+00  0.46572854320E+03  0.46572855415E+03  0.10100000352E+00 0.  1.
        3   -1    0    0  501    0  0.00000000000E+00  0.00000000000E+00 -0.26360644747E+03  0.26360646681E+03  0.10100000352E+00 0. -1.
    10030    2    1    2    0    0  0.00000000000E+00  0.00000000000E+00  0.20212209574E+03  0.72933502097E+03  0.70076831494E+03 0.  0.
        4    1    3    3  502    0  0.18004165031E+03 -0.28367632333E+03  0.20451219648E+03  0.39333713742E+03  0.12699999809E+01 0.  1.
       -4    1    3    3    0  502 -0.18004165031E+03  0.28367632333E+03 -0.23901007385E+01  0.33599788355E+03  0.12699999809E+01 0. -1.
</event>
<event>
 5   0  0.2938783E-03  0.7004271E+03  0.7818609E-02  0.9716502E-01
        1   -1    0    0  501    0  0.00000000000E+00  0.00000000000E+00  0.81384372591E+03  0.81384372592E+03  0.50400001928E-02 0. -1.
       -1   -1    0    0    0  501  0.00000000000E+00  0.00000000000E+00 -0.15070401989E+03  0.15070401997E+03  0.50400001928E-02 0.  1.
    10030    2    1    2    0    0  0.00000000000E+00  0.00000000000E+00  0.66313970602E+03  0.96454774590E+03  0.70042707287E+03 0.  0.
        4    1    3    3  502    0 -0.22981267991E+03  0.25024746679E+03  0.21463719035E+03  0.40188107552E+03  0.12699999809E+01 0. -1.
       -4    1    3    3    0  502  0.22981267991E+03 -0.25024746679E+03  0.44850251567E+03  0.56266667037E+03  0.12699999809E+01 0.  1.
</event>
<event>
 5   0  0.4878235E-03  0.6992099E+03  0.7818609E-02  0.9718584E-01
        2   -1    0    0  501    0  0.00000000000E+00  0.00000000000E+00  0.10340638257E+04  0.10340638257E+04  0.25500000920E-02 0.  1.
       -2   -1    0    0    0  501  0.00000000000E+00  0.00000000000E+00 -0.11819736175E+03  0.11819736178E+03  0.25500000920E-02 0. -1.
    10030    2    1    2    0    0  0.00000000000E+00  0.00000000000E+00  0.91586646397E+03  0.11522611875E+04  0.69920988580E+03 0.  0.
        4    1    3    3  502    0 -0.14331320558E+03 -0.61404673998E+02  0.97359281846E+03  0.98599888334E+03  0.12699999809E+01 0.  1.
       -4    1    3    3    0  502  0.14331320558E+03  0.61404673998E+02 -0.57726354494E+02  0.16626230416E+03  0.12699999809E+01 0. -1.
</event>
<event>
 5   0  0.5072407E-03  0.6923441E+03  0.7818609E-02  0.9730415E-01
       -2   -1    0    0    0  501  0.00000000000E+00  0.00000000000E+00  0.26304071867E+03  0.26304071868E+03  0.25500000920E-02 0. -1.
        2   -1    0    0  501    0  0.00000000000E+00  0.00000000000E+00 -0.45557619306E+03  0.45557619307E+03  0.25500000920E-02 0.  1.
    10030    2    1    2    0    0  0.00000000000E+00  0.00000000000E+00 -0.19253547439E+03  0.71861691175E+03  0.69234410299E+03 0.  0.
        1    1    3    3  502    0  0.24158551556E+03 -0.63519201835E+02 -0.34502209692E+03  0.42595598096E+03  0.50400001928E-02 0.  1.
       -1    1    3    3    0  502 -0.24158551556E+03  0.63519201835E+02  0.15248662252E+03  0.29266093078E+03  0.50400001928E-02 0. -1.
</event>
<event>
 5   0  0.5023894E-03  0.7023098E+03  0.7818609E-02  0.9713290E-01
        2   -1    0    0  501    0  0.00000000000E+00  0.00000000000E+00  0.75196459457E+03  0.75196459457E+03  0.25500000920E-02 0.  1.
       -2   -1    0    0    0  501  0.00000000000E+00  0.00000000000E+00 -0.16398345531E+03  0.16398345533E+03  0.25500000920E-02 0. -1.
    10030    2    1    2    0    0  0.00000000000E+00  0.00000000000E+00  0.58798113926E+03  0.91594804990E+03  0.70230976783E+03 0.  0.
        2    1    3    3  502    0  0.50728870403E+02 -0.18302646265E+02  0.74653143928E+03  0.74847685000E+03  0.25500000920E-02 0.  1.
       -2    1    3    3    0  502 -0.50728870403E+02  0.18302646265E+02 -0.15855030002E+03  0.16747119990E+03  0.25500000920E-02 0. -1.
</event>
<event>
 5   0  0.2937617E-03  0.6990888E+03  0.7818609E-02  0.9718792E-01
        1   -1    0    0  501    0  0.00000000000E+00  0.00000000000E+00  0.52001175930E+03  0.52001175933E+03  0.50400001928E-02 0.  1.
       -1   -1    0    0    0  501  0.00000000000E+00  0.00000000000E+00 -0.23495870113E+03  0.23495870118E+03  0.50400001928E-02 0. -1.
    10030    2    1    2    0    0  0.00000000000E+00  0.00000000000E+00  0.28505305818E+03  0.75497046051E+03  0.69908879998E+03 0.  0.
        3    1    3    3  502    0 -0.17747382344E+02  0.24802662136E+03  0.40782394773E+03  0.47765317651E+03  0.10100000352E+00 0.  1.
       -3    1    3    3    0  502  0.17747382344E+02 -0.24802662136E+03 -0.12277088955E+03  0.27731728400E+03  0.10100000352E+00 0. -1.
</event>
<event>
 5   0  0.1981750E-03  0.6987124E+03  0.7818609E-02  0.9719437E-01
        3   -1    0    0  501    0  0.00000000000E+00  0.00000000000E+00  0.66573283536E+03  0.66573284302E+03  0.10100000352E+00 0. -1.
       -3   -1    0    0    0  501  0.00000000000E+00  0.00000000000E+00 -0.18333138959E+03  0.18333141741E+03  0.10100000352E+00 0.  1.
    10030    2    1    2    0    0  0.00000000000E+00  0.00000000000E+00  0.48240144577E+03  0.84906426043E+03  0.69871236103E+03 0.  0.
        2    1    3    3  502    0  0.22887127119E+03  0.83444246990E+02  0.54549397296E+03  0.59741834227E+03  0.25500000920E-02 0. -1.
       -2    1    3    3    0  502 -0.22887127119E+03 -0.83444246990E+02 -0.63092527195E+02  0.25164591816E+03  0.25500000920E-02 0.  1.
</event>
<event>
 5   0  0.2938783E-03  0.6997931E+03  0.7818609E-02  0.9717586E-01
        1   -1    0    0  501    0  0.00000000000E+00  0.00000000000E+00  0.54796965096E+03  0.54796965098E+03  0.50400001928E-02 0.  1.
       -1   -1    0    0    0  501  0.00000000000E+00  0.00000000000E+00 -0.22342038194E+03  0.22342038200E+03  0.50400001928E-02 0. -1.
    10030    2    1    2    0    0  0.00000000000E+00  0.00000000000E+00  0.32454926901E+03  0.77139003298E+03  0.69979308010E+03 0.  0.
        4    1    3    3  502    0  0.73830540002E+01 -0.27341221286E+03 -0.78264882871E+02  0.28449209553E+03  0.12699999809E+01 0. -1.
       -4    1    3    3    0  502 -0.73830540002E+01  0.27341221286E+03  0.40281415189E+03  0.48689793745E+03  0.12699999809E+01 0.  1.
</event>
<event>
 5   0  0.3013140E-03  0.6992958E+03  0.7818609E-02  0.9718437E-01
        1   -1    0    0  501    0  0.00000000000E+00  0.00000000000E+00  0.21270819260E+04  0.21270819260E+04  0.50400001928E-02 0.  1.
       -1   -1    0    0    0  501  0.00000000000E+00  0.00000000000E+00 -0.57474815102E+02  0.57474815323E+02  0.50400001928E-02 0. -1.
    10030    2    1    2    0    0  0.00000000000E+00  0.00000000000E+00  0.20696071109E+04  0.21845567413E+04  0.69929576189E+03 0.  0.
        2    1    3    3  502    0  0.23779117754E+03 -0.25518949570E+03  0.95909603560E+03  0.10205545200E+04  0.25500000920E-02 0.  1.
       -2    1    3    3    0  502 -0.23779117754E+03  0.25518949570E+03  0.11105110753E+04  0.11640022213E+04  0.25500000920E-02 0. -1.
</event>
<event>
 5   0  0.5023894E-03  0.7026185E+03  0.7818609E-02  0.9712765E-01
       -2   -1    0    0    0  501  0.00000000000E+00  0.00000000000E+00  0.21878331381E+03  0.21878331382E+03  0.25500000920E-02 0.  1.
        2   -1    0    0  501    0  0.00000000000E+00  0.00000000000E+00 -0.56411147220E+03  0.56411147221E+03  0.25500000920E-02 0. -1.
    10030    2    1    2    0    0  0.00000000000E+00  0.00000000000E+00 -0.34532815839E+03  0.78289478604E+03  0.70261846618E+03 0.  0.
        2    1    3    3  502    0 -0.14452330715E+03  0.28836363327E+03 -0.17556185252E+02  0.32303063469E+03  0.25500000920E-02 0.  1.
       -2    1    3    3    0  502  0.14452330715E+03 -0.28836363327E+03 -0.32777197314E+03  0.45986415134E+03  0.25500000920E-02 0. -1.
</event>
<event>
 5   0  0.5076796E-03  0.7006518E+03  0.7818609E-02  0.9716118E-01
        2   -1    0    0  501    0  0.00000000000E+00  0.00000000000E+00  0.29981292532E+04  0.29981292532E+04  0.25500000920E-02 0.  1.
       -2   -1    0    0    0  501  0.00000000000E+00  0.00000000000E+00 -0.40934933427E+02  0.40934933506E+02  0.25500000920E-02 0. -1.
    10030    2    1    2    0    0  0.00000000000E+00  0.00000000000E+00  0.29571943197E+04  0.30390641867E+04  0.70065175802E+03 0.  0.
        5    1    3    3  502    0  0.54617632722E+02 -0.46410203451E+02 -0.86540298384E+01  0.72346216343E+02  0.46999998093E+01 0. -1.
       -5    1    3    3    0  502 -0.54617632722E+02  0.46410203451E+02  0.29658483496E+04  0.29667179703E+04  0.46999998093E+01 0.  1.
</event>
<event>
 5   0  0.2913582E-03  0.7064748E+03  0.7818609E-02  0.9706223E-01
        1   -1    0    0  501    0  0.00000000000E+00  0.00000000000E+00  0.27518943737E+03  0.27518943742E+03  0.50400001928E-02 0.  1.
       -1   -1    0    0    0  501  0.00000000000E+00  0.00000000000E+00 -0.45342090563E+03  0.45342090566E+03  0.50400001928E-02 0. -1.
    10030    2    1    2    0    0  0.00000000000E+00  0.00000000000E+00 -0.17823146825E+03  0.72861034308E+03  0.70647475239E+03 0.  0.
        1    1    3    3  502    0  0.14368555651E+03  0.23586135153E+03 -0.31624438317E+03  0.41986500950E+03  0.50400001928E-02 0. -1.
       -1    1    3    3    0  502 -0.14368555651E+03 -0.23586135153E+03  0.13801291491E+03  0.30874533357E+03  0.50400001928E-02 0.  1.
</event>
<event>
 5   0  0.5072407E-03  0.6982610E+03  0.7818609E-02  0.9720211E-01
        2   -1    0    0  501    0  0.00000000000E+00  0.00000000000E+00  0.74799435359E+03  0.74799435359E+03  0.25500000920E-02 0. -1.
       -2   -1    0    0    0  501  0.00000000000E+00  0.00000000000E+00 -0.16295857469E+03  0.16295857471E+03  0.25500000920E-02 0.  1.
    10030    2    1    2    0    0  0.00000000000E+00  0.00000000000E+00  0.58503577890E+03  0.91095292830E+03  0.69826096482E+03 0.  0.
        1    1    3    3  502    0  0.35932640925E+02  0.98490045437E+02 -0.14193752881E+03  0.17645879362E+03  0.50400001928E-02 0.  1.
       -1    1    3    3    0  502 -0.35932640925E+02 -0.98490045437E+02  0.72697330771E+03  0.73449413468E+03  0.50400001928E-02 0. -1.
</event>
<event>
 5   0  0.2938783E-03  0.6988560E+03  0.7818609E-02  0.9719191E-01
       -1   -1    0    0    0  501  0.00000000000E+00  0.00000000000E+00  0.26181960462E+03  0.26181960467E+03  0.50400001928E-02 0.  1.
        1   -1    0    0  501    0  0.00000000000E+00  0.00000000000E+00 -0.46635134977E+03  0.46635134980E+03  0.50400001928E-02 0. -1.
    10030    2    1    2    0    0  0.00000000000E+00  0.00000000000E+00 -0.20453174515E+03  0.72817095447E+03  0.69885599673E+03 0.  0.
        4    1    3    3  502    0 -0.18769097042E+03 -0.16919034538E+03  0.14919772744E+03  0.29345331505E+03  0.12699999809E+01 0.  1.
       -4    1    3    3    0  502  0.18769097042E+03  0.16919034538E+03 -0.35372947258E+03  0.43471763941E+03  0.12699999809E+01 0. -1.
</event>
<event>
 5   0  0.5076796E-03  0.6991733E+03  0.7818609E-02  0.9718647E-01
       -2   -1    0    0    0  501  0.00000000000E+00  0.00000000000E+00  0.12507036446E+03  0.12507036449E+03  0.25500000920E-02 0.  1.
        2   -1    0    0  501    0  0.00000000000E+00  0.00000000000E+00 -0.97713650408E+03  0.97713650408E+03  0.25500000920E-02 0. -1.
    10030    2    1    2    0    0  0.00000000000E+00  0.00000000000E+00 -0.85206613961E+03  0.11022068686E+04  0.69917327955E+03 0.  0.
        5    1    3    3  502    0  0.24083419158E+03  0.19084087271E+03 -0.16334172761E+03  0.34802867197E+03  0.46999998093E+01 0.  1.
       -5    1    3    3    0  502 -0.24083419158E+03 -0.19084087271E+03 -0.68872441201E+03  0.75417819660E+03  0.46999998093E+01 0. -1.
</event>
<event>
 5   0  0.5072407E-03  0.7012084E+03  0.7818609E-02  0.9715168E-01
       -2   -1    0    0    0  501  0.00000000000E+00  0.00000000000E+00  0.11412513969E+04  0.11412513969E+04  0.25500000920E-02 0.  1.
        2   -1    0    0  501    0  0.00000000000E+00  0.00000000000E+00 -0.10770921712E+03  0.10770921715E+03  0.25500000920E-02 0. -1.
    10030    2    1    2    0    0  0.00000000000E+00  0.00000000000E+00  0.10335421798E+04  0.12489606141E+04  0.70120836994E+03 0.  0.
        1    1    3    3  502    0  0.19707908872E+03 -0.15134655543E+03  0.95732288287E+03  0.98904653538E+03  0.50400001928E-02 0.  1.
       -1    1    3    3    0  502 -0.19707908872E+03  0.15134655543E+03  0.76219296931E+02  0.25991407869E+03  0.50400001928E-02 0. -1.
</event>
<event>
 5   0  0.5076796E-03  0.7005667E+03  0.7818609E-02  0.9716264E-01
       -2   -1    0    0    0  501  0.00000000000E+00  0.00000000000E+00  0.13607773649E+03  0.13607773651E+03  0.25500000920E-02 0.  1.
        2   -1    0    0  501    0  0.00000000000E+00  0.00000000000E+00 -0.90167897615E+03  0.90167897616E+03  0.25500000920E-02 0. -1.
    10030    2    1    2    0    0  0.00000000000E+00  0.00000000000E+00 -0.76560123967E+03  0.10377567127E+04  0.70056672523E+03 0.  0.
        5    1    3    3  502    0  0.11732296986E+03 -0.29175176201E+02 -0.86974513621E+03  0.87811990191E+03  0.46999998093E+01 0. -1.
       -5    1    3    3    0  502 -0.11732296986E+03  0.29175176201E+02  0.10414389654E+03  0.15963681076E+03  0.46999998093E+01 0.  1.
</event>
<event>
 5   0  0.5076796E-03  0.6998225E+03  0.7818609E-02  0.9717536E-01
       -2   -1    0    0    0  501  0.00000000000E+00  0.00000000000E+00  0.15136246490E+03  0.15136246492E+03  0.25500000920E-02 0.  1.
        2   -1    0    0  501    0  0.00000000000E+00  0.00000000000E+00 -0.80890529567E+03  0.80890529568E+03  0.25500000920E-02 0. -1.
    10030    2    1    2    0    0  0.00000000000E+00  0.00000000000E+00 -0.65754283078E+03  0.96026776060E+03  0.69982254732E+03 0.  0.
        5    1    3    3  502    0  0.60977025496E+02  0.28682041366E+03 -0.59067648819E+03  0.65947323754E+03  0.46999998093E+01 0. -1.
       -5    1    3    3    0  502 -0.60977025496E+02 -0.28682041366E+03 -0.66866342581E+02  0.30079452306E+03  0.46999998093E+01 0.  1.
</event>
<event>
 5   0  0.1981750E-03  0.6988167E+03  0.7818609E-02  0.9719258E-01
        4   -1    0    0  501    0  0.00000000000E+00  0.00000000000E+00  0.94234456579E+02  0.94243014100E+02  0.12699999809E+01 0. -1.
       -4   -1    0    0    0  501  0.00000000000E+00  0.00000000000E+00 -0.12954902844E+04  0.12954909069E+04  0.12699999809E+01 0.  1.
    10030    2    1    2    0    0  0.00000000000E+00  0.00000000000E+00 -0.12012558279E+04  0.13897339210E+04  0.69881671941E+03 0.  0.
        1    1    3    3  502    0  0.22298656237E+03 -0.16529840083E+03 -0.17857607695E+03  0.33005451610E+03  0.50400001928E-02 0. -1.
       -1    1    3    3    0  502 -0.22298656237E+03  0.16529840083E+03 -0.10226797509E+04  0.10596794049E+04  0.50400001928E-02 0.  1.
</event>
<event>
 5   0  0.5072407E-03  0.6999633E+03  0.7818609E-02  0.9717295E-01
        2   -1    0    0  501    0  0.00000000000E+00  0.00000000000E+00  0.97864554908E+03  0.97864554908E+03  0.25500000920E-02 0.  1.
       -2   -1    0    0    0  501  0.00000000000E+00  0.00000000000E+00 -0.12515988529E+03  0.12515988532E+03  0.25500000920E-02 0. -1.
    10030    2    1    2    0    0  0.00000000000E+00  0.00000000000E+00  0.85348566379E+03  0.11038054344E+04  0.69996332669E+03 0.  0.
        1    1    3    3  502    0  0.30898216401E+03 -0.13288526420E+02  0.68509574795E+03  0.75166664586E+03  0.50400001928E-02 0.  1.
       -1    1    3    3    0  502 -0.30898216401E+03  0.13288526420E+02  0.16838991583E+03  0.35213878853E+03  0.50400001928E-02 0. -1.
</event>
<event>
 5   0  0.3013140E-03  0.7020283E+03  0.7818609E-02  0.9713770E-01
        1   -1    0    0  501    0  0.00000000000E+00  0.00000000000E+00  0.16245388410E+04  0.16245388410E+04  0.50400001928E-02 0.  1.
       -1   -1    0    0    0  501  0.00000000000E+00  0.00000000000E+00 -0.75843641427E+02  0.75843641595E+02  0.50400001928E-02 0. -1.
    10030    2    1    2    0    0  0.00000000000E+00  0.00000000000E+00  0.15486951996E+04  0.17003824826E+04  0.70202832277E+03 0.  0.
        2    1    3    3  502    0  0.73301351424E+02 -0.26951999876E+02 -0.54532388749E+02  0.95253765527E+02  0.25500000920E-02 0. -1.
       -2    1    3    3    0  502 -0.73301351424E+02  0.26951999876E+02  0.16032275883E+04  0.16051287171E+04  0.25500000920E-02 0.  1.
</event>
<event>
 5   0  0.4878235E-03  0.6989254E+03  0.7818609E-02  0.9719072E-01
       -2   -1    0    0    0  501  0.00000000000E+00  0.00000000000E+00  0.43025605882E+03  0.43025605883E+03  0.25500000920E-02 0.  1.
        2   -1    0    0  501    0  0.00000000000E+00  0.00000000000E+00 -0.28384066092E+03  0.28384066093E+03  0.25500000920E-02 0. -1.
    10030    2    1    2    0    0  0.00000000000E+00  0.00000000000E+00  0.14641539790E+03  0.71409671976E+03  0.69892535827E+03 0.  0.
        4    1    3    3  502    0  0.70509374299E+02  0.30047288830E+03 -0.94261912164E+02  0.32271109286E+03  0.12699999809E+01 0. -1.
       -4    1    3    3    0  502 -0.70509374299E+02 -0.30047288830E+03  0.24067731006E+03  0.39138562690E+03  0.12699999809E+01 0.  1.
</event>
<event>
 5   0  0.2937617E-03  0.7002965E+03  0.7818609E-02  0.9716725E-01
        1   -1    0    0  501    0  0.00000000000E+00  0.00000000000E+00  0.17053650600E+04  0.17053650600E+04  0.50400001928E-02 0. -1.
       -1   -1    0    0    0  501  0.00000000000E+00  0.00000000000E+00 -0.71892984565E+02  0.71892984742E+02  0.50400001928E-02 0.  1.
    10030    2    1    2    0    0  0.00000000000E+00  0.00000000000E+00  0.16334720755E+04  0.17772580448E+04  0.70029646323E+03 0.  0.
        3    1    3    3  502    0  0.93555107942E+02 -0.26978942273E+03  0.13310210299E+04  0.13613066822E+04  0.10100000352E+00 0. -1.
       -3    1    3    3    0  502 -0.93555107942E+02  0.26978942273E+03  0.30245104554E+03  0.41595136253E+03  0.10100000352E+00 0.  1.
</event>
<event>
 5   0  0.5113683E-03  0.7004412E+03  0.7818609E-02  0.9716478E-01
        2   -1    0    0  501    0  0.00000000000E+00  0.00000000000E+00  0.12054864488E+03  0.12054864491E+03  0.25500000920E-02 0. -1.
       -2   -1    0    0    0  501  0.00000000000E+00  0.00000000000E+00 -0.10174685942E+04  0.10174685942E+04  0.25500000920E-02 0.  1.
    10030    2    1    2    0    0  0.00000000000E+00  0.00000000000E+00 -0.89691994930E+03  0.11380172391E+04  0.70044117599E+03 0.  0.
        3    1    3    3  502    0  0.46413730088E+02 -0.87558557067E+02 -0.99421358289E+03  0.99914032742E+03  0.10100000352E+00 0.  1.
       -3    1    3    3    0  502 -0.46413730088E+02  0.87558557067E+02  0.97293633597E+02  0.13887691167E+03  0.10100000352E+00 0. -1.
</event>
<event>
 5   0  0.2938783E-03  0.6996027E+03  0.7818609E-02  0.9717912E-01
       -1   -1    0    0    0  501  0.00000000000E+00  0.00000000000E+00  0.20156818016E+03  0.20156818022E+03  0.50400001928E-02 0. -1.
        1   -1    0    0  501    0  0.00000000000E+00  0.00000000000E+00 -0.60704514021E+03  0.60704514023E+03  0.50400001928E-02 0.  1.
    10030    2    1    2    0    0  0.00000000000E+00  0.00000000000E+00 -0.40547696005E+03  0.80861332046E+03  0.69960269931E+03 0.  0.
        4    1    3    3  502    0  0.17635252066E+03 -0.67229235459E+02  0.13766782523E+03  0.23361084018E+03  0.12699999809E+01 0. -1.
       -4    1    3    3    0  502 -0.17635252066E+03  0.67229235459E+02 -0.54314478528E+03  0.57500248028E+03  0.12699999809E+01 0.  1.
</event>
<event>
 5   0  0.5072407E-03  0.7026636E+03  0.7818609E-02  0.9712688E-01
        2   -1    0    0  501    0  0.00000000000E+00  0.00000000000E+00  0.13410533433E+04  0.13410533433E+04  0.25500000920E-02 0. -1.
       -2   -1    0    0    0  501  0.00000000000E+00  0.00000000000E+00 -0.92042596705E+02  0.92042596740E+02  0.25500000920E-02 0.  1.
    10030    2    1    2    0    0  0.00000000000E+00  0.00000000000E+00  0.12490107466E+04  0.14330959400E+04  0.70266359536E+03 0.  0.
        1    1    3    3  502    0  0.56477635573E+02 -0.16930268703E+03  0.12417115828E+04  0.12544723106E+04  0.50400001928E-02 0. -1.
       -1    1    3    3    0  502 -0.56477635573E+02  0.16930268703E+03  0.72991637245E+01  0.17862362938E+03  0.50400001928E-02 0.  1.
</event>
<event>
 5   0  0.2934483E-03  0.6985976E+03  0.7818609E-02  0.9719633E-01
       -1   -1    0    0    0  501  0.00000000000E+00  0.00000000000E+00  0.31797163264E+03  0.31797163268E+03  0.50400001928E-02 0.  1.
        1   -1    0    0  501    0  0.00000000000E+00  0.00000000000E+00 -0.38371237558E+03  0.38371237561E+03  0.50400001928E-02 0. -1.
    10030    2    1    2    0    0  0.00000000000E+00  0.00000000000E+00 -0.65740742942E+02  0.70168400829E+03  0.69859759676E+03 0.  0.
        5    1    3    3  502    0  0.13702156807E+03  0.30977015531E+03 -0.11842356634E+03  0.35885747909E+03  0.46999998093E+01 0. -1.
       -5    1    3    3    0  502 -0.13702156807E+03 -0.30977015531E+03  0.52682823399E+02  0.34282652919E+03  0.46999998093E+01 0.  1.
</event>
<event>
 5   0  0.2938783E-03  0.6997015E+03  0.7818609E-02  0.9717743E-01
       -1   -1    0    0    0  501  0.00000000000E+00  0.00000000000E+00  0.40428334005E+03  0.40428334009E+03  0.50400001928E-02 0.  1.
        1   -1    0    0  501    0  0.00000000000E+00  0.00000000000E+00 -0.30274692332E+03  0.30274692337E+03  0.50400001928E-02 0. -1.
    10030    2    1    2    0    0  0.00000000000E+00  0.00000000000E+00  0.10153641673E+03  0.70703026345E+03  0.69970147171E+03 0.  0.
        4    1    3    3  502    0  0.17963631500E+03  0.29882924868E+03  0.21730497356E+02  0.34934503424E+03  0.12699999809E+01 0.  1.
       -4    1    3    3    0  502 -0.17963631500E+03 -0.29882924868E+03  0.79805919375E+02  0.35768522921E+03  0.12699999809E+01 0. -1.
</event>
<event>
 5   0  0.5113683E-03  0.7108546E+03  0.7818609E-02  0.9698847E-01
       -2   -1    0    0    0  501  0.00000000000E+00  0.00000000000E+00  0.14231270400E+04  0.14231270400E+04  0.25500000920E-02 0.  1.
        2   -1    0    0  501    0  0.00000000000E+00  0.00000000000E+00 -0.88768287782E+02  0.88768287819E+02  0.25500000920E-02 0. -1.
    10030    2    1    2    0    0  0.00000000000E+00  0.00000000000E+00  0.13343587522E+04  0.15118953278E+04  0.71085455802E+03 0.  0.
        3    1    3    3  502    0 -0.75536449040E+02 -0.23536309610E+03  0.12103730070E+04  0.12353559683E+04  0.10100000352E+00 0.  1.
       -3    1    3    3    0  502  0.75536449040E+02  0.23536309610E+03  0.12398574520E+03  0.27653935951E+03  0.10100000352E+00 0. -1.
</event>
<event>
 5   0  0.2934483E-03  0.6985659E+03  0.7818609E-02  0.9719688E-01
       -1   -1    0    0    0  501  0.00000000000E+00  0.00000000000E+00  0.16498137474E+03  0.16498137482E+03  0.50400001928E-02 0. -1.
        1   -1    0    0  501    0  0.00000000000E+00  0.00000000000E+00 -0.73946870181E+03  0.73946870183E+03  0.50400001928E-02 0.  1.
    10030    2    1    2    0    0  0.00000000000E+00  0.00000000000E+00 -0.57448732707E+03  0.90445007664E+03  0.69856585386E+03 0.  0.
        5    1    3    3  502    0 -0.28115023674E+03  0.96899974599E+02 -0.52436351783E+03  0.60283849373E+03  0.46999998093E+01 0.  1.
       -5    1    3    3    0  502  0.28115023674E+03 -0.96899974599E+02 -0.50123809240E+02  0.30161158291E+03  0.46999998093E+01 0. -1.
</event>
<event>
 5   0  0.2937617E-03  0.7032641E+03  0.7818609E-02  0.9711666E-01
       -1   -1    0    0    0  501  0.00000000000E+00  0.00000000000E+00  0.35276305177E+03  0.35276305181E+03  0.50400001928E-02 0. -1.
        1   -1    0    0  501    0  0.00000000000E+00  0.00000000000E+00 -0.35050470931E+03  0.35050470935E+03  0.50400001928E-02 0.  1.
    10030    2    1    2    0    0  0.00000000000E+00  0.00000000000E+00  0.22583424595E+01  0.70326776116E+03  0.70326413514E+03 0.  0.
        3    1    3    3  502    0  0.10980481231E+03  0.32880352215E+03  0.60089188228E+02  0.35182321374E+03  0.10100000352E+00 0.  1.
       -3    1    3    3    0  502 -0.10980481231E+03 -0.32880352215E+03 -0.57830845769E+02  0.35144454742E+03  0.10100000352E+00 0. -1.
</event>
<event>
 5   0  0.3013140E-03  0.7008280E+03  0.7818609E-02  0.9715817E-01
        1   -1    0    0  501    0  0.00000000000E+00  0.00000000000E+00  0.12962186453E+04  0.12962186453E+04  0.50400001928E-02 0.  1.
       -1   -1    0    0    0  501  0.00000000000E+00  0.00000000000E+00 -0.94729378945E+02  0.94729379080E+02  0.50400001928E-02 0. -1.
    10030    2    1    2    0    0  0.00000000000E+00  0.00000000000E+00  0.12014892663E+04  0.13909480244E+04  0.70082804552E+03 0.  0.
        2    1    3    3  502    0 -0.75091661034E+02  0.31383814435E+03  0.87183780352E+03  0.92964202468E+03  0.25500000920E-02 0.  1.
       -2    1    3    3    0  502  0.75091661034E+02 -0.31383814435E+03  0.32965146283E+03  0.46130599970E+03  0.25500000920E-02 0. -1.
</event>
<event>
 5   0  0.5023894E-03  0.6993121E+03  0.7818609E-02  0.9718409E-01
       -2   -1    0    0    0  501  0.00000000000E+00  0.00000000000E+00  0.64204353490E+03  0.64204353490E+03  0.25500000920E-02 0. -1.
        2   -1    0    0  501    0  0.00000000000E+00  0.00000000000E+00 -0.19042221541E+03  0.19042221543E+03  0.25500000920E-02 0.  1.
    10030    2    1    2    0    0  0.00000000000E+00  0.00000000000E+00  0.45162131949E+03  0.83246575033E+03  0.69931209718E+03 0.  0.
        2    1    3    3  502    0  0.30645064763E+03  0.13633209789E+03  0.10820166673E+03  0.35242877442E+03  0.25500000920E-02 0.  1.
       -2    1    3    3    0  502 -0.30645064763E+03 -0.13633209789E+03  0.34341965275E+03  0.48003697592E+03  0.25500000920E-02 0. -1.
</event>
<event>
 5   0  0.3013140E-03  0.6979803E+03  0.7818609E-02  0.9720692E-01
       -1   -1    0    0    0  501  0.00000000000E+00  0.00000000000E+00  0.59263995492E+03  0.59263995494E+03  0.50400001928E-02 0.  1.
        1   -1    0    0  501    0  0.00000000000E+00  0.00000000000E+00 -0.20551115385E+03  0.20551115391E+03  0.50400001928E-02 0. -1.
    10030    2    1    2    0    0  0.00000000000E+00  0.00000000000E+00  0.38712880108E+03  0.79815110885E+03  0.69798028908E+03 0.  0.
        2    1    3    3  502    0 -0.17141526972E+03  0.77446586180E+02 -0.14258426013E+03  0.23603270885E+03  0.25500000920E-02 0. -1.
       -2    1    3    3    0  502  0.17141526972E+03 -0.77446586180E+02  0.52971306121E+03  0.56211840000E+03  0.25500000920E-02 0.  1.
</event>
<event>
 5   0  0.3013140E-03  0.6993746E+03  0.7818609E-02  0.9718302E-01
        1   -1    0    0  501    0  0.00000000000E+00  0.00000000000E+00  0.81411017768E+03  0.81411017769E+03  0.50400001928E-02 0. -1.
       -1   -1    0    0    0  501  0.00000000000E+00  0.00000000000E+00 -0.15020226331E+03  0.15020226340E+03  0.50400001928E-02 0.  1.
    10030    2    1    2    0    0  0.00000000000E+00  0.00000000000E+00  0.66390791436E+03  0.96431244109E+03  0.69937455293E+03 0.  0.
        2    1    3    3  502    0  0.15796905967E+03 -0.31144675228E+03  0.30698670747E+03  0.46496681805E+03  0.25500000920E-02 0.  1.
       -2    1    3    3    0  502 -0.15796905967E+03  0.31144675228E+03  0.35692120689E+03  0.49934562304E+03  0.25500000920E-02 0. -1.
</event>
<event>
 5   0  0.2937617E-03  0.7017632E+03  0.7818609E-02  0.9714222E-01
        1   -1    0    0  501    0  0.00000000000E+00  0.00000000000E+00  0.13390733813E+04  0.13390733814E+04  0.50400001928E-02 0.  1.
       -1   -1    0    0    0  501  0.00000000000E+00  0.00000000000E+00 -0.91942597502E+02  0.91942597640E+02  0.50400001928E-02 0. -1.
    10030    2    1    2    0    0  0.00000000000E+00  0.00000000000E+00  0.12471307838E+04  0.14310159790E+04  0.70176316527E+03 0.  0.
        3    1    3    3  502    0 -0.16500728008E+03 -0.11034444609E+03  0.33562073645E+02  0.20131994996E+03  0.10100000352E+00 0. -1.
       -3    1    3    3    0  502  0.16500728008E+03  0.11034444609E+03  0.12135687102E+04  0.12296960290E+04  0.10100000352E+00 0.  1.
</event>
<event>
 5   0  0.5072407E-03  0.7031739E+03  0.7818609E-02  0.9711820E-01
        2   -1    0    0  501    0  0.00000000000E+00  0.00000000000E+00  0.59221081034E+03  0.59221081034E+03  0.25500000920E-02 0.  1.
       -2   -1    0    0    0  501  0.00000000000E+00  0.00000000000E+00 -0.20873208687E+03  0.20873208689E+03  0.25500000920E-02 0. -1.
    10030    2    1    2    0    0  0.00000000000E+00  0.00000000000E+00  0.38347872347E+03  0.80094289723E+03  0.70317394240E+03 0.  0.
        1    1    3    3  502    0  0.38996745736E+02 -0.28225207206E+03  0.42635501205E+03  0.51280169138E+03  0.50400001928E-02 0.  1.
       -1    1    3    3    0  502 -0.38996745736E+02  0.28225207206E+03 -0.42876288585E+02  0.28814120585E+03  0.50400001928E-02 0. -1.
</event>
<event>
 5   0  0.1981750E-03  0.6986161E+03  0.7818609E-02  0.9719602E-01
       -3   -1    0    0    0  501  0.00000000000E+00  0.00000000000E+00  0.10290870855E+04  0.10290870905E+04  0.10100000352E+00 0. -1.
        3   -1    0    0  501    0  0.00000000000E+00  0.00000000000E+00 -0.11856731238E+03  0.11856735540E+03  0.10100000352E+00 0.  1.
    10030    2    1    2    0    0  0.00000000000E+00  0.00000000000E+00  0.91051977316E+03  0.11476544459E+04  0.69861611052E+03 0.  0.
        1    1    3    3  502    0  0.23649921524E+03 -0.11263716101E+03  0.75655329496E+02  0.27265864695E+03  0.50400001928E-02 0.  1.
       -1    1    3    3    0  502 -0.23649921524E+03  0.11263716101E+03  0.83486444366E+03  0.87499579895E+03  0.50400001928E-02 0. -1.
</event>
<event>
 5   0  0.4878235E-03  0.6985305E+03  0.7818609E-02  0.9719749E-01
       -2   -1    0    0    0  501  0.00000000000E+00  0.00000000000E+00  0.10073937610E+03  0.10073937613E+03  0.25500000920E-02 0.  1.
        2   -1    0    0  501    0  0.00000000000E+00  0.00000000000E+00 -0.12109088127E+04  0.12109088127E+04  0.25500000920E-02 0. -1.
    10030    2    1    2    0    0  0.00000000000E+00  0.00000000000E+00 -0.11101694366E+04  0.13116481889E+04  0.69853045267E+03 0.  0.
        4    1    3    3  502    0 -0.26209812549E+03 -0.21337475756E+03 -0.72049909716E+03  0.79582961522E+03  0.12699999809E+01 0.  1.
       -4    1    3    3    0  502  0.26209812549E+03  0.21337475756E+03 -0.38967033947E+03  0.51581857364E+03  0.12699999809E+01 0. -1.
</event>
<event>
 5   0  0.2913582E-03  0.7011061E+03  0.7818609E-02  0.9715343E-01
        1   -1    0    0  501    0  0.00000000000E+00  0.00000000000E+00  0.87358871658E+03  0.87358871660E+03  0.50400001928E-02 0. -1.
       -1   -1    0    0    0  501  0.00000000000E+00  0.00000000000E+00 -0.14066967134E+03  0.14066967143E+03  0.50400001928E-02 0.  1.
    10030    2    1    2    0    0  0.00000000000E+00  0.00000000000E+00  0.73291904524E+03  0.10142583880E+04  0.70110609097E+03 0.  0.
        1    1    3    3  502    0 -0.24298415938E+03 -0.16900155460E+03  0.63820200090E+03  0.70349457791E+03  0.50400001928E-02 0. -1.
       -1    1    3    3    0  502  0.24298415938E+03  0.16900155460E+03  0.94717044343E+02  0.31076381012E+03  0.50400001928E-02 0.  1.
</event>
<event>
 5   0  0.5072407E-03  0.6988752E+03  0.7818609E-02  0.9719158E-01
        2   -1    0    0  501    0  0.00000000000E+00  0.00000000000E+00  0.90551026520E+03  0.90551026521E+03  0.25500000920E-02 0. -1.
       -2   -1    0    0    0  501  0.00000000000E+00  0.00000000000E+00 -0.13484843213E+03  0.13484843215E+03  0.25500000920E-02 0.  1.
    10030    2    1    2    0    0  0.00000000000E+00  0.00000000000E+00  0.77066183308E+03  0.10403586974E+04  0.69887520932E+03 0.  0.
        1    1    3    3  502    0 -0.83504236243E+02  0.33328888744E+03  0.48009175172E+03  0.59037490635E+03  0.50400001928E-02 0. -1.
       -1    1    3    3    0  502  0.83504236243E+02 -0.33328888744E+03  0.29057008136E+03  0.44998379101E+03  0.50400001928E-02 0.  1.
</event>
<event>
 5   0  0.1981750E-03  0.6999127E+03  0.7818609E-02  0.9717381E-01
        3   -1    0    0  501    0  0.00000000000E+00  0.00000000000E+00  0.99685497472E+03  0.99685497983E+03  0.10100000352E+00 0.  1.
       -3   -1    0    0    0  501  0.00000000000E+00  0.00000000000E+00 -0.12285582222E+03  0.12285586374E+03  0.10100000352E+00 0. -1.
    10030    2    1    2    0    0  0.00000000000E+00  0.00000000000E+00  0.87399915249E+03  0.11197108436E+04  0.69991274788E+03 0.  0.
        5    1    3    3  502    0  0.11435868870E+03 -0.16482038312E+03  0.89567733022E+03  0.91787996941E+03  0.46999998093E+01 0.  1.
       -5    1    3    3    0  502 -0.11435868870E+03  0.16482038312E+03 -0.21678177730E+02  0.20183087416E+03  0.46999998093E+01 0. -1.
</event>
<event>
 5   0  0.4878235E-03  0.7004603E+03  0.7818609E-02  0.9716445E-01
        2   -1    0    0  501    0  0.00000000000E+00  0.00000000000E+00  0.44465045851E+03  0.44465045852E+03  0.25500000920E-02 0.  1.
       -2   -1    0    0    0  501  0.00000000000E+00  0.00000000000E+00 -0.27585970328E+03  0.27585970329E+03  0.25500000920E-02 0. -1.
    10030    2    1    2    0    0  0.00000000000E+00  0.00000000000E+00  0.16879075523E+03  0.72051016181E+03  0.70046025885E+03 0.  0.
        4    1    3    3  502    0 -0.11612782074E+03 -0.10049913526E+03 -0.23937415978E+03  0.28440701153E+03  0.12699999809E+01 0. -1.
       -4    1    3    3    0  502  0.11612782074E+03  0.10049913526E+03  0.40816491501E+03  0.43610315028E+03  0.12699999809E+01 0.  1.
</event>
<event>
 5   0  0.5076796E-03  0.7000622E+03  0.7818609E-02  0.9717126E-01
       -2   -1    0    0    0  501  0.00000000000E+00  0.00000000000E+00  0.75386743856E+02  0.75386743899E+02  0.25500000920E-02 0.  1.
        2   -1    0    0  501    0  0.00000000000E+00  0.00000000000E+00 -0.16252429193E+04  0.16252429193E+04  0.25500000920E-02 0. -1.
    10030    2    1    2    0    0  0.00000000000E+00  0.00000000000E+00 -0.15498561754E+04  0.17006296632E+04  0.70006220208E+03 0.  0.
        5    1    3    3  502    0  0.27236787134E+03  0.19168784175E+02 -0.24299342992E+03  0.36554014363E+03  0.46999998093E+01 0.  1.
       -5    1    3    3    0  502 -0.27236787134E+03 -0.19168784175E+02 -0.13068627455E+04  0.13350895195E+04  0.46999998093E+01 0. -1.
</event>
<event>
 5   0  0.5072407E-03  0.7000981E+03  0.7818609E-02  0.9717065E-01
        2   -1    0    0  501    0  0.00000000000E+00  0.00000000000E+00  0.22174349499E+03  0.22174349500E+03  0.25500000920E-02 0. -1.
       -2   -1    0    0    0  501  0.00000000000E+00  0.00000000000E+00 -0.55259489041E+03  0.55259489041E+03  0.25500000920E-02 0.  1.
    10030    2    1    2    0    0  0.00000000000E+00  0.00000000000E+00 -0.33085139542E+03  0.77433838542E+03  0.70009805690E+03 0.  0.
        1    1    3    3  502    0 -0.14659879025E+03  0.16786484615E+03 -0.46398454266E+03  0.51473436619E+03  0.50400001928E-02 0.  1.
       -1    1    3    3    0  502  0.14659879025E+03 -0.16786484615E+03  0.13313314725E+03  0.25960401923E+03  0.50400001928E-02 0. -1.
</event>
<event>
 5   0  0.5076796E-03  0.6999444E+03  0.7818609E-02  0.9717327E-01
       -2   -1    0    0    0  501  0.00000000000E+00  0.00000000000E+00  0.11879436094E+03  0.11879436097E+03  0.25500000920E-02 0. -1.
        2   -1    0    0  501    0  0.00000000000E+00  0.00000000000E+00 -0.10310298347E+04  0.10310298347E+04  0.25500000920E-02 0.  1.
    10030    2    1    2    0    0  0.00000000000E+00  0.00000000000E+00 -0.91223547376E+03  0.11498241957E+04  0.69994437019E+03 0.  0.
        5    1    3    3  502    0 -0.30941351612E+03 -0.15999139289E+03 -0.51120382955E+03  0.61861572491E+03  0.46999998093E+01 0. -1.
       -5    1    3    3    0  502  0.30941351612E+03  0.15999139289E+03 -0.40103164421E+03  0.53120847076E+03  0.46999998093E+01 0.  1.
</event>
<event>
 5   0  0.5072407E-03  0.6996881E+03  0.7818609E-02  0.9717766E-01
        2   -1    0    0  501    0  0.00000000000E+00  0.00000000000E+00  0.58538734792E+03  0.58538734793E+03  0.25500000920E-02 0.  1.
       -2   -1    0    0    0  501  0.00000000000E+00  0.00000000000E+00 -0.20907671666E+03  0.20907671667E+03  0.25500000920E-02 0. -1.
    10030    2    1    2    0    0  0.00000000000E+00  0.00000000000E+00  0.37631063127E+03  0.79446406460E+03  0.69968811533E+03 0.  0.
        1    1    3    3  502    0 -0.19138186409E+03  0.23124584508E+02 -0.14332955599E+03  0.24021891257E+03  0.50400001928E-02 0. -1.
       -1    1    3    3    0  502  0.19138186409E+03 -0.23124584508E+02  0.51964018726E+03  0.55424515203E+03  0.50400001928E-02 0.  1.
</event>
<event>
 5   0  0.2938783E-03  0.6996011E+03  0.7818609E-02  0.9717915E-01
       -1   -1    0    0    0  501  0.00000000000E+00  0.00000000000E+00  0.17151255040E+03  0.17151255048E+03  0.50400001928E-02 0. -1.
        1   -1    0    0  501    0  0.00000000000E+00  0.00000000000E+00 -0.71341964343E+03  0.71341964345E+03  0.50400001928E-02 0.  1.
    10030    2    1    2    0    0  0.00000000000E+00  0.00000000000E+00 -0.54190709303E+03  0.88493219393E+03  0.69960109375E+03 0.  0.
        4    1    3    3  502    0 -0.12252045937E+03 -0.15616187839E+02 -0.68491672673E+03  0.69596527481E+03  0.12699999809E+01 0.  1.
       -4    1    3    3    0  502  0.12252045937E+03  0.15616187839E+02  0.14300963371E+03  0.18896691911E+03  0.12699999809E+01 0. -1.
</event>
<event>
 5   0  0.2937617E-03  0.7030863E+03  0.7818609E-02  0.9711969E-01
       -1   -1    0    0    0  501  0.00000000000E+00  0.00000000000E+00  0.17455868638E+03  0.17455868645E+03  0.50400001928E-02 0. -1.
        1   -1    0    0  501    0  0.00000000000E+00  0.00000000000E+00 -0.70797156121E+03  0.70797156123E+03  0.50400001928E-02 0.  1.
    10030    2    1    2    0    0  0.00000000000E+00  0.00000000000E+00 -0.53341287483E+03  0.88253024768E+03  0.70308629842E+03 0.  0.
        3    1    3    3  502    0  0.30984375531E+03  0.54867283548E+02 -0.46345643721E+03  0.56018340827E+03  0.10100000352E+00 0.  1.
       -3    1    3    3    0  502 -0.30984375531E+03 -0.54867283548E+02 -0.69956437616E+02  0.32234683940E+03  0.10100000352E+00 0. -1.
</event>
<event>
 5   0  0.5072407E-03  0.6982497E+03  0.7818609E-02  0.9720230E-01
        2   -1    0    0  501    0  0.00000000000E+00  0.00000000000E+00  0.13982396023E+04  0.13982396023E+04  0.25500000920E-02 0.  1.
       -2   -1    0    0    0  501  0.00000000000E+00  0.00000000000E+00 -0.87172590267E+02  0.87172590304E+02  0.25500000920E-02 0. -1.
    10030    2    1    2    0    0  0.00000000000E+00  0.00000000000E+00  0.13110670120E+04  0.14854121926E+04  0.69824972029E+03 0.  0.
        1    1    3    3  502    0  0.22247749266E+03  0.26893368114E+03  0.63817147344E+03  0.72738187297E+03  0.50400001928E-02 0.  1.
       -1    1    3    3    0  502 -0.22247749266E+03 -0.26893368114E+03  0.67289553856E+03  0.75803031960E+03  0.50400001928E-02 0. -1.
</event>
<event>
 5   0  0.3013140E-03  0.7004288E+03  0.7818609E-02  0.9716499E-01
       -1   -1    0    0    0  501  0.00000000000E+00  0.00000000000E+00  0.28838577177E+03  0.28838577182E+03  0.50400001928E-02 0.  1.
        1   -1    0    0  501    0  0.00000000000E+00  0.00000000000E+00 -0.42529880691E+03  0.42529880694E+03  0.50400001928E-02 0. -1.
    10030    2    1    2    0    0  0.00000000000E+00  0.00000000000E+00 -0.13691303514E+03  0.71368457876E+03  0.70042879636E+03 0.  0.
        2    1    3    3  502    0  0.31471642233E+02 -0.23985535379E+03 -0.32648627243E+03  0.40634264002E+03  0.25500000920E-02 0. -1.
       -2    1    3    3    0  502 -0.31471642233E+02  0.23985535379E+03  0.18957323729E+03  0.30734193874E+03  0.25500000920E-02 0.  1.
</event>
<event>
 5   0  0.5023894E-03  0.6992247E+03  0.7818609E-02  0.9718559E-01
        2   -1    0    0  501    0  0.00000000000E+00  0.00000000000E+00  0.14701869190E+04  0.14701869190E+04  0.25500000920E-02 0.  1.
       -2   -1    0    0    0  501  0.00000000000E+00  0.00000000000E+00 -0.83138278765E+02  0.83138278804E+02  0.25500000920E-02 0. -1.
    10030    2    1    2    0    0  0.00000000000E+00  0.00000000000E+00  0.13870486402E+04  0.15533251978E+04  0.69922474195E+03 0.  0.
        2    1    3    3  502    0 -0.21133297538E+03  0.67843953393E+02  0.12935931283E+04  0.13124967086E+04  0.25500000920E-02 0.  1.
       -2    1    3    3    0  502  0.21133297538E+03 -0.67843953393E+02  0.93455511941E+02  0.24082848921E+03  0.25500000920E-02 0. -1.
</event>
<event>
 5   0  0.2938783E-03  0.7017374E+03  0.7818609E-02  0.9714266E-01
        1   -1    0    0  501    0  0.00000000000E+00  0.00000000000E+00  0.19603441532E+03  0.19603441539E+03  0.50400001928E-02 0.  1.
       -1   -1    0    0    0  501  0.00000000000E+00  0.00000000000E+00 -0.62799602991E+03  0.62799602993E+03  0.50400001928E-02 0. -1.
    10030    2    1    2    0    0  0.00000000000E+00  0.00000000000E+00 -0.43196161458E+03  0.82403044532E+03  0.70173737134E+03 0.  0.
        4    1    3    3  502    0  0.32721595904E+03  0.10122188632E+03 -0.30534179658E+03  0.45885877975E+03  0.12699999809E+01 0.  1.
       -4    1    3    3    0  502 -0.32721595904E+03 -0.10122188632E+03 -0.12661981801E+03  0.36517166556E+03  0.12699999809E+01 0. -1.
</event>
<event>
 5   0  0.5076796E-03  0.7003190E+03  0.7818609E-02  0.9716687E-01
       -2   -1    0    0    0  501  0.00000000000E+00  0.00000000000E+00  0.11806952999E+03  0.11806953001E+03  0.25500000920E-02 0.  1.
        2   -1    0    0  501    0  0.00000000000E+00  0.00000000000E+00 -0.10384699518E+04  0.10384699518E+04  0.25500000920E-02 0. -1.
    10030    2    1    2    0    0  0.00000000000E+00  0.00000000000E+00 -0.92040042183E+03  0.11565394818E+04  0.70031895343E+03 0.  0.
        5    1    3    3  502    0 -0.29568396642E+03  0.18245610088E+03 -0.53162089084E+03  0.63510794226E+03  0.46999998093E+01 0. -1.
       -5    1    3    3    0  502  0.29568396642E+03 -0.18245610088E+03 -0.38877953099E+03  0.52143153957E+03  0.46999998093E+01 0.  1.
</event>
<event>
 5   0  0.2938783E-03  0.7007656E+03  0.7818609E-02  0.9715924E-01
        1   -1    0    0  501    0  0.00000000000E+00  0.00000000000E+00  0.26805944265E+03  0.26805944270E+03  0.50400001928E-02 0.  1.
       -1   -1    0    0    0  501  0.00000000000E+00  0.00000000000E+00 -0.45798833223E+03  0.45798833225E+03  0.50400001928E-02 0. -1.
    10030    2    1    2    0    0  0.00000000000E+00  0.00000000000E+00 -0.18992888958E+03  0.72604777495E+03  0.70076557308E+03 0.  0.
        4    1    3    3  502    0  0.28563558986E+03  0.12729087648E+03 -0.25870353680E+03  0.40585685935E+03  0.12699999809E+01 0. -1.
       -4    1    3    3    0  502 -0.28563558986E+03 -0.12729087648E+03  0.68774647222E+02  0.32019091560E+03  0.12699999809E+01 0.  1.
</event>
<event>
 5   0  0.5072407E-03  0.6994524E+03  0.7818609E-02  0.9718169E-01
        2   -1    0    0  501    0  0.00000000000E+00  0.00000000000E+00  0.33316027673E+03  0.33316027674E+03  0.25500000920E-02 0.  1.
       -2   -1    0    0    0  501  0.00000000000E+00  0.00000000000E+00 -0.36711581860E+03  0.36711581861E+03  0.25500000920E-02 0. -1.
    10030    2    1    2    0    0  0.00000000000E+00  0.00000000000E+00 -0.33955541868E+02  0.70027609535E+03  0.69945237930E+03 0.  0.
        1    1    3    3  502    0 -0.33144160932E+03 -0.63240156513E+02  0.75084583699E+02  0.34567405532E+03  0.50400001928E-02 0.  1.
       -1    1    3    3    0  502  0.33144160932E+03  0.63240156513E+02 -0.10904012557E+03  0.35460204003E+03  0.50400001928E-02 0. -1.
</event>
<event>
 5   0  0.3013140E-03  0.7023980E+03  0.7818609E-02  0.9713140E-01
        1   -1    0    0  501    0  0.00000000000E+00  0.00000000000E+00  0.52298798320E+03  0.52298798323E+03  0.50400001928E-02 0.  1.
       -1   -1    0    0    0  501  0.00000000000E+00  0.00000000000E+00 -0.23583856503E+03  0.23583856508E+03  0.50400001928E-02 0. -1.
    10030    2    1    2    0    0  0.00000000000E+00  0.00000000000E+00  0.28714941817E+03  0.75882654831E+03  0.70239799406E+03 0.  0.
        2    1    3    3  502    0 -0.62577280892E+02  0.13825407788E+03  0.48573746224E+03  0.50889192208E+03  0.25500000920E-02 0.  1.
       -2    1    3    3    0  502  0.62577280892E+02 -0.13825407788E+03 -0.19858804406E+03  0.24993462623E+03  0.25500000920E-02 0. -1.
</event>
<event>
 5   0  0.3013140E-03  0.6995010E+03  0.7818609E-02  0.9718086E-01
       -1   -1    0    0    0  501  0.00000000000E+00  0.00000000000E+00  0.67588615688E+03  0.67588615689E+03  0.50400001928E-02 0.  1.
        1   -1    0    0  501    0  0.00000000000E+00  0.00000000000E+00 -0.18098523287E+03  0.18098523294E+03  0.50400001928E-02 0. -1.
    10030    2    1    2    0    0  0.00000000000E+00  0.00000000000E+00  0.49490092400E+03  0.85687138984E+03  0.69950100368E+03 0.  0.
        2    1    3    3  502    0 -0.33101164053E+03  0.11118534139E+03  0.27178178865E+03  0.44248867438E+03  0.25500000920E-02 0. -1.
       -2    1    3    3    0  502  0.33101164053E+03 -0.11118534139E+03  0.22311913535E+03  0.41438271546E+03  0.25500000920E-02 0.  1.
</event>
<event>
 5   0  0.2937617E-03  0.7025239E+03  0.7818609E-02  0.9712926E-01
       -1   -1    0    0    0  501  0.00000000000E+00  0.00000000000E+00  0.23437012223E+03  0.23437012229E+03  0.50400001928E-02 0. -1.
        1   -1    0    0  501    0  0.00000000000E+00  0.00000000000E+00 -0.52645338527E+03  0.52645338529E+03  0.50400001928E-02 0.  1.
    10030    2    1    2    0    0  0.00000000000E+00  0.00000000000E+00 -0.29208326303E+03  0.76082350758E+03  0.70252386233E+03 0.  0.
        3    1    3    3  502    0 -0.25199274089E+03  0.23826170806E+03 -0.20649467346E+03  0.40361992438E+03  0.10100000352E+00 0. -1.
       -3    1    3    3    0  502  0.25199274089E+03 -0.23826170806E+03 -0.85588589572E+02  0.35720358320E+03  0.10100000352E+00 0.  1.
</event>
<event>
 5   0  0.2934483E-03  0.6991037E+03  0.7818609E-02  0.9718766E-01
        1   -1    0    0  501    0  0.00000000000E+00  0.00000000000E+00  0.25517157295E+03  0.25517157300E+03  0.50400001928E-02 0. -1.
       -1   -1    0    0    0  501  0.00000000000E+00  0.00000000000E+00 -0.47884058962E+03  0.47884058965E+03  0.50400001928E-02 0.  1.
    10030    2    1    2    0    0  0.00000000000E+00  0.00000000000E+00 -0.22366901667E+03  0.73401216265E+03  0.69910373042E+03 0.  0.
        5    1    3    3  502    0 -0.28528062208E+03 -0.72086442525E+02 -0.30988798812E+03  0.42735716176E+03  0.46999998093E+01 0.  1.
       -5    1    3    3    0  502  0.28528062208E+03  0.72086442525E+02  0.86218971446E+02  0.30665500088E+03  0.46999998093E+01 0. -1.
</event>
<event>
 5   0  0.2938783E-03  0.7035684E+03  0.7818609E-02  0.9711149E-01
       -1   -1    0    0    0  501  0.00000000000E+00  0.00000000000E+00  0.18571057397E+03  0.18571057403E+03  0.50400001928E-02 0.  1.
        1   -1    0    0  501    0  0.00000000000E+00  0.00000000000E+00 -0.66637088540E+03  0.66637088542E+03  0.50400001928E-02 0. -1.
    10030    2    1    2    0    0  0.00000000000E+00  0.00000000000E+00 -0.48066031143E+03  0.85208145945E+03  0.70356838939E+03 0.  0.
        4    1    3    3  502    0 -0.94718516700E+02  0.27772774108E+03 -0.53477023975E+01  0.29348680787E+03  0.12699999809E+01 0.  1.
       -4    1    3    3    0  502  0.94718516700E+02 -0.27772774108E+03 -0.47531260903E+03  0.55859465158E+03  0.12699999809E+01 0. -1.
</event>
<event>
 5   0  0.4878235E-03  0.7007194E+03  0.7818609E-02  0.9716003E-01
       -2   -1    0    0    0  501  0.00000000000E+00  0.00000000000E+00  0.82795465464E+02  0.82795465504E+02  0.25500000920E-02 0. -1.
        2   -1    0    0  501    0  0.00000000000E+00  0.00000000000E+00 -0.14825924136E+04  0.14825924136E+04  0.25500000920E-02 0.  1.
    10030    2    1    2    0    0  0.00000000000E+00  0.00000000000E+00 -0.13997969481E+04  0.15653878791E+04  0.70071942748E+03 0.  0.
        4    1    3    3  502    0 -0.18990315708E+01  0.25627685647E+03 -0.16622269476E+03  0.30547181643E+03  0.12699999809E+01 0. -1.
       -4    1    3    3    0  502  0.18990315708E+01 -0.25627685647E+03 -0.12335742534E+04  0.12599160627E+04  0.12699999809E+01 0.  1.
</event>
<event>
 5   0  0.5072407E-03  0.7007901E+03  0.7818609E-02  0.9715882E-01
        2   -1    0    0  501    0  0.00000000000E+00  0.00000000000E+00  0.17835654127E+04  0.17835654127E+04  0.25500000920E-02 0.  1.
       -2   -1    0    0    0  501  0.00000000000E+00  0.00000000000E+00 -0.68837786870E+02  0.68837786917E+02  0.25500000920E-02 0. -1.
    10030    2    1    2    0    0  0.00000000000E+00  0.00000000000E+00  0.17147276259E+04  0.18524031997E+04  0.70079011351E+03 0.  0.
        1    1    3    3  502    0 -0.32763104665E+03 -0.10100984023E+03  0.10485537536E+04  0.11031817913E+04  0.50400001928E-02 0. -1.
       -1    1    3    3    0  502  0.32763104665E+03  0.10100984023E+03  0.66617387228E+03  0.74922140832E+03  0.50400001928E-02 0.  1.
</event>
<event>
 5   0  0.5076796E-03  0.6998486E+03  0.7818609E-02  0.9717491E-01
        2   -1    0    0  501    0  0.00000000000E+00  0.00000000000E+00  0.31894074746E+03  0.31894074747E+03  0.25500000920E-02 0.  1.
       -2   -1    0    0    0  501  0.00000000000E+00  0.00000000000E+00 -0.38391779695E+03  0.38391779696E+03  0.25500000920E-02 0. -1.
    10030    2    1    2    0    0  0.00000000000E+00  0.00000000000E+00 -0.64977049491E+02  0.70285854443E+03  0.69984863829E+03 0.  0.
        5    1    3    3  502    0 -0.15824488308E+03  0.26960327479E+03  0.12534197160E+03  0.33683834200E+03  0.46999998093E+01 0. -1.
       -5    1    3    3    0  502  0.15824488308E+03 -0.26960327479E+03 -0.19031902109E+03  0.36602020243E+03  0.46999998093E+01 0.  1.
</event>
<event>
 5   0  0.5023894E-03  0.6997937E+03  0.7818609E-02  0.9717585E-01
        2   -1    0    0  501    0  0.00000000000E+00  0.00000000000E+00  0.22541711659E+04  0.22541711659E+04  0.25500000920E-02 0.  1.
       -2   -1    0    0    0  501  0.00000000000E+00  0.00000000000E+00 -0.54311671776E+02  0.54311671836E+02  0.25500000920E-02 0. -1.
    10030    2    1    2    0    0  0.00000000000E+00  0.00000000000E+00  0.21998594942E+04  0.23084828378E+04  0.69979369692E+03 0.  0.
        2    1    3    3  502    0 -0.26248348722E+03 -0.22196613466E+03  0.88458932158E+03  0.94903362104E+03  0.25500000920E-02 0. -1.
       -2    1    3    3    0  502  0.26248348722E+03  0.22196613466E+03  0.13152701726E+04  0.13594492167E+04  0.25500000920E-02 0.  1.
</event>
<event>
 5   0  0.3013140E-03  0.6995423E+03  0.7818609E-02  0.9718015E-01
       -1   -1    0    0    0  501  0.00000000000E+00  0.00000000000E+00  0.56500766534E+03  0.56500766537E+03  0.50400001928E-02 0. -1.
        1   -1    0    0  501    0  0.00000000000E+00  0.00000000000E+00 -0.21652776787E+03  0.21652776792E+03  0.50400001928E-02 0.  1.
    10030    2    1    2    0    0  0.00000000000E+00  0.00000000000E+00  0.34847989748E+03  0.78153543329E+03  0.69954227502E+03 0.  0.
        2    1    3    3  502    0  0.20073071678E+03  0.16732804397E+03  0.43397223756E+03  0.50658010022E+03  0.25500000920E-02 0. -1.
       -2    1    3    3    0  502 -0.20073071678E+03 -0.16732804397E+03 -0.85492340086E+02  0.27495533307E+03  0.25500000920E-02 0.  1.
</event>
<event>
 5   0  0.2913582E-03  0.7022683E+03  0.7818609E-02  0.9713361E-01
       -1   -1    0    0    0  501  0.00000000000E+00  0.00000000000E+00  0.75485275269E+02  0.75485275438E+02  0.50400001928E-02 0. -1.
        1   -1    0    0  501    0  0.00000000000E+00  0.00000000000E+00 -0.16333675198E+04  0.16333675198E+04  0.50400001928E-02 0.  1.
    10030    2    1    2    0    0  0.00000000000E+00  0.00000000000E+00 -0.15578822445E+04  0.17088527953E+04  0.70226831624E+03 0.  0.
        1    1    3    3  502    0 -0.10488772926E+03  0.28159361287E+03 -0.12209699984E+04  0.12574037282E+04  0.50400001928E-02 0.  1.
       -1    1    3    3    0  502  0.10488772926E+03 -0.28159361287E+03 -0.33691224614E+03  0.45144906710E+03  0.50400001928E-02 0. -1.
</event>
<event>
 5   0  0.5076796E-03  0.7003898E+03  0.7818609E-02  0.9716566E-01
       -2   -1    0    0    0  501  0.00000000000E+00  0.00000000000E+00  0.18044143321E+03  0.18044143322E+03  0.25500000920E-02 0. -1.
        2   -1    0    0  501    0  0.00000000000E+00  0.00000000000E+00 -0.67964697025E+03  0.67964697026E+03  0.25500000920E-02 0.  1.
    10030    2    1    2    0    0  0.00000000000E+00  0.00000000000E+00 -0.49920553704E+03  0.86008840348E+03  0.70038981545E+03 0.  0.
        5    1    3    3  502    0 -0.89373628209E+02 -0.24600930330E+03 -0.53524777004E+03  0.59583595734E+03  0.46999998093E+01 0.  1.
       -5    1    3    3    0  502  0.89373628209E+02  0.24600930330E+03  0.36042232998E+02  0.26425244613E+03  0.46999998093E+01 0. -1.
</event>
<event>
 5   0  0.5072407E-03  0.6980199E+03  0.7818609E-02  0.9720624E-01
       -2   -1    0    0    0  501  0.00000000000E+00  0.00000000000E+00  0.29665307692E+03  0.29665307693E+03  0.25500000920E-02 0. -1.
        2   -1    0    0  501    0  0.00000000000E+00  0.00000000000E+00 -0.41060740735E+03  0.41060740736E+03  0.25500000920E-02 0.  1.
    10030    2    1    2    0    0  0.00000000000E+00  0.00000000000E+00 -0.11395433043E+03  0.70726048429E+03  0.69801991605E+03 0.  0.
        1    1    3    3  502    0 -0.18831537781E+03  0.19169247549E+03 -0.28263436590E+03  0.38998829661E+03  0.50400001928E-02 0.  1.
       -1    1    3    3    0  502  0.18831537781E+03 -0.19169247549E+03  0.16868003547E+03  0.31727218767E+03  0.50400001928E-02 0. -1.
</event>
<event>
 5   0  0.2934483E-03  0.6830089E+03  0.7818609E-02  0.9746739E-01
        1   -1    0    0  501    0  0.00000000000E+00  0.00000000000E+00  0.11677199968E+04  0.11677199968E+04  0.50400001928E-02 0.  1.
       -1   -1    0    0    0  501  0.00000000000E+00  0.00000000000E+00 -0.99874353970E+02  0.99874354097E+02  0.50400001928E-02 0. -1.
    10030    2    1    2    0    0  0.00000000000E+00  0.00000000000E+00  0.10678456428E+04  0.12675943509E+04  0.68300887368E+03 0.  0.
        5    1    3    3  502    0  0.29540089596E+03  0.10405236370E+03  0.28139385922E+03  0.42106196424E+03  0.46999998093E+01 0. -1.
       -5    1    3    3    0  502 -0.29540089596E+03 -0.10405236370E+03  0.78645178356E+03  0.84653238662E+03  0.46999998093E+01 0.  1.
</event>
<event>
 5   0  0.2937617E-03  0.7001076E+03  0.7818609E-02  0.9717048E-01
        1   -1    0    0  501    0  0.00000000000E+00  0.00000000000E+00  0.11315248356E+04  0.11315248356E+04  0.50400001928E-02 0. -1.
       -1   -1    0    0    0  501  0.00000000000E+00  0.00000000000E+00 -0.10829426582E+03  0.10829426594E+03  0.50400001928E-02 0.  1.
    10030    2    1    2    0    0  0.00000000000E+00  0.00000000000E+00  0.10232305698E+04  0.12398191016E+04  0.70010756720E+03 0.  0.
        3    1    3    3  502    0 -0.79495254605E+01 -0.13134357830E+03  0.10860617117E+04  0.10940038310E+04  0.10100000352E+00 0. -1.
       -3    1    3    3    0  502  0.79495254605E+01  0.13134357830E+03 -0.62831141926E+02  0.14581527051E+03  0.10100000352E+00 0.  1.
</event>
<event>
 5   0  0.5076796E-03  0.7003944E+03  0.7818609E-02  0.9716558E-01
       -2   -1    0    0    0  501  0.00000000000E+00  0.00000000000E+00  0.21156503655E+03  0.21156503657E+03  0.25500000920E-02 0. -1.
        2   -1    0    0  501    0  0.00000000000E+00  0.00000000000E+00 -0.57967089316E+03  0.57967089317E+03  0.25500000920E-02 0.  1.
    10030    2    1    2    0    0  0.00000000000E+00  0.00000000000E+00 -0.36810585661E+03  0.79123592973E+03  0.70039444232E+03 0.  0.
        5    1    3    3  502    0  0.30377130356E+03 -0.79238312001E+02 -0.88208037416E+01  0.31409490848E+03  0.46999998093E+01 0.  1.
       -5    1    3    3    0  502 -0.30377130356E+03  0.79238312001E+02 -0.35928505287E+03  0.47714102126E+03  0.46999998093E+01 0. -1.
</event>
<event>
 5   0  0.2937617E-03  0.6991840E+03  0.7818609E-02  0.9718629E-01
        1   -1    0    0  501    0  0.00000000000E+00  0.00000000000E+00  0.10436413708E+04  0.10436413708E+04  0.50400001928E-02 0.  1.
       -1   -1    0    0    0  501  0.00000000000E+00  0.00000000000E+00 -0.11710398398E+03  0.11710398408E+03  0.50400001928E-02 0. -1.
    10030    2    1    2    0    0  0.00000000000E+00  0.00000000000E+00  0.92653738683E+03  0.11607453549E+04  0.69918398847E+03 0.  0.
        3    1    3    3  502    0 -0.12206812689E+03  0.56469773710E+02 -0.72433190314E+02  0.15276138323E+03  0.10100000352E+00 0. -1.
       -3    1    3    3    0  502  0.12206812689E+03 -0.56469773710E+02  0.99897057715E+03  0.10079839717E+04  0.10100000352E+00 0.  1.
</event>
<event>
 5   0  0.5076796E-03  0.6975457E+03  0.7818609E-02  0.9721439E-01
        2   -1    0    0  501    0  0.00000000000E+00  0.00000000000E+00  0.21262615083E+03  0.21262615085E+03  0.25500000920E-02 0.  1.
       -2   -1    0    0    0  501  0.00000000000E+00  0.00000000000E+00 -0.57209573622E+03  0.57209573623E+03  0.25500000920E-02 0. -1.
    10030    2    1    2    0    0  0.00000000000E+00  0.00000000000E+00 -0.35946958539E+03  0.78472188707E+03  0.69754573845E+03 0.  0.
        5    1    3    3  502    0 -0.25052215544E+03  0.35608259386E+02 -0.44970812075E+03  0.51603176488E+03  0.46999998093E+01 0. -1.
       -5    1    3    3    0  502  0.25052215544E+03 -0.35608259386E+02  0.90238535358E+02  0.26869012219E+03  0.46999998093E+01 0.  1.
</event>
<event>
 5   0  0.3013140E-03  0.7019766E+03  0.7818609E-02  0.9713858E-01
       -1   -1    0    0    0  501  0.00000000000E+00  0.00000000000E+00  0.62299105460E+02  0.62299105664E+02  0.50400001928E-02 0. -1.
        1   -1    0    0  501    0  0.00000000000E+00  0.00000000000E+00 -0.19774406718E+04  0.19774406718E+04  0.50400001928E-02 0.  1.
    10030    2    1    2    0    0  0.00000000000E+00  0.00000000000E+00 -0.19151415664E+04  0.20397397775E+04  0.70197659554E+03 0.  0.
        2    1    3    3  502    0 -0.58714170109E+02  0.14923154891E+03 -0.18647635788E+04  0.18716464980E+04  0.25500000920E-02 0.  1.
       -2    1    3    3    0  502  0.58714170109E+02 -0.14923154891E+03 -0.50377987625E+02  0.16809327947E+03  0.25500000920E-02 0. -1.
</event>
<event>
 5   0  0.5072407E-03  0.7030725E+03  0.7818609E-02  0.9711992E-01
       -2   -1    0    0    0  501  0.00000000000E+00  0.00000000000E+00  0.43090442156E+03  0.43090442157E+03  0.25500000920E-02 0.  1.
        2   -1    0    0  501    0  0.00000000000E+00  0.00000000000E+00 -0.28678684979E+03  0.28678684980E+03  0.25500000920E-02 0. -1.
    10030    2    1    2    0    0  0.00000000000E+00  0.00000000000E+00  0.14411757178E+03  0.71769127137E+03  0.70307246177E+03 0.  0.
        1    1    3    3  502    0  0.31032925811E+01  0.99543643332E+02 -0.27208488486E+03  0.28973911015E+03  0.50400001928E-02 0. -1.
       -1    1    3    3    0  502 -0.31032925811E+01 -0.99543643332E+02  0.41620245664E+03  0.42795216122E+03  0.50400001928E-02 0.  1.
</event>
<event>
 5   0  0.3013140E-03  0.6988167E+03  0.7818609E-02  0.9719258E-01
        1   -1    0    0  501    0  0.00000000000E+00  0.00000000000E+00  0.27232773191E+03  0.27232773196E+03  0.50400001928E-02 0. -1.
       -1   -1    0    0    0  501  0.00000000000E+00  0.00000000000E+00 -0.44830618623E+03  0.44830618626E+03  0.50400001928E-02 0.  1.
    10030    2    1    2    0    0  0.00000000000E+00  0.00000000000E+00 -0.17597845432E+03  0.72063391821E+03  0.69881673398E+03 0.  0.
        2    1    3    3  502    0 -0.48442309456E+01 -0.27043004009E+03  0.14011875997E+03  0.30461309896E+03  0.25500000920E-02 0.  1.
       -2    1    3    3    0  502  0.48442309456E+01  0.27043004009E+03 -0.31609721430E+03  0.41602081925E+03  0.25500000920E-02 0. -1.
</event>
<event>
 5   0  0.1981750E-03  0.6996728E+03  0.7818609E-02  0.9717792E-01
        3   -1    0    0  501    0  0.00000000000E+00  0.00000000000E+00  0.87398274408E+03  0.87398274992E+03  0.10100000352E+00 0. -1.
       -3   -1    0    0    0  501  0.00000000000E+00  0.00000000000E+00 -0.14003193062E+03  0.14003196704E+03  0.10100000352E+00 0.  1.
    10030    2    1    2    0    0  0.00000000000E+00  0.00000000000E+00  0.73395081347E+03  0.10140147170E+04  0.69967281613E+03 0.  0.
        5    1    3    3  502    0  0.22979278373E+03 -0.20927007973E+03  0.13434735806E+03  0.33862957983E+03  0.46999998093E+01 0.  1.
       -5    1    3    3    0  502 -0.22979278373E+03  0.20927007973E+03  0.59960345541E+03  0.67538513713E+03  0.46999998093E+01 0. -1.
</event>
<event>
 5   0  0.4878235E-03  0.7007469E+03  0.7818609E-02  0.9715956E-01
       -2   -1    0    0    0  501  0.00000000000E+00  0.00000000000E+00  0.96062889670E+02  0.96062889704E+02  0.25500000920E-02 0.  1.
        2   -1    0    0  501    0  0.00000000000E+00  0.00000000000E+00 -0.12779290010E+04  0.12779290010E+04  0.25500000920E-02 0. -1.
    10030    2    1    2    0    0  0.00000000000E+00  0.00000000000E+00 -0.11818661113E+04  0.13739918907E+04  0.70074689483E+03 0.  0.
        4    1    3    3  502    0  0.57090995680E+02 -0.20900842034E+03 -0.51045234481E+02  0.22260083204E+03  0.12699999809E+01 0.  1.
       -4    1    3    3    0  502 -0.57090995680E+02  0.20900842034E+03 -0.11308208768E+04  0.11513910587E+04  0.12699999809E+01 0. -1.
</event>
<event>
 5   0  0.2938783E-03  0.6987494E+03  0.7818609E-02  0.9719373E-01
        1   -1    0    0  501    0  0.00000000000E+00  0.00000000000E+00  0.23643253092E+04  0.23643253092E+04  0.50400001928E-02 0.  1.
       -1   -1    0    0    0  501  0.00000000000E+00  0.00000000000E+00 -0.51626848091E+02  0.51626848337E+02  0.50400001928E-02 0. -1.
    10030    2    1    2    0    0  0.00000000000E+00  0.00000000000E+00  0.23126984611E+04  0.24159521576E+04  0.69874935100E+03 0.  0.
        4    1    3    3  502    0 -0.13005653023E+03 -0.29979080899E+02  0.40000315501E+02  0.13933802241E+03  0.12699999809E+01 0. -1.
       -4    1    3    3    0  502  0.13005653023E+03  0.29979080899E+02  0.22726981456E+04  0.22766141351E+04  0.12699999809E+01 0.  1.
</event>
<event>
 5   0  0.1981750E-03  0.6910872E+03  0.7818609E-02  0.9732597E-01
       -4   -1    0    0    0  501  0.00000000000E+00  0.00000000000E+00  0.59672282791E+03  0.59672417937E+03  0.12699999809E+01 0. -1.
        4   -1    0    0  501    0  0.00000000000E+00  0.00000000000E+00 -0.20008994626E+03  0.20009397666E+03  0.12699999809E+01 0.  1.
    10030    2    1    2    0    0  0.00000000000E+00  0.00000000000E+00  0.39663288164E+03  0.79681815603E+03  0.69108720938E+03 0.  0.
        1    1    3    3  502    0  0.32837554991E+03  0.70404111062E+02  0.10455370021E+03  0.35173671530E+03  0.50400001928E-02 0. -1.
       -1    1    3    3    0  502 -0.32837554991E+03 -0.70404111062E+02  0.29207918143E+03  0.44508144073E+03  0.50400001928E-02 0.  1.
</event>
<event>
 5   0  0.2937617E-03  0.6978856E+03  0.7818609E-02  0.9720855E-01
        1   -1    0    0  501    0  0.00000000000E+00  0.00000000000E+00  0.25460333303E+04  0.25460333303E+04  0.50400001928E-02 0.  1.
       -1   -1    0    0    0  501  0.00000000000E+00  0.00000000000E+00 -0.47823832178E+02  0.47823832444E+02  0.50400001928E-02 0. -1.
    10030    2    1    2    0    0  0.00000000000E+00  0.00000000000E+00  0.24982094981E+04  0.25938571628E+04  0.69788558105E+03 0.  0.
        3    1    3    3  502    0 -0.27929294989E+03  0.70758554526E+02  0.19807426670E+04  0.20015875819E+04  0.10100000352E+00 0.  1.
       -3    1    3    3    0  502  0.27929294989E+03 -0.70758554526E+02  0.51746683109E+03  0.59226958082E+03  0.10100000352E+00 0. -1.
</event>
<event>
 5   0  0.3013140E-03  0.7012885E+03  0.7818609E-02  0.9715031E-01
       -1   -1    0    0    0  501  0.00000000000E+00  0.00000000000E+00  0.11363459304E+03  0.11363459316E+03  0.50400001928E-02 0.  1.
        1   -1    0    0  501    0  0.00000000000E+00  0.00000000000E+00 -0.10819890503E+04  0.10819890503E+04  0.50400001928E-02 0. -1.
    10030    2    1    2    0    0  0.00000000000E+00  0.00000000000E+00 -0.96835445724E+03  0.11956236434E+04  0.70128848695E+03 0.  0.
        2    1    3    3  502    0 -0.28828469724E+03 -0.13668025914E+03 -0.23616428286E+03  0.39694222301E+03  0.25500000920E-02 0.  1.
       -2    1    3    3    0  502  0.28828469724E+03  0.13668025914E+03 -0.73219017438E+03  0.79868142044E+03  0.25500000920E-02 0. -1.
</event>
<event>
 5   0  0.2937617E-03  0.7040149E+03  0.7818609E-02  0.9710391E-01
       -1   -1    0    0    0  501  0.00000000000E+00  0.00000000000E+00  0.19714501123E+03  0.19714501130E+03  0.50400001928E-02 0.  1.
        1   -1    0    0  501    0  0.00000000000E+00  0.00000000000E+00 -0.62851837095E+03  0.62851837097E+03  0.50400001928E-02 0. -1.
    10030    2    1    2    0    0  0.00000000000E+00  0.00000000000E+00 -0.43137335972E+03  0.82566338227E+03  0.70401494682E+03 0.  0.
        3    1    3    3  502    0  0.18198345441E+03 -0.29492362544E+03 -0.28809014348E+03  0.45065936525E+03  0.10100000352E+00 0.  1.
       -3    1    3    3    0  502 -0.18198345441E+03  0.29492362544E+03 -0.14328321624E+03  0.37500401702E+03  0.10100000352E+00 0. -1.
</event>
<event>
 5   0  0.2937617E-03  0.6999403E+03  0.7818609E-02  0.9717334E-01
        1   -1    0    0  501    0  0.00000000000E+00  0.00000000000E+00  0.47155133134E+03  0.47155133137E+03  0.50400001928E-02 0. -1.
       -1   -1    0    0    0  501  0.00000000000E+00  0.00000000000E+00 -0.25973650909E+03  0.25973650914E+03  0.50400001928E-02 0.  1.
    10030    2    1    2    0    0  0.00000000000E+00  0.00000000000E+00  0.21181482225E+03  0.73128784051E+03  0.69994027370E+03 0.  0.
        3    1    3    3  502    0 -0.34826174748E+03 -0.25030606674E+02  0.81044346389E+02  0.35844242537E+03  0.10100000352E+00 0. -1.
       -3    1    3    3    0  502  0.34826174748E+03  0.25030606674E+02  0.13077047586E+03  0.37284541513E+03  0.10100000352E+00 0.  1.
</event>
<event>
 5   0  0.2934483E-03  0.6994827E+03  0.7818609E-02  0.9718117E-01
        1   -1    0    0  501    0  0.00000000000E+00  0.00000000000E+00  0.52051061395E+03  0.52051061398E+03  0.50400001928E-02 0. -1.
       -1   -1    0    0    0  501  0.00000000000E+00  0.00000000000E+00 -0.23499811994E+03  0.23499812000E+03  0.50400001928E-02 0.  1.
    10030    2    1    2    0    0  0.00000000000E+00  0.00000000000E+00  0.28551249401E+03  0.75550873397E+03  0.69948271092E+03 0.  0.
        5    1    3    3  502    0 -0.31576556048E+03  0.12139761889E+03  0.23846311403E+03  0.41392271961E+03  0.46999998093E+01 0. -1.
       -5    1    3    3    0  502  0.31576556048E+03 -0.12139761889E+03  0.47049379981E+02  0.34158601437E+03  0.46999998093E+01 0.  1.
</event>
<event>
 5   0  0.2934483E-03  0.6993772E+03  0.7818609E-02  0.9718298E-01
       -1   -1    0    0    0  501  0.00000000000E+00  0.00000000000E+00  0.49304765782E+03  0.49304765784E+03  0.50400001928E-02 0.  1.
        1   -1    0    0  501    0  0.00000000000E+00  0.00000000000E+00 -0.24801273944E+03  0.24801273949E+03  0.50400001928E-02 0. -1.
    10030    2    1    2    0    0  0.00000000000E+00  0.00000000000E+00  0.24503491838E+03  0.74106039733E+03  0.69937715238E+03 0.  0.
        5    1    3    3  502    0  0.16833414207E+03  0.21622117112E+03 -0.10761848615E+03  0.29443472415E+03  0.46999998093E+01 0. -1.
       -5    1    3    3    0  502 -0.16833414207E+03 -0.21622117112E+03  0.35265340453E+03  0.44662567318E+03  0.46999998093E+01 0.  1.
</event>
<event>
 5   0  0.4878235E-03  0.7003752E+03  0.7818609E-02  0.9716591E-01
        2   -1    0    0  501    0  0.00000000000E+00  0.00000000000E+00  0.30611662848E+03  0.30611662849E+03  0.25500000920E-02 0. -1.
       -2   -1    0    0    0  501  0.00000000000E+00  0.00000000000E+00 -0.40060339255E+03  0.40060339256E+03  0.25500000920E-02 0.  1.
    10030    2    1    2    0    0  0.00000000000E+00  0.00000000000E+00 -0.94486764077E+02  0.70672002105E+03  0.70037521341E+03 0.  0.
        4    1    3    3  502    0 -0.11040003863E+03 -0.83530938062E+02  0.27732902548E+03  0.30996546165E+03  0.12699999809E+01 0. -1.
       -4    1    3    3    0  502  0.11040003863E+03  0.83530938062E+02 -0.37181578955E+03  0.39675455940E+03  0.12699999809E+01 0.  1.
</event>
<event>
 5   0  0.2938783E-03  0.6999274E+03  0.7818609E-02  0.9717356E-01
        1   -1    0    0  501    0  0.00000000000E+00  0.00000000000E+00  0.23043863387E+03  0.23043863392E+03  0.50400001928E-02 0. -1.
       -1   -1    0    0    0  501  0.00000000000E+00  0.00000000000E+00 -0.53148464733E+03  0.53148464736E+03  0.50400001928E-02 0.  1.
    10030    2    1    2    0    0  0.00000000000E+00  0.00000000000E+00 -0.30104601347E+03  0.76192328128E+03  0.69992741362E+03 0.  0.
        4    1    3    3  502    0  0.89423923138E+02 -0.21474295580E+03  0.13409672885E+03  0.26850460086E+03  0.12699999809E+01 0. -1.
       -4    1    3    3    0  502 -0.89423923138E+02  0.21474295580E+03 -0.43514274232E+03  0.49341868042E+03  0.12699999809E+01 0.  1.
</event>
<event>
 5   0  0.5113683E-03  0.7005519E+03  0.7818609E-02  0.9716289E-01
       -2   -1    0    0    0  501  0.00000000000E+00  0.00000000000E+00  0.15353680074E+03  0.15353680076E+03  0.25500000920E-02 0. -1.
        2   -1    0    0  501    0  0.00000000000E+00  0.00000000000E+00 -0.79911295728E+03  0.79911295728E+03  0.25500000920E-02 0.  1.
    10030    2    1    2    0    0  0.00000000000E+00  0.00000000000E+00 -0.64557615654E+03  0.95264975804E+03  0.70055191642E+03 0.  0.
        3    1    3    3  502    0  0.75896677123E+02  0.27598218632E+03 -0.48222521749E+02  0.29026176905E+03  0.10100000352E+00 0. -1.
       -3    1    3    3    0  502 -0.75896677123E+02 -0.27598218632E+03 -0.59735363479E+03  0.66238798899E+03  0.10100000352E+00 0.  1.
</event>
<event>
 5   0  0.1981750E-03  0.6975142E+03  0.7818609E-02  0.9721493E-01
        3   -1    0    0  501    0  0.00000000000E+00  0.00000000000E+00  0.13355678571E+03  0.13355682390E+03  0.10100000352E+00 0.  1.
       -3   -1    0    0    0  501  0.00000000000E+00  0.00000000000E+00 -0.91070997849E+03  0.91070998409E+03  0.10100000352E+00 0. -1.
    10030    2    1    2    0    0  0.00000000000E+00  0.00000000000E+00 -0.77715319278E+03  0.10442668080E+04  0.69751421579E+03 0.  0.
        5    1    3    3  502    0  0.33257197037E+03 -0.63705385972E+02 -0.51335951582E+03  0.61499802777E+03  0.46999998093E+01 0. -1.
       -5    1    3    3    0  502 -0.33257197037E+03  0.63705385972E+02 -0.26379367696E+03  0.42926878023E+03  0.46999998093E+01 0.  1.
</event>
<event>
 5   0  0.5072407E-03  0.6998272E+03  0.7818609E-02  0.9717528E-01
        2   -1    0    0  501    0  0.00000000000E+00  0.00000000000E+00  0.78039898478E+03  0.78039898478E+03  0.25500000920E-02 0. -1.
       -2   -1    0    0    0  501  0.00000000000E+00  0.00000000000E+00 -0.15689350340E+03  0.15689350343E+03  0.25500000920E-02 0.  1.
    10030    2    1    2    0    0  0.00000000000E+00  0.00000000000E+00  0.62350548137E+03  0.93729248821E+03  0.69982720949E+03 0.  0.
        1    1    3    3  502    0 -0.49453040958E+02  0.10126076037E+03 -0.13192450715E+03  0.17350337305E+03  0.50400001928E-02 0.  1.
       -1    1    3    3    0  502  0.49453040958E+02 -0.10126076037E+03  0.75542998852E+03  0.76378911515E+03  0.50400001928E-02 0. -1.
</event>
<event>
 5   0  0.2938783E-03  0.7002228E+03  0.7818609E-02  0.9716851E-01
        1   -1    0    0  501    0  0.00000000000E+00  0.00000000000E+00  0.29270752642E+03  0.29270752646E+03  0.50400001928E-02 0. -1.
       -1   -1    0    0    0  501  0.00000000000E+00  0.00000000000E+00 -0.41877298327E+03  0.41877298330E+03  0.50400001928E-02 0.  1.
    10030    2    1    2    0    0  0.00000000000E+00  0.00000000000E+00 -0.12606545685E+03  0.71148050976E+03  0.70022283335E+03 0.  0.
        4    1    3    3  502    0 -0.34661617790E+03 -0.35033139692E+02 -0.98322886063E+02  0.36199322988E+03  0.12699999809E+01 0. -1.
       -4    1    3    3    0  502  0.34661617790E+03  0.35033139692E+02 -0.27742570788E+02  0.34948727987E+03  0.12699999809E+01 0.  1.
</event>
<event>
 5   0  0.5072407E-03  0.6978856E+03  0.7818609E-02  0.9720855E-01
        2   -1    0    0  501    0  0.00000000000E+00  0.00000000000E+00  0.89745712238E+03  0.89745712238E+03  0.25500000920E-02 0. -1.
       -2   -1    0    0    0  501  0.00000000000E+00  0.00000000000E+00 -0.13567343896E+03  0.13567343899E+03  0.25500000920E-02 0.  1.
    10030    2    1    2    0    0  0.00000000000E+00  0.00000000000E+00  0.76178368341E+03  0.10331305614E+04  0.69788564716E+03 0.  0.
        1    1    3    3  502    0 -0.28532829291E+03  0.99004761248E+02  0.63962651438E+03  0.70734450971E+03  0.50400001928E-02 0. -1.
       -1    1    3    3    0  502  0.28532829291E+03 -0.99004761248E+02  0.12215716903E+03  0.32578605166E+03  0.50400001928E-02 0.  1.
</event>
<event>
 5   0  0.5113683E-03  0.7028534E+03  0.7818609E-02  0.9712365E-01
        2   -1    0    0  501    0  0.00000000000E+00  0.00000000000E+00  0.10087827828E+03  0.10087827831E+03  0.25500000920E-02 0. -1.
       -2   -1    0    0    0  501  0.00000000000E+00  0.00000000000E+00 -0.12242547298E+04  0.12242547298E+04  0.25500000920E-02 0.  1.
    10030    2    1    2    0    0  0.00000000000E+00  0.00000000000E+00 -0.11233764515E+04  0.13251330081E+04  0.70285335409E+03 0.  0.
        3    1    3    3  502    0  0.58851441069E+02  0.34644191428E+03 -0.56904042487E+03  0.66879930280E+03  0.10100000352E+00 0.  1.
       -3    1    3    3    0  502 -0.58851441069E+02 -0.34644191428E+03 -0.55433602661E+03  0.65633370528E+03  0.10100000352E+00 0. -1.
</event>
<event>
 5   0  0.3013140E-03  0.6987933E+03  0.7818609E-02  0.9719298E-01
        1   -1    0    0  501    0  0.00000000000E+00  0.00000000000E+00  0.33909259776E+03  0.33909259780E+03  0.50400001928E-02 0.  1.
       -1   -1    0    0    0  501  0.00000000000E+00  0.00000000000E+00 -0.36001382500E+03  0.36001382503E+03  0.50400001928E-02 0. -1.
    10030    2    1    2    0    0  0.00000000000E+00  0.00000000000E+00 -0.20921227239E+02  0.69910642283E+03  0.69879331185E+03 0.  0.
        2    1    3    3  502    0 -0.37330929699E+02 -0.24103220042E+03  0.23982722823E+03  0.34206318036E+03  0.25500000920E-02 0.  1.
       -2    1    3    3    0  502  0.37330929699E+02  0.24103220042E+03 -0.26074845547E+03  0.35704324247E+03  0.25500000920E-02 0. -1.
</event>
<event>
 5   0  0.5113683E-03  0.7007045E+03  0.7818609E-02  0.9716028E-01
       -2   -1    0    0    0  501  0.00000000000E+00  0.00000000000E+00  0.12560445902E+03  0.12560445904E+03  0.25500000920E-02 0. -1.
        2   -1    0    0  501    0  0.00000000000E+00  0.00000000000E+00 -0.97724783149E+03  0.97724783149E+03  0.25500000920E-02 0.  1.
    10030    2    1    2    0    0  0.00000000000E+00  0.00000000000E+00 -0.85164337247E+03  0.11028522905E+04  0.70070446043E+03 0.  0.
        3    1    3    3  502    0  0.33456718442E+03  0.20536585043E+02 -0.26539210578E+03  0.42753939260E+03  0.10100000352E+00 0. -1.
       -3    1    3    3    0  502 -0.33456718442E+03 -0.20536585043E+02 -0.58625126669E+03  0.67531289793E+03  0.10100000352E+00 0.  1.
</event>
<event>
 5   0  0.2938783E-03  0.7015309E+03  0.7818609E-02  0.9714618E-01
       -1   -1    0    0    0  501  0.00000000000E+00  0.00000000000E+00  0.41543166438E+03  0.41543166441E+03  0.50400001928E-02 0.  1.
        1   -1    0    0  501    0  0.00000000000E+00  0.00000000000E+00 -0.29616522768E+03  0.29616522773E+03  0.50400001928E-02 0. -1.
    10030    2    1    2    0    0  0.00000000000E+00  0.00000000000E+00  0.11926643670E+03  0.71159689214E+03  0.70153093587E+03 0.  0.
        4    1    3    3  502    0 -0.14039411568E+03  0.38577581693E+02  0.38332972774E+03  0.41005125363E+03  0.12699999809E+01 0.  1.
       -4    1    3    3    0  502  0.14039411568E+03 -0.38577581693E+02 -0.26406329105E+03  0.30154563851E+03  0.12699999809E+01 0. -1.
</event>
<event>
 5   0  0.1981750E-03  0.7042647E+03  0.7818609E-02  0.9709967E-01
       -4   -1    0    0    0  501  0.00000000000E+00  0.00000000000E+00  0.11143010095E+04  0.11143017333E+04  0.12699999809E+01 0. -1.
        4   -1    0    0  501    0  0.00000000000E+00  0.00000000000E+00 -0.11127361829E+03  0.11128086550E+03  0.12699999809E+01 0.  1.
    10030    2    1    2    0    0  0.00000000000E+00  0.00000000000E+00  0.10030273912E+04  0.12255825988E+04  0.70426469371E+03 0.  0.
        3    1    3    3  502    0 -0.19488363229E+03  0.14958913933E+02  0.10112370956E+04  0.10299533354E+04  0.10100000352E+00 0. -1.
       -3    1    3    3    0  502  0.19488363229E+03 -0.14958913933E+02 -0.82097044160E+01  0.19562926338E+03  0.10100000352E+00 0.  1.
</event>
<event>
 5   0  0.2938783E-03  0.7001221E+03  0.7818609E-02  0.9717023E-01
        1   -1    0    0  501    0  0.00000000000E+00  0.00000000000E+00  0.61795688468E+03  0.61795688470E+03  0.50400001928E-02 0.  1.
       -1   -1    0    0    0  501  0.00000000000E+00  0.00000000000E+00 -0.19830307260E+03  0.19830307267E+03  0.50400001928E-02 0. -1.
    10030    2    1    2    0    0  0.00000000000E+00  0.00000000000E+00  0.41965381208E+03  0.81625995737E+03  0.70012212935E+03 0.  0.
        4    1    3    3  502    0  0.90645233116E+02 -0.29729816348E+02  0.60250725328E+03  0.61001395346E+03  0.12699999809E+01 0.  1.
       -4    1    3    3    0  502 -0.90645233116E+02  0.29729816348E+02 -0.18285344120E+03  0.20624600390E+03  0.12699999809E+01 0. -1.
</event>
<event>
 5   0  0.5072407E-03  0.7015867E+03  0.7818609E-02  0.9714522E-01
        2   -1    0    0  501    0  0.00000000000E+00  0.00000000000E+00  0.20295313672E+04  0.20295313672E+04  0.25500000920E-02 0.  1.
       -2   -1    0    0    0  501  0.00000000000E+00  0.00000000000E+00 -0.60632711337E+02  0.60632711391E+02  0.25500000920E-02 0. -1.
    10030    2    1    2    0    0  0.00000000000E+00  0.00000000000E+00  0.19688986559E+04  0.20901640786E+04  0.70158674331E+03 0.  0.
        1    1    3    3  502    0 -0.23890858986E+03  0.18196665555E+03  0.15245538241E+04  0.15538511964E+04  0.50400001928E-02 0.  1.
       -1    1    3    3    0  502  0.23890858986E+03 -0.18196665555E+03  0.44434483179E+03  0.53631288220E+03  0.50400001928E-02 0. -1.
</event>
<event>
 5   0  0.2913582E-03  0.6987481E+03  0.7818609E-02  0.9719376E-01
        1   -1    0    0  501    0  0.00000000000E+00  0.00000000000E+00  0.32371300111E+03  0.32371300115E+03  0.50400001928E-02 0. -1.
       -1   -1    0    0    0  501  0.00000000000E+00  0.00000000000E+00 -0.37706926923E+03  0.37706926926E+03  0.50400001928E-02 0.  1.
    10030    2    1    2    0    0  0.00000000000E+00  0.00000000000E+00 -0.53356268120E+02  0.70078227041E+03  0.69874809421E+03 0.  0.
        1    1    3    3  502    0  0.14113123319E+03  0.10297414637E+03  0.27675930804E+03  0.32728796864E+03  0.50400001928E-02 0. -1.
       -1    1    3    3    0  502 -0.14113123319E+03 -0.10297414637E+03 -0.33011557616E+03  0.37349430177E+03  0.50400001928E-02 0.  1.
</event>
<event>
 5   0  0.3013140E-03  0.7013515E+03  0.7818609E-02  0.9714924E-01
        1   -1    0    0  501    0  0.00000000000E+00  0.00000000000E+00  0.41318525122E+03  0.41318525125E+03  0.50400001928E-02 0.  1.
       -1   -1    0    0    0  501  0.00000000000E+00  0.00000000000E+00 -0.29762311607E+03  0.29762311612E+03  0.50400001928E-02 0. -1.
    10030    2    1    2    0    0  0.00000000000E+00  0.00000000000E+00  0.11556213515E+03  0.71080836737E+03  0.70135150106E+03 0.  0.
        2    1    3    3  502    0  0.26912524223E+02  0.25529729286E+03 -0.18433867984E+03  0.31604072617E+03  0.25500000920E-02 0. -1.
       -2    1    3    3    0  502 -0.26912524223E+02 -0.25529729286E+03  0.29990081499E+03  0.39476764120E+03  0.25500000920E-02 0.  1.
</event>
<event>
 5   0  0.5023894E-03  0.7006203E+03  0.7818609E-02  0.9716172E-01
        2   -1    0    0  501    0  0.00000000000E+00  0.00000000000E+00  0.91036140643E+03  0.91036140644E+03  0.25500000920E-02 0.  1.
       -2   -1    0    0    0  501  0.00000000000E+00  0.00000000000E+00 -0.13480052341E+03  0.13480052344E+03  0.25500000920E-02 0. -1.
    10030    2    1    2    0    0  0.00000000000E+00  0.00000000000E+00  0.77556088302E+03  0.10451619299E+04  0.70062027975E+03 0.  0.
        2    1    3    3  502    0  0.15012354210E+03  0.16407753269E+03 -0.15986186668E+02  0.22296652843E+03  0.25500000920E-02 0.  1.
       -2    1    3    3    0  502 -0.15012354210E+03 -0.16407753269E+03  0.79154706969E+03  0.82219540145E+03  0.25500000920E-02 0. -1.
</event>
<event>
 5   0  0.5023894E-03  0.7004793E+03  0.7818609E-02  0.9716413E-01
        2   -1    0    0  501    0  0.00000000000E+00  0.00000000000E+00  0.12564787828E+04  0.12564787828E+04  0.25500000920E-02 0.  1.
       -2   -1    0    0    0  501  0.00000000000E+00  0.00000000000E+00 -0.97628248822E+02  0.97628248856E+02  0.25500000920E-02 0. -1.
    10030    2    1    2    0    0  0.00000000000E+00  0.00000000000E+00  0.11588505340E+04  0.13541070317E+04  0.70047933096E+03 0.  0.
        2    1    3    3  502    0  0.17605499493E+03  0.30227521403E+03  0.61302795399E+03  0.70581083771E+03  0.25500000920E-02 0. -1.
       -2    1    3    3    0  502 -0.17605499493E+03 -0.30227521403E+03  0.54582258002E+03  0.64829619398E+03  0.25500000920E-02 0.  1.
</event>
<event>
 5   0  0.1981750E-03  0.6994283E+03  0.7818609E-02  0.9718210E-01
       -4   -1    0    0    0  501  0.00000000000E+00  0.00000000000E+00  0.11485801126E+04  0.11485808147E+04  0.12699999809E+01 0. -1.
        4   -1    0    0  501    0  0.00000000000E+00  0.00000000000E+00 -0.10647474914E+03  0.10648232296E+03  0.12699999809E+01 0.  1.
    10030    2    1    2    0    0  0.00000000000E+00  0.00000000000E+00  0.10421053634E+04  0.12550631376E+04  0.69942826009E+03 0.  0.
        2    1    3    3  502    0  0.16810830274E+03 -0.28274547104E+03  0.73408638266E+03  0.80441793867E+03  0.25500000920E-02 0. -1.
       -2    1    3    3    0  502 -0.16810830274E+03  0.28274547104E+03  0.30801898076E+03  0.45064519898E+03  0.25500000920E-02 0.  1.
</event>
<event>
 5   0  0.5072407E-03  0.6999123E+03  0.7818609E-02  0.9717382E-01
        2   -1    0    0  501    0  0.00000000000E+00  0.00000000000E+00  0.19326505010E+04  0.19326505010E+04  0.25500000920E-02 0. -1.
       -2   -1    0    0    0  501  0.00000000000E+00  0.00000000000E+00 -0.63368577364E+02  0.63368577416E+02  0.25500000920E-02 0.  1.
    10030    2    1    2    0    0  0.00000000000E+00  0.00000000000E+00  0.18692819236E+04  0.19960190784E+04  0.69991231692E+03 0.  0.
        1    1    3    3  502    0 -0.24031489571E+02 -0.13726129282E+03  0.18501179823E+04  0.18553583814E+04  0.50400001928E-02 0. -1.
       -1    1    3    3    0  502  0.24031489571E+02  0.13726129282E+03  0.19163941275E+02  0.14066069695E+03  0.50400001928E-02 0.  1.
</event>
<event>
 5   0  0.2937617E-03  0.7012143E+03  0.7818609E-02  0.9715158E-01
        1   -1    0    0  501    0  0.00000000000E+00  0.00000000000E+00  0.97209140695E+03  0.97209140696E+03  0.50400001928E-02 0. -1.
       -1   -1    0    0    0  501  0.00000000000E+00  0.00000000000E+00 -0.12645455836E+03  0.12645455846E+03  0.50400001928E-02 0.  1.
    10030    2    1    2    0    0  0.00000000000E+00  0.00000000000E+00  0.84563684859E+03  0.10985459654E+04  0.70121434559E+03 0.  0.
        3    1    3    3  502    0  0.73188302752E+02  0.28839527142E+03  0.71337308435E+03  0.77293565574E+03  0.10100000352E+00 0. -1.
       -3    1    3    3    0  502 -0.73188302752E+02 -0.28839527142E+03  0.13226376424E+03  0.32561030968E+03  0.10100000352E+00 0.  1.
</event>
<event>
 5   0  0.4878235E-03  0.6991345E+03  0.7818609E-02  0.9718713E-01
        2   -1    0    0  501    0  0.00000000000E+00  0.00000000000E+00  0.26357230370E+03  0.26357230371E+03  0.25500000920E-02 0. -1.
       -2   -1    0    0    0  501  0.00000000000E+00  0.00000000000E+00 -0.46361951115E+03  0.46361951115E+03  0.25500000920E-02 0.  1.
    10030    2    1    2    0    0  0.00000000000E+00  0.00000000000E+00 -0.20004720745E+03  0.72719181486E+03  0.69913450093E+03 0.  0.
        4    1    3    3  502    0 -0.24559584875E+03 -0.76784780775E+02 -0.34612501594E+03  0.43129730238E+03  0.12699999809E+01 0.  1.
       -4    1    3    3    0  502  0.24559584875E+03  0.76784780775E+02  0.14607780849E+03  0.29589451248E+03  0.12699999809E+01 0. -1.
</event>
<event>
 5   0  0.5076796E-03  0.6998856E+03  0.7818609E-02  0.9717428E-01
        2   -1    0    0  501    0  0.00000000000E+00  0.00000000000E+00  0.88460243448E+03  0.88460243449E+03  0.25500000920E-02 0.  1.
       -2   -1    0    0    0  501  0.00000000000E+00  0.00000000000E+00 -0.13843501840E+03  0.13843501842E+03  0.25500000920E-02 0. -1.
    10030    2    1    2    0    0  0.00000000000E+00  0.00000000000E+00  0.74616741608E+03  0.10230374529E+04  0.69988557438E+03 0.  0.
        5    1    3    3  502    0  0.22413556585E+03 -0.54044159191E+02  0.75782562130E+03  0.79213590079E+03  0.46999998093E+01 0.  1.
       -5    1    3    3    0  502 -0.22413556585E+03  0.54044159191E+02 -0.11658205218E+02  0.23090155212E+03  0.46999998093E+01 0. -1.
</event>
<event>
 5   0  0.5113683E-03  0.7000808E+03  0.7818609E-02  0.9717094E-01
       -2   -1    0    0    0  501  0.00000000000E+00  0.00000000000E+00  0.10932935574E+03  0.10932935577E+03  0.25500000920E-02 0. -1.
        2   -1    0    0  501    0  0.00000000000E+00  0.00000000000E+00 -0.11207264115E+04  0.11207264115E+04  0.25500000920E-02 0.  1.
    10030    2    1    2    0    0  0.00000000000E+00  0.00000000000E+00 -0.10113970558E+04  0.12300557673E+04  0.70008084264E+03 0.  0.
        3    1    3    3  502    0 -0.27349485992E+03  0.19760082551E+03 -0.66941996545E+03  0.74964566629E+03  0.10100000352E+00 0. -1.
       -3    1    3    3    0  502  0.27349485992E+03 -0.19760082551E+03 -0.34197709033E+03  0.48041010101E+03  0.10100000352E+00 0.  1.
</event>
<event>
 5   0  0.2913582E-03  0.6991452E+03  0.7818609E-02  0.9718695E-01
       -1   -1    0    0    0  501  0.00000000000E+00  0.00000000000E+00  0.32079870665E+03  0.32079870669E+03  0.50400001928E-02 0. -1.
        1   -1    0    0  501    0  0.00000000000E+00  0.00000000000E+00 -0.38092740797E+03  0.38092740800E+03  0.50400001928E-02 0.  1.
    10030    2    1    2    0    0  0.00000000000E+00  0.00000000000E+00 -0.60128701315E+02  0.70172611469E+03  0.69914524908E+03 0.  0.
        1    1    3    3  502    0  0.16896280399E+03  0.25744316871E+03 -0.19613087474E+03  0.36509277492E+03  0.50400001928E-02 0.  1.
       -1    1    3    3    0  502 -0.16896280399E+03 -0.25744316871E+03  0.13600217343E+03  0.33663333977E+03  0.50400001928E-02 0. -1.
</event>
<event>
 5   0  0.1981750E-03  0.6998886E+03  0.7818609E-02  0.9717423E-01
       -4   -1    0    0    0  501  0.00000000000E+00  0.00000000000E+00  0.16515712074E+03  0.16516200359E+03  0.12699999809E+01 0. -1.
        4   -1    0    0  501    0  0.00000000000E+00  0.00000000000E+00 -0.74146551934E+03  0.74146660698E+03  0.12699999809E+01 0.  1.
    10030    2    1    2    0    0  0.00000000000E+00  0.00000000000E+00 -0.57630839860E+03  0.90662861057E+03  0.69988861057E+03 0.  0.
        1    1    3    3  502    0 -0.22158937459E+03 -0.26719939615E+03 -0.23075149225E+03  0.41682564633E+03  0.50400001928E-02 0. -1.
       -1    1    3    3    0  502  0.22158937459E+03  0.26719939615E+03 -0.34555690635E+03  0.48980296425E+03  0.50400001928E-02 0.  1.
</event>
<event>
 5   0  0.3013140E-03  0.6992903E+03  0.7818609E-02  0.9718447E-01
        1   -1    0    0  501    0  0.00000000000E+00  0.00000000000E+00  0.21046108574E+03  0.21046108580E+03  0.50400001928E-02 0.  1.
       -1   -1    0    0    0  501  0.00000000000E+00  0.00000000000E+00 -0.58087575962E+03  0.58087575964E+03  0.50400001928E-02 0. -1.
    10030    2    1    2    0    0  0.00000000000E+00  0.00000000000E+00 -0.37041467388E+03  0.79133684544E+03  0.69929033479E+03 0.  0.
        2    1    3    3  502    0  0.13654067289E+03  0.13529174133E+03 -0.51572137880E+03  0.55037782584E+03  0.25500000920E-02 0. -1.
       -2    1    3    3    0  502 -0.13654067289E+03 -0.13529174133E+03  0.14530670492E+03  0.24095901960E+03  0.25500000920E-02 0.  1.
</event>
<event>
 5   0  0.5023894E-03  0.6995271E+03  0.7818609E-02  0.9718041E-01
        2   -1    0    0  501    0  0.00000000000E+00  0.00000000000E+00  0.17216912024E+04  0.17216912024E+04  0.25500000920E-02 0. -1.
       -2   -1    0    0    0  501  0.00000000000E+00  0.00000000000E+00 -0.71054865010E+02  0.71054865056E+02  0.25500000920E-02 0.  1.
    10030    2    1    2    0    0  0.00000000000E+00  0.00000000000E+00  0.16506363374E+04  0.17927460675E+04  0.69952708602E+03 0.  0.
        2    1    3    3  502    0 -0.33861266551E+03  0.85954182728E+02  0.78183532782E+03  0.85633704732E+03  0.25500000920E-02 0.  1.
       -2    1    3    3    0  502  0.33861266551E+03 -0.85954182728E+02  0.86880100958E+03  0.93640902015E+03  0.25500000920E-02 0. -1.
</event>
<event>
 5   0  0.4878235E-03  0.7008178E+03  0.7818609E-02  0.9715835E-01
       -2   -1    0    0    0  501  0.00000000000E+00  0.00000000000E+00  0.19685948301E+03  0.19685948303E+03  0.25500000920E-02 0. -1.
        2   -1    0    0  501    0  0.00000000000E+00  0.00000000000E+00 -0.62372607961E+03  0.62372607961E+03  0.25500000920E-02 0.  1.
    10030    2    1    2    0    0  0.00000000000E+00  0.00000000000E+00 -0.42686659660E+03  0.82058556264E+03  0.70081778967E+03 0.  0.
        4    1    3    3  502    0  0.34820721515E+03  0.57742076314E+01 -0.25882991190E+03  0.43390798835E+03  0.12699999809E+01 0. -1.
       -4    1    3    3    0  502 -0.34820721515E+03 -0.57742076314E+01 -0.16803668470E+03  0.38667757429E+03  0.12699999809E+01 0.  1.
</event>
<event>
 5   0  0.5076796E-03  0.6998654E+03  0.7818609E-02  0.9717462E-01
       -2   -1    0    0    0  501  0.00000000000E+00  0.00000000000E+00  0.88863168236E+02  0.88863168272E+02  0.25500000920E-02 0.  1.
        2   -1    0    0  501    0  0.00000000000E+00  0.00000000000E+00 -0.13779936954E+04  0.13779936954E+04  0.25500000920E-02 0. -1.
    10030    2    1    2    0    0  0.00000000000E+00  0.00000000000E+00 -0.12891305271E+04  0.14668568636E+04  0.69986537451E+03 0.  0.
        5    1    3    3  502    0 -0.58028856392E+02  0.24653807722E+03 -0.13857514866E+03  0.28874475496E+03  0.46999998093E+01 0.  1.
       -5    1    3    3    0  502  0.58028856392E+02 -0.24653807722E+03 -0.11505553785E+04  0.11781121087E+04  0.46999998093E+01 0. -1.
</event>
<event>
 5   0  0.2938783E-03  0.6979758E+03  0.7818609E-02  0.9720700E-01
        1   -1    0    0  501    0  0.00000000000E+00  0.00000000000E+00  0.15925272848E+04  0.15925272848E+04  0.50400001928E-02 0.  1.
       -1   -1    0    0    0  501  0.00000000000E+00  0.00000000000E+00 -0.76477527778E+02  0.76477527944E+02  0.50400001928E-02 0. -1.
    10030    2    1    2    0    0  0.00000000000E+00  0.00000000000E+00  0.15160497570E+04  0.16690048127E+04  0.69797578698E+03 0.  0.
        4    1    3    3  502    0 -0.40367819171E+02 -0.34289853475E+03  0.63652022612E+03  0.72413298304E+03  0.12699999809E+01 0. -1.
       -4    1    3    3    0  502  0.40367819171E+02  0.34289853475E+03  0.87952953087E+03  0.94487182969E+03  0.12699999809E+01 0.  1.
</event>
<event>
 5   0  0.2938783E-03  0.7004159E+03  0.7818609E-02  0.9716521E-01
        1   -1    0    0  501    0  0.00000000000E+00  0.00000000000E+00  0.89968217908E+03  0.89968217910E+03  0.50400001928E-02 0.  1.
       -1   -1    0    0    0  501  0.00000000000E+00  0.00000000000E+00 -0.13632105351E+03  0.13632105361E+03  0.50400001928E-02 0. -1.
    10030    2    1    2    0    0  0.00000000000E+00  0.00000000000E+00  0.76336112557E+03  0.10360032327E+04  0.70041594081E+03 0.  0.
        4    1    3    3  502    0 -0.28816173746E+02 -0.32501491210E+03  0.19354097683E+03  0.37937420520E+03  0.12699999809E+01 0. -1.
       -4    1    3    3    0  502  0.28816173746E+02  0.32501491210E+03  0.56982014874E+03  0.65662902751E+03  0.12699999809E+01 0.  1.
</event>
<event>
 5   0  0.5023894E-03  0.6908258E+03  0.7818609E-02  0.9733051E-01
       -2   -1    0    0    0  501  0.00000000000E+00  0.00000000000E+00  0.14478043406E+03  0.14478043408E+03  0.25500000920E-02 0. -1.
        2   -1    0    0  501    0  0.00000000000E+00  0.00000000000E+00 -0.82407604914E+03  0.82407604914E+03  0.25500000920E-02 0.  1.
    10030    2    1    2    0    0  0.00000000000E+00  0.00000000000E+00 -0.67929561508E+03  0.96885648322E+03  0.69082584811E+03 0.  0.
        2    1    3    3  502    0  0.27054747868E+03  0.18005890226E+03 -0.50375939587E+03  0.59949201449E+03  0.25500000920E-02 0.  1.
       -2    1    3    3    0  502 -0.27054747868E+03 -0.18005890226E+03 -0.17553621921E+03  0.36936446873E+03  0.25500000920E-02 0. -1.
</event>
<event>
 5   0  0.5072407E-03  0.7063737E+03  0.7818609E-02  0.9706394E-01
        2   -1    0    0  501    0  0.00000000000E+00  0.00000000000E+00  0.84996135394E+03  0.84996135394E+03  0.25500000920E-02 0.  1.
       -2   -1    0    0    0  501  0.00000000000E+00  0.00000000000E+00 -0.14676071450E+03  0.14676071453E+03  0.25500000920E-02 0. -1.
    10030    2    1    2    0    0  0.00000000000E+00  0.00000000000E+00  0.70320063944E+03  0.99672206847E+03  0.70637365641E+03 0.  0.
        1    1    3    3  502    0 -0.97106328993E+02  0.14504048628E+03 -0.81647935759E+02  0.19269864356E+03  0.50400001928E-02 0. -1.
       -1    1    3    3    0  502  0.97106328993E+02 -0.14504048628E+03  0.78484857520E+03  0.80402342491E+03  0.50400001928E-02 0.  1.
</event>
<event>
 5   0  0.5072407E-03  0.7000060E+03  0.7818609E-02  0.9717222E-01
       -2   -1    0    0    0  501  0.00000000000E+00  0.00000000000E+00  0.12386594922E+04  0.12386594922E+04  0.25500000920E-02 0. -1.
        2   -1    0    0  501    0  0.00000000000E+00  0.00000000000E+00 -0.98898941241E+02  0.98898941274E+02  0.25500000920E-02 0.  1.
    10030    2    1    2    0    0  0.00000000000E+00  0.00000000000E+00  0.11397605510E+04  0.13375584335E+04  0.70000603529E+03 0.  0.
        1    1    3    3  502    0 -0.71261880759E+02  0.34174798701E+03  0.52183751619E+03  0.62784101140E+03  0.50400001928E-02 0.  1.
       -1    1    3    3    0  502  0.71261880759E+02 -0.34174798701E+03  0.61792303478E+03  0.70971742209E+03  0.50400001928E-02 0. -1.
</event>
<event>
 5   0  0.3013140E-03  0.6990565E+03  0.7818609E-02  0.9718847E-01
       -1   -1    0    0    0  501  0.00000000000E+00  0.00000000000E+00  0.63587959502E+02  0.63587959702E+02  0.50400001928E-02 0.  1.
        1   -1    0    0  501    0  0.00000000000E+00  0.00000000000E+00 -0.19212756010E+04  0.19212756010E+04  0.50400001928E-02 0. -1.
    10030    2    1    2    0    0  0.00000000000E+00  0.00000000000E+00 -0.18576876415E+04  0.19848635607E+04  0.69905649360E+03 0.  0.
        2    1    3    3  502    0 -0.16926924751E+03  0.10908296827E+03 -0.11767070466E+03  0.23323285974E+03  0.25500000920E-02 0.  1.
       -2    1    3    3    0  502  0.16926924751E+03 -0.10908296827E+03 -0.17400169368E+04  0.17516307009E+04  0.25500000920E-02 0. -1.
</event>
<event>
 5   0  0.5076796E-03  0.6978341E+03  0.7818609E-02  0.9720943E-01
        2   -1    0    0  501    0  0.00000000000E+00  0.00000000000E+00  0.52873989601E+03  0.52873989602E+03  0.25500000920E-02 0. -1.
       -2   -1    0    0    0  501  0.00000000000E+00  0.00000000000E+00 -0.23025143001E+03  0.23025143003E+03  0.25500000920E-02 0.  1.
    10030    2    1    2    0    0  0.00000000000E+00  0.00000000000E+00  0.29848846600E+03  0.75899132604E+03  0.69783412691E+03 0.  0.
        5    1    3    3  502    0  0.62147305505E+02 -0.66636213736E+02 -0.21704679372E+03  0.23544441642E+03  0.46999998093E+01 0.  1.
       -5    1    3    3    0  502 -0.62147305505E+02  0.66636213736E+02  0.51553525972E+03  0.52354690962E+03  0.46999998093E+01 0. -1.
</event>
<event>
 5   0  0.2938783E-03  0.7000123E+03  0.7818609E-02  0.9717211E-01
        1   -1    0    0  501    0  0.00000000000E+00  0.00000000000E+00  0.43172398716E+03  0.43172398719E+03  0.50400001928E-02 0.  1.
       -1   -1    0    0    0  501  0.00000000000E+00  0.00000000000E+00 -0.28375609355E+03  0.28375609360E+03  0.50400001928E-02 0. -1.
    10030    2    1    2    0    0  0.00000000000E+00  0.00000000000E+00  0.14796789361E+03  0.71548008079E+03  0.70001232022E+03 0.  0.
        4    1    3    3  502    0  0.20676134609E+03 -0.15736726307E+03  0.31366062900E+03  0.40730739351E+03  0.12699999809E+01 0.  1.
       -4    1    3    3    0  502 -0.20676134609E+03  0.15736726307E+03 -0.16569273539E+03  0.30817268728E+03  0.12699999809E+01 0. -1.
</event>
<event>
 5   0  0.2913582E-03  0.6997410E+03  0.7818609E-02  0.9717675E-01
       -1   -1    0    0    0  501  0.00000000000E+00  0.00000000000E+00  0.87262078597E+02  0.87262078742E+02  0.50400001928E-02 0. -1.
        1   -1    0    0  501    0  0.00000000000E+00  0.00000000000E+00 -0.14027783457E+04  0.14027783457E+04  0.50400001928E-02 0.  1.
    10030    2    1    2    0    0  0.00000000000E+00  0.00000000000E+00 -0.13155162671E+04  0.14900404245E+04  0.69974096457E+03 0.  0.
        1    1    3    3  502    0  0.82095727989E+02  0.14654994843E+03 -0.13112941238E+04  0.13220094081E+04  0.50400001928E-02 0.  1.
       -1    1    3    3    0  502 -0.82095727989E+02 -0.14654994843E+03 -0.42221432965E+01  0.16803101636E+03  0.50400001928E-02 0. -1.
</event>
<event>
 5   0  0.2913582E-03  0.6994921E+03  0.7818609E-02  0.9718101E-01
       -1   -1    0    0    0  501  0.00000000000E+00  0.00000000000E+00  0.82019437197E+02  0.82019437352E+02  0.50400001928E-02 0. -1.
        1   -1    0    0  501    0  0.00000000000E+00  0.00000000000E+00 -0.14913816996E+04  0.14913816996E+04  0.50400001928E-02 0.  1.
    10030    2    1    2    0    0  0.00000000000E+00  0.00000000000E+00 -0.14093622624E+04  0.15734011370E+04  0.69949206651E+03 0.  0.
        1    1    3    3  502    0  0.22039207953E+03 -0.50008574492E+02 -0.10427471277E+03  0.24889102433E+03  0.50400001928E-02 0. -1.
       -1    1    3    3    0  502 -0.22039207953E+03  0.50008574492E+02 -0.13050875496E+04  0.13245101127E+04  0.50400001928E-02 0.  1.
</event>
<event>
 5   0  0.3013140E-03  0.6993893E+03  0.7818609E-02  0.9718277E-01
        1   -1    0    0  501    0  0.00000000000E+00  0.00000000000E+00  0.28360405487E+03  0.28360405492E+03  0.50400001928E-02 0. -1.
       -1   -1    0    0    0  501  0.00000000000E+00  0.00000000000E+00 -0.43118687883E+03  0.43118687886E+03  0.50400001928E-02 0.  1.
    10030    2    1    2    0    0  0.00000000000E+00  0.00000000000E+00 -0.14758282395E+03  0.71479093378E+03  0.69938929723E+03 0.  0.
        2    1    3    3  502    0 -0.17356130741E+03 -0.18980014129E+03 -0.31594523532E+03  0.40739294642E+03  0.25500000920E-02 0.  1.
       -2    1    3    3    0  502  0.17356130741E+03  0.18980014129E+03  0.16836241136E+03  0.30739798736E+03  0.25500000920E-02 0. -1.
</event>
<event>
 5   0  0.1981750E-03  0.6995908E+03  0.7818609E-02  0.9717932E-01
        3   -1    0    0  501    0  0.00000000000E+00  0.00000000000E+00  0.78149604272E+03  0.78149604925E+03  0.10100000352E+00 0.  1.
       -3   -1    0    0    0  501  0.00000000000E+00  0.00000000000E+00 -0.15656740434E+03  0.15656743691E+03  0.10100000352E+00 0. -1.
    10030    2    1    2    0    0  0.00000000000E+00  0.00000000000E+00  0.62492863839E+03  0.93806348616E+03  0.69959080968E+03 0.  0.
        1    1    3    3  502    0 -0.18830789281E+03  0.15658339070E+03 -0.22428598490E+02  0.24592938579E+03  0.50400001928E-02 0. -1.
       -1    1    3    3    0  502  0.18830789281E+03 -0.15658339070E+03  0.64735723688E+03  0.69213410038E+03  0.50400001928E-02 0.  1.
</event>
<event>
 5   0  0.2913582E-03  0.7002211E+03  0.7818609E-02  0.9716854E-01
        1   -1    0    0  501    0  0.00000000000E+00  0.00000000000E+00  0.32452208120E+03  0.32452208123E+03  0.50400001928E-02 0. -1.
       -1   -1    0    0    0  501  0.00000000000E+00  0.00000000000E+00 -0.37771667883E+03  0.37771667886E+03  0.50400001928E-02 0.  1.
    10030    2    1    2    0    0  0.00000000000E+00  0.00000000000E+00 -0.53194597632E+02  0.70223876010E+03  0.70022111577E+03 0.  0.
        1    1    3    3  502    0 -0.28626408487E+03 -0.14877516253E+03 -0.16299001310E+03  0.36145113040E+03  0.50400001928E-02 0.  1.
       -1    1    3    3    0  502  0.28626408487E+03  0.14877516253E+03  0.10979541547E+03  0.34078762970E+03  0.50400001928E-02 0. -1.
</event>
<event>
 5   0  0.5113683E-03  0.7005809E+03  0.7818609E-02  0.9716239E-01
       -2   -1    0    0    0  501  0.00000000000E+00  0.00000000000E+00  0.11056441842E+03  0.11056441845E+03  0.25500000920E-02 0.  1.
        2   -1    0    0  501    0  0.00000000000E+00  0.00000000000E+00 -0.11097908818E+04  0.11097908818E+04  0.25500000920E-02 0. -1.
    10030    2    1    2    0    0  0.00000000000E+00  0.00000000000E+00 -0.99922646338E+03  0.12203553003E+04  0.70058085455E+03 0.  0.
        3    1    3    3  502    0  0.33513599518E+03 -0.92905624128E+02 -0.42662321810E+03  0.55041345431E+03  0.10100000352E+00 0.  1.
       -3    1    3    3    0  502 -0.33513599518E+03  0.92905624128E+02 -0.57260324528E+03  0.66994184595E+03  0.10100000352E+00 0. -1.
</event>
<event>
 5   0  0.2913582E-03  0.6982739E+03  0.7818609E-02  0.9720189E-01
       -1   -1    0    0    0  501  0.00000000000E+00  0.00000000000E+00  0.11076928060E+03  0.11076928071E+03  0.50400001928E-02 0.  1.
        1   -1    0    0  501    0  0.00000000000E+00  0.00000000000E+00 -0.11004550960E+04  0.11004550960E+04  0.50400001928E-02 0. -1.
    10030    2    1    2    0    0  0.00000000000E+00  0.00000000000E+00 -0.98968581538E+03  0.12112243767E+04  0.69827392731E+03 0.  0.
        1    1    3    3  502    0  0.34065599647E+03 -0.74552848765E+02 -0.46520289165E+03  0.58139346884E+03  0.50400001928E-02 0.  1.
       -1    1    3    3    0  502 -0.34065599647E+03  0.74552848765E+02 -0.52448292374E+03  0.62983090787E+03  0.50400001928E-02 0. -1.
</event>
<event>
 5   0  0.4878235E-03  0.6988336E+03  0.7818609E-02  0.9719229E-01
        2   -1    0    0  501    0  0.00000000000E+00  0.00000000000E+00  0.92668429629E+03  0.92668429630E+03  0.25500000920E-02 0. -1.
       -2   -1    0    0    0  501  0.00000000000E+00  0.00000000000E+00 -0.13175156956E+03  0.13175156959E+03  0.25500000920E-02 0.  1.
    10030    2    1    2    0    0  0.00000000000E+00  0.00000000000E+00  0.79493272673E+03  0.10584358659E+04  0.69883362982E+03 0.  0.
        4    1    3    3  502    0 -0.74298995192E+02 -0.16140894617E+03 -0.58210070477E+02  0.18698452822E+03  0.12699999809E+01 0.  1.
       -4    1    3    3    0  502  0.74298995192E+02  0.16140894617E+03  0.85314279721E+03  0.87145133766E+03  0.12699999809E+01 0. -1.
</event>
<event>
 5   0  0.5113683E-03  0.7002192E+03  0.7818609E-02  0.9716857E-01
        2   -1    0    0  501    0  0.00000000000E+00  0.00000000000E+00  0.61895971180E+03  0.61895971181E+03  0.25500000920E-02 0.  1.
       -2   -1    0    0    0  501  0.00000000000E+00  0.00000000000E+00 -0.19803666905E+03  0.19803666906E+03  0.25500000920E-02 0. -1.
    10030    2    1    2    0    0  0.00000000000E+00  0.00000000000E+00  0.42092304275E+03  0.81699638087E+03  0.70021916457E+03 0.  0.
        3    1    3    3  502    0 -0.13304694169E+03  0.80447279538E+02 -0.15554709993E+03  0.21992763350E+03  0.10100000352E+00 0. -1.
       -3    1    3    3    0  502  0.13304694169E+03 -0.80447279538E+02  0.57647014269E+03  0.59706874737E+03  0.10100000352E+00 0.  1.
</event>
<event>
 5   0  0.5023894E-03  0.7006686E+03  0.7818609E-02  0.9716089E-01
       -2   -1    0    0    0  501  0.00000000000E+00  0.00000000000E+00  0.14106569701E+03  0.14106569703E+03  0.25500000920E-02 0. -1.
        2   -1    0    0  501    0  0.00000000000E+00  0.00000000000E+00 -0.87004949243E+03  0.87004949244E+03  0.25500000920E-02 0.  1.
    10030    2    1    2    0    0  0.00000000000E+00  0.00000000000E+00 -0.72898379542E+03  0.10111151895E+04  0.70066864664E+03 0.  0.
        2    1    3    3  502    0 -0.12932066964E+03  0.17918932978E+03  0.27804696488E+02  0.22272348923E+03  0.25500000920E-02 0. -1.
       -2    1    3    3    0  502  0.12932066964E+03 -0.17918932978E+03 -0.75678849191E+03  0.78839170023E+03  0.25500000920E-02 0.  1.
</event>
<event>
 5   0  0.2934483E-03  0.6993468E+03  0.7818609E-02  0.9718350E-01
       -1   -1    0    0    0  501  0.00000000000E+00  0.00000000000E+00  0.10915231247E+03  0.10915231259E+03  0.50400001928E-02 0. -1.
        1   -1    0    0  501    0  0.00000000000E+00  0.00000000000E+00 -0.11201912850E+04  0.11201912850E+04  0.50400001928E-02 0.  1.
    10030    2    1    2    0    0  0.00000000000E+00  0.00000000000E+00 -0.10110389726E+04  0.12293435976E+04  0.69934675019E+03 0.  0.
        5    1    3    3  502    0  0.65638714042E+02 -0.33668554244E+03 -0.38650692713E+03  0.51679327587E+03  0.46999998093E+01 0. -1.
       -5    1    3    3    0  502 -0.65638714042E+02  0.33668554244E+03 -0.62453204544E+03  0.71255032176E+03  0.46999998093E+01 0.  1.
</event>
<event>
 5   0  0.2913582E-03  0.6994871E+03  0.7818609E-02  0.9718110E-01
       -1   -1    0    0    0  501  0.00000000000E+00  0.00000000000E+00  0.13904912864E+03  0.13904912873E+03  0.50400001928E-02 0.  1.
        1   -1    0    0  501    0  0.00000000000E+00  0.00000000000E+00 -0.87969295834E+03  0.87969295835E+03  0.50400001928E-02 0. -1.
    10030    2    1    2    0    0  0.00000000000E+00  0.00000000000E+00 -0.74064382970E+03  0.10187420871E+04  0.69948706744E+03 0.  0.
        1    1    3    3  502    0 -0.12259911612E+03  0.56310580303E+02  0.99626070656E+02  0.16771040131E+03  0.50400001928E-02 0.  1.
       -1    1    3    3    0  502  0.12259911612E+03 -0.56310580303E+02 -0.84026990035E+03  0.85103168577E+03  0.50400001928E-02 0. -1.
</event>
<event>
 5   0  0.4878235E-03  0.7014357E+03  0.7818609E-02  0.9714780E-01
        2   -1    0    0  501    0  0.00000000000E+00  0.00000000000E+00  0.54691607099E+03  0.54691607100E+03  0.25500000920E-02 0. -1.
       -2   -1    0    0    0  501  0.00000000000E+00  0.00000000000E+00 -0.22490292183E+03  0.22490292184E+03  0.25500000920E-02 0.  1.
    10030    2    1    2    0    0  0.00000000000E+00  0.00000000000E+00  0.32201314916E+03  0.77181899284E+03  0.70143573439E+03 0.  0.
        4    1    3    3  502    0 -0.10369395004E+03  0.32303077735E+03  0.63205500694E+02  0.34510558762E+03  0.12699999809E+01 0.  1.
       -4    1    3    3    0  502  0.10369395004E+03 -0.32303077735E+03  0.25880764847E+03  0.42671340522E+03  0.12699999809E+01 0. -1.
</event>
<event>
 5   0  0.4878235E-03  0.7009341E+03  0.7818609E-02  0.9715636E-01
        2   -1    0    0  501    0  0.00000000000E+00  0.00000000000E+00  0.17698631535E+04  0.17698631535E+04  0.25500000920E-02 0. -1.
       -2   -1    0    0    0  501  0.00000000000E+00  0.00000000000E+00 -0.69399244956E+02  0.69399245003E+02  0.25500000920E-02 0.  1.
    10030    2    1    2    0    0  0.00000000000E+00  0.00000000000E+00  0.17004639085E+04  0.18392623985E+04  0.70093413833E+03 0.  0.
        4    1    3    3  502    0 -0.34943184271E+03  0.17962692925E+02  0.79773309651E+03  0.87109412649E+03  0.12699999809E+01 0.  1.
       -4    1    3    3    0  502  0.34943184271E+03 -0.17962692925E+02  0.90273081200E+03  0.96816827198E+03  0.12699999809E+01 0. -1.
</event>
<event>
 5   0  0.5076796E-03  0.6999470E+03  0.7818609E-02  0.9717323E-01
       -2   -1    0    0    0  501  0.00000000000E+00  0.00000000000E+00  0.52775588412E+03  0.52775588412E+03  0.25500000920E-02 0.  1.
        2   -1    0    0  501    0  0.00000000000E+00  0.00000000000E+00 -0.23207971970E+03  0.23207971971E+03  0.25500000920E-02 0. -1.
    10030    2    1    2    0    0  0.00000000000E+00  0.00000000000E+00  0.29567616442E+03  0.75983560383E+03  0.69994696274E+03 0.  0.
        5    1    3    3  502    0 -0.15893321524E+03  0.21060534954E+03  0.39738736371E+03  0.47702535257E+03  0.46999998093E+01 0.  1.
       -5    1    3    3    0  502  0.15893321524E+03 -0.21060534954E+03 -0.10171119929E+03  0.28281025127E+03  0.46999998093E+01 0. -1.
</event>
<event>
 5   0  0.5113683E-03  0.6993643E+03  0.7818609E-02  0.9718320E-01
        2   -1    0    0  501    0  0.00000000000E+00  0.00000000000E+00  0.24431914048E+03  0.24431914050E+03  0.25500000920E-02 0.  1.
       -2   -1    0    0    0  501  0.00000000000E+00  0.00000000000E+00 -0.50048317043E+03  0.50048317044E+03  0.25500000920E-02 0. -1.
    10030    2    1    2    0    0  0.00000000000E+00  0.00000000000E+00 -0.25616402995E+03  0.74480231094E+03  0.69936433433E+03 0.  0.
        3    1    3    3  502    0  0.29746082899E+03  0.68586800546E+02  0.53558711832E+02  0.30992844305E+03  0.10100000352E+00 0.  1.
       -3    1    3    3    0  502 -0.29746082899E+03 -0.68586800546E+02 -0.30972274178E+03  0.43487386789E+03  0.10100000352E+00 0. -1.
</event>
<event>
 5   0  0.1981750E-03  0.7035950E+03  0.7818609E-02  0.9711104E-01
        3   -1    0    0  501    0  0.00000000000E+00  0.00000000000E+00  0.35199193356E+03  0.35199194805E+03  0.10100000352E+00 0. -1.
       -3   -1    0    0    0  501  0.00000000000E+00  0.00000000000E+00 -0.35160313587E+03  0.35160315038E+03  0.10100000352E+00 0.  1.
    10030    2    1    2    0    0  0.00000000000E+00  0.00000000000E+00  0.38879768271E+00  0.70359509843E+03  0.70359499100E+03 0.  0.
        3    1    3    3  502    0 -0.30350895465E+03  0.76525961156E+01 -0.17752793939E+03  0.35169934211E+03  0.10100000352E+00 0.  1.
       -3    1    3    3    0  502  0.30350895465E+03 -0.76525961156E+01  0.17791673708E+03  0.35189575631E+03  0.10100000352E+00 0. -1.
</event>
<event>
 5   0  0.4878235E-03  0.6995873E+03  0.7818609E-02  0.9717938E-01
        2   -1    0    0  501    0  0.00000000000E+00  0.00000000000E+00  0.68824710974E+03  0.68824710975E+03  0.25500000920E-02 0. -1.
       -2   -1    0    0    0  501  0.00000000000E+00  0.00000000000E+00 -0.17777860265E+03  0.17777860267E+03  0.25500000920E-02 0.  1.
    10030    2    1    2    0    0  0.00000000000E+00  0.00000000000E+00  0.51046850709E+03  0.86602571241E+03  0.69958733395E+03 0.  0.
        4    1    3    3  502    0  0.23391348726E+03  0.61453618914E+02  0.56806531437E+03  0.61740738665E+03  0.12699999809E+01 0. -1.
       -4    1    3    3    0  502 -0.23391348726E+03 -0.61453618914E+02 -0.57596807276E+02  0.24861832577E+03  0.12699999809E+01 0.  1.
</event>
<event>
 5   0  0.1981750E-03  0.6980093E+03  0.7818609E-02  0.9720643E-01
        3   -1    0    0  501    0  0.00000000000E+00  0.00000000000E+00  0.62555578294E+03  0.62555579109E+03  0.10100000352E+00 0.  1.
       -3   -1    0    0    0  501  0.00000000000E+00  0.00000000000E+00 -0.19471359893E+03  0.19471362513E+03  0.10100000352E+00 0. -1.
    10030    2    1    2    0    0  0.00000000000E+00  0.00000000000E+00  0.43084218401E+03  0.82026941622E+03  0.69800926044E+03 0.  0.
        1    1    3    3  502    0 -0.62215767036E+02  0.13224334259E+03  0.58786405601E+03  0.60575841035E+03  0.50400001928E-02 0.  1.
       -1    1    3    3    0  502  0.62215767036E+02 -0.13224334259E+03 -0.15702187201E+03  0.21451100587E+03  0.50400001928E-02 0. -1.
</event>
<event>
 5   0  0.2934483E-03  0.7001981E+03  0.7818609E-02  0.9716894E-01
       -1   -1    0    0    0  501  0.00000000000E+00  0.00000000000E+00  0.18655288090E+03  0.18655288097E+03  0.50400001928E-02 0.  1.
        1   -1    0    0  501    0  0.00000000000E+00  0.00000000000E+00 -0.65702191483E+03  0.65702191485E+03  0.50400001928E-02 0. -1.
    10030    2    1    2    0    0  0.00000000000E+00  0.00000000000E+00 -0.47046903393E+03  0.84357479582E+03  0.70019806073E+03 0.  0.
        5    1    3    3  502    0  0.24501844522E+03 -0.61908330320E+02 -0.52707787998E+03  0.58455099130E+03  0.46999998093E+01 0. -1.
       -5    1    3    3    0  502 -0.24501844522E+03  0.61908330320E+02  0.56608846048E+02  0.25902380452E+03  0.46999998093E+01 0.  1.
</event>
<event>
 5   0  0.3013140E-03  0.7000417E+03  0.7818609E-02  0.9717161E-01
       -1   -1    0    0    0  501  0.00000000000E+00  0.00000000000E+00  0.18592146577E+03  0.18592146584E+03  0.50400001928E-02 0. -1.
        1   -1    0    0  501    0  0.00000000000E+00  0.00000000000E+00 -0.65895880229E+03  0.65895880231E+03  0.50400001928E-02 0.  1.
    10030    2    1    2    0    0  0.00000000000E+00  0.00000000000E+00 -0.47303733652E+03  0.84488026815E+03  0.70004167431E+03 0.  0.
        2    1    3    3  502    0 -0.72561425472E+02  0.35172107939E+02 -0.64759586135E+03  0.65259684131E+03  0.25500000920E-02 0.  1.
       -2    1    3    3    0  502  0.72561425472E+02 -0.35172107939E+02  0.17455852482E+03  0.19228342684E+03  0.25500000920E-02 0. -1.
</event>
<event>
 5   0  0.1981750E-03  0.7009412E+03  0.7818609E-02  0.9715624E-01
       -3   -1    0    0    0  501  0.00000000000E+00  0.00000000000E+00  0.10053816895E+04  0.10053816946E+04  0.10100000352E+00 0.  1.
        3   -1    0    0  501    0  0.00000000000E+00  0.00000000000E+00 -0.12217212755E+03  0.12217216930E+03  0.10100000352E+00 0. -1.
    10030    2    1    2    0    0  0.00000000000E+00  0.00000000000E+00  0.88320956198E+03  0.11275538639E+04  0.70094121410E+03 0.  0.
        4    1    3    3  502    0  0.64925159235E+02  0.89508382251E+02  0.97658194120E+03  0.98282293806E+03  0.12699999809E+01 0.  1.
       -4    1    3    3    0  502 -0.64925159235E+02 -0.89508382251E+02 -0.93372379216E+02  0.14473092584E+03  0.12699999809E+01 0. -1.
</event>
<event>
 5   0  0.4878235E-03  0.7006813E+03  0.7818609E-02  0.9716068E-01
        2   -1    0    0  501    0  0.00000000000E+00  0.00000000000E+00  0.30007335022E+03  0.30007335023E+03  0.25500000920E-02 0. -1.
       -2   -1    0    0    0  501  0.00000000000E+00  0.00000000000E+00 -0.40902854711E+03  0.40902854712E+03  0.25500000920E-02 0.  1.
    10030    2    1    2    0    0  0.00000000000E+00  0.00000000000E+00 -0.10895519689E+03  0.70910189736E+03  0.70068128697E+03 0.  0.
        4    1    3    3  502    0  0.69003274611E+02  0.17082484066E+03  0.24708734711E+03  0.30821477592E+03  0.12699999809E+01 0. -1.
       -4    1    3    3    0  502 -0.69003274611E+02 -0.17082484066E+03 -0.35604254400E+03  0.40088712143E+03  0.12699999809E+01 0.  1.
</event>
<event>
 5   0  0.5113683E-03  0.7061991E+03  0.7818609E-02  0.9706689E-01
       -2   -1    0    0    0  501  0.00000000000E+00  0.00000000000E+00  0.93627138744E+02  0.93627138779E+02  0.25500000920E-02 0. -1.
        2   -1    0    0  501    0  0.00000000000E+00  0.00000000000E+00 -0.13316574410E+04  0.13316574411E+04  0.25500000920E-02 0.  1.
    10030    2    1    2    0    0  0.00000000000E+00  0.00000000000E+00 -0.12380303023E+04  0.14252845798E+04  0.70619905415E+03 0.  0.
        3    1    3    3  502    0  0.22495400773E+03 -0.13906706164E+02 -0.70431962559E+02  0.23613211053E+03  0.10100000352E+00 0. -1.
       -3    1    3    3    0  502 -0.22495400773E+03  0.13906706164E+02 -0.11675983397E+04  0.11891524693E+04  0.10100000352E+00 0.  1.
</event>
<event>
 5   0  0.2934483E-03  0.7002329E+03  0.7818609E-02  0.9716834E-01
        1   -1    0    0  501    0  0.00000000000E+00  0.00000000000E+00  0.15797453093E+03  0.15797453101E+03  0.50400001928E-02 0. -1.
       -1   -1    0    0    0  501  0.00000000000E+00  0.00000000000E+00 -0.77595744060E+03  0.77595744061E+03  0.50400001928E-02 0.  1.
    10030    2    1    2    0    0  0.00000000000E+00  0.00000000000E+00 -0.61798290966E+03  0.93393197163E+03  0.70023285483E+03 0.  0.
        5    1    3    3  502    0  0.17773224579E+03 -0.29304501014E+03 -0.21378697916E+03  0.40396917162E+03  0.46999998093E+01 0.  1.
       -5    1    3    3    0  502 -0.17773224579E+03  0.29304501014E+03 -0.40419593050E+03  0.52996280001E+03  0.46999998093E+01 0. -1.
</event>
<event>
 5   0  0.5023894E-03  0.6995175E+03  0.7818609E-02  0.9718058E-01
       -2   -1    0    0    0  501  0.00000000000E+00  0.00000000000E+00  0.12098942558E+04  0.12098942558E+04  0.25500000920E-02 0.  1.
        2   -1    0    0  501    0  0.00000000000E+00  0.00000000000E+00 -0.10110899831E+03  0.10110899834E+03  0.25500000920E-02 0. -1.
    10030    2    1    2    0    0  0.00000000000E+00  0.00000000000E+00  0.11087852575E+04  0.13110032542E+04  0.69951753741E+03 0.  0.
        2    1    3    3  502    0  0.26750191284E+03 -0.17191647499E+03  0.82739349324E+03  0.88639299433E+03  0.25500000920E-02 0.  1.
       -2    1    3    3    0  502 -0.26750191284E+03  0.17191647499E+03  0.28139176428E+03  0.42461025983E+03  0.25500000920E-02 0. -1.
</event>
<event>
 5   0  0.1981750E-03  0.6981642E+03  0.7818609E-02  0.9720377E-01
        3   -1    0    0  501    0  0.00000000000E+00  0.00000000000E+00  0.51623596661E+03  0.51623597649E+03  0.10100000352E+00 0.  1.
       -3   -1    0    0    0  501  0.00000000000E+00  0.00000000000E+00 -0.23605155085E+03  0.23605157246E+03  0.10100000352E+00 0. -1.
    10030    2    1    2    0    0  0.00000000000E+00  0.00000000000E+00  0.28018441576E+03  0.75228754894E+03  0.69816419950E+03 0.  0.
        3    1    3    3  502    0  0.34781377652E+03 -0.29616909439E+02  0.14288498752E+03  0.37718392639E+03  0.10100000352E+00 0.  1.
       -3    1    3    3    0  502 -0.34781377652E+03  0.29616909439E+02  0.13729942823E+03  0.37510362256E+03  0.10100000352E+00 0. -1.
</event>
<event>
 5   0  0.4878235E-03  0.6999884E+03  0.7818609E-02  0.9717252E-01
        2   -1    0    0  501    0  0.00000000000E+00  0.00000000000E+00  0.73549416078E+03  0.73549416078E+03  0.25500000920E-02 0.  1.
       -2   -1    0    0    0  501  0.00000000000E+00  0.00000000000E+00 -0.16654915800E+03  0.16654915802E+03  0.25500000920E-02 0. -1.
    10030    2    1    2    0    0  0.00000000000E+00  0.00000000000E+00  0.56894500278E+03  0.90204331880E+03  0.69998838048E+03 0.  0.
        4    1    3    3  502    0 -0.74932646182E+02 -0.42446787823E+01 -0.15605406945E+03  0.17316871615E+03  0.12699999809E+01 0. -1.
       -4    1    3    3    0  502  0.74932646182E+02  0.42446787823E+01  0.72499907223E+03  0.72887460265E+03  0.12699999809E+01 0.  1.
</event>
<event>
 5   0  0.2913582E-03  0.7003286E+03  0.7818609E-02  0.9716670E-01
       -1   -1    0    0    0  501  0.00000000000E+00  0.00000000000E+00  0.12519073722E+03  0.12519073732E+03  0.50400001928E-02 0. -1.
        1   -1    0    0  501    0  0.00000000000E+00  0.00000000000E+00 -0.97942571736E+03  0.97942571737E+03  0.50400001928E-02 0.  1.
    10030    2    1    2    0    0  0.00000000000E+00  0.00000000000E+00 -0.85423498014E+03  0.11046164547E+04  0.70032857337E+03 0.  0.
        1    1    3    3  502    0  0.16082966894E+02  0.16349936821E+03  0.60628657476E+02  0.17511864367E+03  0.50400001928E-02 0. -1.
       -1    1    3    3    0  502 -0.16082966894E+02 -0.16349936821E+03 -0.91486363762E+03  0.92949781102E+03  0.50400001928E-02 0.  1.
</event>
<event>
 5   0  0.5023894E-03  0.7009749E+03  0.7818609E-02  0.9715567E-01
       -2   -1    0    0    0  501  0.00000000000E+00  0.00000000000E+00  0.19128482007E+03  0.19128482008E+03  0.25500000920E-02 0.  1.
        2   -1    0    0  501    0  0.00000000000E+00  0.00000000000E+00 -0.64219124721E+03  0.64219124722E+03  0.25500000920E-02 0. -1.
    10030    2    1    2    0    0  0.00000000000E+00  0.00000000000E+00 -0.45090642714E+03  0.83347606730E+03  0.70097485598E+03 0.  0.
        2    1    3    3  502    0  0.19993237407E+03  0.13228153899E+03  0.78551413249E+02  0.25227303520E+03  0.25500000920E-02 0.  1.
       -2    1    3    3    0  502 -0.19993237407E+03 -0.13228153899E+03 -0.52945784039E+03  0.58120303210E+03  0.25500000920E-02 0. -1.
</event>
<event>
 5   0  0.2934483E-03  0.7010991E+03  0.7818609E-02  0.9715354E-01
        1   -1    0    0  501    0  0.00000000000E+00  0.00000000000E+00  0.11744963085E+04  0.11744963085E+04  0.50400001928E-02 0. -1.
       -1   -1    0    0    0  501  0.00000000000E+00  0.00000000000E+00 -0.10462781024E+03  0.10462781036E+03  0.50400001928E-02 0.  1.
    10030    2    1    2    0    0  0.00000000000E+00  0.00000000000E+00  0.10698684983E+04  0.12791241189E+04  0.70109907140E+03 0.  0.
        5    1    3    3  502    0 -0.17931541512E+03 -0.42791104217E+02 -0.89793537082E+01  0.18462885877E+03  0.46999998093E+01 0.  1.
       -5    1    3    3    0  502  0.17931541512E+03  0.42791104217E+02  0.10788478520E+04  0.10944952601E+04  0.46999998093E+01 0. -1.
</event>
<event>
 5   0  0.1981750E-03  0.6960004E+03  0.7818609E-02  0.9724097E-01
       -3   -1    0    0    0  501  0.00000000000E+00  0.00000000000E+00  0.44829834417E+03  0.44829835555E+03  0.10100000352E+00 0.  1.
        3   -1    0    0  501    0  0.00000000000E+00  0.00000000000E+00 -0.27014185288E+03  0.27014187176E+03  0.10100000352E+00 0. -1.
    10030    2    1    2    0    0  0.00000000000E+00  0.00000000000E+00  0.17815649129E+03  0.71844022731E+03  0.69600044887E+03 0.  0.
        2    1    3    3  502    0  0.83142042309E+02  0.27055694153E+03 -0.11991041433E+03  0.30739577954E+03  0.25500000920E-02 0. -1.
       -2    1    3    3    0  502 -0.83142042309E+02 -0.27055694153E+03  0.29806690563E+03  0.41104444777E+03  0.25500000920E-02 0.  1.
</event>
<event>
 5   0  0.2913582E-03  0.7022239E+03  0.7818609E-02  0.9713437E-01
        1   -1    0    0  501    0  0.00000000000E+00  0.00000000000E+00  0.52716108949E+03  0.52716108951E+03  0.50400001928E-02 0. -1.
       -1   -1    0    0    0  501  0.00000000000E+00  0.00000000000E+00 -0.23385564445E+03  0.23385564450E+03  0.50400001928E-02 0.  1.
    10030    2    1    2    0    0  0.00000000000E+00  0.00000000000E+00  0.29330544504E+03  0.76101673401E+03  0.70222388549E+03 0.  0.
        1    1    3    3  502    0 -0.25305192615E+03 -0.11382579821E+03  0.37981207922E+03  0.47037092301E+03  0.50400001928E-02 0. -1.
       -1    1    3    3    0  502  0.25305192615E+03  0.11382579821E+03 -0.86506634181E+02  0.29064581100E+03  0.50400001928E-02 0.  1.
</event>
<event>
 5   0  0.5076796E-03  0.6991871E+03  0.7818609E-02  0.9718623E-01
       -2   -1    0    0    0  501  0.00000000000E+00  0.00000000000E+00  0.15649113215E+03  0.15649113217E+03  0.25500000920E-02 0.  1.
        2   -1    0    0  501    0  0.00000000000E+00  0.00000000000E+00 -0.78097503108E+03  0.78097503108E+03  0.25500000920E-02 0. -1.
    10030    2    1    2    0    0  0.00000000000E+00  0.00000000000E+00 -0.62448389893E+03  0.93746616326E+03  0.69918714750E+03 0.  0.
        5    1    3    3  502    0  0.30029655910E+03  0.36121424978E+02 -0.54720939847E+03  0.62525434546E+03  0.46999998093E+01 0. -1.
       -5    1    3    3    0  502 -0.30029655910E+03 -0.36121424978E+02 -0.77274500461E+02  0.31221181779E+03  0.46999998093E+01 0.  1.
</event>
<event>
 5   0  0.2934483E-03  0.6987978E+03  0.7818609E-02  0.9719290E-01
        1   -1    0    0  501    0  0.00000000000E+00  0.00000000000E+00  0.28820820469E+03  0.28820820473E+03  0.50400001928E-02 0. -1.
       -1   -1    0    0    0  501  0.00000000000E+00  0.00000000000E+00 -0.42358119549E+03  0.42358119552E+03  0.50400001928E-02 0.  1.
    10030    2    1    2    0    0  0.00000000000E+00  0.00000000000E+00 -0.13537299080E+03  0.71178940025E+03  0.69879775591E+03 0.  0.
        5    1    3    3  502    0 -0.24383613350E+03  0.14504275580E+03 -0.27534934676E+03  0.39538944570E+03  0.46999998093E+01 0.  1.
       -5    1    3    3    0  502  0.24383613350E+03 -0.14504275580E+03  0.13997635597E+03  0.31639995455E+03  0.46999998093E+01 0. -1.
</event>
<event>
 5   0  0.5113683E-03  0.6996944E+03  0.7818609E-02  0.9717755E-01
       -2   -1    0    0    0  501  0.00000000000E+00  0.00000000000E+00  0.72792151979E+02  0.72792152024E+02  0.25500000920E-02 0.  1.
        2   -1    0    0  501    0  0.00000000000E+00  0.00000000000E+00 -0.16814048110E+04  0.16814048110E+04  0.25500000920E-02 0. -1.
    10030    2    1    2    0    0  0.00000000000E+00  0.00000000000E+00 -0.16086126590E+04  0.17541969630E+04  0.69969443211E+03 0.  0.
        3    1    3    3  502    0 -0.20603893750E+03 -0.26150606859E+03 -0.53480176502E+03  0.62996063825E+03  0.10100000352E+00 0.  1.
       -3    1    3    3    0  502  0.20603893750E+03  0.26150606859E+03 -0.10738108940E+04  0.11242363248E+04  0.10100000352E+00 0. -1.
</event>
<event>
 5   0  0.2913582E-03  0.6986712E+03  0.7818609E-02  0.9719507E-01
        1   -1    0    0  501    0  0.00000000000E+00  0.00000000000E+00  0.48486619846E+03  0.48486619848E+03  0.50400001928E-02 0. -1.
       -1   -1    0    0    0  501  0.00000000000E+00  0.00000000000E+00 -0.25168875318E+03  0.25168875323E+03  0.50400001928E-02 0.  1.
    10030    2    1    2    0    0  0.00000000000E+00  0.00000000000E+00  0.23317744528E+03  0.73655495171E+03  0.69867122161E+03 0.  0.
        1    1    3    3  502    0  0.19307458046E+03 -0.14605609059E+03  0.38208791224E+03  0.45232880510E+03  0.50400001928E-02 0. -1.
       -1    1    3    3    0  502 -0.19307458046E+03  0.14605609059E+03 -0.14891046696E+03  0.28422614661E+03  0.50400001928E-02 0.  1.
</event>
<event>
 5   0  0.2937617E-03  0.7008257E+03  0.7818609E-02  0.9715821E-01
       -1   -1    0    0    0  501  0.00000000000E+00  0.00000000000E+00  0.61455416891E+03  0.61455416893E+03  0.50400001928E-02 0. -1.
        1   -1    0    0  501    0  0.00000000000E+00  0.00000000000E+00 -0.19980199665E+03  0.19980199672E+03  0.50400001928E-02 0.  1.
    10030    2    1    2    0    0  0.00000000000E+00  0.00000000000E+00  0.41475217226E+03  0.81435616565E+03  0.70082565602E+03 0.  0.
        3    1    3    3  502    0 -0.31024560033E+03  0.10639988757E+02  0.18489823769E+02  0.31097817555E+03  0.10100000352E+00 0.  1.
       -3    1    3    3    0  502  0.31024560033E+03 -0.10639988757E+02  0.39626234849E+03  0.50337799010E+03  0.10100000352E+00 0. -1.
</event>
<event>
 5   0  0.5113683E-03  0.6987289E+03  0.7818609E-02  0.9719408E-01
        2   -1    0    0  501    0  0.00000000000E+00  0.00000000000E+00  0.76632055469E+03  0.76632055469E+03  0.25500000920E-02 0. -1.
       -2   -1    0    0    0  501  0.00000000000E+00  0.00000000000E+00 -0.15927474818E+03  0.15927474820E+03  0.25500000920E-02 0.  1.
    10030    2    1    2    0    0  0.00000000000E+00  0.00000000000E+00  0.60704580651E+03  0.92559530289E+03  0.69872888414E+03 0.  0.
        3    1    3    3  502    0  0.20603715955E+03 -0.26991058501E+03  0.19466907224E+03  0.39140655705E+03  0.10100000352E+00 0.  1.
       -3    1    3    3    0  502 -0.20603715955E+03  0.26991058501E+03  0.41237673427E+03  0.53418874584E+03  0.10100000352E+00 0. -1.
</event>
<event>
 5   0  0.5076796E-03  0.6996551E+03  0.7818609E-02  0.9717822E-01
       -2   -1    0    0    0  501  0.00000000000E+00  0.00000000000E+00  0.12259322919E+03  0.12259322922E+03  0.25500000920E-02 0. -1.
        2   -1    0    0  501    0  0.00000000000E+00  0.00000000000E+00 -0.99825522638E+03  0.99825522638E+03  0.25500000920E-02 0.  1.
    10030    2    1    2    0    0  0.00000000000E+00  0.00000000000E+00 -0.87566199719E+03  0.11208484556E+04  0.69965514870E+03 0.  0.
        5    1    3    3  502    0 -0.85151629099E+02  0.24718483062E+03 -0.81012348971E+03  0.85127745125E+03  0.46999998093E+01 0.  1.
       -5    1    3    3    0  502  0.85151629099E+02 -0.24718483062E+03 -0.65538507482E+02  0.26957100435E+03  0.46999998093E+01 0. -1.
</event>
<event>
 5   0  0.5076796E-03  0.6998623E+03  0.7818609E-02  0.9717468E-01
        2   -1    0    0  501    0  0.00000000000E+00  0.00000000000E+00  0.66270697176E+03  0.66270697177E+03  0.25500000920E-02 0.  1.
       -2   -1    0    0    0  501  0.00000000000E+00  0.00000000000E+00 -0.18477517073E+03  0.18477517075E+03  0.25500000920E-02 0. -1.
    10030    2    1    2    0    0  0.00000000000E+00  0.00000000000E+00  0.47793180104E+03  0.84748214252E+03  0.69986225462E+03 0.  0.
        5    1    3    3  502    0 -0.95827095521E+02 -0.23863679345E+03  0.52628843197E+03  0.58577466235E+03  0.46999998093E+01 0.  1.
       -5    1    3    3    0  502  0.95827095521E+02  0.23863679345E+03 -0.48356630936E+02  0.26170748017E+03  0.46999998093E+01 0. -1.
</event>
<event>
 5   0  0.2938783E-03  0.6824383E+03  0.7818609E-02  0.9747746E-01
       -1   -1    0    0    0  501  0.00000000000E+00  0.00000000000E+00  0.15628848917E+03  0.15628848926E+03  0.50400001928E-02 0.  1.
        1   -1    0    0  501    0  0.00000000000E+00  0.00000000000E+00 -0.74497166201E+03  0.74497166202E+03  0.50400001928E-02 0. -1.
    10030    2    1    2    0    0  0.00000000000E+00  0.00000000000E+00 -0.58868317283E+03  0.90126015128E+03  0.68243826264E+03 0.  0.
        4    1    3    3  502    0  0.23047696081E+03 -0.18947191437E+03 -0.51298606821E+03  0.59344380937E+03  0.12699999809E+01 0. -1.
       -4    1    3    3    0  502 -0.23047696081E+03  0.18947191437E+03 -0.75697104618E+02  0.30781634191E+03  0.12699999809E+01 0.  1.
</event>
<event>
 5   0  0.2934483E-03  0.6999622E+03  0.7818609E-02  0.9717297E-01
       -1   -1    0    0    0  501  0.00000000000E+00  0.00000000000E+00  0.10890060184E+03  0.10890060195E+03  0.50400001928E-02 0.  1.
        1   -1    0    0  501    0  0.00000000000E+00  0.00000000000E+00 -0.11247576252E+04  0.11247576252E+04  0.50400001928E-02 0. -1.
    10030    2    1    2    0    0  0.00000000000E+00  0.00000000000E+00 -0.10158570233E+04  0.12336582271E+04  0.69996223436E+03 0.  0.
        5    1    3    3  502    0 -0.28515476073E+03 -0.15238312561E+03 -0.74393315197E+03  0.81116735582E+03  0.46999998093E+01 0.  1.
       -5    1    3    3    0  502  0.28515476073E+03  0.15238312561E+03 -0.27192387137E+03  0.42249087133E+03  0.46999998093E+01 0. -1.
</event>
<event>
 5   0  0.3013140E-03  0.7006884E+03  0.7818609E-02  0.9716056E-01
       -1   -1    0    0    0  501  0.00000000000E+00  0.00000000000E+00  0.12164478099E+03  0.12164478110E+03  0.50400001928E-02 0.  1.
        1   -1    0    0  501    0  0.00000000000E+00  0.00000000000E+00 -0.10090120451E+04  0.10090120451E+04  0.50400001928E-02 0. -1.
    10030    2    1    2    0    0  0.00000000000E+00  0.00000000000E+00 -0.88736726408E+03  0.11306568262E+04  0.70068837384E+03 0.  0.
        2    1    3    3  502    0 -0.79669418979E+02 -0.19003299082E+03 -0.90089085552E+03  0.92415587835E+03  0.25500000920E-02 0. -1.
       -2    1    3    3    0  502  0.79669418979E+02  0.19003299082E+03  0.13523591449E+02  0.20650094782E+03  0.25500000920E-02 0.  1.
</event>
<event>
 5   0  0.2913582E-03  0.7004358E+03  0.7818609E-02  0.9716487E-01
       -1   -1    0    0    0  501  0.00000000000E+00  0.00000000000E+00  0.11881144633E+03  0.11881144643E+03  0.50400001928E-02 0. -1.
        1   -1    0    0  501    0  0.00000000000E+00  0.00000000000E+00 -0.10323297172E+04  0.10323297172E+04  0.50400001928E-02 0.  1.
    10030    2    1    2    0    0  0.00000000000E+00  0.00000000000E+00 -0.91351827083E+03  0.11511411636E+04  0.70043582676E+03 0.  0.
        1    1    3    3  502    0 -0.11363999584E+03  0.23265193351E+03 -0.69195527712E+02  0.26800931309E+03  0.50400001928E-02 0. -1.
       -1    1    3    3    0  502  0.11363999584E+03 -0.23265193351E+03 -0.84432274312E+03  0.88313185051E+03  0.50400001928E-02 0.  1.
</event>
<event>
 5   0  0.1981750E-03  0.6995909E+03  0.7818609E-02  0.9717932E-01
       -3   -1    0    0    0  501  0.00000000000E+00  0.00000000000E+00  0.36343780436E+03  0.36343781840E+03  0.10100000352E+00 0. -1.
        3   -1    0    0  501    0  0.00000000000E+00  0.00000000000E+00 -0.33666512716E+03  0.33666514231E+03  0.10100000352E+00 0.  1.
    10030    2    1    2    0    0  0.00000000000E+00  0.00000000000E+00  0.26772677206E+02  0.70010296071E+03  0.69959086568E+03 0.  0.
        4    1    3    3  502    0 -0.34331839374E+03 -0.18655972007E+02  0.77773680462E+02  0.35251372036E+03  0.12699999809E+01 0.  1.
       -4    1    3    3    0  502  0.34331839374E+03  0.18655972007E+02 -0.51001003256E+02  0.34758924035E+03  0.12699999809E+01 0. -1.
</event>
<event>
 5   0  0.2938783E-03  0.7000804E+03  0.7818609E-02  0.9717095E-01
       -1   -1    0    0    0  501  0.00000000000E+00  0.00000000000E+00  0.19840395182E+03  0.19840395188E+03  0.50400001928E-02 0. -1.
        1   -1    0    0  501    0  0.00000000000E+00  0.00000000000E+00 -0.61756909234E+03  0.61756909236E+03  0.50400001928E-02 0.  1.
    10030    2    1    2    0    0  0.00000000000E+00  0.00000000000E+00 -0.41916514052E+03  0.81597304424E+03  0.70008041959E+03 0.  0.
        4    1    3    3  502    0 -0.27629897901E+03 -0.11592356119E+03 -0.42050101199E+03  0.51633527076E+03  0.12699999809E+01 0.  1.
       -4    1    3    3    0  502  0.27629897901E+03  0.11592356119E+03  0.13358714740E+01  0.29963777348E+03  0.12699999809E+01 0. -1.
</event>
<event>
 5   0  0.5113683E-03  0.6998949E+03  0.7818609E-02  0.9717412E-01
        2   -1    0    0  501    0  0.00000000000E+00  0.00000000000E+00  0.54527848816E+03  0.54527848817E+03  0.25500000920E-02 0. -1.
       -2   -1    0    0    0  501  0.00000000000E+00  0.00000000000E+00 -0.22458838125E+03  0.22458838126E+03  0.25500000920E-02 0.  1.
    10030    2    1    2    0    0  0.00000000000E+00  0.00000000000E+00  0.32069010691E+03  0.76986686943E+03  0.69989488637E+03 0.  0.
        3    1    3    3  502    0 -0.28294587595E+03  0.17508814212E+03  0.41115798864E+02  0.33526816930E+03  0.10100000352E+00 0.  1.
       -3    1    3    3    0  502  0.28294587595E+03 -0.17508814212E+03  0.27957430805E+03  0.43459870013E+03  0.10100000352E+00 0. -1.
</event>
<event>
 5   0  0.5076796E-03  0.7002365E+03  0.7818609E-02  0.9716828E-01
       -2   -1    0    0    0  501  0.00000000000E+00  0.00000000000E+00  0.20844228628E+03  0.20844228630E+03  0.25500000920E-02 0.  1.
        2   -1    0    0  501    0  0.00000000000E+00  0.00000000000E+00 -0.58808976177E+03  0.58808976177E+03  0.25500000920E-02 0. -1.
    10030    2    1    2    0    0  0.00000000000E+00  0.00000000000E+00 -0.37964747549E+03  0.79653204807E+03  0.70023645860E+03 0.  0.
        5    1    3    3  502    0 -0.34650732131E+03 -0.38685505009E+01 -0.24645337829E+03  0.42525715405E+03  0.46999998093E+01 0. -1.
       -5    1    3    3    0  502  0.34650732131E+03  0.38685505009E+01 -0.13319409719E+03  0.37127489402E+03  0.46999998093E+01 0.  1.
</event>
<event>
 5   0  0.5076796E-03  0.7036359E+03  0.7818609E-02  0.9711035E-01
       -2   -1    0    0    0  501  0.00000000000E+00  0.00000000000E+00  0.12190030298E+03  0.12190030301E+03  0.25500000920E-02 0. -1.
        2   -1    0    0  501    0  0.00000000000E+00  0.00000000000E+00 -0.10153859384E+04  0.10153859384E+04  0.25500000920E-02 0.  1.
    10030    2    1    2    0    0  0.00000000000E+00  0.00000000000E+00 -0.89348563542E+03  0.11372862414E+04  0.70363585341E+03 0.  0.
        5    1    3    3  502    0  0.10277978373E+03  0.24962163035E+03 -0.81132179775E+03  0.85506712706E+03  0.46999998093E+01 0.  1.
       -5    1    3    3    0  502 -0.10277978373E+03 -0.24962163035E+03 -0.82163837665E+02  0.28221911434E+03  0.46999998093E+01 0. -1.
</event>
<event>
 5   0  0.2913582E-03  0.7021820E+03  0.7818609E-02  0.9713508E-01
        1   -1    0    0  501    0  0.00000000000E+00  0.00000000000E+00  0.71066535831E+03  0.71066535832E+03  0.50400001928E-02 0. -1.
       -1   -1    0    0    0  501  0.00000000000E+00  0.00000000000E+00 -0.17344998503E+03  0.17344998511E+03  0.50400001928E-02 0.  1.
    10030    2    1    2    0    0  0.00000000000E+00  0.00000000000E+00  0.53721537327E+03  0.88411534343E+03  0.70218201572E+03 0.  0.
        1    1    3    3  502    0  0.31469937028E+03  0.75033275331E+02  0.44032198956E+03  0.54639650491E+03  0.50400001928E-02 0. -1.
       -1    1    3    3    0  502 -0.31469937028E+03 -0.75033275331E+02  0.96893383714E+02  0.33771883852E+03  0.50400001928E-02 0.  1.
</event>
<event>
 5   0  0.5072407E-03  0.7009374E+03  0.7818609E-02  0.9715630E-01
        2   -1    0    0  501    0  0.00000000000E+00  0.00000000000E+00  0.13043372492E+04  0.13043372492E+04  0.25500000920E-02 0. -1.
       -2   -1    0    0    0  501  0.00000000000E+00  0.00000000000E+00 -0.94169128240E+02  0.94169128274E+02  0.25500000920E-02 0.  1.
    10030    2    1    2    0    0  0.00000000000E+00  0.00000000000E+00  0.12101681209E+04  0.13985063775E+04  0.70093737726E+03 0.  0.
        1    1    3    3  502    0  0.18826152305E+03 -0.21666758222E+03  0.10063169211E+04  0.10464516176E+04  0.50400001928E-02 0. -1.
       -1    1    3    3    0  502 -0.18826152305E+03  0.21666758222E+03  0.20385119985E+03  0.35205475987E+03  0.50400001928E-02 0.  1.
</event>
<event>
 5   0  0.5072407E-03  0.7024132E+03  0.7818609E-02  0.9713114E-01
       -2   -1    0    0    0  501  0.00000000000E+00  0.00000000000E+00  0.83045588889E+02  0.83045588928E+02  0.25500000920E-02 0. -1.
        2   -1    0    0  501    0  0.00000000000E+00  0.00000000000E+00 -0.14852814223E+04  0.14852814223E+04  0.25500000920E-02 0.  1.
    10030    2    1    2    0    0  0.00000000000E+00  0.00000000000E+00 -0.14022358334E+04  0.15683270113E+04  0.70241318443E+03 0.  0.
        1    1    3    3  502    0  0.20306219343E+02 -0.22254806935E+03 -0.13060547071E+04  0.13250354273E+04  0.50400001928E-02 0.  1.
       -1    1    3    3    0  502 -0.20306219343E+02  0.22254806935E+03 -0.96181126313E+02  0.24329158390E+03  0.50400001928E-02 0. -1.
</event>
<event>
 5   0  0.2913582E-03  0.6995024E+03  0.7818609E-02  0.9718084E-01
        1   -1    0    0  501    0  0.00000000000E+00  0.00000000000E+00  0.10864204245E+04  0.10864204246E+04  0.50400001928E-02 0. -1.
       -1   -1    0    0    0  501  0.00000000000E+00  0.00000000000E+00 -0.11259536638E+03  0.11259536650E+03  0.50400001928E-02 0.  1.
    10030    2    1    2    0    0  0.00000000000E+00  0.00000000000E+00  0.97382505816E+03  0.11990157911E+04  0.69950241121E+03 0.  0.
        1    1    3    3  502    0  0.29145597571E+03  0.16859830327E+03  0.64910944298E+03  0.73124212313E+03  0.50400001928E-02 0. -1.
       -1    1    3    3    0  502 -0.29145597571E+03 -0.16859830327E+03  0.32471561518E+03  0.46777366793E+03  0.50400001928E-02 0.  1.
</event>
<event>
 5   0  0.4878235E-03  0.7005463E+03  0.7818609E-02  0.9716298E-01
       -2   -1    0    0    0  501  0.00000000000E+00  0.00000000000E+00  0.62129873861E+02  0.62129873913E+02  0.25500000920E-02 0.  1.
        2   -1    0    0  501    0  0.00000000000E+00  0.00000000000E+00 -0.19747548870E+04  0.19747548870E+04  0.25500000920E-02 0. -1.
    10030    2    1    2    0    0  0.00000000000E+00  0.00000000000E+00 -0.19126250132E+04  0.20368847609E+04  0.70054627854E+03 0.  0.
        4    1    3    3  502    0 -0.33927343423E+03  0.31273784243E+02 -0.11926163872E+04  0.12403305901E+04  0.12699999809E+01 0. -1.
       -4    1    3    3    0  502  0.33927343423E+03 -0.31273784243E+02 -0.72000862593E+03  0.79655417083E+03  0.12699999809E+01 0.  1.
</event>
<event>
 5   0  0.3013140E-03  0.7004474E+03  0.7818609E-02  0.9716467E-01
       -1   -1    0    0    0  501  0.00000000000E+00  0.00000000000E+00  0.62093862039E+02  0.62093862244E+02  0.50400001928E-02 0.  1.
        1   -1    0    0  501    0  0.00000000000E+00  0.00000000000E+00 -0.19753423638E+04  0.19753423638E+04  0.50400001928E-02 0. -1.
    10030    2    1    2    0    0  0.00000000000E+00  0.00000000000E+00 -0.19132485017E+04  0.20374362260E+04  0.70044738969E+03 0.  0.
        2    1    3    3  502    0 -0.32109708309E+03 -0.56622987799E+02 -0.13285269690E+04  0.13679522678E+04  0.25500000920E-02 0. -1.
       -2    1    3    3    0  502  0.32109708309E+03  0.56622987799E+02 -0.58472153270E+03  0.66948395823E+03  0.25500000920E-02 0.  1.
</event>
<event>
 5   0  0.5023894E-03  0.7010523E+03  0.7818609E-02  0.9715434E-01
       -2   -1    0    0    0  501  0.00000000000E+00  0.00000000000E+00  0.13855585312E+03  0.13855585314E+03  0.25500000920E-02 0.  1.
        2   -1    0    0  501    0  0.00000000000E+00  0.00000000000E+00 -0.88678017501E+03  0.88678017502E+03  0.25500000920E-02 0. -1.
    10030    2    1    2    0    0  0.00000000000E+00  0.00000000000E+00 -0.74822432190E+03  0.10253360282E+04  0.70105230529E+03 0.  0.
        2    1    3    3  502    0 -0.32272652554E+03  0.12973186387E+03 -0.31059873243E+03  0.46631999677E+03  0.25500000920E-02 0. -1.
       -2    1    3    3    0  502  0.32272652554E+03 -0.12973186387E+03 -0.43762558946E+03  0.55901603139E+03  0.25500000920E-02 0.  1.
</event>
<event>
 5   0  0.2913582E-03  0.6983030E+03  0.7818609E-02  0.9720139E-01
       -1   -1    0    0    0  501  0.00000000000E+00  0.00000000000E+00  0.54843078861E+03  0.54843078863E+03  0.50400001928E-02 0. -1.
        1   -1    0    0  501    0  0.00000000000E+00  0.00000000000E+00 -0.22228286061E+03  0.22228286067E+03  0.50400001928E-02 0.  1.
    10030    2    1    2    0    0  0.00000000000E+00  0.00000000000E+00  0.32614792799E+03  0.77071364930E+03  0.69830298459E+03 0.  0.
        1    1    3    3  502    0  0.32040385438E+03 -0.92714155387E+02  0.27698589566E+03  0.43356168066E+03  0.50400001928E-02 0. -1.
       -1    1    3    3    0  502 -0.32040385438E+03  0.92714155387E+02  0.49162032332E+02  0.33715196865E+03  0.50400001928E-02 0.  1.
</event>
<event>
 5   0  0.5023894E-03  0.6968596E+03  0.7818609E-02  0.9722618E-01
        2   -1    0    0  501    0  0.00000000000E+00  0.00000000000E+00  0.17028268532E+04  0.17028268532E+04  0.25500000920E-02 0.  1.
       -2   -1    0    0    0  501  0.00000000000E+00  0.00000000000E+00 -0.71295157573E+02  0.71295157619E+02  0.25500000920E-02 0. -1.
    10030    2    1    2    0    0  0.00000000000E+00  0.00000000000E+00  0.16315316956E+04  0.17741220108E+04  0.69685955216E+03 0.  0.
        2    1    3    3  502    0 -0.30670115215E+03  0.15669741400E+03  0.68144476599E+03  0.76353562156E+03  0.25500000920E-02 0. -1.
       -2    1    3    3    0  502  0.30670115215E+03 -0.15669741400E+03  0.95008692960E+03  0.10105863892E+04  0.25500000920E-02 0.  1.
</event>
<event>
 5   0  0.5076796E-03  0.6989173E+03  0.7818609E-02  0.9719086E-01
        2   -1    0    0  501    0  0.00000000000E+00  0.00000000000E+00  0.30365326432E+03  0.30365326433E+03  0.25500000920E-02 0. -1.
       -2   -1    0    0    0  501  0.00000000000E+00  0.00000000000E+00 -0.40217364643E+03  0.40217364644E+03  0.25500000920E-02 0.  1.
    10030    2    1    2    0    0  0.00000000000E+00  0.00000000000E+00 -0.98520382110E+02  0.70582691077E+03  0.69891727856E+03 0.  0.
        5    1    3    3  502    0  0.13515970013E+02  0.56621399987E+02 -0.39721044683E+03  0.40148087557E+03  0.46999998093E+01 0.  1.
       -5    1    3    3    0  502 -0.13515970013E+02 -0.56621399987E+02  0.29869006472E+03  0.30434603520E+03  0.46999998093E+01 0. -1.
</event>
<event>
 5   0  0.5076796E-03  0.7003159E+03  0.7818609E-02  0.9716692E-01
       -2   -1    0    0    0  501  0.00000000000E+00  0.00000000000E+00  0.45898538844E+03  0.45898538845E+03  0.25500000920E-02 0.  1.
        2   -1    0    0  501    0  0.00000000000E+00  0.00000000000E+00 -0.26713395275E+03  0.26713395276E+03  0.25500000920E-02 0. -1.
    10030    2    1    2    0    0  0.00000000000E+00  0.00000000000E+00  0.19185143570E+03  0.72611934121E+03  0.70031587466E+03 0.  0.
        5    1    3    3  502    0 -0.20631033124E+03  0.29182989521E+02 -0.19581851980E+03  0.28597654160E+03  0.46999998093E+01 0. -1.
       -5    1    3    3    0  502  0.20631033124E+03 -0.29182989521E+02  0.38766995549E+03  0.44014279961E+03  0.46999998093E+01 0.  1.
</event>
<event>
 5   0  0.1981750E-03  0.6985724E+03  0.7818609E-02  0.9719677E-01
       -4   -1    0    0    0  501  0.00000000000E+00  0.00000000000E+00  0.66233455690E+03  0.66233577448E+03  0.12699999809E+01 0. -1.
        4   -1    0    0  501    0  0.00000000000E+00  0.00000000000E+00 -0.18419462704E+03  0.18419900523E+03  0.12699999809E+01 0.  1.
    10030    2    1    2    0    0  0.00000000000E+00  0.00000000000E+00  0.47813992986E+03  0.84653477972E+03  0.69857235899E+03 0.  0.
        2    1    3    3  502    0  0.17072364811E+03  0.26643366353E+03  0.41826737375E+03  0.52448170324E+03  0.25500000920E-02 0.  1.
       -2    1    3    3    0  502 -0.17072364811E+03 -0.26643366353E+03  0.59872556112E+02  0.32205307648E+03  0.25500000920E-02 0. -1.
</event>
<event>
 5   0  0.2913582E-03  0.6947553E+03  0.7818609E-02  0.9726244E-01
        1   -1    0    0  501    0  0.00000000000E+00  0.00000000000E+00  0.23412937504E+03  0.23412937509E+03  0.50400001928E-02 0.  1.
       -1   -1    0    0    0  501  0.00000000000E+00  0.00000000000E+00 -0.51540410924E+03  0.51540410927E+03  0.50400001928E-02 0. -1.
    10030    2    1    2    0    0  0.00000000000E+00  0.00000000000E+00 -0.28127473420E+03  0.74953348436E+03  0.69475532965E+03 0.  0.
        1    1    3    3  502    0  0.12113843974E+03  0.11860395451E+03 -0.46774250264E+03  0.49751830962E+03  0.50400001928E-02 0. -1.
       -1    1    3    3    0  502 -0.12113843974E+03 -0.11860395451E+03  0.18646776844E+03  0.25201517474E+03  0.50400001928E-02 0.  1.
</event>
<event>
 5   0  0.1981750E-03  0.7083001E+03  0.7818609E-02  0.9703142E-01
       -3   -1    0    0    0  501  0.00000000000E+00  0.00000000000E+00  0.21515775980E+03  0.21515778351E+03  0.10100000352E+00 0. -1.
        3   -1    0    0  501    0  0.00000000000E+00  0.00000000000E+00 -0.58293150763E+03  0.58293151638E+03  0.10100000352E+00 0.  1.
    10030    2    1    2    0    0  0.00000000000E+00  0.00000000000E+00 -0.36777374783E+03  0.79808929989E+03  0.70830007836E+03 0.  0.
        5    1    3    3  502    0 -0.53599688711E+02 -0.34876927503E+03 -0.21744915200E+03  0.41451074478E+03  0.46999998093E+01 0.  1.
       -5    1    3    3    0  502  0.53599688711E+02  0.34876927503E+03 -0.15032459583E+03  0.38357855511E+03  0.46999998093E+01 0. -1.
</event>
<event>
 5   0  0.2913582E-03  0.7002905E+03  0.7818609E-02  0.9716736E-01
       -1   -1    0    0    0  501  0.00000000000E+00  0.00000000000E+00  0.27547406495E+03  0.27547406500E+03  0.50400001928E-02 0. -1.
        1   -1    0    0  501    0  0.00000000000E+00  0.00000000000E+00 -0.44505711877E+03  0.44505711880E+03  0.50400001928E-02 0.  1.
    10030    2    1    2    0    0  0.00000000000E+00  0.00000000000E+00 -0.16958305382E+03  0.72053118380E+03  0.70029049307E+03 0.  0.
        1    1    3    3  502    0  0.14745200197E+03 -0.23888557918E+03 -0.30010851286E+03  0.41094224940E+03  0.50400001928E-02 0.  1.
       -1    1    3    3    0  502 -0.14745200197E+03  0.23888557918E+03  0.13052545904E+03  0.30958893440E+03  0.50400001928E-02 0. -1.
</event>
<event>
 5   0  0.2937617E-03  0.6981943E+03  0.7818609E-02  0.9720325E-01
        1   -1    0    0  501    0  0.00000000000E+00  0.00000000000E+00  0.54274429633E+03  0.54274429635E+03  0.50400001928E-02 0.  1.
       -1   -1    0    0    0  501  0.00000000000E+00  0.00000000000E+00 -0.22454185783E+03  0.22454185788E+03  0.50400001928E-02 0. -1.
    10030    2    1    2    0    0  0.00000000000E+00  0.00000000000E+00  0.31820243850E+03  0.76728615423E+03  0.69819427856E+03 0.  0.
        3    1    3    3  502    0  0.32240985347E+03 -0.68818019308E+02  0.28528901068E+03  0.43597461304E+03  0.10100000352E+00 0.  1.
       -3    1    3    3    0  502 -0.32240985347E+03  0.68818019308E+02  0.32913427818E+02  0.33131154119E+03  0.10100000352E+00 0. -1.
</event>
<event>
 5   0  0.5072407E-03  0.6991020E+03  0.7818609E-02  0.9718769E-01
       -2   -1    0    0    0  501  0.00000000000E+00  0.00000000000E+00  0.22165827957E+03  0.22165827958E+03  0.25500000920E-02 0.  1.
        2   -1    0    0  501    0  0.00000000000E+00  0.00000000000E+00 -0.55123541936E+03  0.55123541936E+03  0.25500000920E-02 0. -1.
    10030    2    1    2    0    0  0.00000000000E+00  0.00000000000E+00 -0.32957713979E+03  0.77289369894E+03  0.69910198026E+03 0.  0.
        1    1    3    3  502    0 -0.14964016499E+03  0.30494173316E+03 -0.25598325483E+03  0.42533406445E+03  0.50400001928E-02 0. -1.
       -1    1    3    3    0  502  0.14964016499E+03 -0.30494173316E+03 -0.73593884957E+02  0.34755963450E+03  0.50400001928E-02 0.  1.
</event>
<event>
 5   0  0.2937617E-03  0.6935944E+03  0.7818609E-02  0.9728250E-01
       -1   -1    0    0    0  501  0.00000000000E+00  0.00000000000E+00  0.71646410888E+03  0.71646410890E+03  0.50400001928E-02 0.  1.
        1   -1    0    0  501    0  0.00000000000E+00  0.00000000000E+00 -0.16786367635E+03  0.16786367643E+03  0.50400001928E-02 0. -1.
    10030    2    1    2    0    0  0.00000000000E+00  0.00000000000E+00  0.54860043253E+03  0.88432778533E+03  0.69359440405E+03 0.  0.
        3    1    3    3  502    0 -0.88480254307E+02 -0.32345789891E+03  0.38700929021E+03  0.51208394690E+03  0.10100000352E+00 0.  1.
       -3    1    3    3    0  502  0.88480254307E+02  0.32345789891E+03  0.16159114232E+03  0.37224383842E+03  0.10100000352E+00 0. -1.
</event>
<event>
 5   0  0.5072407E-03  0.7011252E+03  0.7818609E-02  0.9715310E-01
       -2   -1    0    0    0  501  0.00000000000E+00  0.00000000000E+00  0.52614177444E+02  0.52614177506E+02  0.25500000920E-02 0.  1.
        2   -1    0    0  501    0  0.00000000000E+00  0.00000000000E+00 -0.23357608521E+04  0.23357608521E+04  0.25500000920E-02 0. -1.
    10030    2    1    2    0    0  0.00000000000E+00  0.00000000000E+00 -0.22831466746E+04  0.23883750296E+04  0.70112519855E+03 0.  0.
        1    1    3    3  502    0  0.29560597393E+03  0.71384454258E+02 -0.17356663624E+04  0.17621056591E+04  0.50400001928E-02 0.  1.
       -1    1    3    3    0  502 -0.29560597393E+03 -0.71384454258E+02 -0.54748031223E+03  0.62626937051E+03  0.50400001928E-02 0. -1.
</event>
<event>
 5   0  0.5113683E-03  0.6997493E+03  0.7818609E-02  0.9717661E-01
        2   -1    0    0  501    0  0.00000000000E+00  0.00000000000E+00  0.93488334204E+03  0.93488334205E+03  0.25500000920E-02 0. -1.
       -2   -1    0    0    0  501  0.00000000000E+00  0.00000000000E+00 -0.13093856491E+03  0.13093856494E+03  0.25500000920E-02 0.  1.
    10030    2    1    2    0    0  0.00000000000E+00  0.00000000000E+00  0.80394477713E+03  0.10658219070E+04  0.69974933565E+03 0.  0.
        3    1    3    3  502    0 -0.24112124779E+03  0.13718222868E+03  0.77238585179E+02  0.28796567372E+03  0.10100000352E+00 0.  1.
       -3    1    3    3    0  502  0.24112124779E+03 -0.13718222868E+03  0.72670619195E+03  0.77785623326E+03  0.10100000352E+00 0. -1.
</event>
<event>
 5   0  0.5023894E-03  0.6997886E+03  0.7818609E-02  0.9717594E-01
        2   -1    0    0  501    0  0.00000000000E+00  0.00000000000E+00  0.80138330360E+03  0.80138330361E+03  0.25500000920E-02 0.  1.
       -2   -1    0    0    0  501  0.00000000000E+00  0.00000000000E+00 -0.15276837298E+03  0.15276837300E+03  0.25500000920E-02 0. -1.
    10030    2    1    2    0    0  0.00000000000E+00  0.00000000000E+00  0.64861493063E+03  0.95415167661E+03  0.69978860647E+03 0.  0.
        2    1    3    3  502    0  0.10701636407E+03  0.62074794216E+02  0.77056578041E+03  0.78043411266E+03  0.25500000920E-02 0.  1.
       -2    1    3    3    0  502 -0.10701636407E+03 -0.62074794216E+02 -0.12195084978E+03  0.17371756395E+03  0.25500000920E-02 0. -1.
</event>
<event>
 5   0  0.3013140E-03  0.7173739E+03  0.7818609E-02  0.9687973E-01
       -1   -1    0    0    0  501  0.00000000000E+00  0.00000000000E+00  0.35516420394E+03  0.35516420398E+03  0.50400001928E-02 0. -1.
        1   -1    0    0  501    0  0.00000000000E+00  0.00000000000E+00 -0.36224459434E+03  0.36224459438E+03  0.50400001928E-02 0.  1.
    10030    2    1    2    0    0  0.00000000000E+00  0.00000000000E+00 -0.70803903988E+01  0.71740879836E+03  0.71737385792E+03 0.  0.
        2    1    3    3  502    0 -0.22008132718E+02  0.33489478989E+03  0.12302597377E+03  0.35745526774E+03  0.25500000920E-02 0. -1.
       -2    1    3    3    0  502  0.22008132718E+02 -0.33489478989E+03 -0.13010636417E+03  0.35995353062E+03  0.25500000920E-02 0.  1.
</event>
<event>
 5   0  0.5076796E-03  0.6999909E+03  0.7818609E-02  0.9717248E-01
        2   -1    0    0  501    0  0.00000000000E+00  0.00000000000E+00  0.10837184748E+04  0.10837184748E+04  0.25500000920E-02 0. -1.
       -2   -1    0    0    0  501  0.00000000000E+00  0.00000000000E+00 -0.11303379695E+03  0.11303379697E+03  0.25500000920E-02 0.  1.
    10030    2    1    2    0    0  0.00000000000E+00  0.00000000000E+00  0.97068467783E+03  0.11967522718E+04  0.69999089721E+03 0.  0.
        5    1    3    3  502    0  0.13000303529E+03 -0.32281800006E+03  0.42223557191E+03  0.54719029463E+03  0.46999998093E+01 0. -1.
       -5    1    3    3    0  502 -0.13000303529E+03  0.32281800006E+03  0.54844910592E+03  0.64956197713E+03  0.46999998093E+01 0.  1.
</event>
<event>
 5   0  0.2934483E-03  0.7004240E+03  0.7818609E-02  0.9716507E-01
        1   -1    0    0  501    0  0.00000000000E+00  0.00000000000E+00  0.16333608814E+03  0.16333608822E+03  0.50400001928E-02 0. -1.
       -1   -1    0    0    0  501  0.00000000000E+00  0.00000000000E+00 -0.75089628410E+03  0.75089628412E+03  0.50400001928E-02 0.  1.
    10030    2    1    2    0    0  0.00000000000E+00  0.00000000000E+00 -0.58756019595E+03  0.91423237234E+03  0.70042404782E+03 0.  0.
        5    1    3    3  502    0  0.22865600636E+03  0.23297048816E+03 -0.12832870334E+03  0.35078364228E+03  0.46999998093E+01 0. -1.
       -5    1    3    3    0  502 -0.22865600636E+03 -0.23297048816E+03 -0.45923149261E+03  0.56344873006E+03  0.46999998093E+01 0.  1.
</event>
<event>
 5   0  0.5076796E-03  0.6995541E+03  0.7818609E-02  0.9717995E-01
       -2   -1    0    0    0  501  0.00000000000E+00  0.00000000000E+00  0.79098609831E+02  0.79098609872E+02  0.25500000920E-02 0.  1.
        2   -1    0    0  501    0  0.00000000000E+00  0.00000000000E+00 -0.15467272923E+04  0.15467272923E+04  0.25500000920E-02 0. -1.
    10030    2    1    2    0    0  0.00000000000E+00  0.00000000000E+00 -0.14676286825E+04  0.16258259022E+04  0.69955408268E+03 0.  0.
        5    1    3    3  502    0 -0.12723950500E+03  0.22863788420E+02  0.21458224944E+02  0.13113043076E+03  0.46999998093E+01 0.  1.
       -5    1    3    3    0  502  0.12723950500E+03 -0.22863788420E+02 -0.14890869074E+04  0.14946954715E+04  0.46999998093E+01 0. -1.
</event>
<event>
 5   0  0.5072407E-03  0.7000775E+03  0.7818609E-02  0.9717100E-01
       -2   -1    0    0    0  501  0.00000000000E+00  0.00000000000E+00  0.19697381793E+03  0.19697381794E+03  0.25500000920E-02 0.  1.
        2   -1    0    0  501    0  0.00000000000E+00  0.00000000000E+00 -0.62204783141E+03  0.62204783141E+03  0.25500000920E-02 0. -1.
    10030    2    1    2    0    0  0.00000000000E+00  0.00000000000E+00 -0.42507401348E+03  0.81902164936E+03  0.70007752798E+03 0.  0.
        1    1    3    3  502    0 -0.15774643379E+03  0.14660604545E+03 -0.53537438893E+03  0.57706412667E+03  0.50400001928E-02 0. -1.
       -1    1    3    3    0  502  0.15774643379E+03 -0.14660604545E+03  0.11030037545E+03  0.24195752269E+03  0.50400001928E-02 0.  1.
</event>
<event>
 5   0  0.4878235E-03  0.7029103E+03  0.7818609E-02  0.9712268E-01
        2   -1    0    0  501    0  0.00000000000E+00  0.00000000000E+00  0.10724568259E+04  0.10724568259E+04  0.25500000920E-02 0.  1.
       -2   -1    0    0    0  501  0.00000000000E+00  0.00000000000E+00 -0.11517547439E+03  0.11517547442E+03  0.25500000920E-02 0. -1.
    10030    2    1    2    0    0  0.00000000000E+00  0.00000000000E+00  0.95728135155E+03  0.11876323004E+04  0.70291030355E+03 0.  0.
        4    1    3    3  502    0  0.26939094400E+03  0.22185306167E+03  0.54889299059E+03  0.65044245687E+03  0.12699999809E+01 0. -1.
       -4    1    3    3    0  502 -0.26939094400E+03 -0.22185306167E+03  0.40838836096E+03  0.53718984349E+03  0.12699999809E+01 0.  1.
</event>
<event>
 5   0  0.3013140E-03  0.6996314E+03  0.7818609E-02  0.9717863E-01
       -1   -1    0    0    0  501  0.00000000000E+00  0.00000000000E+00  0.17575046000E+03  0.17575046007E+03  0.50400001928E-02 0.  1.
        1   -1    0    0  501    0  0.00000000000E+00  0.00000000000E+00 -0.69627715860E+03  0.69627715862E+03  0.50400001928E-02 0. -1.
    10030    2    1    2    0    0  0.00000000000E+00  0.00000000000E+00 -0.52052669861E+03  0.87202761869E+03  0.69963141996E+03 0.  0.
        2    1    3    3  502    0  0.93939271167E+02  0.28713588425E+03 -0.40458566912E+02  0.30480895383E+03  0.25500000920E-02 0.  1.
       -2    1    3    3    0  502 -0.93939271167E+02 -0.28713588425E+03 -0.48006813169E+03  0.56721866486E+03  0.25500000920E-02 0. -1.
</event>
<event>
 5   0  0.3013140E-03  0.7006081E+03  0.7818609E-02  0.9716193E-01
        1   -1    0    0  501    0  0.00000000000E+00  0.00000000000E+00  0.26247231949E+03  0.26247231954E+03  0.50400001928E-02 0. -1.
       -1   -1    0    0    0  501  0.00000000000E+00  0.00000000000E+00 -0.46752712291E+03  0.46752712293E+03  0.50400001928E-02 0.  1.
    10030    2    1    2    0    0  0.00000000000E+00  0.00000000000E+00 -0.20505480342E+03  0.72999944247E+03  0.70060810272E+03 0.  0.
        2    1    3    3  502    0  0.25459631082E+03  0.23993044147E+02 -0.35198274667E+03  0.43507103054E+03  0.25500000920E-02 0.  1.
       -2    1    3    3    0  502 -0.25459631082E+03 -0.23993044147E+02  0.14692794326E+03  0.29492841193E+03  0.25500000920E-02 0. -1.
</event>
<event>
 5   0  0.5076796E-03  0.6967264E+03  0.7818609E-02  0.9722847E-01
        2   -1    0    0  501    0  0.00000000000E+00  0.00000000000E+00  0.63249596475E+03  0.63249596476E+03  0.25500000920E-02 0. -1.
       -2   -1    0    0    0  501  0.00000000000E+00  0.00000000000E+00 -0.19186985628E+03  0.19186985630E+03  0.25500000920E-02 0.  1.
    10030    2    1    2    0    0  0.00000000000E+00  0.00000000000E+00  0.44062610848E+03  0.82436582106E+03  0.69672637345E+03 0.  0.
        5    1    3    3  502    0 -0.28943189336E+03 -0.12299798229E+03  0.43087820431E+02  0.31745546902E+03  0.46999998093E+01 0.  1.
       -5    1    3    3    0  502  0.28943189336E+03  0.12299798229E+03  0.39753828804E+03  0.50691035204E+03  0.46999998093E+01 0. -1.
</event>
<event>
 5   0  0.5113683E-03  0.7004940E+03  0.7818609E-02  0.9716388E-01
       -2   -1    0    0    0  501  0.00000000000E+00  0.00000000000E+00  0.50892230021E+03  0.50892230022E+03  0.25500000920E-02 0. -1.
        2   -1    0    0  501    0  0.00000000000E+00  0.00000000000E+00 -0.24104461047E+03  0.24104461048E+03  0.25500000920E-02 0.  1.
    10030    2    1    2    0    0  0.00000000000E+00  0.00000000000E+00  0.26787768975E+03  0.74996691070E+03  0.70049404743E+03 0.  0.
        3    1    3    3  502    0  0.24973805582E+03  0.12851627015E+03  0.35797206788E+03  0.45500498877E+03  0.10100000352E+00 0. -1.
       -3    1    3    3    0  502 -0.24973805582E+03 -0.12851627015E+03 -0.90094378136E+02  0.29496192193E+03  0.10100000352E+00 0.  1.
</event>
<event>
 5   0  0.3013140E-03  0.6996881E+03  0.7818609E-02  0.9717766E-01
       -1   -1    0    0    0  501  0.00000000000E+00  0.00000000000E+00  0.16798963004E+03  0.16798963011E+03  0.50400001928E-02 0. -1.
        1   -1    0    0  501    0  0.00000000000E+00  0.00000000000E+00 -0.72856197132E+03  0.72856197134E+03  0.50400001928E-02 0.  1.
    10030    2    1    2    0    0  0.00000000000E+00  0.00000000000E+00 -0.56057234128E+03  0.89655160145E+03  0.69968809069E+03 0.  0.
        2    1    3    3  502    0  0.15431187389E+03 -0.19517048400E+03 -0.59542541635E+03  0.64531782766E+03  0.25500000920E-02 0.  1.
       -2    1    3    3    0  502 -0.15431187389E+03  0.19517048400E+03  0.34853075066E+02  0.25123377380E+03  0.25500000920E-02 0. -1.
</event>
<event>
 5   0  0.4878235E-03  0.7001857E+03  0.7818609E-02  0.9716915E-01
        2   -1    0    0  501    0  0.00000000000E+00  0.00000000000E+00  0.37828637006E+03  0.37828637007E+03  0.25500000920E-02 0.  1.
       -2   -1    0    0    0  501  0.00000000000E+00  0.00000000000E+00 -0.32400062330E+03  0.32400062331E+03  0.25500000920E-02 0. -1.
    10030    2    1    2    0    0  0.00000000000E+00  0.00000000000E+00  0.54285746765E+02  0.70228699337E+03  0.70018574590E+03 0.  0.
        4    1    3    3  502    0  0.21798194409E+03 -0.13586559906E+03  0.26573869466E+03  0.36958660108E+03  0.12699999809E+01 0.  1.
       -4    1    3    3    0  502 -0.21798194409E+03  0.13586559906E+03 -0.21145294789E+03  0.33270039229E+03  0.12699999809E+01 0. -1.
</event>
<event>
 5   0  0.3013140E-03  0.7006339E+03  0.7818609E-02  0.9716149E-01
       -1   -1    0    0    0  501  0.00000000000E+00  0.00000000000E+00  0.16123115261E+03  0.16123115269E+03  0.50400001928E-02 0.  1.
        1   -1    0    0  501    0  0.00000000000E+00  0.00000000000E+00 -0.76115537566E+03  0.76115537568E+03  0.50400001928E-02 0. -1.
    10030    2    1    2    0    0  0.00000000000E+00  0.00000000000E+00 -0.59992422305E+03  0.92238652837E+03  0.70063388036E+03 0.  0.
        2    1    3    3  502    0  0.25972420729E+03 -0.38260792888E+02 -0.60532667081E+03  0.65980370606E+03  0.25500000920E-02 0. -1.
       -2    1    3    3    0  502 -0.25972420729E+03  0.38260792888E+02  0.54024477585E+01  0.26258282231E+03  0.25500000920E-02 0.  1.
</event>
<event>
 5   0  0.1981750E-03  0.6971209E+03  0.7818609E-02  0.9722168E-01
        3   -1    0    0  501    0  0.00000000000E+00  0.00000000000E+00  0.13868806173E+03  0.13868809851E+03  0.10100000352E+00 0. -1.
       -3   -1    0    0    0  501  0.00000000000E+00  0.00000000000E+00 -0.87602620487E+03  0.87602621069E+03  0.10100000352E+00 0.  1.
    10030    2    1    2    0    0  0.00000000000E+00  0.00000000000E+00 -0.73733814314E+03  0.10147143092E+04  0.69712093066E+03 0.  0.
        3    1    3    3  502    0  0.13581571619E+03  0.27172786372E+03 -0.61745145938E+03  0.68813389364E+03  0.10100000352E+00 0.  1.
       -3    1    3    3    0  502 -0.13581571619E+03 -0.27172786372E+03 -0.11988668376E+03  0.32658041556E+03  0.10100000352E+00 0. -1.
</event>
<event>
 5   0  0.2937617E-03  0.7013173E+03  0.7818609E-02  0.9714982E-01
       -1   -1    0    0    0  501  0.00000000000E+00  0.00000000000E+00  0.93442414501E+02  0.93442414637E+02  0.50400001928E-02 0. -1.
        1   -1    0    0  501    0  0.00000000000E+00  0.00000000000E+00 -0.13159065225E+04  0.13159065225E+04  0.50400001928E-02 0.  1.
    10030    2    1    2    0    0  0.00000000000E+00  0.00000000000E+00 -0.12224641080E+04  0.14093489371E+04  0.70131728289E+03 0.  0.
        3    1    3    3  502    0  0.23482266779E+03  0.17536124253E+02 -0.89081970911E+02  0.25176339826E+03  0.10100000352E+00 0. -1.
       -3    1    3    3    0  502 -0.23482266779E+03 -0.17536124253E+02 -0.11333821371E+04  0.11575855389E+04  0.10100000352E+00 0.  1.
</event>
<event>
 5   0  0.5072407E-03  0.6994783E+03  0.7818609E-02  0.9718125E-01
        2   -1    0    0  501    0  0.00000000000E+00  0.00000000000E+00  0.19095791126E+03  0.19095791127E+03  0.25500000920E-02 0.  1.
       -2   -1    0    0    0  501  0.00000000000E+00  0.00000000000E+00 -0.64054670229E+03  0.64054670230E+03  0.25500000920E-02 0. -1.
    10030    2    1    2    0    0  0.00000000000E+00  0.00000000000E+00 -0.44958879104E+03  0.83150461357E+03  0.69947826368E+03 0.  0.
        1    1    3    3  502    0  0.27658406806E+03 -0.48130740850E+02  0.23145136814E+02  0.28169311725E+03  0.50400001928E-02 0.  1.
       -1    1    3    3    0  502 -0.27658406806E+03  0.48130740850E+02 -0.47273392785E+03  0.54981149632E+03  0.50400001928E-02 0. -1.
</event>
<event>
 5   0  0.3013140E-03  0.6996455E+03  0.7818609E-02  0.9717839E-01
       -1   -1    0    0    0  501  0.00000000000E+00  0.00000000000E+00  0.50253039260E+03  0.50253039262E+03  0.50400001928E-02 0. -1.
        1   -1    0    0  501    0  0.00000000000E+00  0.00000000000E+00 -0.24351953327E+03  0.24351953333E+03  0.50400001928E-02 0.  1.
    10030    2    1    2    0    0  0.00000000000E+00  0.00000000000E+00  0.25901085932E+03  0.74604992595E+03  0.69964552937E+03 0.  0.
        2    1    3    3  502    0 -0.22043373859E+03  0.17216674936E+03 -0.94533467720E+02  0.29524396560E+03  0.25500000920E-02 0.  1.
       -2    1    3    3    0  502  0.22043373859E+03 -0.17216674936E+03  0.35354432704E+03  0.45080596035E+03  0.25500000920E-02 0. -1.
</event>
<event>
 5   0  0.5072407E-03  0.7003200E+03  0.7818609E-02  0.9716685E-01
        2   -1    0    0  501    0  0.00000000000E+00  0.00000000000E+00  0.11712909213E+04  0.11712909213E+04  0.25500000920E-02 0.  1.
       -2   -1    0    0    0  501  0.00000000000E+00  0.00000000000E+00 -0.10468110713E+03  0.10468110716E+03  0.25500000920E-02 0. -1.
    10030    2    1    2    0    0  0.00000000000E+00  0.00000000000E+00  0.10666098141E+04  0.12759720284E+04  0.70032001379E+03 0.  0.
        1    1    3    3  502    0 -0.39717755429E+02 -0.33165992000E+03  0.34189917314E+03  0.47798624169E+03  0.50400001928E-02 0. -1.
       -1    1    3    3    0  502  0.39717755429E+02  0.33165992000E+03  0.72471064101E+03  0.79798578675E+03  0.50400001928E-02 0.  1.
</event>
<event>
 5   0  0.1981750E-03  0.7011956E+03  0.7818609E-02  0.9715190E-01
        3   -1    0    0  501    0  0.00000000000E+00  0.00000000000E+00  0.33555418709E+03  0.33555420229E+03  0.10100000352E+00 0.  1.
       -3   -1    0    0    0  501  0.00000000000E+00  0.00000000000E+00 -0.36631581875E+03  0.36631583267E+03  0.10100000352E+00 0. -1.
    10030    2    1    2    0    0  0.00000000000E+00  0.00000000000E+00 -0.30761631657E+02  0.70187003497E+03  0.70119559896E+03 0.  0.
        5    1    3    3  502    0  0.17956967373E+03  0.29723411074E+03  0.32658498293E+02  0.34882954551E+03  0.46999998093E+01 0. -1.
       -5    1    3    3    0  502 -0.17956967373E+03 -0.29723411074E+03 -0.63420129950E+02  0.35304048946E+03  0.46999998093E+01 0.  1.
</event>
<event>
 5   0  0.5113683E-03  0.6985788E+03  0.7818609E-02  0.9719666E-01
       -2   -1    0    0    0  501  0.00000000000E+00  0.00000000000E+00  0.26501197820E+03  0.26501197821E+03  0.25500000920E-02 0. -1.
        2   -1    0    0  501    0  0.00000000000E+00  0.00000000000E+00 -0.46036820950E+03  0.46036820950E+03  0.25500000920E-02 0.  1.
    10030    2    1    2    0    0  0.00000000000E+00  0.00000000000E+00 -0.19535623130E+03  0.72538018771E+03  0.69857881418E+03 0.  0.
        3    1    3    3  502    0  0.16494012667E+02  0.26255502195E+03 -0.33626706631E+03  0.42694583039E+03  0.10100000352E+00 0.  1.
       -3    1    3    3    0  502 -0.16494012667E+02 -0.26255502195E+03  0.14091083501E+03  0.29843435732E+03  0.10100000352E+00 0. -1.
</event>
<event>
 5   0  0.2913582E-03  0.7014812E+03  0.7818609E-02  0.9714702E-01
       -1   -1    0    0    0  501  0.00000000000E+00  0.00000000000E+00  0.30624585890E+03  0.30624585894E+03  0.50400001928E-02 0. -1.
        1   -1    0    0  501    0  0.00000000000E+00  0.00000000000E+00 -0.40170006196E+03  0.40170006199E+03  0.50400001928E-02 0.  1.
    10030    2    1    2    0    0  0.00000000000E+00  0.00000000000E+00 -0.95454203062E+02  0.70794592093E+03  0.70148123430E+03 0.  0.
        1    1    3    3  502    0  0.76038950242E+02  0.16340366225E+03  0.25593836185E+03  0.31302895055E+03  0.50400001928E-02 0. -1.
       -1    1    3    3    0  502 -0.76038950242E+02 -0.16340366225E+03 -0.35139256491E+03  0.39491697038E+03  0.50400001928E-02 0.  1.
</event>
<event>
 5   0  0.2913582E-03  0.7001753E+03  0.7818609E-02  0.9716932E-01
       -1   -1    0    0    0  501  0.00000000000E+00  0.00000000000E+00  0.59673393946E+02  0.59673394159E+02  0.50400001928E-02 0.  1.
        1   -1    0    0  501    0  0.00000000000E+00  0.00000000000E+00 -0.20538693953E+04  0.20538693953E+04  0.50400001928E-02 0. -1.
    10030    2    1    2    0    0  0.00000000000E+00  0.00000000000E+00 -0.19941960014E+04  0.21135427895E+04  0.70017528597E+03 0.  0.
        1    1    3    3  502    0  0.27399324975E+03  0.21288485447E+02 -0.16517625121E+04  0.16744685417E+04  0.50400001928E-02 0. -1.
       -1    1    3    3    0  502 -0.27399324975E+03 -0.21288485447E+02 -0.34243348925E+03  0.43907424783E+03  0.50400001928E-02 0.  1.
</event>
<event>
 5   0  0.5072407E-03  0.6971670E+03  0.7818609E-02  0.9722089E-01
        2   -1    0    0  501    0  0.00000000000E+00  0.00000000000E+00  0.17228513402E+04  0.17228513402E+04  0.25500000920E-02 0. -1.
       -2   -1    0    0    0  501  0.00000000000E+00  0.00000000000E+00 -0.70528686531E+02  0.70528686577E+02  0.25500000920E-02 0.  1.
    10030    2    1    2    0    0  0.00000000000E+00  0.00000000000E+00  0.16523226536E+04  0.17933800267E+04  0.69716695892E+03 0.  0.
        1    1    3    3  502    0 -0.24049400076E+03  0.37687052331E+02  0.14679836986E+04  0.14880301804E+04  0.50400001928E-02 0. -1.
       -1    1    3    3    0  502  0.24049400076E+03 -0.37687052331E+02  0.18433895505E+03  0.30534984638E+03  0.50400001928E-02 0.  1.
</event>
<event>
 5   0  0.3013140E-03  0.7013408E+03  0.7818609E-02  0.9714942E-01
        1   -1    0    0  501    0  0.00000000000E+00  0.00000000000E+00  0.14308390286E+04  0.14308390286E+04  0.50400001928E-02 0. -1.
       -1   -1    0    0    0  501  0.00000000000E+00  0.00000000000E+00 -0.85942384956E+02  0.85942385104E+02  0.50400001928E-02 0.  1.
    10030    2    1    2    0    0  0.00000000000E+00  0.00000000000E+00  0.13448966436E+04  0.15167814137E+04  0.70134076946E+03 0.  0.
        2    1    3    3  502    0 -0.18889095481E+03 -0.79801060957E+02  0.12876626708E+04  0.13038877083E+04  0.25500000920E-02 0. -1.
       -2    1    3    3    0  502  0.18889095481E+03  0.79801060957E+02  0.57233972837E+02  0.21289370538E+03  0.25500000920E-02 0.  1.
</event>
<event>
 5   0  0.2913582E-03  0.7012120E+03  0.7818609E-02  0.9715162E-01
       -1   -1    0    0    0  501  0.00000000000E+00  0.00000000000E+00  0.13538270430E+03  0.13538270439E+03  0.50400001928E-02 0.  1.
        1   -1    0    0  501    0  0.00000000000E+00  0.00000000000E+00 -0.90797826325E+03  0.90797826326E+03  0.50400001928E-02 0. -1.
    10030    2    1    2    0    0  0.00000000000E+00  0.00000000000E+00 -0.77259555895E+03  0.10433609677E+04  0.70121195876E+03 0.  0.
        1    1    3    3  502    0  0.20213693006E+03 -0.16541742697E+03 -0.73430481323E+03  0.77937527699E+03  0.50400001928E-02 0. -1.
       -1    1    3    3    0  502 -0.20213693006E+03  0.16541742697E+03 -0.38290745725E+02  0.26398569066E+03  0.50400001928E-02 0.  1.
</event>
<event>
 5   0  0.5113683E-03  0.6996970E+03  0.7818609E-02  0.9717750E-01
       -2   -1    0    0    0  501  0.00000000000E+00  0.00000000000E+00  0.31886820449E+03  0.31886820450E+03  0.25500000920E-02 0.  1.
        2   -1    0    0  501    0  0.00000000000E+00  0.00000000000E+00 -0.38383878127E+03  0.38383878128E+03  0.25500000920E-02 0. -1.
    10030    2    1    2    0    0  0.00000000000E+00  0.00000000000E+00 -0.64970576784E+02  0.70270698577E+03  0.69969702872E+03 0.  0.
        3    1    3    3  502    0  0.31792582235E+03  0.83258841195E+02 -0.15293917831E+03  0.36249036624E+03  0.10100000352E+00 0. -1.
       -3    1    3    3    0  502 -0.31792582235E+03 -0.83258841195E+02  0.87968601529E+02  0.34021661953E+03  0.10100000352E+00 0.  1.
</event>
<event>
 5   0  0.2938783E-03  0.6984701E+03  0.7818609E-02  0.9719852E-01
        1   -1    0    0  501    0  0.00000000000E+00  0.00000000000E+00  0.15587363955E+03  0.15587363963E+03  0.50400001928E-02 0.  1.
       -1   -1    0    0    0  501  0.00000000000E+00  0.00000000000E+00 -0.78246146957E+03  0.78246146958E+03  0.50400001928E-02 0. -1.
    10030    2    1    2    0    0  0.00000000000E+00  0.00000000000E+00 -0.62658783002E+03  0.93833510921E+03  0.69847009131E+03 0.  0.
        4    1    3    3  502    0  0.18648495706E+01  0.34825330455E+03 -0.27827063787E+03  0.44578021781E+03  0.12699999809E+01 0. -1.
       -4    1    3    3    0  502 -0.18648495706E+01 -0.34825330455E+03 -0.34831719216E+03  0.49255489140E+03  0.12699999809E+01 0.  1.
</event>
<event>
 5   0  0.2938783E-03  0.6996624E+03  0.7818609E-02  0.9717810E-01
       -1   -1    0    0    0  501  0.00000000000E+00  0.00000000000E+00  0.12351220712E+03  0.12351220722E+03  0.50400001928E-02 0.  1.
        1   -1    0    0  501    0  0.00000000000E+00  0.00000000000E+00 -0.99084842610E+03  0.99084842611E+03  0.50400001928E-02 0. -1.
    10030    2    1    2    0    0  0.00000000000E+00  0.00000000000E+00 -0.86733621898E+03  0.11143606333E+04  0.69966242172E+03 0.  0.
        4    1    3    3  502    0 -0.27471275260E+03  0.11048965411E+03 -0.13695652169E+03  0.32624187628E+03  0.12699999809E+01 0.  1.
       -4    1    3    3    0  502  0.27471275260E+03 -0.11048965411E+03 -0.73037969728E+03  0.78811875705E+03  0.12699999809E+01 0. -1.
</event>
<event>
 5   0  0.2938783E-03  0.6966044E+03  0.7818609E-02  0.9723057E-01
        1   -1    0    0  501    0  0.00000000000E+00  0.00000000000E+00  0.12332981110E+04  0.12332981110E+04  0.50400001928E-02 0.  1.
       -1   -1    0    0    0  501  0.00000000000E+00  0.00000000000E+00 -0.98365852366E+02  0.98365852496E+02  0.50400001928E-02 0. -1.
    10030    2    1    2    0    0  0.00000000000E+00  0.00000000000E+00  0.11349322586E+04  0.13316639635E+04  0.69660439275E+03 0.  0.
        4    1    3    3  502    0  0.92859251820E+02 -0.27964815959E+03  0.92247184816E+03  0.96839137613E+03  0.12699999809E+01 0.  1.
       -4    1    3    3    0  502 -0.92859251820E+02  0.27964815959E+03  0.21246041043E+03  0.36327258734E+03  0.12699999809E+01 0. -1.
</event>
<event>
 5   0  0.5023894E-03  0.6994407E+03  0.7818609E-02  0.9718189E-01
        2   -1    0    0  501    0  0.00000000000E+00  0.00000000000E+00  0.52260255060E+03  0.52260255061E+03  0.25500000920E-02 0.  1.
       -2   -1    0    0    0  501  0.00000000000E+00  0.00000000000E+00 -0.23402935508E+03  0.23402935509E+03  0.25500000920E-02 0. -1.
    10030    2    1    2    0    0  0.00000000000E+00  0.00000000000E+00  0.28857319552E+03  0.75663190570E+03  0.69944074198E+03 0.  0.
        2    1    3    3  502    0  0.25688862600E+03 -0.43822163294E+02  0.39657773597E+03  0.47453772120E+03  0.25500000920E-02 0.  1.
       -2    1    3    3    0  502 -0.25688862600E+03  0.43822163294E+02 -0.10800454045E+03  0.28209418450E+03  0.25500000920E-02 0. -1.
</event>
<event>
 5   0  0.4878235E-03  0.6988571E+03  0.7818609E-02  0.9719189E-01
        2   -1    0    0  501    0  0.00000000000E+00  0.00000000000E+00  0.11356592688E+04  0.11356592688E+04  0.25500000920E-02 0.  1.
       -2   -1    0    0    0  501  0.00000000000E+00  0.00000000000E+00 -0.10751493065E+03  0.10751493068E+03  0.25500000920E-02 0. -1.
    10030    2    1    2    0    0  0.00000000000E+00  0.00000000000E+00  0.10281443381E+04  0.12431741995E+04  0.69885714578E+03 0.  0.
        4    1    3    3  502    0  0.69735262741E+02  0.68370982275E+02  0.11108844818E+04  0.11151697372E+04  0.12699999809E+01 0.  1.
       -4    1    3    3    0  502 -0.69735262741E+02 -0.68370982275E+02 -0.82740143634E+02  0.12800446225E+03  0.12699999809E+01 0. -1.
</event>
<event>
 5   0  0.5113683E-03  0.6868637E+03  0.7818609E-02  0.9739964E-01
        2   -1    0    0  501    0  0.00000000000E+00  0.00000000000E+00  0.88969006185E+03  0.88969006185E+03  0.25500000920E-02 0.  1.
       -2   -1    0    0    0  501  0.00000000000E+00  0.00000000000E+00 -0.13256914434E+03  0.13256914436E+03  0.25500000920E-02 0. -1.
    10030    2    1    2    0    0  0.00000000000E+00  0.00000000000E+00  0.75712091751E+03  0.10222592062E+04  0.68686374264E+03 0.  0.
        3    1    3    3  502    0 -0.28847203963E+03  0.18334224197E+03  0.42825596305E+03  0.54793583149E+03  0.10100000352E+00 0.  1.
       -3    1    3    3    0  502  0.28847203963E+03 -0.18334224197E+03  0.32886495446E+03  0.47432337473E+03  0.10100000352E+00 0. -1.
</event>
<event>
 5   0  0.2937617E-03  0.6999495E+03  0.7818609E-02  0.9717318E-01
        1   -1    0    0  501    0  0.00000000000E+00  0.00000000000E+00  0.10432542026E+04  0.10432542026E+04  0.50400001928E-02 0.  1.
       -1   -1    0    0    0  501  0.00000000000E+00  0.00000000000E+00 -0.11740412029E+03  0.11740412040E+03  0.50400001928E-02 0. -1.
    10030    2    1    2    0    0  0.00000000000E+00  0.00000000000E+00  0.92585008231E+03  0.11606583230E+04  0.69994954666E+03 0.  0.
        3    1    3    3  502    0 -0.25366245523E+03  0.15186505176E+03  0.15237283762E+03  0.33260355829E+03  0.10100000352E+00 0. -1.
       -3    1    3    3    0  502  0.25366245523E+03 -0.15186505176E+03  0.77347724468E+03  0.82805476472E+03  0.10100000352E+00 0.  1.
</event>
<event>
 5   0  0.5076796E-03  0.6999588E+03  0.7818609E-02  0.9717303E-01
       -2   -1    0    0    0  501  0.00000000000E+00  0.00000000000E+00  0.22461014386E+03  0.22461014387E+03  0.25500000920E-02 0. -1.
        2   -1    0    0  501    0  0.00000000000E+00  0.00000000000E+00 -0.54532517169E+03  0.54532517170E+03  0.25500000920E-02 0.  1.
    10030    2    1    2    0    0  0.00000000000E+00  0.00000000000E+00 -0.32071502783E+03  0.76993531557E+03  0.69995875670E+03 0.  0.
        5    1    3    3  502    0 -0.30203048356E+03  0.17294780415E+03 -0.20047438835E+03  0.40167826222E+03  0.46999998093E+01 0. -1.
       -5    1    3    3    0  502  0.30203048356E+03 -0.17294780415E+03 -0.12024063948E+03  0.36825705335E+03  0.46999998093E+01 0.  1.
</event>
<event>
 5   0  0.1981750E-03  0.6991914E+03  0.7818609E-02  0.9718616E-01
       -3   -1    0    0    0  501  0.00000000000E+00  0.00000000000E+00  0.15173564943E+03  0.15173568304E+03  0.10100000352E+00 0. -1.
        3   -1    0    0  501    0  0.00000000000E+00  0.00000000000E+00 -0.80546083797E+03  0.80546084430E+03  0.10100000352E+00 0.  1.
    10030    2    1    2    0    0  0.00000000000E+00  0.00000000000E+00 -0.65372518854E+03  0.95719652734E+03  0.69919136852E+03 0.  0.
        1    1    3    3  502    0  0.16415760908E+03  0.30542224402E+03 -0.38788206452E+03  0.52027200940E+03  0.50400001928E-02 0.  1.
       -1    1    3    3    0  502 -0.16415760908E+03 -0.30542224402E+03 -0.26584312402E+03  0.43692451794E+03  0.50400001928E-02 0. -1.
</event>
<event>
 5   0  0.5023894E-03  0.6973515E+03  0.7818609E-02  0.9721772E-01
       -2   -1    0    0    0  501  0.00000000000E+00  0.00000000000E+00  0.10167289103E+04  0.10167289103E+04  0.25500000920E-02 0. -1.
        2   -1    0    0  501    0  0.00000000000E+00  0.00000000000E+00 -0.11957442401E+03  0.11957442404E+03  0.25500000920E-02 0.  1.
    10030    2    1    2    0    0  0.00000000000E+00  0.00000000000E+00  0.89715448625E+03  0.11363033343E+04  0.69735148623E+03 0.  0.
        2    1    3    3  502    0 -0.22985952851E+03 -0.43781014818E+02  0.86979261756E+03  0.90071714632E+03  0.25500000920E-02 0. -1.
       -2    1    3    3    0  502  0.22985952851E+03  0.43781014818E+02  0.27361868696E+02  0.23558618799E+03  0.25500000920E-02 0.  1.
</event>
<event>
 5   0  0.2937617E-03  0.7007813E+03  0.7818609E-02  0.9715897E-01
       -1   -1    0    0    0  501  0.00000000000E+00  0.00000000000E+00  0.13387415469E+03  0.13387415478E+03  0.50400001928E-02 0. -1.
        1   -1    0    0  501    0  0.00000000000E+00  0.00000000000E+00 -0.91708218193E+03  0.91708218194E+03  0.50400001928E-02 0.  1.
    10030    2    1    2    0    0  0.00000000000E+00  0.00000000000E+00 -0.78320802724E+03  0.10509563367E+04  0.70078128383E+03 0.  0.
        3    1    3    3  502    0 -0.19435616401E+03  0.25360390647E+03 -0.60729049587E+03  0.68621499287E+03  0.10100000352E+00 0. -1.
       -3    1    3    3    0  502  0.19435616401E+03 -0.25360390647E+03 -0.17591753138E+03  0.36474134385E+03  0.10100000352E+00 0.  1.
</event>
<event>
 5   0  0.5076796E-03  0.7019945E+03  0.7818609E-02  0.9713827E-01
       -2   -1    0    0    0  501  0.00000000000E+00  0.00000000000E+00  0.90646016352E+03  0.90646016352E+03  0.25500000920E-02 0. -1.
        2   -1    0    0  501    0  0.00000000000E+00  0.00000000000E+00 -0.13591227092E+03  0.13591227094E+03  0.25500000920E-02 0.  1.
    10030    2    1    2    0    0  0.00000000000E+00  0.00000000000E+00  0.77054789260E+03  0.10423724345E+04  0.70199447101E+03 0.  0.
        5    1    3    3  502    0  0.17779947044E+03 -0.22351842922E+03  0.82404209598E+02  0.29729729842E+03  0.46999998093E+01 0.  1.
       -5    1    3    3    0  502 -0.17779947044E+03  0.22351842922E+03  0.68814368301E+03  0.74507513604E+03  0.46999998093E+01 0. -1.
</event>
<event>
 5   0  0.2934483E-03  0.6977479E+03  0.7818609E-02  0.9721091E-01
        1   -1    0    0  501    0  0.00000000000E+00  0.00000000000E+00  0.23490877978E+03  0.23490877984E+03  0.50400001928E-02 0.  1.
       -1   -1    0    0    0  501  0.00000000000E+00  0.00000000000E+00 -0.51812898081E+03  0.51812898083E+03  0.50400001928E-02 0. -1.
    10030    2    1    2    0    0  0.00000000000E+00  0.00000000000E+00 -0.28322020102E+03  0.75303776067E+03  0.69774793925E+03 0.  0.
        5    1    3    3  502    0  0.95386765696E+02 -0.86569642622E+02  0.20826694931E+03  0.24492886777E+03  0.46999998093E+01 0.  1.
       -5    1    3    3    0  502 -0.95386765696E+02  0.86569642622E+02 -0.49148715034E+03  0.50810889289E+03  0.46999998093E+01 0. -1.
</event>
<event>
 5   0  0.5076796E-03  0.6961060E+03  0.7818609E-02  0.9723915E-01
        2   -1    0    0  501    0  0.00000000000E+00  0.00000000000E+00  0.11321643333E+04  0.11321643333E+04  0.25500000920E-02 0. -1.
       -2   -1    0    0    0  501  0.00000000000E+00  0.00000000000E+00 -0.10699938970E+03  0.10699938973E+03  0.25500000920E-02 0.  1.
    10030    2    1    2    0    0  0.00000000000E+00  0.00000000000E+00  0.10251649436E+04  0.12391637231E+04  0.69610600552E+03 0.  0.
        5    1    3    3  502    0 -0.16832047744E+02  0.12912900438E+03  0.10871039465E+04  0.10948857009E+04  0.46999998093E+01 0. -1.
       -5    1    3    3    0  502  0.16832047744E+02 -0.12912900438E+03 -0.61939002854E+02  0.14427802216E+03  0.46999998093E+01 0.  1.
</event>
<event>
 5   0  0.5072407E-03  0.6999985E+03  0.7818609E-02  0.9717235E-01
       -2   -1    0    0    0  501  0.00000000000E+00  0.00000000000E+00  0.18857966817E+03  0.18857966818E+03  0.25500000920E-02 0.  1.
        2   -1    0    0  501    0  0.00000000000E+00  0.00000000000E+00 -0.64959005778E+03  0.64959005779E+03  0.25500000920E-02 0. -1.
    10030    2    1    2    0    0  0.00000000000E+00  0.00000000000E+00 -0.46101038962E+03  0.83816972597E+03  0.69999850728E+03 0.  0.
        1    1    3    3  502    0 -0.29913573557E+03  0.10920858876E+02 -0.13325227438E+02  0.29963146558E+03  0.50400001928E-02 0.  1.
       -1    1    3    3    0  502  0.29913573557E+03 -0.10920858876E+02 -0.44768516218E+03  0.53853826040E+03  0.50400001928E-02 0. -1.
</event>
<event>
 5   0  0.4878235E-03  0.6974133E+03  0.7818609E-02  0.9721666E-01
        2   -1    0    0  501    0  0.00000000000E+00  0.00000000000E+00  0.40513656750E+03  0.40513656751E+03  0.25500000920E-02 0. -1.
       -2   -1    0    0    0  501  0.00000000000E+00  0.00000000000E+00 -0.30013664313E+03  0.30013664314E+03  0.25500000920E-02 0.  1.
    10030    2    1    2    0    0  0.00000000000E+00  0.00000000000E+00  0.10499992437E+03  0.70527321065E+03  0.69741330468E+03 0.  0.
        4    1    3    3  502    0 -0.11579159031E+03 -0.28271988359E+02  0.38389383004E+03  0.40197398343E+03  0.12699999809E+01 0. -1.
       -4    1    3    3    0  502  0.11579159031E+03  0.28271988359E+02 -0.27889390567E+03  0.30329922722E+03  0.12699999809E+01 0.  1.
</event>
<event>
 5   0  0.2937617E-03  0.7008333E+03  0.7818609E-02  0.9715808E-01
        1   -1    0    0  501    0  0.00000000000E+00  0.00000000000E+00  0.49231779078E+03  0.49231779081E+03  0.50400001928E-02 0.  1.
       -1   -1    0    0    0  501  0.00000000000E+00  0.00000000000E+00 -0.24941576161E+03  0.24941576166E+03  0.50400001928E-02 0. -1.
    10030    2    1    2    0    0  0.00000000000E+00  0.00000000000E+00  0.24290202917E+03  0.74173355247E+03  0.70083326625E+03 0.  0.
        3    1    3    3  502    0  0.95017146420E+02  0.32884293102E+03  0.20083415263E+03  0.39686307268E+03  0.10100000352E+00 0. -1.
       -3    1    3    3    0  502 -0.95017146420E+02 -0.32884293102E+03  0.42067876544E+02  0.34487047979E+03  0.10100000352E+00 0.  1.
</event>
<event>
 5   0  0.2938783E-03  0.6970414E+03  0.7818609E-02  0.9722305E-01
       -1   -1    0    0    0  501  0.00000000000E+00  0.00000000000E+00  0.42131897898E+03  0.42131897901E+03  0.50400001928E-02 0. -1.
        1   -1    0    0  501    0  0.00000000000E+00  0.00000000000E+00 -0.28830097533E+03  0.28830097538E+03  0.50400001928E-02 0.  1.
    10030    2    1    2    0    0  0.00000000000E+00  0.00000000000E+00  0.13301800364E+03  0.70961995439E+03  0.69704138354E+03 0.  0.
        4    1    3    3  502    0  0.15352599010E+03 -0.20315181567E+03 -0.17574344944E+03  0.30939984287E+03  0.12699999809E+01 0.  1.
       -4    1    3    3    0  502 -0.15352599010E+03  0.20315181567E+03  0.30876145309E+03  0.40022011151E+03  0.12699999809E+01 0. -1.
</event>
<event>
 5   0  0.5072407E-03  0.6995856E+03  0.7818609E-02  0.9717941E-01
       -2   -1    0    0    0  501  0.00000000000E+00  0.00000000000E+00  0.22212664910E+03  0.22212664911E+03  0.25500000920E-02 0. -1.
        2   -1    0    0  501    0  0.00000000000E+00  0.00000000000E+00 -0.55083437205E+03  0.55083437206E+03  0.25500000920E-02 0.  1.
    10030    2    1    2    0    0  0.00000000000E+00  0.00000000000E+00 -0.32870772296E+03  0.77296102117E+03  0.69958557240E+03 0.  0.
        1    1    3    3  502    0  0.30743117923E+02  0.13834550061E+03 -0.51769294373E+03  0.53674072032E+03  0.50400001928E-02 0.  1.
       -1    1    3    3    0  502 -0.30743117923E+02 -0.13834550061E+03  0.18898522077E+03  0.23622030085E+03  0.50400001928E-02 0. -1.
</event>
<event>
 5   0  0.2938783E-03  0.7023575E+03  0.7818609E-02  0.9713209E-01
        1   -1    0    0  501    0  0.00000000000E+00  0.00000000000E+00  0.42863954279E+03  0.42863954282E+03  0.50400001928E-02 0. -1.
       -1   -1    0    0    0  501  0.00000000000E+00  0.00000000000E+00 -0.28771614616E+03  0.28771614621E+03  0.50400001928E-02 0.  1.
    10030    2    1    2    0    0  0.00000000000E+00  0.00000000000E+00  0.14092339663E+03  0.71635568903E+03  0.70235750832E+03 0.  0.
        4    1    3    3  502    0 -0.95250080100E+02  0.17351373463E+03 -0.22539775043E+03  0.29997558678E+03  0.12699999809E+01 0.  1.
       -4    1    3    3    0  502  0.95250080100E+02 -0.17351373463E+03  0.36632114706E+03  0.41638010225E+03  0.12699999809E+01 0. -1.
</event>
<event>
 5   0  0.4878235E-03  0.7007002E+03  0.7818609E-02  0.9716036E-01
       -2   -1    0    0    0  501  0.00000000000E+00  0.00000000000E+00  0.31735719671E+03  0.31735719672E+03  0.25500000920E-02 0. -1.
        2   -1    0    0  501    0  0.00000000000E+00  0.00000000000E+00 -0.38677294952E+03  0.38677294953E+03  0.25500000920E-02 0.  1.
    10030    2    1    2    0    0  0.00000000000E+00  0.00000000000E+00 -0.69415752811E+02  0.70413014624E+03  0.70070016135E+03 0.  0.
        4    1    3    3  502    0 -0.14246376434E+03  0.30092768850E+03 -0.14428369437E+03  0.36286746233E+03  0.12699999809E+01 0.  1.
       -4    1    3    3    0  502  0.14246376434E+03 -0.30092768850E+03  0.74867941562E+02  0.34126268391E+03  0.12699999809E+01 0. -1.
</event>
<event>
 5   0  0.5076796E-03  0.6989651E+03  0.7818609E-02  0.9719004E-01
        2   -1    0    0  501    0  0.00000000000E+00  0.00000000000E+00  0.60270107967E+02  0.60270108021E+02  0.25500000920E-02 0.  1.
       -2   -1    0    0    0  501  0.00000000000E+00  0.00000000000E+00 -0.20265113911E+04  0.20265113911E+04  0.25500000920E-02 0. -1.
    10030    2    1    2    0    0  0.00000000000E+00  0.00000000000E+00 -0.19662412831E+04  0.20867814991E+04  0.69896512186E+03 0.  0.
        5    1    3    3  502    0  0.20958205800E+03  0.97357239188E+02 -0.20051926120E+03  0.30599531887E+03  0.46999998093E+01 0.  1.
       -5    1    3    3    0  502 -0.20958205800E+03 -0.97357239188E+02 -0.17657220219E+04  0.17807861802E+04  0.46999998093E+01 0. -1.
</event>
<event>
 5   0  0.5076796E-03  0.6991659E+03  0.7818609E-02  0.9718660E-01
        2   -1    0    0  501    0  0.00000000000E+00  0.00000000000E+00  0.23826561145E+03  0.23826561146E+03  0.25500000920E-02 0. -1.
       -2   -1    0    0    0  501  0.00000000000E+00  0.00000000000E+00 -0.51290762298E+03  0.51290762299E+03  0.25500000920E-02 0.  1.
    10030    2    1    2    0    0  0.00000000000E+00  0.00000000000E+00 -0.27464201154E+03  0.75117323445E+03  0.69916592713E+03 0.  0.
        5    1    3    3  502    0  0.25769186287E+03 -0.42146682702E+02  0.11235436661E+03  0.28430095453E+03  0.46999998093E+01 0. -1.
       -5    1    3    3    0  502 -0.25769186287E+03  0.42146682702E+02 -0.38699637815E+03  0.46687227992E+03  0.46999998093E+01 0.  1.
</event>
<event>
 5   0  0.2938783E-03  0.7019808E+03  0.7818609E-02  0.9713851E-01
        1   -1    0    0  501    0  0.00000000000E+00  0.00000000000E+00  0.67245905892E+03  0.67245905894E+03  0.50400001928E-02 0.  1.
       -1   -1    0    0    0  501  0.00000000000E+00  0.00000000000E+00 -0.18319963672E+03  0.18319963679E+03  0.50400001928E-02 0. -1.
    10030    2    1    2    0    0  0.00000000000E+00  0.00000000000E+00  0.48925942220E+03  0.85565869573E+03  0.70198078419E+03 0.  0.
        4    1    3    3  502    0  0.12738637486E+03 -0.32261050507E+03  0.31013254667E+03  0.46528339309E+03  0.12699999809E+01 0.  1.
       -4    1    3    3    0  502 -0.12738637486E+03  0.32261050507E+03  0.17912687553E+03  0.39037530265E+03  0.12699999809E+01 0. -1.
</event>
<event>
 5   0  0.2938783E-03  0.7004829E+03  0.7818609E-02  0.9716407E-01
        1   -1    0    0  501    0  0.00000000000E+00  0.00000000000E+00  0.67089799865E+03  0.67089799867E+03  0.50400001928E-02 0.  1.
       -1   -1    0    0    0  501  0.00000000000E+00  0.00000000000E+00 -0.18284309325E+03  0.18284309332E+03  0.50400001928E-02 0. -1.
    10030    2    1    2    0    0  0.00000000000E+00  0.00000000000E+00  0.48805490539E+03  0.85374109199E+03  0.70048287736E+03 0.  0.
        4    1    3    3  502    0 -0.24271829281E+03 -0.18186483079E+03  0.30546251301E+02  0.30483056394E+03  0.12699999809E+01 0. -1.
       -4    1    3    3    0  502  0.24271829281E+03  0.18186483079E+03  0.45750865409E+03  0.54891052806E+03  0.12699999809E+01 0.  1.
</event>
<event>
 5   0  0.1981750E-03  0.7026573E+03  0.7818609E-02  0.9712699E-01
        3   -1    0    0  501    0  0.00000000000E+00  0.00000000000E+00  0.82175592797E+03  0.82175593417E+03  0.10100000352E+00 0. -1.
       -3   -1    0    0    0  501  0.00000000000E+00  0.00000000000E+00 -0.15020494503E+03  0.15020497898E+03  0.10100000352E+00 0.  1.
    10030    2    1    2    0    0  0.00000000000E+00  0.00000000000E+00  0.67155098294E+03  0.97196091316E+03  0.70265730909E+03 0.  0.
        4    1    3    3  502    0  0.11680589240E+03  0.46416713329E+02  0.78958762613E+03  0.79953008699E+03  0.12699999809E+01 0. -1.
       -4    1    3    3    0  502 -0.11680589240E+03 -0.46416713329E+02 -0.11803664319E+03  0.17243082616E+03  0.12699999809E+01 0.  1.
</event>
<event>
 5   0  0.2913582E-03  0.7001724E+03  0.7818609E-02  0.9716937E-01
       -1   -1    0    0    0  501  0.00000000000E+00  0.00000000000E+00  0.68706934576E+03  0.68706934578E+03  0.50400001928E-02 0.  1.
        1   -1    0    0  501    0  0.00000000000E+00  0.00000000000E+00 -0.17838131955E+03  0.17838131962E+03  0.50400001928E-02 0. -1.
    10030    2    1    2    0    0  0.00000000000E+00  0.00000000000E+00  0.50868802621E+03  0.86545066540E+03  0.70017236895E+03 0.  0.
        1    1    3    3  502    0 -0.61905621687E+02  0.28936251081E+03  0.23108230770E+02  0.29681131887E+03  0.50400001928E-02 0. -1.
       -1    1    3    3    0  502  0.61905621687E+02 -0.28936251081E+03  0.48557979544E+03  0.56863934653E+03  0.50400001928E-02 0.  1.
</event>
<event>
 5   0  0.5076796E-03  0.6981467E+03  0.7818609E-02  0.9720407E-01
        2   -1    0    0  501    0  0.00000000000E+00  0.00000000000E+00  0.77738642894E+03  0.77738642895E+03  0.25500000920E-02 0.  1.
       -2   -1    0    0    0  501  0.00000000000E+00  0.00000000000E+00 -0.15674599956E+03  0.15674599958E+03  0.25500000920E-02 0. -1.
    10030    2    1    2    0    0  0.00000000000E+00  0.00000000000E+00  0.62064042938E+03  0.93413242853E+03  0.69814672630E+03 0.  0.
        5    1    3    3  502    0 -0.27047306637E+03  0.21279434243E+03  0.23238129521E+03  0.41528335888E+03  0.46999998093E+01 0. -1.
       -5    1    3    3    0  502  0.27047306637E+03 -0.21279434243E+03  0.38825913418E+03  0.51884906965E+03  0.46999998093E+01 0.  1.
</event>
<event>
 5   0  0.4878235E-03  0.6995325E+03  0.7818609E-02  0.9718032E-01
       -2   -1    0    0    0  501  0.00000000000E+00  0.00000000000E+00  0.56822492593E+03  0.56822492593E+03  0.25500000920E-02 0. -1.
        2   -1    0    0  501    0  0.00000000000E+00  0.00000000000E+00 -0.21529578555E+03  0.21529578556E+03  0.25500000920E-02 0.  1.
    10030    2    1    2    0    0  0.00000000000E+00  0.00000000000E+00  0.35292914038E+03  0.78352071149E+03  0.69953250619E+03 0.  0.
        4    1    3    3  502    0  0.21309050341E+03 -0.23372734639E+03  0.34372113362E+03  0.46709941735E+03  0.12699999809E+01 0.  1.
       -4    1    3    3    0  502 -0.21309050341E+03  0.23372734639E+03  0.92080067591E+01  0.31642129414E+03  0.12699999809E+01 0. -1.
</event>
<event>
 5   0  0.5072407E-03  0.6992032E+03  0.7818609E-02  0.9718596E-01
        2   -1    0    0  501    0  0.00000000000E+00  0.00000000000E+00  0.12974084842E+04  0.12974084842E+04  0.25500000920E-02 0.  1.
       -2   -1    0    0    0  501  0.00000000000E+00  0.00000000000E+00 -0.94204164119E+02  0.94204164153E+02  0.25500000920E-02 0. -1.
    10030    2    1    2    0    0  0.00000000000E+00  0.00000000000E+00  0.12032043201E+04  0.13916126483E+04  0.69920320880E+03 0.  0.
        1    1    3    3  502    0  0.29286475991E+03 -0.16759885701E+03  0.78360308782E+03  0.85316642206E+03  0.50400001928E-02 0.  1.
       -1    1    3    3    0  502 -0.29286475991E+03  0.16759885701E+03  0.41960123225E+03  0.53844622628E+03  0.50400001928E-02 0. -1.
</event>
<event>
 5   0  0.5072407E-03  0.7056598E+03  0.7818609E-02  0.9707602E-01
        2   -1    0    0  501    0  0.00000000000E+00  0.00000000000E+00  0.57920305659E+03  0.57920305659E+03  0.25500000920E-02 0. -1.
       -2   -1    0    0    0  501  0.00000000000E+00  0.00000000000E+00 -0.21493141132E+03  0.21493141134E+03  0.25500000920E-02 0.  1.
    10030    2    1    2    0    0  0.00000000000E+00  0.00000000000E+00  0.36427164526E+03  0.79413446793E+03  0.70565977752E+03 0.  0.
        1    1    3    3  502    0  0.15672910970E+02  0.24166381791E+03 -0.10663268276E+03  0.26460833336E+03  0.50400001928E-02 0.  1.
       -1    1    3    3    0  502 -0.15672910970E+02 -0.24166381791E+03  0.47090432802E+03  0.52952613458E+03  0.50400001928E-02 0. -1.
</event>
<event>
 5   0  0.3013140E-03  0.7002654E+03  0.7818609E-02  0.9716778E-01
       -1   -1    0    0    0  501  0.00000000000E+00  0.00000000000E+00  0.10607607377E+03  0.10607607389E+03  0.50400001928E-02 0. -1.
        1   -1    0    0  501    0  0.00000000000E+00  0.00000000000E+00 -0.11557073310E+04  0.11557073310E+04  0.50400001928E-02 0.  1.
    10030    2    1    2    0    0  0.00000000000E+00  0.00000000000E+00 -0.10496312572E+04  0.12617834049E+04  0.70026536734E+03 0.  0.
        2    1    3    3  502    0  0.23952936160E+03  0.25054037789E+03 -0.43566246618E+03  0.55672846206E+03  0.25500000920E-02 0. -1.
       -2    1    3    3    0  502 -0.23952936160E+03 -0.25054037789E+03 -0.61396879100E+03  0.70505494279E+03  0.25500000920E-02 0.  1.
</event>
<event>
 5   0  0.2934483E-03  0.6998630E+03  0.7818609E-02  0.9717467E-01
       -1   -1    0    0    0  501  0.00000000000E+00  0.00000000000E+00  0.10762157649E+03  0.10762157660E+03  0.50400001928E-02 0. -1.
        1   -1    0    0  501    0  0.00000000000E+00  0.00000000000E+00 -0.11378019812E+04  0.11378019812E+04  0.50400001928E-02 0.  1.
    10030    2    1    2    0    0  0.00000000000E+00  0.00000000000E+00 -0.10301804047E+04  0.12454235578E+04  0.69986296665E+03 0.  0.
        5    1    3    3  502    0  0.17269286219E+03 -0.29086247211E+03 -0.35586348448E+03  0.49100377994E+03  0.46999998093E+01 0.  1.
       -5    1    3    3    0  502 -0.17269286219E+03  0.29086247211E+03 -0.67431692020E+03  0.75441977784E+03  0.46999998093E+01 0. -1.
</event>
<event>
 5   0  0.5076796E-03  0.7028530E+03  0.7818609E-02  0.9712366E-01
       -2   -1    0    0    0  501  0.00000000000E+00  0.00000000000E+00  0.83527686285E+02  0.83527686324E+02  0.25500000920E-02 0. -1.
        2   -1    0    0  501    0  0.00000000000E+00  0.00000000000E+00 -0.14785586703E+04  0.14785586703E+04  0.25500000920E-02 0.  1.
    10030    2    1    2    0    0  0.00000000000E+00  0.00000000000E+00 -0.13950309840E+04  0.15620863566E+04  0.70285299970E+03 0.  0.
        5    1    3    3  502    0 -0.32034512968E+03 -0.12616290779E+02 -0.37776729451E+03  0.49549005207E+03  0.46999998093E+01 0.  1.
       -5    1    3    3    0  502  0.32034512968E+03  0.12616290779E+02 -0.10172636895E+04  0.10665963045E+04  0.46999998093E+01 0. -1.
</event>
<event>
 5   0  0.2938783E-03  0.7008440E+03  0.7818609E-02  0.9715790E-01
       -1   -1    0    0    0  501  0.00000000000E+00  0.00000000000E+00  0.42738528334E+03  0.42738528337E+03  0.50400001928E-02 0. -1.
        1   -1    0    0  501    0  0.00000000000E+00  0.00000000000E+00 -0.28731820426E+03  0.28731820430E+03  0.50400001928E-02 0.  1.
    10030    2    1    2    0    0  0.00000000000E+00  0.00000000000E+00  0.14006707908E+03  0.71470348767E+03  0.70084398310E+03 0.  0.
        4    1    3    3  502    0 -0.23824251119E+03  0.20346375791E+03 -0.90032113096E+02  0.32598219155E+03  0.12699999809E+01 0. -1.
       -4    1    3    3    0  502  0.23824251119E+03 -0.20346375791E+03  0.23009919218E+03  0.38872129612E+03  0.12699999809E+01 0.  1.
</event>
<event>
 5   0  0.5023894E-03  0.6997214E+03  0.7818609E-02  0.9717709E-01
        2   -1    0    0  501    0  0.00000000000E+00  0.00000000000E+00  0.91790369318E+03  0.91790369319E+03  0.25500000920E-02 0. -1.
       -2   -1    0    0    0  501  0.00000000000E+00  0.00000000000E+00 -0.13335005301E+03  0.13335005303E+03  0.25500000920E-02 0.  1.
    10030    2    1    2    0    0  0.00000000000E+00  0.00000000000E+00  0.78455364017E+03  0.10512537462E+04  0.69972139072E+03 0.  0.
        2    1    3    3  502    0  0.30650704333E+03 -0.16374008230E+03  0.33133972831E+03  0.48014934939E+03  0.25500000920E-02 0. -1.
       -2    1    3    3    0  502 -0.30650704333E+03  0.16374008230E+03  0.45321391187E+03  0.57110439683E+03  0.25500000920E-02 0.  1.
</event>
<event>
 5   0  0.2913582E-03  0.7017155E+03  0.7818609E-02  0.9714303E-01
        1   -1    0    0  501    0  0.00000000000E+00  0.00000000000E+00  0.29026146991E+03  0.29026146995E+03  0.50400001928E-02 0.  1.
       -1   -1    0    0    0  501  0.00000000000E+00  0.00000000000E+00 -0.42410434375E+03  0.42410434378E+03  0.50400001928E-02 0. -1.
    10030    2    1    2    0    0  0.00000000000E+00  0.00000000000E+00 -0.13384287384E+03  0.71436581373E+03  0.70171547008E+03 0.  0.
        1    1    3    3  502    0 -0.12439623347E+02 -0.15869564550E+03 -0.38522746886E+03  0.41682041087E+03  0.50400001928E-02 0. -1.
       -1    1    3    3    0  502  0.12439623347E+02  0.15869564550E+03  0.25138459502E+03  0.29754540286E+03  0.50400001928E-02 0.  1.
</event>
<event>
 5   0  0.5113683E-03  0.6989996E+03  0.7818609E-02  0.9718945E-01
        2   -1    0    0  501    0  0.00000000000E+00  0.00000000000E+00  0.96331051535E+03  0.96331051535E+03  0.25500000920E-02 0. -1.
       -2   -1    0    0    0  501  0.00000000000E+00  0.00000000000E+00 -0.12680241182E+03  0.12680241184E+03  0.25500000920E-02 0.  1.
    10030    2    1    2    0    0  0.00000000000E+00  0.00000000000E+00  0.83650810353E+03  0.10901129272E+04  0.69899956135E+03 0.  0.
        3    1    3    3  502    0  0.70236114089E+02  0.18234598454E+02 -0.11492490470E+03  0.13591672533E+03  0.10100000352E+00 0.  1.
       -3    1    3    3    0  502 -0.70236114089E+02 -0.18234598454E+02  0.95143300823E+03  0.95419620186E+03  0.10100000352E+00 0. -1.
</event>
<event>
 5   0  0.5076796E-03  0.6983904E+03  0.7818609E-02  0.9719989E-01
       -2   -1    0    0    0  501  0.00000000000E+00  0.00000000000E+00  0.10805492362E+04  0.10805492362E+04  0.25500000920E-02 0. -1.
        2   -1    0    0  501    0  0.00000000000E+00  0.00000000000E+00 -0.11284751318E+03  0.11284751321E+03  0.25500000920E-02 0.  1.
    10030    2    1    2    0    0  0.00000000000E+00  0.00000000000E+00  0.96770172300E+03  0.11933967494E+04  0.69839041857E+03 0.  0.
        5    1    3    3  502    0  0.24007903101E+03 -0.16439535630E+03  0.15404524152E+03  0.32926554745E+03  0.46999998093E+01 0.  1.
       -5    1    3    3    0  502 -0.24007903101E+03  0.16439535630E+03  0.81365648148E+03  0.86413120194E+03  0.46999998093E+01 0. -1.
</event>
<event>
 5   0  0.2913582E-03  0.7002297E+03  0.7818609E-02  0.9716840E-01
        1   -1    0    0  501    0  0.00000000000E+00  0.00000000000E+00  0.65728201703E+03  0.65728201705E+03  0.50400001928E-02 0.  1.
       -1   -1    0    0    0  501  0.00000000000E+00  0.00000000000E+00 -0.18649588809E+03  0.18649588815E+03  0.50400001928E-02 0. -1.
    10030    2    1    2    0    0  0.00000000000E+00  0.00000000000E+00  0.47078612895E+03  0.84377790520E+03  0.70022965811E+03 0.  0.
        1    1    3    3  502    0 -0.10869269991E+03 -0.18518761270E+03  0.56861870668E+03  0.60781229711E+03  0.50400001928E-02 0.  1.
       -1    1    3    3    0  502  0.10869269991E+03  0.18518761270E+03 -0.97832577738E+02  0.23596560809E+03  0.50400001928E-02 0. -1.
</event>
<event>
 5   0  0.2938783E-03  0.7013259E+03  0.7818609E-02  0.9714967E-01
        1   -1    0    0  501    0  0.00000000000E+00  0.00000000000E+00  0.35282901547E+03  0.35282901550E+03  0.50400001928E-02 0.  1.
       -1   -1    0    0    0  501  0.00000000000E+00  0.00000000000E+00 -0.34851018995E+03  0.34851018998E+03  0.50400001928E-02 0. -1.
    10030    2    1    2    0    0  0.00000000000E+00  0.00000000000E+00  0.43188255203E+01  0.70133920549E+03  0.70132590776E+03 0.  0.
        4    1    3    3  502    0  0.87819236846E+02 -0.31816919465E+03 -0.11624485732E+03  0.34994047285E+03  0.12699999809E+01 0. -1.
       -4    1    3    3    0  502 -0.87819236846E+02  0.31816919465E+03  0.12056368284E+03  0.35139873264E+03  0.12699999809E+01 0.  1.
</event>
<event>
 5   0  0.2934483E-03  0.7011969E+03  0.7818609E-02  0.9715187E-01
       -1   -1    0    0    0  501  0.00000000000E+00  0.00000000000E+00  0.29597735537E+03  0.29597735541E+03  0.50400001928E-02 0.  1.
        1   -1    0    0  501    0  0.00000000000E+00  0.00000000000E+00 -0.41529963486E+03  0.41529963489E+03  0.50400001928E-02 0. -1.
    10030    2    1    2    0    0  0.00000000000E+00  0.00000000000E+00 -0.11932227950E+03  0.71127699030E+03  0.70119694134E+03 0.  0.
        5    1    3    3  502    0  0.26536665629E+03 -0.18519588989E+03 -0.19643348272E+03  0.37858312566E+03  0.46999998093E+01 0.  1.
       -5    1    3    3    0  502 -0.26536665629E+03  0.18519588989E+03  0.77111203228E+02  0.33269386464E+03  0.46999998093E+01 0. -1.
</event>
<event>
 5   0  0.2934483E-03  0.7135279E+03  0.7818609E-02  0.9694373E-01
        1   -1    0    0  501    0  0.00000000000E+00  0.00000000000E+00  0.10636497561E+04  0.10636497561E+04  0.50400001928E-02 0.  1.
       -1   -1    0    0    0  501  0.00000000000E+00  0.00000000000E+00 -0.11966393294E+03  0.11966393304E+03  0.50400001928E-02 0. -1.
    10030    2    1    2    0    0  0.00000000000E+00  0.00000000000E+00  0.94398582316E+03  0.11833136892E+04  0.71352789196E+03 0.  0.
        5    1    3    3  502    0  0.25448420521E+03 -0.10702899633E+03  0.84666259098E+03  0.89054873518E+03  0.46999998093E+01 0.  1.
       -5    1    3    3    0  502 -0.25448420521E+03  0.10702899633E+03  0.97323232177E+02  0.29276495398E+03  0.46999998093E+01 0. -1.
</event>
<event>
 5   0  0.5076796E-03  0.6997188E+03  0.7818609E-02  0.9717713E-01
        2   -1    0    0  501    0  0.00000000000E+00  0.00000000000E+00  0.15345742001E+04  0.15345742001E+04  0.25500000920E-02 0.  1.
       -2   -1    0    0    0  501  0.00000000000E+00  0.00000000000E+00 -0.79762585162E+02  0.79762585203E+02  0.25500000920E-02 0. -1.
    10030    2    1    2    0    0  0.00000000000E+00  0.00000000000E+00  0.14548116150E+04  0.16143367853E+04  0.69971881598E+03 0.  0.
        5    1    3    3  502    0 -0.13907774390E+03 -0.27885075502E+03  0.36058678509E+03  0.47659761016E+03  0.46999998093E+01 0. -1.
       -5    1    3    3    0  502  0.13907774390E+03  0.27885075502E+03  0.10942248299E+04  0.11377391752E+04  0.46999998093E+01 0.  1.
</event>
<event>
 5   0  0.5076796E-03  0.6989261E+03  0.7818609E-02  0.9719070E-01
        2   -1    0    0  501    0  0.00000000000E+00  0.00000000000E+00  0.62473094950E+03  0.62473094951E+03  0.25500000920E-02 0. -1.
       -2   -1    0    0    0  501  0.00000000000E+00  0.00000000000E+00 -0.19548323768E+03  0.19548323770E+03  0.25500000920E-02 0.  1.
    10030    2    1    2    0    0  0.00000000000E+00  0.00000000000E+00  0.42924771182E+03  0.82021418720E+03  0.69892611540E+03 0.  0.
        5    1    3    3  502    0 -0.32391357117E+02  0.31086929191E+03  0.39798627848E+03  0.50606727272E+03  0.46999998093E+01 0. -1.
       -5    1    3    3    0  502  0.32391357117E+02 -0.31086929191E+03  0.31261433341E+02  0.31414691448E+03  0.46999998093E+01 0.  1.
</event>
<event>
 5   0  0.5113683E-03  0.7064041E+03  0.7818609E-02  0.9706343E-01
        2   -1    0    0  501    0  0.00000000000E+00  0.00000000000E+00  0.23477679940E+03  0.23477679941E+03  0.25500000920E-02 0.  1.
       -2   -1    0    0    0  501  0.00000000000E+00  0.00000000000E+00 -0.53136287512E+03  0.53136287512E+03  0.25500000920E-02 0. -1.
    10030    2    1    2    0    0  0.00000000000E+00  0.00000000000E+00 -0.29658607572E+03  0.76613967454E+03  0.70640406326E+03 0.  0.
        3    1    3    3  502    0  0.22059998141E+03  0.27580956911E+03 -0.14390159739E+03  0.38136983381E+03  0.10100000352E+00 0.  1.
       -3    1    3    3    0  502 -0.22059998141E+03 -0.27580956911E+03 -0.15268447833E+03  0.38476984072E+03  0.10100000352E+00 0. -1.
</event>
<event>
 5   0  0.5076796E-03  0.7015405E+03  0.7818609E-02  0.9714601E-01
        2   -1    0    0  501    0  0.00000000000E+00  0.00000000000E+00  0.15053975736E+04  0.15053975736E+04  0.25500000920E-02 0.  1.
       -2   -1    0    0    0  501  0.00000000000E+00  0.00000000000E+00 -0.81732398308E+02  0.81732398347E+02  0.25500000920E-02 0. -1.
    10030    2    1    2    0    0  0.00000000000E+00  0.00000000000E+00  0.14236651753E+04  0.15871299720E+04  0.70154045965E+03 0.  0.
        5    1    3    3  502    0 -0.53175771958E+02  0.33039547121E+03  0.47424455009E+03  0.58044708063E+03  0.46999998093E+01 0. -1.
       -5    1    3    3    0  502  0.53175771958E+02 -0.33039547121E+03  0.94942062520E+03  0.10066828913E+04  0.46999998093E+01 0.  1.
</event>
<event>
 5   0  0.3013140E-03  0.7005343E+03  0.7818609E-02  0.9716319E-01
        1   -1    0    0  501    0  0.00000000000E+00  0.00000000000E+00  0.38947024546E+03  0.38947024549E+03  0.50400001928E-02 0. -1.
       -1   -1    0    0    0  501  0.00000000000E+00  0.00000000000E+00 -0.31501012699E+03  0.31501012704E+03  0.50400001928E-02 0.  1.
    10030    2    1    2    0    0  0.00000000000E+00  0.00000000000E+00  0.74460118463E+02  0.70448037253E+03  0.70053428612E+03 0.  0.
        2    1    3    3  502    0  0.25510545908E+03  0.23822549444E+03  0.77924828570E+01  0.34912877889E+03  0.25500000920E-02 0.  1.
       -2    1    3    3    0  502 -0.25510545908E+03 -0.23822549444E+03  0.66667635606E+02  0.35535159363E+03  0.25500000920E-02 0. -1.
</event>
<event>
 5   0  0.5113683E-03  0.7023673E+03  0.7818609E-02  0.9713192E-01
       -2   -1    0    0    0  501  0.00000000000E+00  0.00000000000E+00  0.16604105543E+03  0.16604105545E+03  0.25500000920E-02 0. -1.
        2   -1    0    0  501    0  0.00000000000E+00  0.00000000000E+00 -0.74276788500E+03  0.74276788501E+03  0.25500000920E-02 0.  1.
    10030    2    1    2    0    0  0.00000000000E+00  0.00000000000E+00 -0.57672682957E+03  0.90880894046E+03  0.70236732150E+03 0.  0.
        3    1    3    3  502    0 -0.29217077906E+03 -0.11546817364E+03 -0.49144451349E+03  0.58327899268E+03  0.10100000352E+00 0.  1.
       -3    1    3    3    0  502  0.29217077906E+03  0.11546817364E+03 -0.85282316077E+02  0.32552994778E+03  0.10100000352E+00 0. -1.
</event>
<event>
 5   0  0.4878235E-03  0.7011035E+03  0.7818609E-02  0.9715347E-01
       -2   -1    0    0    0  501  0.00000000000E+00  0.00000000000E+00  0.87527572061E+02  0.87527572098E+02  0.25500000920E-02 0.  1.
        2   -1    0    0  501    0  0.00000000000E+00  0.00000000000E+00 -0.14039750909E+04  0.14039750909E+04  0.25500000920E-02 0. -1.
    10030    2    1    2    0    0  0.00000000000E+00  0.00000000000E+00 -0.13164475188E+04  0.14915026630E+04  0.70110350440E+03 0.  0.
        4    1    3    3  502    0  0.89285114512E+02  0.33190558912E+03 -0.80486949294E+03  0.87518550338E+03  0.12699999809E+01 0. -1.
       -4    1    3    3    0  502 -0.89285114512E+02 -0.33190558912E+03 -0.51157802589E+03  0.61631715961E+03  0.12699999809E+01 0.  1.
</event>
<event>
 5   0  0.5113683E-03  0.6982746E+03  0.7818609E-02  0.9720187E-01
        2   -1    0    0  501    0  0.00000000000E+00  0.00000000000E+00  0.94471738758E+03  0.94471738758E+03  0.25500000920E-02 0. -1.
       -2   -1    0    0    0  501  0.00000000000E+00  0.00000000000E+00 -0.12902997601E+03  0.12902997604E+03  0.25500000920E-02 0.  1.
    10030    2    1    2    0    0  0.00000000000E+00  0.00000000000E+00  0.81568741157E+03  0.10737473636E+04  0.69827462183E+03 0.  0.
        3    1    3    3  502    0 -0.10209125800E+03 -0.17963487822E+03 -0.24922783405E+02  0.20811648124E+03  0.10100000352E+00 0.  1.
       -3    1    3    3    0  502  0.10209125800E+03  0.17963487822E+03  0.84061019497E+03  0.86563088237E+03  0.10100000352E+00 0. -1.
</event>
<event>
 5   0  0.3013140E-03  0.7001879E+03  0.7818609E-02  0.9716911E-01
       -1   -1    0    0    0  501  0.00000000000E+00  0.00000000000E+00  0.11251625500E+03  0.11251625511E+03  0.50400001928E-02 0.  1.
        1   -1    0    0  501    0  0.00000000000E+00  0.00000000000E+00 -0.10893160504E+04  0.10893160504E+04  0.50400001928E-02 0. -1.
    10030    2    1    2    0    0  0.00000000000E+00  0.00000000000E+00 -0.97679979536E+03  0.12018323055E+04  0.70018786785E+03 0.  0.
        2    1    3    3  502    0  0.34855012004E+03 -0.27487200975E+01 -0.54457298190E+03  0.64657132187E+03  0.25500000920E-02 0. -1.
       -2    1    3    3    0  502 -0.34855012004E+03  0.27487200975E+01 -0.43222681346E+03  0.55526098361E+03  0.25500000920E-02 0.  1.
</event>
<event>
 5   0  0.5023894E-03  0.6969706E+03  0.7818609E-02  0.9722427E-01
        2   -1    0    0  501    0  0.00000000000E+00  0.00000000000E+00  0.14981802087E+04  0.14981802087E+04  0.25500000920E-02 0.  1.
       -2   -1    0    0    0  501  0.00000000000E+00  0.00000000000E+00 -0.81059678161E+02  0.81059678201E+02  0.25500000920E-02 0. -1.
    10030    2    1    2    0    0  0.00000000000E+00  0.00000000000E+00  0.14171205305E+04  0.15792398869E+04  0.69697060362E+03 0.  0.
        2    1    3    3  502    0  0.17571487864E+02  0.19263204715E+03  0.51748600271E+02  0.20023431377E+03  0.25500000920E-02 0. -1.
       -2    1    3    3    0  502 -0.17571487864E+02 -0.19263204715E+03  0.13653719303E+04  0.13790055731E+04  0.25500000920E-02 0.  1.
</event>
<event>
 5   0  0.2938783E-03  0.6989166E+03  0.7818609E-02  0.9719087E-01
        1   -1    0    0  501    0  0.00000000000E+00  0.00000000000E+00  0.56831945265E+03  0.56831945267E+03  0.50400001928E-02 0. -1.
       -1   -1    0    0    0  501  0.00000000000E+00  0.00000000000E+00 -0.21488109952E+03  0.21488109958E+03  0.50400001928E-02 0.  1.
    10030    2    1    2    0    0  0.00000000000E+00  0.00000000000E+00  0.35343835313E+03  0.78320055226E+03  0.69891661562E+03 0.  0.
        4    1    3    3  502    0 -0.27988144590E+02 -0.40314914307E+02 -0.21099743508E+03  0.21663369789E+03  0.12699999809E+01 0.  1.
       -4    1    3    3    0  502  0.27988144590E+02  0.40314914307E+02  0.56443578821E+03  0.56656685436E+03  0.12699999809E+01 0. -1.
</event>
<event>
 5   0  0.2938783E-03  0.6981209E+03  0.7818609E-02  0.9720451E-01
        1   -1    0    0  501    0  0.00000000000E+00  0.00000000000E+00  0.44546763752E+03  0.44546763755E+03  0.50400001928E-02 0.  1.
       -1   -1    0    0    0  501  0.00000000000E+00  0.00000000000E+00 -0.27351749699E+03  0.27351749704E+03  0.50400001928E-02 0. -1.
    10030    2    1    2    0    0  0.00000000000E+00  0.00000000000E+00  0.17195014053E+03  0.71898513459E+03  0.69812088705E+03 0.  0.
        4    1    3    3  502    0 -0.27994505034E+03  0.19952852558E+03  0.14828716256E+03  0.37439492412E+03  0.12699999809E+01 0.  1.
       -4    1    3    3    0  502  0.27994505034E+03 -0.19952852558E+03  0.23662977971E+02  0.34459021047E+03  0.12699999809E+01 0. -1.
</event>
<event>
 5   0  0.4878235E-03  0.7005048E+03  0.7818609E-02  0.9716369E-01
        2   -1    0    0  501    0  0.00000000000E+00  0.00000000000E+00  0.60100916629E+03  0.60100916630E+03  0.25500000920E-02 0. -1.
       -2   -1    0    0    0  501  0.00000000000E+00  0.00000000000E+00 -0.20411793056E+03  0.20411793057E+03  0.25500000920E-02 0.  1.
    10030    2    1    2    0    0  0.00000000000E+00  0.00000000000E+00  0.39689123574E+03  0.80512709687E+03  0.70050481020E+03 0.  0.
        4    1    3    3  502    0  0.15425980218E+03 -0.21070281832E+03 -0.69832532390E+02  0.27031455695E+03  0.12699999809E+01 0.  1.
       -4    1    3    3    0  502 -0.15425980218E+03  0.21070281832E+03  0.46672376813E+03  0.53481253992E+03  0.12699999809E+01 0. -1.
</event>
<event>
 5   0  0.1981750E-03  0.7002220E+03  0.7818609E-02  0.9716853E-01
        3   -1    0    0  501    0  0.00000000000E+00  0.00000000000E+00  0.97696213295E+03  0.97696213818E+03  0.10100000352E+00 0.  1.
       -3   -1    0    0    0  501  0.00000000000E+00  0.00000000000E+00 -0.12546821329E+03  0.12546825394E+03  0.10100000352E+00 0. -1.
    10030    2    1    2    0    0  0.00000000000E+00  0.00000000000E+00  0.85149391966E+03  0.11024303921E+04  0.70022201783E+03 0.  0.
        5    1    3    3  502    0 -0.34910182622E+03 -0.23657814876E+01  0.38475363443E+03  0.51955281848E+03  0.46999998093E+01 0. -1.
       -5    1    3    3    0  502  0.34910182622E+03  0.23657814876E+01  0.46674028523E+03  0.58287757363E+03  0.46999998093E+01 0.  1.
</event>
<event>
 5   0  0.2937617E-03  0.6932481E+03  0.7818609E-02  0.9728849E-01
       -1   -1    0    0    0  501  0.00000000000E+00  0.00000000000E+00  0.23354726745E+03  0.23354726750E+03  0.50400001928E-02 0.  1.
        1   -1    0    0  501    0  0.00000000000E+00  0.00000000000E+00 -0.51444935741E+03  0.51444935744E+03  0.50400001928E-02 0. -1.
    10030    2    1    2    0    0  0.00000000000E+00  0.00000000000E+00 -0.28090208997E+03  0.74799662494E+03  0.69324812786E+03 0.  0.
        3    1    3    3  502    0  0.23010328433E+03  0.19042423989E+03 -0.33023797785E+03  0.44527075450E+03  0.10100000352E+00 0. -1.
       -3    1    3    3    0  502 -0.23010328433E+03 -0.19042423989E+03  0.49335887885E+02  0.30272587044E+03  0.10100000352E+00 0.  1.
</event>
<event>
 5   0  0.1981750E-03  0.6996221E+03  0.7818609E-02  0.9717879E-01
       -4   -1    0    0    0  501  0.00000000000E+00  0.00000000000E+00  0.17347391515E+03  0.17347856392E+03  0.12699999809E+01 0. -1.
        4   -1    0    0  501    0  0.00000000000E+00  0.00000000000E+00 -0.70538111517E+03  0.70538225846E+03  0.12699999809E+01 0.  1.
    10030    2    1    2    0    0  0.00000000000E+00  0.00000000000E+00 -0.53190720002E+03  0.87886082237E+03  0.69962209489E+03 0.  0.
        1    1    3    3  502    0 -0.17207504277E+03  0.14162776696E+03 -0.60465919653E+03  0.64442298895E+03  0.50400001928E-02 0.  1.
       -1    1    3    3    0  502  0.17207504277E+03 -0.14162776696E+03  0.72751996507E+02  0.23443783342E+03  0.50400001928E-02 0. -1.
</event>
<event>
 5   0  0.5113683E-03  0.7016194E+03  0.7818609E-02  0.9714467E-01
       -2   -1    0    0    0  501  0.00000000000E+00  0.00000000000E+00  0.29946670591E+03  0.29946670592E+03  0.25500000920E-02 0.  1.
        2   -1    0    0  501    0  0.00000000000E+00  0.00000000000E+00 -0.41095539777E+03  0.41095539778E+03  0.25500000920E-02 0. -1.
    10030    2    1    2    0    0  0.00000000000E+00  0.00000000000E+00 -0.11148869187E+03  0.71042210370E+03  0.70161943887E+03 0.  0.
        3    1    3    3  502    0  0.13645006967E+02  0.26810017611E+03  0.17292876016E+03  0.31932468889E+03  0.10100000352E+00 0.  1.
       -3    1    3    3    0  502 -0.13645006967E+02 -0.26810017611E+03 -0.28441745203E+03  0.39109741480E+03  0.10100000352E+00 0. -1.
</event>
<event>
 5   0  0.5113683E-03  0.7027305E+03  0.7818609E-02  0.9712574E-01
       -2   -1    0    0    0  501  0.00000000000E+00  0.00000000000E+00  0.30309819744E+03  0.30309819745E+03  0.25500000920E-02 0.  1.
        2   -1    0    0  501    0  0.00000000000E+00  0.00000000000E+00 -0.40731859392E+03  0.40731859393E+03  0.25500000920E-02 0. -1.
    10030    2    1    2    0    0  0.00000000000E+00  0.00000000000E+00 -0.10422039648E+03  0.71041679138E+03  0.70273047923E+03 0.  0.
        3    1    3    3  502    0 -0.22679085437E+03 -0.26711452781E+03 -0.25879161671E+02  0.35136021943E+03  0.10100000352E+00 0. -1.
       -3    1    3    3    0  502  0.22679085437E+03  0.26711452781E+03 -0.78341234806E+02  0.35905657195E+03  0.10100000352E+00 0.  1.
</event>
<event>
 5   0  0.4878235E-03  0.7020637E+03  0.7818609E-02  0.9713709E-01
       -2   -1    0    0    0  501  0.00000000000E+00  0.00000000000E+00  0.51089363141E+02  0.51089363205E+02  0.25500000920E-02 0. -1.
        2   -1    0    0  501    0  0.00000000000E+00  0.00000000000E+00 -0.24119180738E+04  0.24119180738E+04  0.25500000920E-02 0.  1.
    10030    2    1    2    0    0  0.00000000000E+00  0.00000000000E+00 -0.23608287106E+04  0.24630074370E+04  0.70206369631E+03 0.  0.
        4    1    3    3  502    0  0.14105615505E+03  0.29201136635E+03 -0.70902566770E+03  0.77967075571E+03  0.12699999809E+01 0.  1.
       -4    1    3    3    0  502 -0.14105615505E+03 -0.29201136635E+03 -0.16518030429E+04  0.16833366813E+04  0.12699999809E+01 0. -1.
</event>
<event>
 5   0  0.2913582E-03  0.7002108E+03  0.7818609E-02  0.9716872E-01
        1   -1    0    0  501    0  0.00000000000E+00  0.00000000000E+00  0.52667331871E+03  0.52667331874E+03  0.50400001928E-02 0.  1.
       -1   -1    0    0    0  501  0.00000000000E+00  0.00000000000E+00 -0.23273208015E+03  0.23273208020E+03  0.50400001928E-02 0. -1.
    10030    2    1    2    0    0  0.00000000000E+00  0.00000000000E+00  0.29394123856E+03  0.75940539894E+03  0.70021075985E+03 0.  0.
        1    1    3    3  502    0  0.30998393408E+03  0.22036816338E+01 -0.29509064816E+02  0.31139312859E+03  0.50400001928E-02 0. -1.
       -1    1    3    3    0  502 -0.30998393408E+03 -0.22036816338E+01  0.32345030338E+03  0.44801227035E+03  0.50400001928E-02 0.  1.
</event>
<event>
 5   0  0.4878235E-03  0.6982566E+03  0.7818609E-02  0.9720218E-01
        2   -1    0    0  501    0  0.00000000000E+00  0.00000000000E+00  0.33641264475E+03  0.33641264476E+03  0.25500000920E-02 0. -1.
       -2   -1    0    0    0  501  0.00000000000E+00  0.00000000000E+00 -0.36232461902E+03  0.36232461903E+03  0.25500000920E-02 0.  1.
    10030    2    1    2    0    0  0.00000000000E+00  0.00000000000E+00 -0.25911974275E+02  0.69873726379E+03  0.69825663864E+03 0.  0.
        4    1    3    3  502    0  0.31087320034E+03  0.45430024085E+02  0.13940825502E+03  0.34371835599E+03  0.12699999809E+01 0. -1.
       -4    1    3    3    0  502 -0.31087320034E+03 -0.45430024085E+02 -0.16532022930E+03  0.35501890780E+03  0.12699999809E+01 0.  1.
</event>
<event>
 5   0  0.2937617E-03  0.6988761E+03  0.7818609E-02  0.9719156E-01
       -1   -1    0    0    0  501  0.00000000000E+00  0.00000000000E+00  0.21790791513E+03  0.21790791519E+03  0.50400001928E-02 0. -1.
        1   -1    0    0  501    0  0.00000000000E+00  0.00000000000E+00 -0.56036024902E+03  0.56036024904E+03  0.50400001928E-02 0.  1.
    10030    2    1    2    0    0  0.00000000000E+00  0.00000000000E+00 -0.34245233389E+03  0.77826816423E+03  0.69887605086E+03 0.  0.
        3    1    3    3  502    0  0.25206311822E+03 -0.23678361129E+03 -0.11549465398E+03  0.36461118941E+03  0.10100000352E+00 0. -1.
       -3    1    3    3    0  502 -0.25206311822E+03  0.23678361129E+03 -0.22695767991E+03  0.41365697482E+03  0.10100000352E+00 0.  1.
</event>
<event>
 5   0  0.5113683E-03  0.7012201E+03  0.7818609E-02  0.9715148E-01
        2   -1    0    0  501    0  0.00000000000E+00  0.00000000000E+00  0.29034715223E+03  0.29034715224E+03  0.25500000920E-02 0.  1.
       -2   -1    0    0    0  501  0.00000000000E+00  0.00000000000E+00 -0.42338077552E+03  0.42338077552E+03  0.25500000920E-02 0. -1.
    10030    2    1    2    0    0  0.00000000000E+00  0.00000000000E+00 -0.13303362328E+03  0.71372792777E+03  0.70122008667E+03 0.  0.
        3    1    3    3  502    0  0.43991680460E+02  0.10113565736E+03 -0.40526507405E+03  0.42000414234E+03  0.10100000352E+00 0. -1.
       -3    1    3    3    0  502 -0.43991680460E+02 -0.10113565736E+03  0.27223145076E+03  0.29372378543E+03  0.10100000352E+00 0.  1.
</event>
<event>
 5   0  0.5113683E-03  0.6999919E+03  0.7818609E-02  0.9717246E-01
       -2   -1    0    0    0  501  0.00000000000E+00  0.00000000000E+00  0.42216468861E+03  0.42216468862E+03  0.25500000920E-02 0. -1.
        2   -1    0    0  501    0  0.00000000000E+00  0.00000000000E+00 -0.29016439219E+03  0.29016439220E+03  0.25500000920E-02 0.  1.
    10030    2    1    2    0    0  0.00000000000E+00  0.00000000000E+00  0.13200029642E+03  0.71232908082E+03  0.69999188647E+03 0.  0.
        3    1    3    3  502    0  0.24888635175E+03 -0.22903751379E+03 -0.25555271461E+02  0.33919858625E+03  0.10100000352E+00 0.  1.
       -3    1    3    3    0  502 -0.24888635175E+03  0.22903751379E+03  0.15755556788E+03  0.37313049458E+03  0.10100000352E+00 0. -1.
</event>
<event>
 5   0  0.2938783E-03  0.6995765E+03  0.7818609E-02  0.9717957E-01
       -1   -1    0    0    0  501  0.00000000000E+00  0.00000000000E+00  0.11680132857E+03  0.11680132868E+03  0.50400001928E-02 0.  1.
        1   -1    0    0  501    0  0.00000000000E+00  0.00000000000E+00 -0.10475209377E+04  0.10475209377E+04  0.50400001928E-02 0. -1.
    10030    2    1    2    0    0  0.00000000000E+00  0.00000000000E+00 -0.93071960915E+03  0.11643222664E+04  0.69957654992E+03 0.  0.
        4    1    3    3  502    0 -0.10797660561E+03  0.17631921229E+03 -0.93493177539E+03  0.95752099168E+03  0.12699999809E+01 0. -1.
       -4    1    3    3    0  502  0.10797660561E+03 -0.17631921229E+03  0.42121662408E+01  0.20680127472E+03  0.12699999809E+01 0.  1.
</event>
<event>
 5   0  0.2913582E-03  0.7002322E+03  0.7818609E-02  0.9716835E-01
        1   -1    0    0  501    0  0.00000000000E+00  0.00000000000E+00  0.50686627909E+03  0.50686627911E+03  0.50400001928E-02 0. -1.
       -1   -1    0    0    0  501  0.00000000000E+00  0.00000000000E+00 -0.24184149796E+03  0.24184149801E+03  0.50400001928E-02 0.  1.
    10030    2    1    2    0    0  0.00000000000E+00  0.00000000000E+00  0.26502478113E+03  0.74870777713E+03  0.70023224784E+03 0.  0.
        1    1    3    3  502    0  0.18802339189E+03 -0.22028242194E+03  0.34286555700E+03  0.44881391636E+03  0.50400001928E-02 0. -1.
       -1    1    3    3    0  502 -0.18802339189E+03  0.22028242194E+03 -0.77840775870E+02  0.29989386077E+03  0.50400001928E-02 0.  1.
</event>
<event>
 5   0  0.5072407E-03  0.6999904E+03  0.7818609E-02  0.9717249E-01
       -2   -1    0    0    0  501  0.00000000000E+00  0.00000000000E+00  0.10180856202E+03  0.10180856205E+03  0.25500000920E-02 0. -1.
        2   -1    0    0  501    0  0.00000000000E+00  0.00000000000E+00 -0.12032056462E+04  0.12032056462E+04  0.25500000920E-02 0.  1.
    10030    2    1    2    0    0  0.00000000000E+00  0.00000000000E+00 -0.11013970842E+04  0.13050142083E+04  0.69999039045E+03 0.  0.
        1    1    3    3  502    0 -0.34868103432E+03  0.12648453555E+02 -0.49936371903E+03  0.60918188661E+03  0.50400001928E-02 0. -1.
       -1    1    3    3    0  502  0.34868103432E+03 -0.12648453555E+02 -0.60203336517E+03  0.69583232166E+03  0.50400001928E-02 0.  1.
</event>
<event>
 5   0  0.2938783E-03  0.7013065E+03  0.7818609E-02  0.9715000E-01
        1   -1    0    0  501    0  0.00000000000E+00  0.00000000000E+00  0.61122401728E+03  0.61122401731E+03  0.50400001928E-02 0.  1.
       -1   -1    0    0    0  501  0.00000000000E+00  0.00000000000E+00 -0.20116635484E+03  0.20116635490E+03  0.50400001928E-02 0. -1.
    10030    2    1    2    0    0  0.00000000000E+00  0.00000000000E+00  0.41005766245E+03  0.81239037220E+03  0.70130651666E+03 0.  0.
        4    1    3    3  502    0  0.14823373462E+03 -0.92201474370E+02 -0.14724866087E+03  0.22838155132E+03  0.12699999809E+01 0. -1.
       -4    1    3    3    0  502 -0.14823373462E+03  0.92201474370E+02  0.55730632332E+03  0.58400882088E+03  0.12699999809E+01 0.  1.
</event>
<event>
 5   0  0.5076796E-03  0.7003090E+03  0.7818609E-02  0.9716704E-01
       -2   -1    0    0    0  501  0.00000000000E+00  0.00000000000E+00  0.10960749843E+03  0.10960749846E+03  0.25500000920E-02 0.  1.
        2   -1    0    0  501    0  0.00000000000E+00  0.00000000000E+00 -0.11186112356E+04  0.11186112356E+04  0.25500000920E-02 0. -1.
    10030    2    1    2    0    0  0.00000000000E+00  0.00000000000E+00 -0.10090037372E+04  0.12282187341E+04  0.70030901544E+03 0.  0.
        5    1    3    3  502    0 -0.96240551759E+02 -0.31428024910E+03 -0.29293682175E+03  0.44030488336E+03  0.46999998093E+01 0.  1.
       -5    1    3    3    0  502  0.96240551759E+02  0.31428024910E+03 -0.71606691545E+03  0.78791385074E+03  0.46999998093E+01 0. -1.
</event>
<event>
 5   0  0.3013140E-03  0.6981342E+03  0.7818609E-02  0.9720428E-01
        1   -1    0    0  501    0  0.00000000000E+00  0.00000000000E+00  0.75778778806E+03  0.75778778808E+03  0.50400001928E-02 0. -1.
       -1   -1    0    0    0  501  0.00000000000E+00  0.00000000000E+00 -0.16079412719E+03  0.16079412726E+03  0.50400001928E-02 0.  1.
    10030    2    1    2    0    0  0.00000000000E+00  0.00000000000E+00  0.59699366088E+03  0.91858191535E+03  0.69813415908E+03 0.  0.
        2    1    3    3  502    0 -0.70348912282E+02 -0.23099093392E+03 -0.33175770663E+02  0.24373430776E+03  0.25500000920E-02 0.  1.
       -2    1    3    3    0  502  0.70348912282E+02  0.23099093392E+03  0.63016943154E+03  0.67484760759E+03  0.25500000920E-02 0. -1.
</event>
<event>
 5   0  0.2934483E-03  0.6998122E+03  0.7818609E-02  0.9717553E-01
       -1   -1    0    0    0  501  0.00000000000E+00  0.00000000000E+00  0.10049204940E+03  0.10049204953E+03  0.50400001928E-02 0. -1.
        1   -1    0    0  501    0  0.00000000000E+00  0.00000000000E+00 -0.12183478920E+04  0.12183478920E+04  0.50400001928E-02 0.  1.
    10030    2    1    2    0    0  0.00000000000E+00  0.00000000000E+00 -0.11178558425E+04  0.13188399415E+04  0.69981219378E+03 0.  0.
        5    1    3    3  502    0 -0.36190121789E+02  0.25186306497E+03 -0.10114877390E+04  0.10430121114E+04  0.46999998093E+01 0.  1.
       -5    1    3    3    0  502  0.36190121789E+02 -0.25186306497E+03 -0.10636810360E+03  0.27582783012E+03  0.46999998093E+01 0. -1.
</event>
<event>
 5   0  0.2913582E-03  0.7003792E+03  0.7818609E-02  0.9716584E-01
        1   -1    0    0  501    0  0.00000000000E+00  0.00000000000E+00  0.28092908713E+03  0.28092908717E+03  0.50400001928E-02 0.  1.
       -1   -1    0    0    0  501  0.00000000000E+00  0.00000000000E+00 -0.43652571965E+03  0.43652571968E+03  0.50400001928E-02 0. -1.
    10030    2    1    2    0    0  0.00000000000E+00  0.00000000000E+00 -0.15559663252E+03  0.71745480685E+03  0.70037924571E+03 0.  0.
        1    1    3    3  502    0  0.24208849882E+03 -0.11108429574E+03  0.15509049547E+03  0.30822008992E+03  0.50400001928E-02 0.  1.
       -1    1    3    3    0  502 -0.24208849882E+03  0.11108429574E+03 -0.31068712799E+03  0.40923471693E+03  0.50400001928E-02 0. -1.
</event>
<event>
 5   0  0.5076796E-03  0.7010963E+03  0.7818609E-02  0.9715359E-01
       -2   -1    0    0    0  501  0.00000000000E+00  0.00000000000E+00  0.25296093092E+03  0.25296093094E+03  0.25500000920E-02 0. -1.
        2   -1    0    0  501    0  0.00000000000E+00  0.00000000000E+00 -0.48578258737E+03  0.48578258738E+03  0.25500000920E-02 0.  1.
    10030    2    1    2    0    0  0.00000000000E+00  0.00000000000E+00 -0.23282165645E+03  0.73874351831E+03  0.70109632872E+03 0.  0.
        5    1    3    3  502    0  0.16790029920E+03 -0.25380043309E+03  0.66874274151E+02  0.31160781256E+03  0.46999998093E+01 0. -1.
       -5    1    3    3    0  502 -0.16790029920E+03  0.25380043309E+03 -0.29969593060E+03  0.42713570575E+03  0.46999998093E+01 0.  1.
</event>
<event>
 5   0  0.3013140E-03  0.6991302E+03  0.7818609E-02  0.9718721E-01
       -1   -1    0    0    0  501  0.00000000000E+00  0.00000000000E+00  0.11372269226E+03  0.11372269237E+03  0.50400001928E-02 0. -1.
        1   -1    0    0  501    0  0.00000000000E+00  0.00000000000E+00 -0.10745063010E+04  0.10745063010E+04  0.50400001928E-02 0.  1.
    10030    2    1    2    0    0  0.00000000000E+00  0.00000000000E+00 -0.96078360869E+03  0.11882289933E+04  0.69913017234E+03 0.  0.
        2    1    3    3  502    0 -0.51172015512E+02  0.13786650966E+03  0.58592755736E+02  0.15829990742E+03  0.25500000920E-02 0. -1.
       -2    1    3    3    0  502  0.51172015512E+02 -0.13786650966E+03 -0.10193763644E+04  0.10299290859E+04  0.25500000920E-02 0.  1.
</event>
<event>
 5   0  0.2937617E-03  0.6997641E+03  0.7818609E-02  0.9717636E-01
        1   -1    0    0  501    0  0.00000000000E+00  0.00000000000E+00  0.13413723913E+04  0.13413723913E+04  0.50400001928E-02 0.  1.
       -1   -1    0    0    0  501  0.00000000000E+00  0.00000000000E+00 -0.91262836060E+02  0.91262836199E+02  0.50400001928E-02 0. -1.
    10030    2    1    2    0    0  0.00000000000E+00  0.00000000000E+00  0.12501095552E+04  0.14326352275E+04  0.69976409953E+03 0.  0.
        3    1    3    3  502    0 -0.31321848332E+03 -0.14700689204E+03  0.73144791432E+03  0.80915567486E+03  0.10100000352E+00 0. -1.
       -3    1    3    3    0  502  0.31321848332E+03  0.14700689204E+03  0.51866164093E+03  0.62347955265E+03  0.10100000352E+00 0.  1.
</event>
<event>
 5   0  0.5113683E-03  0.6993431E+03  0.7818609E-02  0.9718356E-01
       -2   -1    0    0    0  501  0.00000000000E+00  0.00000000000E+00  0.15706301879E+03  0.15706301881E+03  0.25500000920E-02 0.  1.
        2   -1    0    0  501    0  0.00000000000E+00  0.00000000000E+00 -0.77847848844E+03  0.77847848845E+03  0.25500000920E-02 0. -1.
    10030    2    1    2    0    0  0.00000000000E+00  0.00000000000E+00 -0.62141546965E+03  0.93554150726E+03  0.69934306737E+03 0.  0.
        3    1    3    3  502    0  0.13648331036E+03  0.31964935846E+03 -0.36194111859E+03  0.50180154434E+03  0.10100000352E+00 0. -1.
       -3    1    3    3    0  502 -0.13648331036E+03 -0.31964935846E+03 -0.25947435106E+03  0.43373996292E+03  0.10100000352E+00 0.  1.
</event>
<event>
 5   0  0.5076796E-03  0.7013617E+03  0.7818609E-02  0.9714906E-01
       -2   -1    0    0    0  501  0.00000000000E+00  0.00000000000E+00  0.96003954793E+02  0.96003954827E+02  0.25500000920E-02 0.  1.
        2   -1    0    0  501    0  0.00000000000E+00  0.00000000000E+00 -0.12809583069E+04  0.12809583069E+04  0.25500000920E-02 0. -1.
    10030    2    1    2    0    0  0.00000000000E+00  0.00000000000E+00 -0.11849543521E+04  0.13769622617E+04  0.70136171383E+03 0.  0.
        5    1    3    3  502    0 -0.77412833044E+01 -0.33825661209E+03 -0.77324209324E+03  0.84403962457E+03  0.46999998093E+01 0.  1.
       -5    1    3    3    0  502  0.77412833044E+01  0.33825661209E+03 -0.41171225882E+03  0.53292263711E+03  0.46999998093E+01 0. -1.
</event>
<event>
 5   0  0.5072407E-03  0.6995002E+03  0.7818609E-02  0.9718087E-01
       -2   -1    0    0    0  501  0.00000000000E+00  0.00000000000E+00  0.24280035802E+03  0.24280035803E+03  0.25500000920E-02 0. -1.
        2   -1    0    0  501    0  0.00000000000E+00  0.00000000000E+00 -0.50380946328E+03  0.50380946328E+03  0.25500000920E-02 0.  1.
    10030    2    1    2    0    0  0.00000000000E+00  0.00000000000E+00 -0.26100910525E+03  0.74660982132E+03  0.69950015887E+03 0.  0.
        1    1    3    3  502    0 -0.24270917719E+03  0.73448313784E+02 -0.38760623448E+03  0.46318569982E+03  0.50400001928E-02 0.  1.
       -1    1    3    3    0  502  0.24270917719E+03 -0.73448313784E+02  0.12659712922E+03  0.28342412149E+03  0.50400001928E-02 0. -1.
</event>
<event>
 5   0  0.2938783E-03  0.7001923E+03  0.7818609E-02  0.9716903E-01
       -1   -1    0    0    0  501  0.00000000000E+00  0.00000000000E+00  0.67516136128E+03  0.67516136129E+03  0.50400001928E-02 0. -1.
        1   -1    0    0  501    0  0.00000000000E+00  0.00000000000E+00 -0.18153781595E+03  0.18153781602E+03  0.50400001928E-02 0.  1.
    10030    2    1    2    0    0  0.00000000000E+00  0.00000000000E+00  0.49362354532E+03  0.85669917732E+03  0.70019231353E+03 0.  0.
        4    1    3    3  502    0  0.17090723844E+03 -0.16769159656E+03  0.55931500068E+03  0.60841157007E+03  0.12699999809E+01 0. -1.
       -4    1    3    3    0  502 -0.17090723844E+03  0.16769159656E+03 -0.65691455356E+02  0.24828760725E+03  0.12699999809E+01 0.  1.
</event>
<event>
 5   0  0.2937617E-03  0.7000565E+03  0.7818609E-02  0.9717136E-01
       -1   -1    0    0    0  501  0.00000000000E+00  0.00000000000E+00  0.94761167837E+02  0.94761167971E+02  0.50400001928E-02 0.  1.
        1   -1    0    0  501    0  0.00000000000E+00  0.00000000000E+00 -0.12929321819E+04  0.12929321819E+04  0.50400001928E-02 0. -1.
    10030    2    1    2    0    0  0.00000000000E+00  0.00000000000E+00 -0.11981710140E+04  0.13876933498E+04  0.70005646511E+03 0.  0.
        3    1    3    3  502    0  0.25105194301E+03 -0.22480813616E+03 -0.78665768824E+03  0.85580144008E+03  0.10100000352E+00 0. -1.
       -3    1    3    3    0  502 -0.25105194301E+03  0.22480813616E+03 -0.41151332578E+03  0.53189190976E+03  0.10100000352E+00 0.  1.
</event>
<event>
 5   0  0.2913582E-03  0.7041756E+03  0.7818609E-02  0.9710118E-01
       -1   -1    0    0    0  501  0.00000000000E+00  0.00000000000E+00  0.10729002774E+03  0.10729002786E+03  0.50400001928E-02 0.  1.
        1   -1    0    0  501    0  0.00000000000E+00  0.00000000000E+00 -0.11554271229E+04  0.11554271229E+04  0.50400001928E-02 0. -1.
    10030    2    1    2    0    0  0.00000000000E+00  0.00000000000E+00 -0.10481370952E+04  0.12627171508E+04  0.70417556946E+03 0.  0.
        1    1    3    3  502    0  0.12267246267E+03  0.26021718722E+03 -0.88806432523E+03  0.93349866812E+03  0.50400001928E-02 0. -1.
       -1    1    3    3    0  502 -0.12267246267E+03 -0.26021718722E+03 -0.16007276993E+03  0.32921848265E+03  0.50400001928E-02 0.  1.
</event>
<event>
 5   0  0.5023894E-03  0.6968913E+03  0.7818609E-02  0.9722563E-01
        2   -1    0    0  501    0  0.00000000000E+00  0.00000000000E+00  0.14742715937E+04  0.14742715937E+04  0.25500000920E-02 0.  1.
       -2   -1    0    0    0  501  0.00000000000E+00  0.00000000000E+00 -0.82355490795E+02  0.82355490834E+02  0.25500000920E-02 0. -1.
    10030    2    1    2    0    0  0.00000000000E+00  0.00000000000E+00  0.13919161029E+04  0.15566270845E+04  0.69689127041E+03 0.  0.
        2    1    3    3  502    0 -0.20422628142E+03  0.28058723833E+03  0.62614770497E+03  0.71589002004E+03  0.25500000920E-02 0. -1.
       -2    1    3    3    0  502  0.20422628142E+03 -0.28058723833E+03  0.76576839792E+03  0.84073706448E+03  0.25500000920E-02 0.  1.
</event>
<event>
 5   0  0.2913582E-03  0.7001731E+03  0.7818609E-02  0.9716936E-01
        1   -1    0    0  501    0  0.00000000000E+00  0.00000000000E+00  0.10089764137E+04  0.10089764137E+04  0.50400001928E-02 0. -1.
       -1   -1    0    0    0  501  0.00000000000E+00  0.00000000000E+00 -0.12147023712E+03  0.12147023722E+03  0.50400001928E-02 0.  1.
    10030    2    1    2    0    0  0.00000000000E+00  0.00000000000E+00  0.88750617654E+03  0.11304466509E+04  0.70017313367E+03 0.  0.
        1    1    3    3  502    0 -0.16265702108E+03  0.31474536154E+02 -0.54171729518E+02  0.17430584969E+03  0.50400001928E-02 0.  1.
       -1    1    3    3    0  502  0.16265702108E+03 -0.31474536154E+02  0.94167790605E+03  0.95614080119E+03  0.50400001928E-02 0. -1.
</event>
<event>
 5   0  0.1981750E-03  0.7027595E+03  0.7818609E-02  0.9712525E-01
        4   -1    0    0  501    0  0.00000000000E+00  0.00000000000E+00  0.18051633429E+03  0.18052080169E+03  0.12699999809E+01 0.  1.
       -4   -1    0    0    0  501  0.00000000000E+00  0.00000000000E+00 -0.68395638828E+03  0.68395756737E+03  0.12699999809E+01 0. -1.
    10030    2    1    2    0    0  0.00000000000E+00  0.00000000000E+00 -0.50344005399E+03  0.86447836906E+03  0.70275953399E+03 0.  0.
        1    1    3    3  502    0 -0.25108118145E+03 -0.58571951955E+01  0.50578422350E+02  0.25619180949E+03  0.50400001928E-02 0.  1.
       -1    1    3    3    0  502  0.25108118145E+03  0.58571951955E+01 -0.55401847634E+03  0.60828655958E+03  0.50400001928E-02 0. -1.
</event>
<event>
 5   0  0.2938783E-03  0.7019071E+03  0.7818609E-02  0.9713976E-01
        1   -1    0    0  501    0  0.00000000000E+00  0.00000000000E+00  0.10284686518E+04  0.10284686518E+04  0.50400001928E-02 0.  1.
       -1   -1    0    0    0  501  0.00000000000E+00  0.00000000000E+00 -0.11975900399E+03  0.11975900410E+03  0.50400001928E-02 0. -1.
    10030    2    1    2    0    0  0.00000000000E+00  0.00000000000E+00  0.90870964784E+03  0.11482276559E+04  0.70190706351E+03 0.  0.
        4    1    3    3  502    0 -0.18687155280E+03  0.20618509348E+03  0.10451793451E+03  0.29725221875E+03  0.12699999809E+01 0. -1.
       -4    1    3    3    0  502  0.18687155280E+03 -0.20618509348E+03  0.80419171333E+03  0.85097543719E+03  0.12699999809E+01 0.  1.
</event>
<event>
 5   0  0.5113683E-03  0.6994421E+03  0.7818609E-02  0.9718187E-01
       -2   -1    0    0    0  501  0.00000000000E+00  0.00000000000E+00  0.44070162264E+03  0.44070162265E+03  0.25500000920E-02 0. -1.
        2   -1    0    0  501    0  0.00000000000E+00  0.00000000000E+00 -0.27752294357E+03  0.27752294358E+03  0.25500000920E-02 0.  1.
    10030    2    1    2    0    0  0.00000000000E+00  0.00000000000E+00  0.16317867908E+03  0.71822456623E+03  0.69944209641E+03 0.  0.
        3    1    3    3  502    0  0.80429873656E+02  0.16262639775E+03 -0.22541837798E+03  0.28936095997E+03  0.10100000352E+00 0.  1.
       -3    1    3    3    0  502 -0.80429873656E+02 -0.16262639775E+03  0.38859705705E+03  0.42886360626E+03  0.10100000352E+00 0. -1.
</event>
<event>
 5   0  0.5113683E-03  0.7004571E+03  0.7818609E-02  0.9716451E-01
       -2   -1    0    0    0  501  0.00000000000E+00  0.00000000000E+00  0.65770531703E+02  0.65770531752E+02  0.25500000920E-02 0. -1.
        2   -1    0    0  501    0  0.00000000000E+00  0.00000000000E+00 -0.18649693568E+04  0.18649693568E+04  0.25500000920E-02 0.  1.
    10030    2    1    2    0    0  0.00000000000E+00  0.00000000000E+00 -0.17991988251E+04  0.19307398885E+04  0.70045706864E+03 0.  0.
        3    1    3    3  502    0 -0.18772259366E+03 -0.17225272862E+03 -0.23720694000E+03  0.34810618677E+03  0.10100000352E+00 0. -1.
       -3    1    3    3    0  502  0.18772259366E+03  0.17225272862E+03 -0.15619918851E+04  0.15826337017E+04  0.10100000352E+00 0.  1.
</event>
<event>
 5   0  0.3013140E-03  0.7049822E+03  0.7818609E-02  0.9708750E-01
       -1   -1    0    0    0  501  0.00000000000E+00  0.00000000000E+00  0.28530750148E+03  0.28530750152E+03  0.50400001928E-02 0.  1.
        1   -1    0    0  501    0  0.00000000000E+00  0.00000000000E+00 -0.43549490356E+03  0.43549490359E+03  0.50400001928E-02 0. -1.
    10030    2    1    2    0    0  0.00000000000E+00  0.00000000000E+00 -0.15018740208E+03  0.72080240511E+03  0.70498216394E+03 0.  0.
        2    1    3    3  502    0 -0.33925293434E+03  0.79652200792E+02 -0.12932100926E+03  0.37170008070E+03  0.25500000920E-02 0. -1.
       -2    1    3    3    0  502  0.33925293434E+03 -0.79652200792E+02 -0.20866392813E+02  0.34910232441E+03  0.25500000920E-02 0.  1.
</event>
<event>
 5   0  0.1981750E-03  0.7032468E+03  0.7818609E-02  0.9711696E-01
       -3   -1    0    0    0  501  0.00000000000E+00  0.00000000000E+00  0.91231012421E+02  0.91231068328E+02  0.10100000352E+00 0.  1.
        3   -1    0    0  501    0  0.00000000000E+00  0.00000000000E+00 -0.13552294606E+04  0.13552294644E+04  0.10100000352E+00 0. -1.
    10030    2    1    2    0    0  0.00000000000E+00  0.00000000000E+00 -0.12639984482E+04  0.14464605327E+04  0.70324675302E+03 0.  0.
        2    1    3    3  502    0 -0.87978275815E+02  0.31270284642E+02 -0.13292652970E+04  0.13325405200E+04  0.25500000920E-02 0. -1.
       -2    1    3    3    0  502  0.87978275815E+02 -0.31270284642E+02  0.65266848836E+02  0.11392001264E+03  0.25500000920E-02 0.  1.
</event>
<event>
 5   0  0.2934483E-03  0.6989786E+03  0.7818609E-02  0.9718981E-01
        1   -1    0    0  501    0  0.00000000000E+00  0.00000000000E+00  0.54444398949E+03  0.54444398952E+03  0.50400001928E-02 0.  1.
       -1   -1    0    0    0  501  0.00000000000E+00  0.00000000000E+00 -0.22434402118E+03  0.22434402124E+03  0.50400001928E-02 0. -1.
    10030    2    1    2    0    0  0.00000000000E+00  0.00000000000E+00  0.32009996831E+03  0.76878801076E+03  0.69897855173E+03 0.  0.
        5    1    3    3  502    0 -0.99611773222E+02 -0.31803313958E+03  0.27568368435E+03  0.43254036465E+03  0.46999998093E+01 0.  1.
       -5    1    3    3    0  502  0.99611773222E+02  0.31803313958E+03  0.44416283962E+02  0.33624764611E+03  0.46999998093E+01 0. -1.
</event>
<event>
 5   0  0.5076796E-03  0.6987911E+03  0.7818609E-02  0.9719302E-01
        2   -1    0    0  501    0  0.00000000000E+00  0.00000000000E+00  0.76461720897E+03  0.76461720897E+03  0.25500000920E-02 0.  1.
       -2   -1    0    0    0  501  0.00000000000E+00  0.00000000000E+00 -0.15965799512E+03  0.15965799514E+03  0.25500000920E-02 0. -1.
    10030    2    1    2    0    0  0.00000000000E+00  0.00000000000E+00  0.60495921385E+03  0.92427520411E+03  0.69879110077E+03 0.  0.
        5    1    3    3  502    0  0.23686639742E+03 -0.45958631302E+02 -0.31708588695E+02  0.24340380156E+03  0.46999998093E+01 0. -1.
       -5    1    3    3    0  502 -0.23686639742E+03  0.45958631302E+02  0.63666780255E+03  0.68087140255E+03  0.46999998093E+01 0.  1.
</event>
<event>
 5   0  0.5072407E-03  0.7060918E+03  0.7818609E-02  0.9706871E-01
        2   -1    0    0  501    0  0.00000000000E+00  0.00000000000E+00  0.51520957776E+03  0.51520957777E+03  0.25500000920E-02 0. -1.
       -2   -1    0    0    0  501  0.00000000000E+00  0.00000000000E+00 -0.24192367154E+03  0.24192367156E+03  0.25500000920E-02 0.  1.
    10030    2    1    2    0    0  0.00000000000E+00  0.00000000000E+00  0.27328590622E+03  0.75713324932E+03  0.70609175798E+03 0.  0.
        1    1    3    3  502    0 -0.15644179255E+03 -0.17209403874E+03  0.42145789107E+03  0.48137007240E+03  0.50400001928E-02 0. -1.
       -1    1    3    3    0  502  0.15644179255E+03  0.17209403874E+03 -0.14817198485E+03  0.27576317693E+03  0.50400001928E-02 0.  1.
</event>
<event>
 5   0  0.2934483E-03  0.7023642E+03  0.7818609E-02  0.9713198E-01
       -1   -1    0    0    0  501  0.00000000000E+00  0.00000000000E+00  0.13227766410E+03  0.13227766420E+03  0.50400001928E-02 0.  1.
        1   -1    0    0  501    0  0.00000000000E+00  0.00000000000E+00 -0.93234835295E+03  0.93234835296E+03  0.50400001928E-02 0. -1.
    10030    2    1    2    0    0  0.00000000000E+00  0.00000000000E+00 -0.80007068885E+03  0.10646260172E+04  0.70236418564E+03 0.  0.
        5    1    3    3  502    0 -0.17332086679E+03 -0.28878837358E+03 -0.24946216141E+03  0.41915666230E+03  0.46999998093E+01 0.  1.
       -5    1    3    3    0  502  0.17332086679E+03  0.28878837358E+03 -0.55060852743E+03  0.64546935486E+03  0.46999998093E+01 0. -1.
</event>
<event>
 5   0  0.3013140E-03  0.7048407E+03  0.7818609E-02  0.9708990E-01
       -1   -1    0    0    0  501  0.00000000000E+00  0.00000000000E+00  0.43299436197E+03  0.43299436200E+03  0.50400001928E-02 0. -1.
        1   -1    0    0  501    0  0.00000000000E+00  0.00000000000E+00 -0.28684000223E+03  0.28684000227E+03  0.50400001928E-02 0.  1.
    10030    2    1    2    0    0  0.00000000000E+00  0.00000000000E+00  0.14615435974E+03  0.71983436427E+03  0.70484070194E+03 0.  0.
        2    1    3    3  502    0 -0.29286131647E+03  0.14432039701E+03  0.20857957931E+03  0.38742943692E+03  0.25500000920E-02 0. -1.
       -2    1    3    3    0  502  0.29286131647E+03 -0.14432039701E+03 -0.62425219575E+02  0.33240492735E+03  0.25500000920E-02 0.  1.
</event>
<event>
 5   0  0.4878235E-03  0.7002908E+03  0.7818609E-02  0.9716735E-01
        2   -1    0    0  501    0  0.00000000000E+00  0.00000000000E+00  0.36197896707E+03  0.36197896708E+03  0.25500000920E-02 0.  1.
       -2   -1    0    0    0  501  0.00000000000E+00  0.00000000000E+00 -0.33869871172E+03  0.33869871173E+03  0.25500000920E-02 0. -1.
    10030    2    1    2    0    0  0.00000000000E+00  0.00000000000E+00  0.23280255347E+02  0.70067767881E+03  0.70029082479E+03 0.  0.
        4    1    3    3  502    0  0.27381813519E+03 -0.19715727658E+03 -0.81968136881E+02  0.34722867282E+03  0.12699999809E+01 0. -1.
       -4    1    3    3    0  502 -0.27381813519E+03  0.19715727658E+03  0.10524839223E+03  0.35344900599E+03  0.12699999809E+01 0.  1.
</event>
<event>
 5   0  0.5113683E-03  0.7014663E+03  0.7818609E-02  0.9714728E-01
       -2   -1    0    0    0  501  0.00000000000E+00  0.00000000000E+00  0.92548785994E+03  0.92548785995E+03  0.25500000920E-02 0.  1.
        2   -1    0    0  501    0  0.00000000000E+00  0.00000000000E+00 -0.13291772340E+03  0.13291772342E+03  0.25500000920E-02 0. -1.
    10030    2    1    2    0    0  0.00000000000E+00  0.00000000000E+00  0.79257013655E+03  0.10584055834E+04  0.70146629111E+03 0.  0.
        3    1    3    3  502    0 -0.55832053058E+02  0.33272313125E+03  0.25162579340E+03  0.42087700142E+03  0.10100000352E+00 0. -1.
       -3    1    3    3    0  502  0.55832053058E+02 -0.33272313125E+03  0.54094434315E+03  0.63752858195E+03  0.10100000352E+00 0.  1.
</event>
<event>
 5   0  0.5076796E-03  0.6988922E+03  0.7818609E-02  0.9719129E-01
       -2   -1    0    0    0  501  0.00000000000E+00  0.00000000000E+00  0.71005372778E+03  0.71005372779E+03  0.25500000920E-02 0. -1.
        2   -1    0    0  501    0  0.00000000000E+00  0.00000000000E+00 -0.17197650722E+03  0.17197650724E+03  0.25500000920E-02 0.  1.
    10030    2    1    2    0    0  0.00000000000E+00  0.00000000000E+00  0.53807722056E+03  0.88203023503E+03  0.69889215207E+03 0.  0.
        5    1    3    3  502    0  0.71562075067E+02  0.13962074868E+03 -0.12498367960E+03  0.20064419806E+03  0.46999998093E+01 0.  1.
       -5    1    3    3    0  502 -0.71562075067E+02 -0.13962074868E+03  0.66306090016E+03  0.68138603697E+03  0.46999998093E+01 0. -1.
</event>
<event>
 5   0  0.5076796E-03  0.6833795E+03  0.7818609E-02  0.9746085E-01
       -2   -1    0    0    0  501  0.00000000000E+00  0.00000000000E+00  0.71137534640E+03  0.71137534640E+03  0.25500000920E-02 0. -1.
        2   -1    0    0  501    0  0.00000000000E+00  0.00000000000E+00 -0.16412136385E+03  0.16412136387E+03  0.25500000920E-02 0.  1.
    10030    2    1    2    0    0  0.00000000000E+00  0.00000000000E+00  0.54725398255E+03  0.87549671027E+03  0.68337951995E+03 0.  0.
        5    1    3    3  502    0  0.25787153119E+03  0.20025780964E+03  0.14469123184E+03  0.35715341170E+03  0.46999998093E+01 0.  1.
       -5    1    3    3    0  502 -0.25787153119E+03 -0.20025780964E+03  0.40256275071E+03  0.51834329858E+03  0.46999998093E+01 0. -1.
</event>
<event>
 5   0  0.5076796E-03  0.6994674E+03  0.7818609E-02  0.9718143E-01
       -2   -1    0    0    0  501  0.00000000000E+00  0.00000000000E+00  0.10224317174E+03  0.10224317177E+03  0.25500000920E-02 0.  1.
        2   -1    0    0  501    0  0.00000000000E+00  0.00000000000E+00 -0.11963015693E+04  0.11963015693E+04  0.25500000920E-02 0. -1.
    10030    2    1    2    0    0  0.00000000000E+00  0.00000000000E+00 -0.10940583975E+04  0.12985447411E+04  0.69946741689E+03 0.  0.
        5    1    3    3  502    0  0.27569895613E+03 -0.18600311685E+03 -0.34635360805E+03  0.48019786099E+03  0.46999998093E+01 0.  1.
       -5    1    3    3    0  502 -0.27569895613E+03  0.18600311685E+03 -0.74770478949E+03  0.81834688007E+03  0.46999998093E+01 0. -1.
</event>
<event>
 5   0  0.2934483E-03  0.6986730E+03  0.7818609E-02  0.9719504E-01
        1   -1    0    0  501    0  0.00000000000E+00  0.00000000000E+00  0.13815303030E+04  0.13815303030E+04  0.50400001928E-02 0.  1.
       -1   -1    0    0    0  501  0.00000000000E+00  0.00000000000E+00 -0.88333913343E+02  0.88333913487E+02  0.50400001928E-02 0. -1.
    10030    2    1    2    0    0  0.00000000000E+00  0.00000000000E+00  0.12931963896E+04  0.14698642165E+04  0.69867296549E+03 0.  0.
        5    1    3    3  502    0  0.17440902581E+03  0.97747354978E+02  0.12491831895E+04  0.12650904255E+04  0.46999998093E+01 0.  1.
       -5    1    3    3    0  502 -0.17440902581E+03 -0.97747354978E+02  0.44013200109E+02  0.20477379098E+03  0.46999998093E+01 0. -1.
</event>
<event>
 5   0  0.5072407E-03  0.7002449E+03  0.7818609E-02  0.9716814E-01
        2   -1    0    0  501    0  0.00000000000E+00  0.00000000000E+00  0.11545043334E+04  0.11545043335E+04  0.25500000920E-02 0. -1.
       -2   -1    0    0    0  501  0.00000000000E+00  0.00000000000E+00 -0.10618038355E+03  0.10618038358E+03  0.25500000920E-02 0.  1.
    10030    2    1    2    0    0  0.00000000000E+00  0.00000000000E+00  0.10483239499E+04  0.12606847170E+04  0.70024485133E+03 0.  0.
        1    1    3    3  502    0  0.23075661888E+03  0.26331528873E+03  0.52680456030E+03  0.63253980366E+03  0.50400001928E-02 0.  1.
       -1    1    3    3    0  502 -0.23075661888E+03 -0.26331528873E+03  0.52151938960E+03  0.62814491337E+03  0.50400001928E-02 0. -1.
</event>
<event>
 5   0  0.3013140E-03  0.6999691E+03  0.7818609E-02  0.9717285E-01
        1   -1    0    0  501    0  0.00000000000E+00  0.00000000000E+00  0.15300035984E+03  0.15300035992E+03  0.50400001928E-02 0. -1.
       -1   -1    0    0    0  501  0.00000000000E+00  0.00000000000E+00 -0.80058111309E+03  0.80058111311E+03  0.50400001928E-02 0.  1.
    10030    2    1    2    0    0  0.00000000000E+00  0.00000000000E+00 -0.64758075325E+03  0.95358147303E+03  0.69996913769E+03 0.  0.
        2    1    3    3  502    0 -0.84744991673E+02 -0.28653231790E+03 -0.75538880764E+02  0.30820221500E+03  0.25500000920E-02 0. -1.
       -2    1    3    3    0  502  0.84744991673E+02  0.28653231790E+03 -0.57204187249E+03  0.64537925803E+03  0.25500000920E-02 0.  1.
</event>
<event>
 5   0  0.3013140E-03  0.7012915E+03  0.7818609E-02  0.9715026E-01
       -1   -1    0    0    0  501  0.00000000000E+00  0.00000000000E+00  0.13208740209E+03  0.13208740219E+03  0.50400001928E-02 0.  1.
        1   -1    0    0  501    0  0.00000000000E+00  0.00000000000E+00 -0.93084153708E+03  0.93084153709E+03  0.50400001928E-02 0. -1.
    10030    2    1    2    0    0  0.00000000000E+00  0.00000000000E+00 -0.79875413498E+03  0.10629289393E+04  0.70129149560E+03 0.  0.
        2    1    3    3  502    0 -0.29577515197E+03  0.21178184595E+02 -0.68301860692E+03  0.74461122301E+03  0.25500000920E-02 0. -1.
       -2    1    3    3    0  502  0.29577515197E+03 -0.21178184595E+02 -0.11573552806E+03  0.31831771627E+03  0.25500000920E-02 0.  1.
</event>
<event>
 5   0  0.2937617E-03  0.7004966E+03  0.7818609E-02  0.9716383E-01
       -1   -1    0    0    0  501  0.00000000000E+00  0.00000000000E+00  0.39002424342E+03  0.39002424345E+03  0.50400001928E-02 0.  1.
        1   -1    0    0  501    0  0.00000000000E+00  0.00000000000E+00 -0.31452879766E+03  0.31452879770E+03  0.50400001928E-02 0. -1.
    10030    2    1    2    0    0  0.00000000000E+00  0.00000000000E+00  0.75495445761E+02  0.70455304115E+03  0.70049655635E+03 0.  0.
        3    1    3    3  502    0  0.28058323812E+03 -0.81775436833E+02 -0.15639771720E+03  0.33147312369E+03  0.10100000352E+00 0. -1.
       -3    1    3    3    0  502 -0.28058323812E+03  0.81775436833E+02  0.23189316296E+03  0.37307991746E+03  0.10100000352E+00 0.  1.
</event>
<event>
 5   0  0.5072407E-03  0.6997975E+03  0.7818609E-02  0.9717579E-01
       -2   -1    0    0    0  501  0.00000000000E+00  0.00000000000E+00  0.11151815376E+04  0.11151815376E+04  0.25500000920E-02 0.  1.
        2   -1    0    0  501    0  0.00000000000E+00  0.00000000000E+00 -0.10978404496E+03  0.10978404499E+03  0.25500000920E-02 0. -1.
    10030    2    1    2    0    0  0.00000000000E+00  0.00000000000E+00  0.10053974926E+04  0.12249655826E+04  0.69979751381E+03 0.  0.
        1    1    3    3  502    0  0.33325320852E+03 -0.10663059554E+03  0.50473648001E+03  0.61415527285E+03  0.50400001928E-02 0.  1.
       -1    1    3    3    0  502 -0.33325320852E+03  0.10663059554E+03  0.50066101260E+03  0.61081030971E+03  0.50400001928E-02 0. -1.
</event>
<event>
 5   0  0.2938783E-03  0.7005711E+03  0.7818609E-02  0.9716256E-01
        1   -1    0    0  501    0  0.00000000000E+00  0.00000000000E+00  0.57122966453E+03  0.57122966455E+03  0.50400001928E-02 0.  1.
       -1   -1    0    0    0  501  0.00000000000E+00  0.00000000000E+00 -0.21479970419E+03  0.21479970425E+03  0.50400001928E-02 0. -1.
    10030    2    1    2    0    0  0.00000000000E+00  0.00000000000E+00  0.35642996034E+03  0.78602936880E+03  0.70057108988E+03 0.  0.
        4    1    3    3  502    0  0.27946527756E+03 -0.51286439394E+01 -0.58657034004E+02  0.28560357997E+03  0.12699999809E+01 0. -1.
       -4    1    3    3    0  502 -0.27946527756E+03  0.51286439394E+01  0.41508699435E+03  0.50042578883E+03  0.12699999809E+01 0.  1.
</event>
<event>
 5   0  0.2938783E-03  0.6905711E+03  0.7818609E-02  0.9733494E-01
       -1   -1    0    0    0  501  0.00000000000E+00  0.00000000000E+00  0.95347935388E+02  0.95347935522E+02  0.50400001928E-02 0. -1.
        1   -1    0    0  501    0  0.00000000000E+00  0.00000000000E+00 -0.12503902438E+04  0.12503902439E+04  0.50400001928E-02 0.  1.
    10030    2    1    2    0    0  0.00000000000E+00  0.00000000000E+00 -0.11550423085E+04  0.13457381794E+04  0.69057114992E+03 0.  0.
        4    1    3    3  502    0  0.82377875361E+02 -0.88233358797E+02  0.52884726488E+02  0.13179395718E+03  0.12699999809E+01 0. -1.
       -4    1    3    3    0  502 -0.82377875361E+02  0.88233358797E+02 -0.12079270349E+04  0.12139442222E+04  0.12699999809E+01 0.  1.
</event>
<event>
 5   0  0.2934483E-03  0.6975582E+03  0.7818609E-02  0.9721417E-01
        1   -1    0    0  501    0  0.00000000000E+00  0.00000000000E+00  0.75428499629E+03  0.75428499631E+03  0.50400001928E-02 0. -1.
       -1   -1    0    0    0  501  0.00000000000E+00  0.00000000000E+00 -0.16127439839E+03  0.16127439847E+03  0.50400001928E-02 0.  1.
    10030    2    1    2    0    0  0.00000000000E+00  0.00000000000E+00  0.59301059790E+03  0.91555939478E+03  0.69755819553E+03 0.  0.
        5    1    3    3  502    0  0.80049642425E+02 -0.46702196015E+02  0.73778499665E+03  0.74359789648E+03  0.46999998093E+01 0. -1.
       -5    1    3    3    0  502 -0.80049642425E+02  0.46702196015E+02 -0.14477439875E+03  0.17196149830E+03  0.46999998093E+01 0.  1.
</event>
<event>
 5   0  0.5023894E-03  0.6929731E+03  0.7818609E-02  0.9729325E-01
        2   -1    0    0  501    0  0.00000000000E+00  0.00000000000E+00  0.37290628707E+03  0.37290628708E+03  0.25500000920E-02 0.  1.
       -2   -1    0    0    0  501  0.00000000000E+00  0.00000000000E+00 -0.32193857543E+03  0.32193857544E+03  0.25500000920E-02 0. -1.
    10030    2    1    2    0    0  0.00000000000E+00  0.00000000000E+00  0.50967711639E+02  0.69484486252E+03  0.69297306971E+03 0.  0.
        2    1    3    3  502    0 -0.96175677477E+02  0.28859238103E+03 -0.14084849847E+03  0.33522175176E+03  0.25500000920E-02 0. -1.
       -2    1    3    3    0  502  0.96175677477E+02 -0.28859238103E+03  0.19181621011E+03  0.35962311076E+03  0.25500000920E-02 0.  1.
</event>
<event>
 5   0  0.4878235E-03  0.6996490E+03  0.7818609E-02  0.9717833E-01
        2   -1    0    0  501    0  0.00000000000E+00  0.00000000000E+00  0.12328986641E+04  0.12328986641E+04  0.25500000920E-02 0.  1.
       -2   -1    0    0    0  501  0.00000000000E+00  0.00000000000E+00 -0.99259719065E+02  0.99259719098E+02  0.25500000920E-02 0. -1.
    10030    2    1    2    0    0  0.00000000000E+00  0.00000000000E+00  0.11336389450E+04  0.13321583832E+04  0.69964898357E+03 0.  0.
        4    1    3    3  502    0 -0.32906797039E+03  0.25322575653E+01  0.34086042737E+03  0.47379276620E+03  0.12699999809E+01 0.  1.
       -4    1    3    3    0  502  0.32906797039E+03 -0.25322575653E+01  0.79277851763E+03  0.85836561696E+03  0.12699999809E+01 0. -1.
</event>
<event>
 5   0  0.5076796E-03  0.7000302E+03  0.7818609E-02  0.9717181E-01
       -2   -1    0    0    0  501  0.00000000000E+00  0.00000000000E+00  0.63056806240E+02  0.63056806292E+02  0.25500000920E-02 0.  1.
        2   -1    0    0  501    0  0.00000000000E+00  0.00000000000E+00 -0.19428603304E+04  0.19428603304E+04  0.25500000920E-02 0. -1.
    10030    2    1    2    0    0  0.00000000000E+00  0.00000000000E+00 -0.18798035242E+04  0.20059171367E+04  0.70003019209E+03 0.  0.
        5    1    3    3  502    0  0.27255300975E+03  0.15256315581E+03 -0.48748535307E+03  0.57898594032E+03  0.46999998093E+01 0.  1.
       -5    1    3    3    0  502 -0.27255300975E+03 -0.15256315581E+03 -0.13923181711E+04  0.14269311964E+04  0.46999998093E+01 0. -1.
</event>
<event>
 5   0  0.5113683E-03  0.7004479E+03  0.7818609E-02  0.9716467E-01
       -2   -1    0    0    0  501  0.00000000000E+00  0.00000000000E+00  0.28433554545E+03  0.28433554546E+03  0.25500000920E-02 0. -1.
        2   -1    0    0  501    0  0.00000000000E+00  0.00000000000E+00 -0.43138047327E+03  0.43138047327E+03  0.25500000920E-02 0.  1.
    10030    2    1    2    0    0  0.00000000000E+00  0.00000000000E+00 -0.14704492781E+03  0.71571601873E+03  0.70044786293E+03 0.  0.
        3    1    3    3  502    0 -0.12415645760E+03 -0.25072904570E+02 -0.40715672906E+03  0.42640366875E+03  0.10100000352E+00 0.  1.
       -3    1    3    3    0  502  0.12415645760E+03  0.25072904570E+02  0.26011180124E+03  0.28931234998E+03  0.10100000352E+00 0. -1.
</event>
<event>
 5   0  0.5076796E-03  0.7004549E+03  0.7818609E-02  0.9716455E-01
        2   -1    0    0  501    0  0.00000000000E+00  0.00000000000E+00  0.35603525790E+03  0.35603525791E+03  0.25500000920E-02 0. -1.
       -2   -1    0    0    0  501  0.00000000000E+00  0.00000000000E+00 -0.34451437812E+03  0.34451437813E+03  0.25500000920E-02 0.  1.
    10030    2    1    2    0    0  0.00000000000E+00  0.00000000000E+00  0.11520879774E+02  0.70054963604E+03  0.70045489639E+03 0.  0.
        5    1    3    3  502    0  0.55544714522E+02 -0.90697527551E+02  0.33946095734E+03  0.35576268547E+03  0.46999998093E+01 0. -1.
       -5    1    3    3    0  502 -0.55544714522E+02  0.90697527551E+02 -0.32794007756E+03  0.34478695057E+03  0.46999998093E+01 0.  1.
</event>
<event>
 5   0  0.5023894E-03  0.7004239E+03  0.7818609E-02  0.9716508E-01
        2   -1    0    0  501    0  0.00000000000E+00  0.00000000000E+00  0.36059130841E+03  0.36059130842E+03  0.25500000920E-02 0. -1.
       -2   -1    0    0    0  501  0.00000000000E+00  0.00000000000E+00 -0.34013132194E+03  0.34013132195E+03  0.25500000920E-02 0.  1.
    10030    2    1    2    0    0  0.00000000000E+00  0.00000000000E+00  0.20459986473E+02  0.70072263036E+03  0.70042386714E+03 0.  0.
        2    1    3    3  502    0  0.40879216481E+02  0.33095607299E+03  0.11725864295E+03  0.35348638155E+03  0.25500000920E-02 0.  1.
       -2    1    3    3    0  502 -0.40879216481E+02 -0.33095607299E+03 -0.96798656473E+02  0.34723624881E+03  0.25500000920E-02 0. -1.
</event>
<event>
 5   0  0.2913582E-03  0.6998128E+03  0.7818609E-02  0.9717552E-01
        1   -1    0    0  501    0  0.00000000000E+00  0.00000000000E+00  0.51077637812E+03  0.51077637815E+03  0.50400001928E-02 0.  1.
       -1   -1    0    0    0  501  0.00000000000E+00  0.00000000000E+00 -0.23970270616E+03  0.23970270621E+03  0.50400001928E-02 0. -1.
    10030    2    1    2    0    0  0.00000000000E+00  0.00000000000E+00  0.27107367196E+03  0.75047908436E+03  0.69981277527E+03 0.  0.
        1    1    3    3  502    0 -0.18752912577E+01 -0.26970918644E+03  0.37458319156E+03  0.46158328543E+03  0.50400001928E-02 0.  1.
       -1    1    3    3    0  502  0.18752912577E+01  0.26970918644E+03 -0.10350951959E+03  0.28889579893E+03  0.50400001928E-02 0. -1.
</event>
<event>
 5   0  0.2938783E-03  0.6971954E+03  0.7818609E-02  0.9722041E-01
       -1   -1    0    0    0  501  0.00000000000E+00  0.00000000000E+00  0.42167016471E+03  0.42167016474E+03  0.50400001928E-02 0. -1.
        1   -1    0    0  501    0  0.00000000000E+00  0.00000000000E+00 -0.28818814325E+03  0.28818814329E+03  0.50400001928E-02 0.  1.
    10030    2    1    2    0    0  0.00000000000E+00  0.00000000000E+00  0.13348202146E+03  0.70985830803E+03  0.69719535815E+03 0.  0.
        4    1    3    3  502    0 -0.31080579483E+02 -0.20249156329E+03 -0.22042761078E+03  0.30092985913E+03  0.12699999809E+01 0.  1.
       -4    1    3    3    0  502  0.31080579483E+02  0.20249156329E+03  0.35390963224E+03  0.40892844890E+03  0.12699999809E+01 0. -1.
</event>
<event>
 5   0  0.4878235E-03  0.6997066E+03  0.7818609E-02  0.9717734E-01
        2   -1    0    0  501    0  0.00000000000E+00  0.00000000000E+00  0.13365373840E+03  0.13365373843E+03  0.25500000920E-02 0. -1.
       -2   -1    0    0    0  501  0.00000000000E+00  0.00000000000E+00 -0.91577941962E+03  0.91577941962E+03  0.25500000920E-02 0.  1.
    10030    2    1    2    0    0  0.00000000000E+00  0.00000000000E+00 -0.78212568122E+03  0.10494331580E+04  0.69970663281E+03 0.  0.
        4    1    3    3  502    0 -0.70411396584E+02 -0.23910599928E+03 -0.22869434103E+02  0.25030794549E+03  0.12699999809E+01 0. -1.
       -4    1    3    3    0  502  0.70411396584E+02  0.23910599928E+03 -0.75925624711E+03  0.79912521255E+03  0.12699999809E+01 0.  1.
</event>
<event>
 5   0  0.4878235E-03  0.6995013E+03  0.7818609E-02  0.9718085E-01
        2   -1    0    0  501    0  0.00000000000E+00  0.00000000000E+00  0.20762596044E+04  0.20762596044E+04  0.25500000920E-02 0.  1.
       -2   -1    0    0    0  501  0.00000000000E+00  0.00000000000E+00 -0.58916288469E+02  0.58916288524E+02  0.25500000920E-02 0. -1.
    10030    2    1    2    0    0  0.00000000000E+00  0.00000000000E+00  0.20173433159E+04  0.21351758929E+04  0.69950127905E+03 0.  0.
        4    1    3    3  502    0  0.43941415514E+02  0.31844997497E+03  0.58811578090E+03  0.67024101576E+03  0.12699999809E+01 0. -1.
       -4    1    3    3    0  502 -0.43941415514E+02 -0.31844997497E+03  0.14292275350E+04  0.14649348772E+04  0.12699999809E+01 0.  1.
</event>
<event>
 5   0  0.3013140E-03  0.6987951E+03  0.7818609E-02  0.9719295E-01
        1   -1    0    0  501    0  0.00000000000E+00  0.00000000000E+00  0.40650671882E+03  0.40650671885E+03  0.50400001928E-02 0.  1.
       -1   -1    0    0    0  501  0.00000000000E+00  0.00000000000E+00 -0.30031154344E+03  0.30031154349E+03  0.50400001928E-02 0. -1.
    10030    2    1    2    0    0  0.00000000000E+00  0.00000000000E+00  0.10619517537E+03  0.70681826234E+03  0.69879513500E+03 0.  0.
        2    1    3    3  502    0  0.12657605212E+03 -0.23721498842E+03  0.27878764838E+03  0.38731769982E+03  0.25500000920E-02 0.  1.
       -2    1    3    3    0  502 -0.12657605212E+03  0.23721498842E+03 -0.17259247301E+03  0.31950056251E+03  0.25500000920E-02 0. -1.
</event>
<event>
 5   0  0.1981750E-03  0.6996973E+03  0.7818609E-02  0.9717750E-01
        4   -1    0    0  501    0  0.00000000000E+00  0.00000000000E+00  0.19655318858E+03  0.19655729149E+03  0.12699999809E+01 0. -1.
       -4   -1    0    0    0  501  0.00000000000E+00  0.00000000000E+00 -0.62269080137E+03  0.62269209647E+03  0.12699999809E+01 0.  1.
    10030    2    1    2    0    0  0.00000000000E+00  0.00000000000E+00 -0.42613761279E+03  0.81924938797E+03  0.69969728787E+03 0.  0.
        5    1    3    3  502    0  0.12298040884E+03  0.14104568336E+03  0.13298778779E+03  0.22962122605E+03  0.46999998093E+01 0. -1.
       -5    1    3    3    0  502 -0.12298040884E+03 -0.14104568336E+03 -0.55912540058E+03  0.58962816192E+03  0.46999998093E+01 0.  1.
</event>
<event>
 5   0  0.5023894E-03  0.7003672E+03  0.7818609E-02  0.9716604E-01
       -2   -1    0    0    0  501  0.00000000000E+00  0.00000000000E+00  0.40978458617E+03  0.40978458618E+03  0.25500000920E-02 0. -1.
        2   -1    0    0  501    0  0.00000000000E+00  0.00000000000E+00 -0.29925126062E+03  0.29925126063E+03  0.25500000920E-02 0.  1.
    10030    2    1    2    0    0  0.00000000000E+00  0.00000000000E+00  0.11053332556E+03  0.70903584681E+03  0.70036720083E+03 0.  0.
        2    1    3    3  502    0 -0.25861636347E+03 -0.11760473871E+03 -0.15199952259E+03  0.32220669281E+03  0.25500000920E-02 0. -1.
       -2    1    3    3    0  502  0.25861636347E+03  0.11760473871E+03  0.26253284815E+03  0.38682915400E+03  0.25500000920E-02 0.  1.
</event>
<event>
 5   0  0.5113683E-03  0.6993319E+03  0.7818609E-02  0.9718375E-01
       -2   -1    0    0    0  501  0.00000000000E+00  0.00000000000E+00  0.33735606943E+03  0.33735606944E+03  0.25500000920E-02 0. -1.
        2   -1    0    0  501    0  0.00000000000E+00  0.00000000000E+00 -0.36242499641E+03  0.36242499642E+03  0.25500000920E-02 0.  1.
    10030    2    1    2    0    0  0.00000000000E+00  0.00000000000E+00 -0.25068926981E+02  0.69978106586E+03  0.69933188761E+03 0.  0.
        3    1    3    3  502    0 -0.13076830502E+03 -0.16087622661E+03  0.26922187358E+03  0.33979690596E+03  0.10100000352E+00 0. -1.
       -3    1    3    3    0  502  0.13076830502E+03  0.16087622661E+03 -0.29429080056E+03  0.35998415990E+03  0.10100000352E+00 0.  1.
</event>
<event>
 5   0  0.1981750E-03  0.7040660E+03  0.7818609E-02  0.9710304E-01
       -3   -1    0    0    0  501  0.00000000000E+00  0.00000000000E+00  0.66180725279E+03  0.66180726050E+03  0.10100000352E+00 0.  1.
        3   -1    0    0  501    0  0.00000000000E+00  0.00000000000E+00 -0.18725574765E+03  0.18725577489E+03  0.10100000352E+00 0. -1.
    10030    2    1    2    0    0  0.00000000000E+00  0.00000000000E+00  0.47455150514E+03  0.84906303539E+03  0.70406598201E+03 0.  0.
        5    1    3    3  502    0  0.30056362849E+03  0.10371706426E+03  0.41940664812E+03  0.52632665776E+03  0.46999998093E+01 0.  1.
       -5    1    3    3    0  502 -0.30056362849E+03 -0.10371706426E+03  0.55144857026E+02  0.32273637763E+03  0.46999998093E+01 0. -1.
</event>
<event>
 5   0  0.1981750E-03  0.7002694E+03  0.7818609E-02  0.9716772E-01
        3   -1    0    0  501    0  0.00000000000E+00  0.00000000000E+00  0.20393961315E+03  0.20393963816E+03  0.10100000352E+00 0. -1.
       -3   -1    0    0    0  501  0.00000000000E+00  0.00000000000E+00 -0.60113031443E+03  0.60113032291E+03  0.10100000352E+00 0.  1.
    10030    2    1    2    0    0  0.00000000000E+00  0.00000000000E+00 -0.39719070128E+03  0.80506996107E+03  0.70026936891E+03 0.  0.
        1    1    3    3  502    0 -0.71816609499E+02  0.10183626262E+03 -0.57477420339E+03  0.58812722662E+03  0.50400001928E-02 0.  1.
       -1    1    3    3    0  502  0.71816609499E+02 -0.10183626262E+03  0.17758350211E+03  0.21694273445E+03  0.50400001928E-02 0. -1.
</event>
<event>
 5   0  0.5023894E-03  0.7009554E+03  0.7818609E-02  0.9715600E-01
       -2   -1    0    0    0  501  0.00000000000E+00  0.00000000000E+00  0.33857200745E+03  0.33857200746E+03  0.25500000920E-02 0.  1.
        2   -1    0    0  501    0  0.00000000000E+00  0.00000000000E+00 -0.36280205126E+03  0.36280205127E+03  0.25500000920E-02 0. -1.
    10030    2    1    2    0    0  0.00000000000E+00  0.00000000000E+00 -0.24230043808E+02  0.70137405873E+03  0.70095540174E+03 0.  0.
        2    1    3    3  502    0 -0.23391780557E+03 -0.78205208506E+02 -0.26126379022E+03  0.35929425613E+03  0.25500000920E-02 0. -1.
       -2    1    3    3    0  502  0.23391780557E+03  0.78205208506E+02  0.23703374642E+03  0.34207980260E+03  0.25500000920E-02 0.  1.
</event>
<event>
 5   0  0.5072407E-03  0.7004588E+03  0.7818609E-02  0.9716448E-01
        2   -1    0    0  501    0  0.00000000000E+00  0.00000000000E+00  0.31694645520E+03  0.31694645521E+03  0.25500000920E-02 0. -1.
       -2   -1    0    0    0  501  0.00000000000E+00  0.00000000000E+00 -0.38700742027E+03  0.38700742028E+03  0.25500000920E-02 0.  1.
    10030    2    1    2    0    0  0.00000000000E+00  0.00000000000E+00 -0.70060965070E+02  0.70395387550E+03  0.70045879251E+03 0.  0.
        1    1    3    3  502    0 -0.19076810503E+03 -0.27166083994E+03  0.77189334414E+02  0.34080826754E+03  0.50400001928E-02 0. -1.
       -1    1    3    3    0  502  0.19076810503E+03  0.27166083994E+03 -0.14725029948E+03  0.36314560795E+03  0.50400001928E-02 0.  1.
</event>
<event>
 5   0  0.2937617E-03  0.6990573E+03  0.7818609E-02  0.9718846E-01
        1   -1    0    0  501    0  0.00000000000E+00  0.00000000000E+00  0.24622808807E+03  0.24622808812E+03  0.50400001928E-02 0.  1.
       -1   -1    0    0    0  501  0.00000000000E+00  0.00000000000E+00 -0.49616714089E+03  0.49616714091E+03  0.50400001928E-02 0. -1.
    10030    2    1    2    0    0  0.00000000000E+00  0.00000000000E+00 -0.24993905282E+03  0.74239522903E+03  0.69905732666E+03 0.  0.
        3    1    3    3  502    0  0.80883084153E+02 -0.33625436764E+03 -0.17871531022E+03  0.38929197958E+03  0.10100000352E+00 0. -1.
       -3    1    3    3    0  502 -0.80883084153E+02  0.33625436764E+03 -0.71223742598E+02  0.35310324945E+03  0.10100000352E+00 0.  1.
</event>
<event>
 5   0  0.5076796E-03  0.6992986E+03  0.7818609E-02  0.9718432E-01
       -2   -1    0    0    0  501  0.00000000000E+00  0.00000000000E+00  0.35277243378E+03  0.35277243379E+03  0.25500000920E-02 0. -1.
        2   -1    0    0  501    0  0.00000000000E+00  0.00000000000E+00 -0.34655381769E+03  0.34655381770E+03  0.25500000920E-02 0.  1.
    10030    2    1    2    0    0  0.00000000000E+00  0.00000000000E+00  0.62186160919E+01  0.69932625148E+03  0.69929860205E+03 0.  0.
        5    1    3    3  502    0 -0.28621310858E+03  0.15013978920E+03 -0.13021004288E+03  0.34847761060E+03  0.46999998093E+01 0. -1.
       -5    1    3    3    0  502  0.28621310858E+03 -0.15013978920E+03  0.13642865897E+03  0.35084864089E+03  0.46999998093E+01 0.  1.
</event>
<event>
 5   0  0.4878235E-03  0.7070969E+03  0.7818609E-02  0.9705172E-01
       -2   -1    0    0    0  501  0.00000000000E+00  0.00000000000E+00  0.12281846938E+03  0.12281846941E+03  0.25500000920E-02 0. -1.
        2   -1    0    0  501    0  0.00000000000E+00  0.00000000000E+00 -0.10177337102E+04  0.10177337102E+04  0.25500000920E-02 0.  1.
    10030    2    1    2    0    0  0.00000000000E+00  0.00000000000E+00 -0.89491524083E+03  0.11405521796E+04  0.70709687184E+03 0.  0.
        4    1    3    3  502    0 -0.13416047866E+03 -0.13411062223E+03  0.33776163492E+02  0.19268402930E+03  0.12699999809E+01 0. -1.
       -4    1    3    3    0  502  0.13416047866E+03  0.13411062223E+03 -0.92869140432E+03  0.94786815032E+03  0.12699999809E+01 0.  1.
</event>
<event>
 5   0  0.5023894E-03  0.7005392E+03  0.7818609E-02  0.9716311E-01
       -2   -1    0    0    0  501  0.00000000000E+00  0.00000000000E+00  0.10475123304E+03  0.10475123307E+03  0.25500000920E-02 0.  1.
        2   -1    0    0  501    0  0.00000000000E+00  0.00000000000E+00 -0.11712396710E+04  0.11712396710E+04  0.25500000920E-02 0. -1.
    10030    2    1    2    0    0  0.00000000000E+00  0.00000000000E+00 -0.10664884380E+04  0.12759909041E+04  0.70053922017E+03 0.  0.
        2    1    3    3  502    0 -0.64649547334E+02 -0.16861802752E+00 -0.11602783347E+04  0.11620780552E+04  0.25500000920E-02 0. -1.
       -2    1    3    3    0  502  0.64649547334E+02  0.16861802752E+00  0.93789896740E+02  0.11391284888E+03  0.25500000920E-02 0.  1.
</event>
<event>
 5   0  0.2937617E-03  0.7008872E+03  0.7818609E-02  0.9715716E-01
       -1   -1    0    0    0  501  0.00000000000E+00  0.00000000000E+00  0.17574439397E+03  0.17574439404E+03  0.50400001928E-02 0.  1.
        1   -1    0    0  501    0  0.00000000000E+00  0.00000000000E+00 -0.69880311333E+03  0.69880311335E+03  0.50400001928E-02 0. -1.
    10030    2    1    2    0    0  0.00000000000E+00  0.00000000000E+00 -0.52305871937E+03  0.87454750739E+03  0.70088723685E+03 0.  0.
        3    1    3    3  502    0  0.29523948740E+03 -0.12786097315E+03 -0.88201577076E+02  0.33360802115E+03  0.10100000352E+00 0.  1.
       -3    1    3    3    0  502 -0.29523948740E+03  0.12786097315E+03 -0.43485714229E+03  0.54093948624E+03  0.10100000352E+00 0. -1.
</event>
<event>
 5   0  0.2934483E-03  0.6988534E+03  0.7818609E-02  0.9719195E-01
        1   -1    0    0  501    0  0.00000000000E+00  0.00000000000E+00  0.12014915311E+04  0.12014915311E+04  0.50400001928E-02 0.  1.
       -1   -1    0    0    0  501  0.00000000000E+00  0.00000000000E+00 -0.10162286998E+03  0.10162287011E+03  0.50400001928E-02 0. -1.
    10030    2    1    2    0    0  0.00000000000E+00  0.00000000000E+00  0.10998686611E+04  0.13031144012E+04  0.69885339732E+03 0.  0.
        5    1    3    3  502    0 -0.48586145507E+02 -0.50158962836E+02 -0.88418806493E+02  0.11276750608E+03  0.46999998093E+01 0. -1.
       -5    1    3    3    0  502  0.48586145507E+02  0.50158962836E+02  0.11882874676E+04  0.11903468951E+04  0.46999998093E+01 0.  1.
</event>
<event>
 5   0  0.5072407E-03  0.7002654E+03  0.7818609E-02  0.9716778E-01
       -2   -1    0    0    0  501  0.00000000000E+00  0.00000000000E+00  0.11446420733E+03  0.11446420736E+03  0.25500000920E-02 0.  1.
        2   -1    0    0  501    0  0.00000000000E+00  0.00000000000E+00 -0.10710151812E+04  0.10710151812E+04  0.25500000920E-02 0. -1.
    10030    2    1    2    0    0  0.00000000000E+00  0.00000000000E+00 -0.95655097385E+03  0.11854793885E+04  0.70026538903E+03 0.  0.
        1    1    3    3  502    0  0.25596750186E+03 -0.16881447115E+03 -0.76444680728E+03  0.82364835267E+03  0.50400001928E-02 0. -1.
       -1    1    3    3    0  502 -0.25596750186E+03  0.16881447115E+03 -0.19210416657E+03  0.36183103586E+03  0.50400001928E-02 0.  1.
</event>
<event>
 5   0  0.5076796E-03  0.7036775E+03  0.7818609E-02  0.9710964E-01
        2   -1    0    0  501    0  0.00000000000E+00  0.00000000000E+00  0.17784591759E+04  0.17784591759E+04  0.25500000920E-02 0. -1.
       -2   -1    0    0    0  501  0.00000000000E+00  0.00000000000E+00 -0.69605472333E+02  0.69605472380E+02  0.25500000920E-02 0.  1.
    10030    2    1    2    0    0  0.00000000000E+00  0.00000000000E+00  0.17088537036E+04  0.18480646483E+04  0.70367745739E+03 0.  0.
        5    1    3    3  502    0  0.18330402240E+03 -0.31893620566E+02  0.16385896314E+04  0.16491257192E+04  0.46999998093E+01 0. -1.
       -5    1    3    3    0  502 -0.18330402240E+03  0.31893620566E+02  0.70264072174E+02  0.19893892907E+03  0.46999998093E+01 0.  1.
</event>
<event>
 5   0  0.5076796E-03  0.7000509E+03  0.7818609E-02  0.9717145E-01
        2   -1    0    0  501    0  0.00000000000E+00  0.00000000000E+00  0.93259962633E+03  0.93259962633E+03  0.25500000920E-02 0. -1.
       -2   -1    0    0    0  501  0.00000000000E+00  0.00000000000E+00 -0.13137235686E+03  0.13137235688E+03  0.25500000920E-02 0.  1.
    10030    2    1    2    0    0  0.00000000000E+00  0.00000000000E+00  0.80122726947E+03  0.10639719832E+04  0.70005088653E+03 0.  0.
        5    1    3    3  502    0  0.17565321279E+03  0.30264643104E+03  0.39021542564E+03  0.52415558929E+03  0.46999998093E+01 0. -1.
       -5    1    3    3    0  502 -0.17565321279E+03 -0.30264643104E+03  0.41101184383E+03  0.53981639392E+03  0.46999998093E+01 0.  1.
</event>
<event>
 5   0  0.2938783E-03  0.6994626E+03  0.7818609E-02  0.9718152E-01
       -1   -1    0    0    0  501  0.00000000000E+00  0.00000000000E+00  0.30605146165E+03  0.30605146170E+03  0.50400001928E-02 0. -1.
        1   -1    0    0  501    0  0.00000000000E+00  0.00000000000E+00 -0.39964515888E+03  0.39964515891E+03  0.50400001928E-02 0.  1.
    10030    2    1    2    0    0  0.00000000000E+00  0.00000000000E+00 -0.93593697225E+02  0.70569662061E+03  0.69946260813E+03 0.  0.
        4    1    3    3  502    0 -0.37365682565E+02  0.29965200981E+03 -0.22478587239E+03  0.37645427683E+03  0.12699999809E+01 0.  1.
       -4    1    3    3    0  502  0.37365682565E+02 -0.29965200981E+03  0.13119217516E+03  0.32924234378E+03  0.12699999809E+01 0. -1.
</event>
<event>
 5   0  0.2938783E-03  0.7008202E+03  0.7818609E-02  0.9715831E-01
        1   -1    0    0  501    0  0.00000000000E+00  0.00000000000E+00  0.75328119489E+03  0.75328119491E+03  0.50400001928E-02 0. -1.
       -1   -1    0    0    0  501  0.00000000000E+00  0.00000000000E+00 -0.16300319423E+03  0.16300319431E+03  0.50400001928E-02 0.  1.
    10030    2    1    2    0    0  0.00000000000E+00  0.00000000000E+00  0.59027800066E+03  0.91628438922E+03  0.70082020795E+03 0.  0.
        4    1    3    3  502    0  0.17004196865E+03  0.23955514743E+03  0.54487375839E+03  0.61902339636E+03  0.12699999809E+01 0. -1.
       -4    1    3    3    0  502 -0.17004196865E+03 -0.23955514743E+03  0.45404242271E+02  0.29726099286E+03  0.12699999809E+01 0.  1.
</event>
<event>
 5   0  0.3013140E-03  0.7009350E+03  0.7818609E-02  0.9715634E-01
       -1   -1    0    0    0  501  0.00000000000E+00  0.00000000000E+00  0.11376184089E+04  0.11376184089E+04  0.50400001928E-02 0. -1.
        1   -1    0    0  501    0  0.00000000000E+00  0.00000000000E+00 -0.10796896648E+03  0.10796896660E+03  0.50400001928E-02 0.  1.
    10030    2    1    2    0    0  0.00000000000E+00  0.00000000000E+00  0.10296494424E+04  0.12455873755E+04  0.70093504388E+03 0.  0.
        2    1    3    3  502    0  0.25663474695E+03  0.15838004270E+03  0.83212335311E+03  0.88508468864E+03  0.25500000920E-02 0. -1.
       -2    1    3    3    0  502 -0.25663474695E+03 -0.15838004270E+03  0.19752608931E+03  0.36050268686E+03  0.25500000920E-02 0.  1.
</event>
<event>
 5   0  0.5072407E-03  0.7007065E+03  0.7818609E-02  0.9716025E-01
        2   -1    0    0  501    0  0.00000000000E+00  0.00000000000E+00  0.83524660416E+03  0.83524660417E+03  0.25500000920E-02 0. -1.
       -2   -1    0    0    0  501  0.00000000000E+00  0.00000000000E+00 -0.14695948569E+03  0.14695948571E+03  0.25500000920E-02 0.  1.
    10030    2    1    2    0    0  0.00000000000E+00  0.00000000000E+00  0.68828711847E+03  0.98220608987E+03  0.70070653310E+03 0.  0.
        1    1    3    3  502    0  0.10340847990E+03 -0.27821526076E+03  0.83215748175E+02  0.30825623401E+03  0.50400001928E-02 0.  1.
       -1    1    3    3    0  502 -0.10340847990E+03  0.27821526076E+03  0.60507137030E+03  0.67394985586E+03  0.50400001928E-02 0. -1.
</event>
<event>
 5   0  0.5076796E-03  0.6994892E+03  0.7818609E-02  0.9718106E-01
        2   -1    0    0  501    0  0.00000000000E+00  0.00000000000E+00  0.66763617208E+03  0.66763617209E+03  0.25500000920E-02 0. -1.
       -2   -1    0    0    0  501  0.00000000000E+00  0.00000000000E+00 -0.18321550432E+03  0.18321550434E+03  0.25500000920E-02 0.  1.
    10030    2    1    2    0    0  0.00000000000E+00  0.00000000000E+00  0.48442066776E+03  0.85085167642E+03  0.69948923646E+03 0.  0.
        5    1    3    3  502    0  0.42539901120E+02  0.21656265471E+03 -0.87765974442E+02  0.23755837782E+03  0.46999998093E+01 0.  1.
       -5    1    3    3    0  502 -0.42539901120E+02 -0.21656265471E+03  0.57218664221E+03  0.61329329861E+03  0.46999998093E+01 0. -1.
</event>
<event>
 5   0  0.5113683E-03  0.7032562E+03  0.7818609E-02  0.9711680E-01
        2   -1    0    0  501    0  0.00000000000E+00  0.00000000000E+00  0.50524845839E+03  0.50524845840E+03  0.25500000920E-02 0.  1.
       -2   -1    0    0    0  501  0.00000000000E+00  0.00000000000E+00 -0.24471585045E+03  0.24471585046E+03  0.25500000920E-02 0. -1.
    10030    2    1    2    0    0  0.00000000000E+00  0.00000000000E+00  0.26053260794E+03  0.74996430886E+03  0.70325615871E+03 0.  0.
        3    1    3    3  502    0  0.22129904341E+03 -0.26386372049E+03  0.20601169116E+03  0.40129559766E+03  0.10100000352E+00 0.  1.
       -3    1    3    3    0  502 -0.22129904341E+03  0.26386372049E+03  0.54520916778E+02  0.34866871120E+03  0.10100000352E+00 0. -1.
</event>
<event>
 5   0  0.2938783E-03  0.7002428E+03  0.7818609E-02  0.9716817E-01
        1   -1    0    0  501    0  0.00000000000E+00  0.00000000000E+00  0.87457484781E+03  0.87457484782E+03  0.50400001928E-02 0. -1.
       -1   -1    0    0    0  501  0.00000000000E+00  0.00000000000E+00 -0.14016525203E+03  0.14016525212E+03  0.50400001928E-02 0.  1.
    10030    2    1    2    0    0  0.00000000000E+00  0.00000000000E+00  0.73440959578E+03  0.10147400999E+04  0.70024282650E+03 0.  0.
        4    1    3    3  502    0 -0.26056720079E+03 -0.52506940318E+02  0.69743752317E+03  0.74637320191E+03  0.12699999809E+01 0. -1.
       -4    1    3    3    0  502  0.26056720079E+03  0.52506940318E+02  0.36972072611E+02  0.26836689803E+03  0.12699999809E+01 0.  1.
</event>
<event>
 5   0  0.5072407E-03  0.7003285E+03  0.7818609E-02  0.9716671E-01
        2   -1    0    0  501    0  0.00000000000E+00  0.00000000000E+00  0.22949939967E+04  0.22949939967E+04  0.25500000920E-02 0.  1.
       -2   -1    0    0    0  501  0.00000000000E+00  0.00000000000E+00 -0.53427158363E+02  0.53427158424E+02  0.25500000920E-02 0. -1.
    10030    2    1    2    0    0  0.00000000000E+00  0.00000000000E+00  0.22415668383E+04  0.23484211551E+04  0.70032851656E+03 0.  0.
        1    1    3    3  502    0 -0.17294762003E+03 -0.23466332879E+02  0.21387417373E+04  0.21458512919E+04  0.50400001928E-02 0.  1.
       -1    1    3    3    0  502  0.17294762003E+03  0.23466332879E+02  0.10282510101E+03  0.20256986319E+03  0.50400001928E-02 0. -1.
</event>
<event>
 5   0  0.2938783E-03  0.7004013E+03  0.7818609E-02  0.9716546E-01
       -1   -1    0    0    0  501  0.00000000000E+00  0.00000000000E+00  0.10749151040E+03  0.10749151052E+03  0.50400001928E-02 0. -1.
        1   -1    0    0  501    0  0.00000000000E+00  0.00000000000E+00 -0.11409319538E+04  0.11409319538E+04  0.50400001928E-02 0.  1.
    10030    2    1    2    0    0  0.00000000000E+00  0.00000000000E+00 -0.10334404434E+04  0.12484234643E+04  0.70040131083E+03 0.  0.
        4    1    3    3  502    0 -0.32210381600E+03 -0.33114779347E+02 -0.75447014829E+03  0.82102026434E+03  0.12699999809E+01 0. -1.
       -4    1    3    3    0  502  0.32210381600E+03  0.33114779347E+02 -0.27897029507E+03  0.42740319995E+03  0.12699999809E+01 0.  1.
</event>
<event>
 5   0  0.5113683E-03  0.6917133E+03  0.7818609E-02  0.9731509E-01
        2   -1    0    0  501    0  0.00000000000E+00  0.00000000000E+00  0.93190724456E+03  0.93190724457E+03  0.25500000920E-02 0.  1.
       -2   -1    0    0    0  501  0.00000000000E+00  0.00000000000E+00 -0.12835700934E+03  0.12835700936E+03  0.25500000920E-02 0. -1.
    10030    2    1    2    0    0  0.00000000000E+00  0.00000000000E+00  0.80355023523E+03  0.10602642539E+04  0.69171331318E+03 0.  0.
        3    1    3    3  502    0 -0.17569602011E+03  0.13094488167E+03  0.81193013070E+03  0.84097931060E+03  0.10100000352E+00 0.  1.
       -3    1    3    3    0  502  0.17569602011E+03 -0.13094488167E+03 -0.83798954746E+01  0.21928494333E+03  0.10100000352E+00 0. -1.
</event>
<event>
 5   0  0.4878235E-03  0.6989343E+03  0.7818609E-02  0.9719056E-01
       -2   -1    0    0    0  501  0.00000000000E+00  0.00000000000E+00  0.14658213627E+03  0.14658213630E+03  0.25500000920E-02 0.  1.
        2   -1    0    0  501    0  0.00000000000E+00  0.00000000000E+00 -0.83316627527E+03  0.83316627528E+03  0.25500000920E-02 0. -1.
    10030    2    1    2    0    0  0.00000000000E+00  0.00000000000E+00 -0.68658413900E+03  0.97974841157E+03  0.69893431026E+03 0.  0.
        4    1    3    3  502    0  0.14347414477E+03 -0.23487254314E+03 -0.41419518979E+02  0.27832917776E+03  0.12699999809E+01 0.  1.
       -4    1    3    3    0  502 -0.14347414477E+03  0.23487254314E+03 -0.64516462002E+03  0.70141923382E+03  0.12699999809E+01 0. -1.
</event>
<event>
 5   0  0.2913582E-03  0.6995830E+03  0.7818609E-02  0.9717946E-01
        1   -1    0    0  501    0  0.00000000000E+00  0.00000000000E+00  0.61050994503E+03  0.61050994505E+03  0.50400001928E-02 0.  1.
       -1   -1    0    0    0  501  0.00000000000E+00  0.00000000000E+00 -0.20041293258E+03  0.20041293264E+03  0.50400001928E-02 0. -1.
    10030    2    1    2    0    0  0.00000000000E+00  0.00000000000E+00  0.41009701245E+03  0.81092287769E+03  0.69958298574E+03 0.  0.
        1    1    3    3  502    0 -0.40056097373E+01 -0.24736442186E+03 -0.81590038502E+02  0.26050362093E+03  0.50400001928E-02 0. -1.
       -1    1    3    3    0  502  0.40056097373E+01  0.24736442186E+03  0.49168705095E+03  0.55041925676E+03  0.50400001928E-02 0.  1.
</event>
<event>
 5   0  0.5072407E-03  0.6996943E+03  0.7818609E-02  0.9717755E-01
        2   -1    0    0  501    0  0.00000000000E+00  0.00000000000E+00  0.37249362058E+03  0.37249362059E+03  0.25500000920E-02 0. -1.
       -2   -1    0    0    0  501  0.00000000000E+00  0.00000000000E+00 -0.32857749860E+03  0.32857749861E+03  0.25500000920E-02 0.  1.
    10030    2    1    2    0    0  0.00000000000E+00  0.00000000000E+00  0.43916121979E+02  0.70107111920E+03  0.69969428210E+03 0.  0.
        1    1    3    3  502    0  0.22690227355E+03 -0.95207568016E+02  0.27113175116E+03  0.36614416459E+03  0.50400001928E-02 0. -1.
       -1    1    3    3    0  502 -0.22690227355E+03  0.95207568016E+02 -0.22721562919E+03  0.33492695461E+03  0.50400001928E-02 0.  1.
</event>
<event>
 5   0  0.2937617E-03  0.6996813E+03  0.7818609E-02  0.9717777E-01
       -1   -1    0    0    0  501  0.00000000000E+00  0.00000000000E+00  0.29646238521E+03  0.29646238525E+03  0.50400001928E-02 0.  1.
        1   -1    0    0  501    0  0.00000000000E+00  0.00000000000E+00 -0.41282965639E+03  0.41282965642E+03  0.50400001928E-02 0. -1.
    10030    2    1    2    0    0  0.00000000000E+00  0.00000000000E+00 -0.11636727118E+03  0.70929204167E+03  0.69968125499E+03 0.  0.
        3    1    3    3  502    0  0.25926375079E+03  0.17907118956E+03 -0.21227240381E+03  0.37992600203E+03  0.10100000352E+00 0. -1.
       -3    1    3    3    0  502 -0.25926375079E+03 -0.17907118956E+03  0.95905132624E+02  0.32936603964E+03  0.10100000352E+00 0.  1.
</event>
<event>
 5   0  0.2934483E-03  0.7031411E+03  0.7818609E-02  0.9711875E-01
        1   -1    0    0  501    0  0.00000000000E+00  0.00000000000E+00  0.40923409075E+03  0.40923409079E+03  0.50400001928E-02 0. -1.
       -1   -1    0    0    0  501  0.00000000000E+00  0.00000000000E+00 -0.30203216778E+03  0.30203216782E+03  0.50400001928E-02 0.  1.
    10030    2    1    2    0    0  0.00000000000E+00  0.00000000000E+00  0.10720192297E+03  0.71126625861E+03  0.70314112264E+03 0.  0.
        5    1    3    3  502    0  0.31149117976E+03 -0.26818752613E+02 -0.10898520644E+03  0.33112817122E+03  0.46999998093E+01 0. -1.
       -5    1    3    3    0  502 -0.31149117976E+03  0.26818752613E+02  0.21618712941E+03  0.38013808738E+03  0.46999998093E+01 0.  1.
</event>
<event>
 5   0  0.2938783E-03  0.7003130E+03  0.7818609E-02  0.9716697E-01
        1   -1    0    0  501    0  0.00000000000E+00  0.00000000000E+00  0.44516065878E+03  0.44516065880E+03  0.50400001928E-02 0.  1.
       -1   -1    0    0    0  501  0.00000000000E+00  0.00000000000E+00 -0.27542771002E+03  0.27542771007E+03  0.50400001928E-02 0. -1.
    10030    2    1    2    0    0  0.00000000000E+00  0.00000000000E+00  0.16973294875E+03  0.72058836887E+03  0.70031301820E+03 0.  0.
        4    1    3    3  502    0 -0.15230938581E+03 -0.41113102967E+02 -0.23678514100E+03  0.28452987917E+03  0.12699999809E+01 0. -1.
       -4    1    3    3    0  502  0.15230938581E+03  0.41113102967E+02  0.40651808976E+03  0.43605848970E+03  0.12699999809E+01 0.  1.
</event>
<event>
 5   0  0.2937617E-03  0.7013771E+03  0.7818609E-02  0.9714880E-01
       -1   -1    0    0    0  501  0.00000000000E+00  0.00000000000E+00  0.99713459372E+03  0.99713459373E+03  0.50400001928E-02 0. -1.
        1   -1    0    0  501    0  0.00000000000E+00  0.00000000000E+00 -0.12333587956E+03  0.12333587967E+03  0.50400001928E-02 0.  1.
    10030    2    1    2    0    0  0.00000000000E+00  0.00000000000E+00  0.87379871415E+03  0.11204704734E+04  0.70137713742E+03 0.  0.
        3    1    3    3  502    0  0.23897987202E+03  0.84777969347E+02  0.49902135838E+02  0.25843551745E+03  0.10100000352E+00 0.  1.
       -3    1    3    3    0  502 -0.23897987202E+03 -0.84777969347E+02  0.82389657832E+03  0.86203495595E+03  0.10100000352E+00 0. -1.
</event>
<event>
 5   0  0.2937617E-03  0.6984825E+03  0.7818609E-02  0.9719831E-01
        1   -1    0    0  501    0  0.00000000000E+00  0.00000000000E+00  0.39425701878E+03  0.39425701881E+03  0.50400001928E-02 0.  1.
       -1   -1    0    0    0  501  0.00000000000E+00  0.00000000000E+00 -0.30936534428E+03  0.30936534432E+03  0.50400001928E-02 0. -1.
    10030    2    1    2    0    0  0.00000000000E+00  0.00000000000E+00  0.84891674503E+02  0.70362236313E+03  0.69848252197E+03 0.  0.
        3    1    3    3  502    0  0.21144334542E+03  0.23561653493E+03 -0.10610457649E+03  0.33388865092E+03  0.10100000352E+00 0. -1.
       -3    1    3    3    0  502 -0.21144334542E+03 -0.23561653493E+03  0.19099625099E+03  0.36973371222E+03  0.10100000352E+00 0.  1.
</event>
<event>
 5   0  0.2938783E-03  0.7008824E+03  0.7818609E-02  0.9715724E-01
        1   -1    0    0  501    0  0.00000000000E+00  0.00000000000E+00  0.11235963894E+04  0.11235963895E+04  0.50400001928E-02 0. -1.
       -1   -1    0    0    0  501  0.00000000000E+00  0.00000000000E+00 -0.10929995894E+03  0.10929995906E+03  0.50400001928E-02 0.  1.
    10030    2    1    2    0    0  0.00000000000E+00  0.00000000000E+00  0.10142964305E+04  0.12328963485E+04  0.70088241328E+03 0.  0.
        4    1    3    3  502    0 -0.49922416377E+02  0.57897573564E+02  0.11087453311E+04  0.11113785128E+04  0.12699999809E+01 0. -1.
       -4    1    3    3    0  502  0.49922416377E+02 -0.57897573564E+02 -0.94448900551E+02  0.12151783571E+03  0.12699999809E+01 0.  1.
</event>
<event>
 5   0  0.2937617E-03  0.7003138E+03  0.7818609E-02  0.9716696E-01
       -1   -1    0    0    0  501  0.00000000000E+00  0.00000000000E+00  0.72788881536E+03  0.72788881537E+03  0.50400001928E-02 0. -1.
        1   -1    0    0  501    0  0.00000000000E+00  0.00000000000E+00 -0.16844587907E+03  0.16844587915E+03  0.50400001928E-02 0.  1.
    10030    2    1    2    0    0  0.00000000000E+00  0.00000000000E+00  0.55944293628E+03  0.89633469452E+03  0.70031384796E+03 0.  0.
        3    1    3    3  502    0  0.26310998442E+03 -0.23065282972E+03  0.29700109792E+03  0.45895234407E+03  0.10100000352E+00 0.  1.
       -3    1    3    3    0  502 -0.26310998442E+03  0.23065282972E+03  0.26244183836E+03  0.43738235045E+03  0.10100000352E+00 0. -1.
</event>
<event>
 5   0  0.2913582E-03  0.7040500E+03  0.7818609E-02  0.9710331E-01
       -1   -1    0    0    0  501  0.00000000000E+00  0.00000000000E+00  0.82302832741E+03  0.82302832742E+03  0.50400001928E-02 0. -1.
        1   -1    0    0  501    0  0.00000000000E+00  0.00000000000E+00 -0.15056785322E+03  0.15056785331E+03  0.50400001928E-02 0.  1.
    10030    2    1    2    0    0  0.00000000000E+00  0.00000000000E+00  0.67246047418E+03  0.97359618073E+03  0.70405002223E+03 0.  0.
        1    1    3    3  502    0 -0.17280604662E+03 -0.19526894486E+03  0.91934110367E+01  0.26091456342E+03  0.50400001928E-02 0. -1.
       -1    1    3    3    0  502  0.17280604662E+03  0.19526894486E+03  0.66326706315E+03  0.71268161731E+03  0.50400001928E-02 0.  1.
</event>
<event>
 5   0  0.2934483E-03  0.6995874E+03  0.7818609E-02  0.9717938E-01
       -1   -1    0    0    0  501  0.00000000000E+00  0.00000000000E+00  0.18861218470E+03  0.18861218477E+03  0.50400001928E-02 0. -1.
        1   -1    0    0  501    0  0.00000000000E+00  0.00000000000E+00 -0.64871548034E+03  0.64871548036E+03  0.50400001928E-02 0.  1.
    10030    2    1    2    0    0  0.00000000000E+00  0.00000000000E+00 -0.46010329564E+03  0.83732766512E+03  0.69958743279E+03 0.  0.
        5    1    3    3  502    0 -0.74796346404E+02 -0.20809340146E+03 -0.55439763547E+03  0.59688875461E+03  0.46999998093E+01 0.  1.
       -5    1    3    3    0  502  0.74796346404E+02  0.20809340146E+03  0.94294339832E+02  0.24043891051E+03  0.46999998093E+01 0. -1.
</event>
<event>
 5   0  0.5113683E-03  0.7013868E+03  0.7818609E-02  0.9714863E-01
       -2   -1    0    0    0  501  0.00000000000E+00  0.00000000000E+00  0.19835568796E+03  0.19835568798E+03  0.25500000920E-02 0. -1.
        2   -1    0    0  501    0  0.00000000000E+00  0.00000000000E+00 -0.62002696937E+03  0.62002696938E+03  0.25500000920E-02 0.  1.
    10030    2    1    2    0    0  0.00000000000E+00  0.00000000000E+00 -0.42167128141E+03  0.81838265736E+03  0.70138684354E+03 0.  0.
        3    1    3    3  502    0  0.33152777567E+03 -0.35159046357E+02 -0.83878518387E+02  0.34377673079E+03  0.10100000352E+00 0. -1.
       -3    1    3    3    0  502 -0.33152777567E+03  0.35159046357E+02 -0.33779276303E+03  0.47460592657E+03  0.10100000352E+00 0.  1.
</event>
<event>
 5   0  0.5023894E-03  0.6995363E+03  0.7818609E-02  0.9718026E-01
       -2   -1    0    0    0  501  0.00000000000E+00  0.00000000000E+00  0.12463567623E+03  0.12463567626E+03  0.25500000920E-02 0. -1.
        2   -1    0    0  501    0  0.00000000000E+00  0.00000000000E+00 -0.98156279197E+03  0.98156279197E+03  0.25500000920E-02 0.  1.
    10030    2    1    2    0    0  0.00000000000E+00  0.00000000000E+00 -0.85692711573E+03  0.11061984682E+04  0.69953625313E+03 0.  0.
        2    1    3    3  502    0 -0.30962836413E+03 -0.94164185628E+02 -0.21866957149E+03  0.39058033646E+03  0.25500000920E-02 0. -1.
       -2    1    3    3    0  502  0.30962836413E+03  0.94164185628E+02 -0.63825754425E+03  0.71561813177E+03  0.25500000920E-02 0.  1.
</event>
<event>
 5   0  0.2934483E-03  0.6988841E+03  0.7818609E-02  0.9719142E-01
        1   -1    0    0  501    0  0.00000000000E+00  0.00000000000E+00  0.10254902384E+04  0.10254902385E+04  0.50400001928E-02 0. -1.
       -1   -1    0    0    0  501  0.00000000000E+00  0.00000000000E+00 -0.11907450236E+03  0.11907450247E+03  0.50400001928E-02 0.  1.
    10030    2    1    2    0    0  0.00000000000E+00  0.00000000000E+00  0.90641573609E+03  0.11445647409E+04  0.69888408162E+03 0.  0.
        5    1    3    3  502    0 -0.11577845759E+02  0.14098670224E+03  0.97644407322E+03  0.98664908394E+03  0.46999998093E+01 0. -1.
       -5    1    3    3    0  502  0.11577845759E+02 -0.14098670224E+03 -0.70028337133E+02  0.15791565698E+03  0.46999998093E+01 0.  1.
</event>
<event>
 5   0  0.5113683E-03  0.6987143E+03  0.7818609E-02  0.9719433E-01
        2   -1    0    0  501    0  0.00000000000E+00  0.00000000000E+00  0.14673397345E+04  0.14673397345E+04  0.25500000920E-02 0.  1.
       -2   -1    0    0    0  501  0.00000000000E+00  0.00000000000E+00 -0.83178015398E+02  0.83178015437E+02  0.25500000920E-02 0. -1.
    10030    2    1    2    0    0  0.00000000000E+00  0.00000000000E+00  0.13841617191E+04  0.15505177499E+04  0.69871426796E+03 0.  0.
        3    1    3    3  502    0 -0.32984238978E+03  0.95055076637E+02  0.54794297466E+03  0.64658563499E+03  0.10100000352E+00 0.  1.
       -3    1    3    3    0  502  0.32984238978E+03 -0.95055076637E+02  0.83621874444E+03  0.90393211496E+03  0.10100000352E+00 0. -1.
</event>
<event>
 5   0  0.5072407E-03  0.7005819E+03  0.7818609E-02  0.9716238E-01
       -2   -1    0    0    0  501  0.00000000000E+00  0.00000000000E+00  0.94545458386E+02  0.94545458420E+02  0.25500000920E-02 0.  1.
        2   -1    0    0  501    0  0.00000000000E+00  0.00000000000E+00 -0.12978279470E+04  0.12978279470E+04  0.25500000920E-02 0. -1.
    10030    2    1    2    0    0  0.00000000000E+00  0.00000000000E+00 -0.12032824887E+04  0.13923734055E+04  0.70058186726E+03 0.  0.
        1    1    3    3  502    0 -0.28720785348E+03  0.16392116404E+03 -0.83123496482E+03  0.89460050631E+03  0.50400001928E-02 0. -1.
       -1    1    3    3    0  502  0.28720785348E+03 -0.16392116404E+03 -0.37204752384E+03  0.49777289916E+03  0.50400001928E-02 0.  1.
</event>
<event>
 5   0  0.4878235E-03  0.6970892E+03  0.7818609E-02  0.9722223E-01
       -2   -1    0    0    0  501  0.00000000000E+00  0.00000000000E+00  0.12966892684E+03  0.12966892687E+03  0.25500000920E-02 0.  1.
        2   -1    0    0  501    0  0.00000000000E+00  0.00000000000E+00 -0.93687317126E+03  0.93687317126E+03  0.25500000920E-02 0. -1.
    10030    2    1    2    0    0  0.00000000000E+00  0.00000000000E+00 -0.80720424441E+03  0.10665420981E+04  0.69708920152E+03 0.  0.
        4    1    3    3  502    0 -0.32640087865E+03 -0.10973004789E+03 -0.48604463539E+03  0.59566703575E+03  0.12699999809E+01 0.  1.
       -4    1    3    3    0  502  0.32640087865E+03  0.10973004789E+03 -0.32115960902E+03  0.47087506237E+03  0.12699999809E+01 0. -1.
</event>
<event>
 5   0  0.5023894E-03  0.6996055E+03  0.7818609E-02  0.9717907E-01
        2   -1    0    0  501    0  0.00000000000E+00  0.00000000000E+00  0.62990838661E+03  0.62990838661E+03  0.25500000920E-02 0. -1.
       -2   -1    0    0    0  501  0.00000000000E+00  0.00000000000E+00 -0.19425360699E+03  0.19425360701E+03  0.25500000920E-02 0.  1.
    10030    2    1    2    0    0  0.00000000000E+00  0.00000000000E+00  0.43565477962E+03  0.82416199362E+03  0.69960553509E+03 0.  0.
        2    1    3    3  502    0 -0.14206217564E+03  0.18129640592E+03  0.52797135484E+03  0.57602413151E+03  0.25500000920E-02 0. -1.
       -2    1    3    3    0  502  0.14206217564E+03 -0.18129640592E+03 -0.92316575221E+02  0.24813786211E+03  0.25500000920E-02 0.  1.
</event>
<event>
 5   0  0.2934483E-03  0.6994652E+03  0.7818609E-02  0.9718147E-01
       -1   -1    0    0    0  501  0.00000000000E+00  0.00000000000E+00  0.43841853850E+03  0.43841853853E+03  0.50400001928E-02 0. -1.
        1   -1    0    0  501    0  0.00000000000E+00  0.00000000000E+00 -0.27898655638E+03  0.27898655643E+03  0.50400001928E-02 0.  1.
    10030    2    1    2    0    0  0.00000000000E+00  0.00000000000E+00  0.15943198212E+03  0.71740509496E+03  0.69946516236E+03 0.  0.
        5    1    3    3  502    0 -0.17793536564E+03  0.21536879056E+03 -0.13602653447E+03  0.31075716946E+03  0.46999998093E+01 0.  1.
       -5    1    3    3    0  502  0.17793536564E+03 -0.21536879056E+03  0.29545851659E+03  0.40664792550E+03  0.46999998093E+01 0. -1.
</event>
<event>
 5   0  0.5023894E-03  0.7006748E+03  0.7818609E-02  0.9716079E-01
        2   -1    0    0  501    0  0.00000000000E+00  0.00000000000E+00  0.80515467097E+03  0.80515467098E+03  0.25500000920E-02 0.  1.
       -2   -1    0    0    0  501  0.00000000000E+00  0.00000000000E+00 -0.15243816803E+03  0.15243816806E+03  0.25500000920E-02 0. -1.
    10030    2    1    2    0    0  0.00000000000E+00  0.00000000000E+00  0.65271650294E+03  0.95759283903E+03  0.70067482626E+03 0.  0.
        2    1    3    3  502    0 -0.71876615218E+02 -0.16572889379E+03  0.73659672186E+03  0.75842405336E+03  0.25500000920E-02 0.  1.
       -2    1    3    3    0  502  0.71876615218E+02  0.16572889379E+03 -0.83880218926E+02  0.19916878567E+03  0.25500000920E-02 0. -1.
</event>
<event>
 5   0  0.2934483E-03  0.6984208E+03  0.7818609E-02  0.9719937E-01
        1   -1    0    0  501    0  0.00000000000E+00  0.00000000000E+00  0.17613255452E+03  0.17613255459E+03  0.50400001928E-02 0.  1.
       -1   -1    0    0    0  501  0.00000000000E+00  0.00000000000E+00 -0.69236426788E+03  0.69236426790E+03  0.50400001928E-02 0. -1.
    10030    2    1    2    0    0  0.00000000000E+00  0.00000000000E+00 -0.51623171336E+03  0.86849682248E+03  0.69842075340E+03 0.  0.
        5    1    3    3  502    0 -0.29221363500E+03 -0.15210207566E+03 -0.11415810646E+03  0.34868038828E+03  0.46999998093E+01 0.  1.
       -5    1    3    3    0  502  0.29221363500E+03  0.15210207566E+03 -0.40207360690E+03  0.51981643420E+03  0.46999998093E+01 0. -1.
</event>
<event>
 5   0  0.3013140E-03  0.6986834E+03  0.7818609E-02  0.9719486E-01
        1   -1    0    0  501    0  0.00000000000E+00  0.00000000000E+00  0.63295309468E+03  0.63295309470E+03  0.50400001928E-02 0.  1.
       -1   -1    0    0    0  501  0.00000000000E+00  0.00000000000E+00 -0.19280989604E+03  0.19280989611E+03  0.50400001928E-02 0. -1.
    10030    2    1    2    0    0  0.00000000000E+00  0.00000000000E+00  0.44014319864E+03  0.82576299081E+03  0.69868339159E+03 0.  0.
        2    1    3    3  502    0 -0.24046143031E+03 -0.25275817586E+03  0.19856177476E+03  0.40141645872E+03  0.25500000920E-02 0. -1.
       -2    1    3    3    0  502  0.24046143031E+03  0.25275817586E+03  0.24158142389E+03  0.42434653209E+03  0.25500000920E-02 0.  1.
</event>
<event>
 5   0  0.3013140E-03  0.7003476E+03  0.7818609E-02  0.9716638E-01
       -1   -1    0    0    0  501  0.00000000000E+00  0.00000000000E+00  0.43287321477E+03  0.43287321480E+03  0.50400001928E-02 0.  1.
        1   -1    0    0  501    0  0.00000000000E+00  0.00000000000E+00 -0.28327390482E+03  0.28327390486E+03  0.50400001928E-02 0. -1.
    10030    2    1    2    0    0  0.00000000000E+00  0.00000000000E+00  0.14959930995E+03  0.71614711966E+03  0.70034758760E+03 0.  0.
        2    1    3    3  502    0  0.16901995815E+02  0.22409318008E+03  0.34940641084E+03  0.41543744507E+03  0.25500000920E-02 0.  1.
       -2    1    3    3    0  502 -0.16901995815E+02 -0.22409318008E+03 -0.19980710089E+03  0.30070967459E+03  0.25500000920E-02 0. -1.
</event>
<event>
 5   0  0.3013140E-03  0.6913359E+03  0.7818609E-02  0.9732165E-01
        1   -1    0    0  501    0  0.00000000000E+00  0.00000000000E+00  0.19420211183E+03  0.19420211190E+03  0.50400001928E-02 0. -1.
       -1   -1    0    0    0  501  0.00000000000E+00  0.00000000000E+00 -0.61526788429E+03  0.61526788431E+03  0.50400001928E-02 0.  1.
    10030    2    1    2    0    0  0.00000000000E+00  0.00000000000E+00 -0.42106577246E+03  0.80946999620E+03  0.69133587352E+03 0.  0.
        2    1    3    3  502    0 -0.15078019788E+03 -0.19698175213E+03 -0.49239570932E+03  0.55135289362E+03  0.25500000920E-02 0.  1.
       -2    1    3    3    0  502  0.15078019788E+03  0.19698175213E+03  0.71329936862E+02  0.25811710258E+03  0.25500000920E-02 0. -1.
</event>
<event>
 5   0  0.5072407E-03  0.7002623E+03  0.7818609E-02  0.9716784E-01
        2   -1    0    0  501    0  0.00000000000E+00  0.00000000000E+00  0.12816871834E+04  0.12816871834E+04  0.25500000920E-02 0.  1.
       -2   -1    0    0    0  501  0.00000000000E+00  0.00000000000E+00 -0.95648776435E+02  0.95648776469E+02  0.25500000920E-02 0. -1.
    10030    2    1    2    0    0  0.00000000000E+00  0.00000000000E+00  0.11860384070E+04  0.13773359599E+04  0.70026226770E+03 0.  0.
        1    1    3    3  502    0 -0.20432525235E+02  0.33943744545E+03  0.75706908087E+03  0.82993304591E+03  0.50400001928E-02 0.  1.
       -1    1    3    3    0  502  0.20432525235E+02 -0.33943744545E+03  0.42896932611E+03  0.54740291398E+03  0.50400001928E-02 0. -1.
</event>
<event>
 5   0  0.4878235E-03  0.7010550E+03  0.7818609E-02  0.9715430E-01
        2   -1    0    0  501    0  0.00000000000E+00  0.00000000000E+00  0.57437791578E+03  0.57437791578E+03  0.25500000920E-02 0. -1.
       -2   -1    0    0    0  501  0.00000000000E+00  0.00000000000E+00 -0.21391756069E+03  0.21391756070E+03  0.25500000920E-02 0.  1.
    10030    2    1    2    0    0  0.00000000000E+00  0.00000000000E+00  0.36046035509E+03  0.78829547648E+03  0.70105498405E+03 0.  0.
        4    1    3    3  502    0  0.13626444503E+03 -0.24032097229E+03  0.42282243051E+03  0.50507681529E+03  0.12699999809E+01 0. -1.
       -4    1    3    3    0  502 -0.13626444503E+03  0.24032097229E+03 -0.62362075418E+02  0.28321866120E+03  0.12699999809E+01 0.  1.
</event>
<event>
 5   0  0.1981750E-03  0.6989764E+03  0.7818609E-02  0.9718984E-01
        3   -1    0    0  501    0  0.00000000000E+00  0.00000000000E+00  0.83397181641E+03  0.83397182253E+03  0.10100000352E+00 0. -1.
       -3   -1    0    0    0  501  0.00000000000E+00  0.00000000000E+00 -0.14645816935E+03  0.14645820418E+03  0.10100000352E+00 0.  1.
    10030    2    1    2    0    0  0.00000000000E+00  0.00000000000E+00  0.68751364706E+03  0.98043002671E+03  0.69897641046E+03 0.  0.
        5    1    3    3  502    0 -0.11359253756E+03 -0.27286234347E+03  0.60528074070E+03  0.67360521682E+03  0.46999998093E+01 0. -1.
       -5    1    3    3    0  502  0.11359253756E+03  0.27286234347E+03  0.82232906367E+02  0.30682480989E+03  0.46999998093E+01 0.  1.
</event>
<event>
 5   0  0.2937617E-03  0.6987721E+03  0.7818609E-02  0.9719334E-01
       -1   -1    0    0    0  501  0.00000000000E+00  0.00000000000E+00  0.15942028399E+03  0.15942028407E+03  0.50400001928E-02 0. -1.
        1   -1    0    0  501    0  0.00000000000E+00  0.00000000000E+00 -0.76571559858E+03  0.76571559860E+03  0.50400001928E-02 0.  1.
    10030    2    1    2    0    0  0.00000000000E+00  0.00000000000E+00 -0.60629531459E+03  0.92513588267E+03  0.69877206077E+03 0.  0.
        3    1    3    3  502    0 -0.79983160971E+01 -0.28038924712E+03 -0.27371168862E+02  0.28183557981E+03  0.10100000352E+00 0. -1.
       -3    1    3    3    0  502  0.79983160971E+01  0.28038924712E+03 -0.57892414573E+03  0.64330030287E+03  0.10100000352E+00 0.  1.
</event>
<event>
 5   0  0.5113683E-03  0.7014022E+03  0.7818609E-02  0.9714837E-01
       -2   -1    0    0    0  501  0.00000000000E+00  0.00000000000E+00  0.13083637943E+03  0.13083637946E+03  0.25500000920E-02 0.  1.
        2   -1    0    0  501    0  0.00000000000E+00  0.00000000000E+00 -0.94003865877E+03  0.94003865877E+03  0.25500000920E-02 0. -1.
    10030    2    1    2    0    0  0.00000000000E+00  0.00000000000E+00 -0.80920227933E+03  0.10708750382E+04  0.70140218036E+03 0.  0.
        3    1    3    3  502    0  0.44766134156E+02  0.63043927011E+02 -0.92686284905E+03  0.93008241283E+03  0.10100000352E+00 0. -1.
       -3    1    3    3    0  502 -0.44766134156E+02 -0.63043927011E+02  0.11766056972E+03  0.14079262540E+03  0.10100000352E+00 0.  1.
</event>
<event>
 5   0  0.2937617E-03  0.6992180E+03  0.7818609E-02  0.9718571E-01
        1   -1    0    0  501    0  0.00000000000E+00  0.00000000000E+00  0.43623586292E+03  0.43623586294E+03  0.50400001928E-02 0.  1.
       -1   -1    0    0    0  501  0.00000000000E+00  0.00000000000E+00 -0.28018429431E+03  0.28018429435E+03  0.50400001928E-02 0. -1.
    10030    2    1    2    0    0  0.00000000000E+00  0.00000000000E+00  0.15605156861E+03  0.71642015730E+03  0.69921795580E+03 0.  0.
        3    1    3    3  502    0 -0.70744768223E+02 -0.24487543404E+03  0.32319836366E+03  0.41161388813E+03  0.10100000352E+00 0.  1.
       -3    1    3    3    0  502  0.70744768223E+02  0.24487543404E+03 -0.16714679505E+03  0.30480626917E+03  0.10100000352E+00 0. -1.
</event>
<event>
 5   0  0.3013140E-03  0.7001753E+03  0.7818609E-02  0.9716932E-01
       -1   -1    0    0    0  501  0.00000000000E+00  0.00000000000E+00  0.28616927937E+03  0.28616927942E+03  0.50400001928E-02 0.  1.
        1   -1    0    0  501    0  0.00000000000E+00  0.00000000000E+00 -0.42828274321E+03  0.42828274324E+03  0.50400001928E-02 0. -1.
    10030    2    1    2    0    0  0.00000000000E+00  0.00000000000E+00 -0.14211346384E+03  0.71445202265E+03  0.70017530381E+03 0.  0.
        2    1    3    3  502    0 -0.12316220546E+03  0.16143444817E+03  0.21994480524E+03  0.29934215752E+03  0.25500000920E-02 0.  1.
       -2    1    3    3    0  502  0.12316220546E+03 -0.16143444817E+03 -0.36205826908E+03  0.41510986513E+03  0.25500000920E-02 0. -1.
</event>
<event>
 5   0  0.5023894E-03  0.6997569E+03  0.7818609E-02  0.9717648E-01
       -2   -1    0    0    0  501  0.00000000000E+00  0.00000000000E+00  0.20079652850E+03  0.20079652852E+03  0.25500000920E-02 0. -1.
        2   -1    0    0  501    0  0.00000000000E+00  0.00000000000E+00 -0.60964659905E+03  0.60964659905E+03  0.25500000920E-02 0.  1.
    10030    2    1    2    0    0  0.00000000000E+00  0.00000000000E+00 -0.40885007054E+03  0.81044312757E+03  0.69975687410E+03 0.  0.
        2    1    3    3  502    0  0.13424939939E+02  0.30541508019E+03 -0.40150707923E+03  0.50464495925E+03  0.25500000920E-02 0. -1.
       -2    1    3    3    0  502 -0.13424939939E+02 -0.30541508019E+03 -0.73429913165E+01  0.30579816832E+03  0.25500000920E-02 0.  1.
</event>
<event>
 5   0  0.2934483E-03  0.6985041E+03  0.7818609E-02  0.9719794E-01
       -1   -1    0    0    0  501  0.00000000000E+00  0.00000000000E+00  0.57794255291E+03  0.57794255293E+03  0.50400001928E-02 0.  1.
        1   -1    0    0  501    0  0.00000000000E+00  0.00000000000E+00 -0.21105382158E+03  0.21105382164E+03  0.50400001928E-02 0. -1.
    10030    2    1    2    0    0  0.00000000000E+00  0.00000000000E+00  0.36688873133E+03  0.78899637458E+03  0.69850407152E+03 0.  0.
        5    1    3    3  502    0  0.24441740754E+03  0.13957613727E+03  0.41694627519E+03  0.50307817841E+03  0.46999998093E+01 0.  1.
       -5    1    3    3    0  502 -0.24441740754E+03 -0.13957613727E+03 -0.50057543864E+02  0.28591819616E+03  0.46999998093E+01 0. -1.
</event>
<event>
 5   0  0.2913582E-03  0.7024672E+03  0.7818609E-02  0.9713022E-01
       -1   -1    0    0    0  501  0.00000000000E+00  0.00000000000E+00  0.25836563112E+03  0.25836563117E+03  0.50400001928E-02 0.  1.
        1   -1    0    0  501    0  0.00000000000E+00  0.00000000000E+00 -0.47748241117E+03  0.47748241120E+03  0.50400001928E-02 0. -1.
    10030    2    1    2    0    0  0.00000000000E+00  0.00000000000E+00 -0.21911678005E+03  0.73584804237E+03  0.70246720789E+03 0.  0.
        1    1    3    3  502    0 -0.66846052479E+01 -0.30161461848E+03 -0.29796337764E+03  0.42402622144E+03  0.50400001928E-02 0. -1.
       -1    1    3    3    0  502  0.66846052479E+01  0.30161461848E+03  0.78846597585E+02  0.31182182093E+03  0.50400001928E-02 0.  1.
</event>
<event>
 5   0  0.4878235E-03  0.6991368E+03  0.7818609E-02  0.9718709E-01
        2   -1    0    0  501    0  0.00000000000E+00  0.00000000000E+00  0.13326929481E+04  0.13326929481E+04  0.25500000920E-02 0. -1.
       -2   -1    0    0    0  501  0.00000000000E+00  0.00000000000E+00 -0.91692593596E+02  0.91692593632E+02  0.25500000920E-02 0.  1.
    10030    2    1    2    0    0  0.00000000000E+00  0.00000000000E+00  0.12410003545E+04  0.14243855417E+04  0.69913681895E+03 0.  0.
        4    1    3    3  502    0  0.25107054592E+03  0.18786550042E+03  0.93524646153E+03  0.98641645464E+03  0.12699999809E+01 0. -1.
       -4    1    3    3    0  502 -0.25107054592E+03 -0.18786550042E+03  0.30575389294E+03  0.43796908706E+03  0.12699999809E+01 0.  1.
</event>
<event>
 5   0  0.2913582E-03  0.6983274E+03  0.7818609E-02  0.9720097E-01
        1   -1    0    0  501    0  0.00000000000E+00  0.00000000000E+00  0.46126453530E+03  0.46126453533E+03  0.50400001928E-02 0. -1.
       -1   -1    0    0    0  501  0.00000000000E+00  0.00000000000E+00 -0.26430667160E+03  0.26430667165E+03  0.50400001928E-02 0.  1.
    10030    2    1    2    0    0  0.00000000000E+00  0.00000000000E+00  0.19695786370E+03  0.72557120698E+03  0.69832741342E+03 0.  0.
        1    1    3    3  502    0 -0.88337533881E+02 -0.58089336182E+02  0.44423365123E+03  0.45664146524E+03  0.50400001928E-02 0. -1.
       -1    1    3    3    0  502  0.88337533881E+02  0.58089336182E+02 -0.24727578753E+03  0.26892974174E+03  0.50400001928E-02 0.  1.
</event>
<event>
 5   0  0.4878235E-03  0.6995966E+03  0.7818609E-02  0.9717922E-01
        2   -1    0    0  501    0  0.00000000000E+00  0.00000000000E+00  0.41162712993E+03  0.41162712994E+03  0.25500000920E-02 0.  1.
       -2   -1    0    0    0  501  0.00000000000E+00  0.00000000000E+00 -0.29725652769E+03  0.29725652770E+03  0.25500000920E-02 0. -1.
    10030    2    1    2    0    0  0.00000000000E+00  0.00000000000E+00  0.11437060224E+03  0.70888365764E+03  0.69959660192E+03 0.  0.
        4    1    3    3  502    0  0.28281954318E+03  0.14858778107E+03 -0.87155751659E+02  0.33115398327E+03  0.12699999809E+01 0. -1.
       -4    1    3    3    0  502 -0.28281954318E+03 -0.14858778107E+03  0.20152635390E+03  0.37772967437E+03  0.12699999809E+01 0.  1.
</event>
<event>
 5   0  0.5076796E-03  0.7005471E+03  0.7818609E-02  0.9716297E-01
        2   -1    0    0  501    0  0.00000000000E+00  0.00000000000E+00  0.33108909133E+03  0.33108909134E+03  0.25500000920E-02 0.  1.
       -2   -1    0    0    0  501  0.00000000000E+00  0.00000000000E+00 -0.37056966084E+03  0.37056966085E+03  0.25500000920E-02 0. -1.
    10030    2    1    2    0    0  0.00000000000E+00  0.00000000000E+00 -0.39480569510E+02  0.70165875220E+03  0.70054713558E+03 0.  0.
        5    1    3    3  502    0  0.15682965410E+03 -0.20131073226E+03 -0.26001243894E+03  0.36434888463E+03  0.46999998093E+01 0. -1.
       -5    1    3    3    0  502 -0.15682965410E+03  0.20131073226E+03  0.22053186943E+03  0.33730986757E+03  0.46999998093E+01 0.  1.
</event>
<event>
 5   0  0.2938783E-03  0.6990372E+03  0.7818609E-02  0.9718880E-01
        1   -1    0    0  501    0  0.00000000000E+00  0.00000000000E+00  0.10226279461E+04  0.10226279461E+04  0.50400001928E-02 0. -1.
       -1   -1    0    0    0  501  0.00000000000E+00  0.00000000000E+00 -0.11946011480E+03  0.11946011491E+03  0.50400001928E-02 0.  1.
    10030    2    1    2    0    0  0.00000000000E+00  0.00000000000E+00  0.90316783125E+03  0.11420880610E+04  0.69903720046E+03 0.  0.
        4    1    3    3  502    0 -0.18741949144E+03  0.26245513622E+03  0.67171025351E+03  0.74512082367E+03  0.12699999809E+01 0. -1.
       -4    1    3    3    0  502  0.18741949144E+03 -0.26245513622E+03  0.23145757774E+03  0.39696723730E+03  0.12699999809E+01 0.  1.
</event>
<event>
 5   0  0.5076796E-03  0.6960216E+03  0.7818609E-02  0.9724060E-01
        2   -1    0    0  501    0  0.00000000000E+00  0.00000000000E+00  0.29965043805E+03  0.29965043806E+03  0.25500000920E-02 0. -1.
       -2   -1    0    0    0  501  0.00000000000E+00  0.00000000000E+00 -0.40417597115E+03  0.40417597116E+03  0.25500000920E-02 0.  1.
    10030    2    1    2    0    0  0.00000000000E+00  0.00000000000E+00 -0.10452553310E+03  0.70382640922E+03  0.69602157097E+03 0.  0.
        5    1    3    3  502    0  0.25791770795E+03  0.26117381015E+00  0.18395420624E+03  0.31683253034E+03  0.46999998093E+01 0. -1.
       -5    1    3    3    0  502 -0.25791770795E+03 -0.26117381015E+00 -0.28847973934E+03  0.38699387889E+03  0.46999998093E+01 0.  1.
</event>
<event>
 5   0  0.1981750E-03  0.7000486E+03  0.7818609E-02  0.9717149E-01
        4   -1    0    0  501    0  0.00000000000E+00  0.00000000000E+00  0.32916316191E+03  0.32916561190E+03  0.12699999809E+01 0.  1.
       -4   -1    0    0    0  501  0.00000000000E+00  0.00000000000E+00 -0.37220267105E+03  0.37220483774E+03  0.12699999809E+01 0. -1.
    10030    2    1    2    0    0  0.00000000000E+00  0.00000000000E+00 -0.43039509141E+02  0.70137044965E+03  0.70004864709E+03 0.  0.
        3    1    3    3  502    0  0.57646970993E+02  0.11768261884E+01  0.32437472652E+03  0.32945945364E+03  0.10100000352E+00 0.  1.
       -3    1    3    3    0  502 -0.57646970993E+02 -0.11768261884E+01 -0.36741423566E+03  0.37191099601E+03  0.10100000352E+00 0. -1.
</event>
<event>
 5   0  0.1981750E-03  0.6987001E+03  0.7818609E-02  0.9719458E-01
        3   -1    0    0  501    0  0.00000000000E+00  0.00000000000E+00  0.96010462018E+02  0.96010515143E+02  0.10100000352E+00 0.  1.
       -3   -1    0    0    0  501  0.00000000000E+00  0.00000000000E+00 -0.12711677533E+04  0.12711677573E+04  0.10100000352E+00 0. -1.
    10030    2    1    2    0    0  0.00000000000E+00  0.00000000000E+00 -0.11751572913E+04  0.13671782725E+04  0.69870005684E+03 0.  0.
        5    1    3    3  502    0 -0.75641711380E+02  0.34080035572E+03 -0.61208108585E+03  0.70465019450E+03  0.46999998093E+01 0. -1.
       -5    1    3    3    0  502  0.75641711380E+02 -0.34080035572E+03 -0.56307620545E+03  0.66252807797E+03  0.46999998093E+01 0.  1.
</event>
<event>
 5   0  0.5023894E-03  0.6992056E+03  0.7818609E-02  0.9718592E-01
        2   -1    0    0  501    0  0.00000000000E+00  0.00000000000E+00  0.54744551627E+03  0.54744551628E+03  0.25500000920E-02 0. -1.
       -2   -1    0    0    0  501  0.00000000000E+00  0.00000000000E+00 -0.22325896507E+03  0.22325896508E+03  0.25500000920E-02 0.  1.
    10030    2    1    2    0    0  0.00000000000E+00  0.00000000000E+00  0.32418655121E+03  0.77070448136E+03  0.69920560468E+03 0.  0.
        2    1    3    3  502    0  0.11181876384E+03  0.33073832256E+03  0.14204414426E+03  0.37691884124E+03  0.25500000920E-02 0. -1.
       -2    1    3    3    0  502 -0.11181876384E+03 -0.33073832256E+03  0.18214240694E+03  0.39378564012E+03  0.25500000920E-02 0.  1.
</event>
<event>
 5   0  0.2937617E-03  0.6991034E+03  0.7818609E-02  0.9718767E-01
        1   -1    0    0  501    0  0.00000000000E+00  0.00000000000E+00  0.21770977667E+03  0.21770977673E+03  0.50400001928E-02 0. -1.
       -1   -1    0    0    0  501  0.00000000000E+00  0.00000000000E+00 -0.56123525851E+03  0.56123525853E+03  0.50400001928E-02 0.  1.
    10030    2    1    2    0    0  0.00000000000E+00  0.00000000000E+00 -0.34352548184E+03  0.77894503526E+03  0.69910343389E+03 0.  0.
        3    1    3    3  502    0  0.13835208460E+02 -0.34437781129E+03 -0.23672105511E+03  0.41812002826E+03  0.10100000352E+00 0. -1.
       -3    1    3    3    0  502 -0.13835208460E+02  0.34437781129E+03 -0.10680442673E+03  0.36082500700E+03  0.10100000352E+00 0.  1.
</event>
</LesHouchesEvents>
