<LesHouchesEvents version="3.0">
<header>
<!--
#*********************************************************************
#                                                                    *
#                        MadGraph5_aMC@NLO                           *
#                                                                    *
#                           Going Beyond                             *
#                                                                    *
#                   http://madgraph.hep.uiuc.edu                     *
#                   http://madgraph.phys.ucl.ac.be                   *
#                   http://amcatnlo.cern.ch                          *
#                                                                    *
#                     The MadGraph5_aMC@NLO team                     *
#                                                                    *
#....................................................................*
#                                                                    *
# This file contains all the information necessary to reproduce      *
# the events generated:                                              *
#                                                                    *
# 1. software version                                                *
# 2. proc_card          : code generation info including model       *
# 3. param_card         : model primary parameters in the LH format  *
# 4. run_card           : running parameters (collider and cuts)     *
# 5. pythia_card        : present only if pythia has been run        *
# 6. pgs_card           : present only if pgs has been run           *
# 7. delphes_cards      : present only if delphes has been run       *
#                                                                    *
#                                                                    *
#*********************************************************************
-->
<MGVersion>
#5.2.2.3
</MGVersion>
<MG5ProcCard>
#************************************************************
#*                     MadGraph5_aMC@NLO                    *
#*                                                          *
#*                *                       *                 *
#*                  *        * *        *                   *
#*                    * * * * 5 * * * *                     *
#*                  *        * *        *                   *
#*                *                       *                 *
#*                                                          *
#*                                                          *
#*         VERSION 2.2.3                 2015-02-10         *
#*                                                          *
#*    The MadGraph5_aMC@NLO Development Team - Find us at   *
#*    https://server06.fynu.ucl.ac.be/projects/madgraph     *
#*                                                          *
#************************************************************
#*                                                          *
#*               Command File for MadGraph5_aMC@NLO         *
#*                                                          *
#*     run as ./bin/mg5_aMC  filename                       *
#*                                                          *
#************************************************************
set group_subprocesses Auto
set ignore_six_quark_processes False
set loop_optimized_output True
set gauge unitary
set complex_mass_scheme False
import model sm
define p = g u c d s u~ c~ d~ s~
define j = g u c d s u~ c~ d~ s~
define l+ = e+ mu+
define l- = e- mu-
define vl = ve vm vt
define vl~ = ve~ vm~ vt~
import model Zprime_UFO
generate p p > zph, zph > j j
add process p p > zph, zph > b b~
output Dijet_signal
</MG5ProcCard>
<MGProcCard>
#*********************************************************************
#                        MadGraph/MadEvent                           *
#                   http://madgraph.hep.uiuc.edu                     *
#                                                                    *
#                          proc_card.dat                             *
#*********************************************************************
#                                                                    *
#            This Files is generated by MADGRAPH 5                   *
#                                                                    *
# WARNING: This Files is generated for MADEVENT (compatibility issue)*
#          This files is NOT a valid MG4 proc_card.dat               *
#          Running this in MG4 will NEVER reproduce the result of MG5*
#                                                                    *
#*********************************************************************
#*********************************************************************
# Process(es) requested : mg2 input                                  *
#*********************************************************************
# Begin PROCESS # This is TAG. Do not modify this line
p p > zph , zph > j j           #Process
# Be carefull the coupling are here in MG5 convention
          
end_coup           # End the couplings input

done               # this tells MG there are no more procs
# End PROCESS  # This is TAG. Do not modify this line
#*********************************************************************
# Model information                                                  *
#*********************************************************************
# Begin MODEL  # This is TAG. Do not modify this line
Zprime_UFO
# End   MODEL  # This is TAG. Do not modify this line
#*********************************************************************
# Start multiparticle definitions                                    *
#*********************************************************************
# Begin MULTIPARTICLES # This is TAG. Do not modify this line

# End  MULTIPARTICLES # This is TAG. Do not modify this line
</MGProcCard>
<MGRunCard>
#*********************************************************************
#                       MadGraph5_aMC@NLO                            *
#                                                                    *
#                     run_card.dat MadEvent                          *
#                                                                    *
#  This file is used to set the parameters of the run.               *
#                                                                    *
#  Some notation/conventions:                                        *
#                                                                    *
#   Lines starting with a '# ' are info or comments                  *
#                                                                    *
#   mind the format:   value    = variable     ! comment             *
#*********************************************************************
#
#*******************                                                 
# Running parameters
#*******************                                                 
#                                                                    
#*********************************************************************
# Tag name for the run (one word)                                    *
#*********************************************************************
  tag_1     = run_tag ! name of the run 
#*********************************************************************
# Run to generate the grid pack                                      *
#*********************************************************************
  .false.     = gridpack  !True = setting up the grid pack
#*********************************************************************
# Number of events and rnd seed                                      *
# Warning: Do not generate more than 1M events in a single run       *
# If you want to run Pythia, avoid more than 50k events in a run.    *
#*********************************************************************
  2000 = nevents ! Number of unweighted events requested 
 1857 = iseed   ! rnd seed (0=assigned automatically=default))
#*********************************************************************
# Collider type and energy                                           *
# lpp: 0=No PDF, 1=proton, -1=antiproton, 2=photon from proton,      *
#                                         3=photon from electron     *
#*********************************************************************
        1     = lpp1    ! beam 1 type 
        1     = lpp2    ! beam 2 type
     4000     = ebeam1  ! beam 1 total energy in GeV
     4000     = ebeam2  ! beam 2 total energy in GeV
#*********************************************************************
# Beam polarization from -100 (left-handed) to 100 (right-handed)    *
#*********************************************************************
        0     = polbeam1 ! beam polarization for beam 1
        0     = polbeam2 ! beam polarization for beam 2
#*********************************************************************
# PDF CHOICE: this automatically fixes also alpha_s and its evol.    *
#*********************************************************************
 'nn23lo1'    = pdlabel     ! PDF set                                     
 230000    = lhaid     ! if pdlabel=lhapdf, this is the lhapdf number
#*********************************************************************
# Renormalization and factorization scales                           *
#*********************************************************************
 F        = fixed_ren_scale  ! if .true. use fixed ren scale
 F        = fixed_fac_scale  ! if .true. use fixed fac scale
 91.1880  = scale            ! fixed ren scale
 91.1880  = dsqrt_q2fact1    ! fixed fact scale for pdf1
 91.1880  = dsqrt_q2fact2    ! fixed fact scale for pdf2
 1        = scalefact        ! scale factor for event-by-event scales
#*********************************************************************
# Matching - Warning! ickkw > 1 is still beta
#*********************************************************************
 0        = ickkw            ! 0 no matching, 1 MLM, 2 CKKW matching
 1        = highestmult      ! for ickkw=2, highest mult group
 1        = ktscheme         ! for ickkw=1, 1 Durham kT, 2 Pythia pTE
 1        = alpsfact         ! scale factor for QCD emission vx
 F        = chcluster        ! cluster only according to channel diag
 T        = pdfwgt           ! for ickkw=1, perform pdf reweighting
 5        = asrwgtflavor     ! highest quark flavor for a_s reweight
 T        = clusinfo         ! include clustering tag in output
 3.0      = lhe_version       ! Change the way clustering information pass to shower.        
#*********************************************************************
#**********************************************************
#
#**********************************************************
# Automatic ptj and mjj cuts if xqcut > 0
# (turn off for VBF and single top processes)
#**********************************************************
   T  = auto_ptj_mjj  ! Automatic setting of ptj and mjj
#**********************************************************
#                                                                    
#**********************************
# BW cutoff (M+/-bwcutoff*Gamma)
#**********************************
  15  = bwcutoff      ! (M+/-bwcutoff*Gamma)
#**********************************************************
# Apply pt/E/eta/dr/mij cuts on decay products or not
# (note that etmiss/ptll/ptheavy/ht/sorted cuts always apply)
#**********************************************************
   T  = cut_decays    ! Cut decay products 
#*************************************************************
# Number of helicities to sum per event (0 = all helicities)
# 0 gives more stable result, but longer run time (needed for
# long decay chains e.g.).
# Use >=2 if most helicities contribute, e.g. pure QCD.
#*************************************************************
   0  = nhel          ! Number of helicities used per event
#*******************                                                 
# Standard Cuts
#*******************                                                 
#                                                                    
#*********************************************************************
# Minimum and maximum pt's (for max, -1 means no cut)                *
#*********************************************************************
 20  = ptj       ! minimum pt for the jets 
  0  = ptb       ! minimum pt for the b 
 10  = pta       ! minimum pt for the photons 
 10  = ptl       ! minimum pt for the charged leptons 
  0  = misset    ! minimum missing Et (sum of neutrino's momenta)
  0  = ptheavy   ! minimum pt for one heavy final state
 1.0 = ptonium   ! minimum pt for the quarkonium states
 -1  = ptjmax    ! maximum pt for the jets
 -1  = ptbmax    ! maximum pt for the b
 -1  = ptamax    ! maximum pt for the photons
 -1  = ptlmax    ! maximum pt for the charged leptons
 -1  = missetmax ! maximum missing Et (sum of neutrino's momenta)
#*********************************************************************
# Minimum and maximum E's (in the center of mass frame)              *
#*********************************************************************
  0  = ej     ! minimum E for the jets 
  0  = eb     ! minimum E for the b 
  0  = ea     ! minimum E for the photons 
  0  = el     ! minimum E for the charged leptons 
 -1   = ejmax ! maximum E for the jets
 -1   = ebmax ! maximum E for the b
 -1   = eamax ! maximum E for the photons
 -1   = elmax ! maximum E for the charged leptons
#*********************************************************************
# Maximum and minimum absolute rapidity (for max, -1 means no cut)   *
#*********************************************************************
   5  = etaj    ! max rap for the jets 
  -1  = etab    ! max rap for the b
 2.5  = etaa    ! max rap for the photons 
 2.5  = etal    ! max rap for the charged leptons 
 0.6  = etaonium ! max rap for the quarkonium states
   0  = etajmin ! min rap for the jets
   0  = etabmin ! min rap for the b
   0  = etaamin ! min rap for the photons
   0  = etalmin ! main rap for the charged leptons
#*********************************************************************
# Minimum and maximum DeltaR distance                                *
#*********************************************************************
 0.4 = drjj    ! min distance between jets 
 0   = drbb    ! min distance between b's 
 0.4 = drll    ! min distance between leptons 
 0.4 = draa    ! min distance between gammas 
 0   = drbj    ! min distance between b and jet 
 0.4 = draj    ! min distance between gamma and jet 
 0.4 = drjl    ! min distance between jet and lepton 
 0   = drab    ! min distance between gamma and b 
 0   = drbl    ! min distance between b and lepton 
 0.4 = dral    ! min distance between gamma and lepton 
 -1  = drjjmax ! max distance between jets
 -1  = drbbmax ! max distance between b's
 -1  = drllmax ! max distance between leptons
 -1  = draamax ! max distance between gammas
 -1  = drbjmax ! max distance between b and jet
 -1  = drajmax ! max distance between gamma and jet
 -1  = drjlmax ! max distance between jet and lepton
 -1  = drabmax ! max distance between gamma and b
 -1  = drblmax ! max distance between b and lepton
 -1  = dralmax ! maxdistance between gamma and lepton
#*********************************************************************
# Minimum and maximum invariant mass for pairs                       *
# WARNING: for four lepton final state mmll cut require to have      *
#          different lepton masses for each flavor!                  *           
#*********************************************************************
 0   = mmjj    ! min invariant mass of a jet pair 
 0   = mmbb    ! min invariant mass of a b pair 
 0   = mmaa    ! min invariant mass of gamma gamma pair
 0   = mmll    ! min invariant mass of l+l- (same flavour) lepton pair
 -1  = mmjjmax ! max invariant mass of a jet pair
 -1  = mmbbmax ! max invariant mass of a b pair
 -1  = mmaamax ! max invariant mass of gamma gamma pair
 -1  = mmllmax ! max invariant mass of l+l- (same flavour) lepton pair
#*********************************************************************
# Minimum and maximum invariant mass for all letpons                 *
#*********************************************************************
 0   = mmnl    ! min invariant mass for all letpons (l+- and vl) 
 -1  = mmnlmax ! max invariant mass for all letpons (l+- and vl) 
#*********************************************************************
# Minimum and maximum pt for 4-momenta sum of leptons                *
#*********************************************************************
 0   = ptllmin  ! Minimum pt for 4-momenta sum of leptons(l and vl)
 -1  = ptllmax  ! Maximum pt for 4-momenta sum of leptons(l and vl)
#*********************************************************************
# Inclusive cuts                                                     *
#*********************************************************************
 0  = xptj ! minimum pt for at least one jet  
 0  = xptb ! minimum pt for at least one b 
 0  = xpta ! minimum pt for at least one photon 
 0  = xptl ! minimum pt for at least one charged lepton 
#*********************************************************************
# Control the pt's of the jets sorted by pt                          *
#*********************************************************************
 0   = ptj1min ! minimum pt for the leading jet in pt
 0   = ptj2min ! minimum pt for the second jet in pt
 0   = ptj3min ! minimum pt for the third jet in pt
 0   = ptj4min ! minimum pt for the fourth jet in pt
 -1  = ptj1max ! maximum pt for the leading jet in pt 
 -1  = ptj2max ! maximum pt for the second jet in pt
 -1  = ptj3max ! maximum pt for the third jet in pt
 -1  = ptj4max ! maximum pt for the fourth jet in pt
 0   = cutuse  ! reject event if fails any (0) / all (1) jet pt cuts
#*********************************************************************
# Control the pt's of leptons sorted by pt                           *
#*********************************************************************
 0   = ptl1min ! minimum pt for the leading lepton in pt
 0   = ptl2min ! minimum pt for the second lepton in pt
 0   = ptl3min ! minimum pt for the third lepton in pt
 0   = ptl4min ! minimum pt for the fourth lepton in pt
 -1  = ptl1max ! maximum pt for the leading lepton in pt 
 -1  = ptl2max ! maximum pt for the second lepton in pt
 -1  = ptl3max ! maximum pt for the third lepton in pt
 -1  = ptl4max ! maximum pt for the fourth lepton in pt
#*********************************************************************
# Control the Ht(k)=Sum of k leading jets                            *
#*********************************************************************
 0   = htjmin ! minimum jet HT=Sum(jet pt)
 -1  = htjmax ! maximum jet HT=Sum(jet pt)
 0   = ihtmin  !inclusive Ht for all partons (including b)
 -1  = ihtmax  !inclusive Ht for all partons (including b)
 0   = ht2min ! minimum Ht for the two leading jets
 0   = ht3min ! minimum Ht for the three leading jets
 0   = ht4min ! minimum Ht for the four leading jets
 -1  = ht2max ! maximum Ht for the two leading jets
 -1  = ht3max ! maximum Ht for the three leading jets
 -1  = ht4max ! maximum Ht for the four leading jets
#***********************************************************************
# Photon-isolation cuts, according to hep-ph/9801442                   *
# When ptgmin=0, all the other parameters are ignored                  *
# When ptgmin>0, pta and draj are not going to be used                 *
#***********************************************************************
   0 = ptgmin ! Min photon transverse momentum
 0.4 = R0gamma ! Radius of isolation code
 1.0 = xn ! n parameter of eq.(3.4) in hep-ph/9801442
 1.0 = epsgamma ! epsilon_gamma parameter of eq.(3.4) in hep-ph/9801442
 .true. = isoEM ! isolate photons from EM energy (photons and leptons)
#*********************************************************************
# WBF cuts                                                           *
#*********************************************************************
 0   = xetamin ! minimum rapidity for two jets in the WBF case  
 0   = deltaeta ! minimum rapidity for two jets in the WBF case 
#*********************************************************************
# KT DURHAM CUT                                                      *
#*********************************************************************
 -1    =  ktdurham        
 0.4  =  dparameter 
#*********************************************************************
# maximal pdg code for quark to be considered as a light jet         *
# (otherwise b cuts are applied)                                     *
#*********************************************************************
 4 = maxjetflavor    ! Maximum jet pdg code
#*********************************************************************
# Jet measure cuts                                                   *
#*********************************************************************
 0   = xqcut   ! minimum kt jet measure between partons
#*********************************************************************
#
#*********************************************************************
# Store info for systematics studies                                 *
# WARNING: If use_syst is T, matched Pythia output is                *
#          meaningful ONLY if plotted taking matchscale              *
#          reweighting into account!                                 *
#*********************************************************************
   F  = use_syst      ! Enable systematics studies
#
#**************************************
# Parameter of the systematics study
#  will be used by SysCalc (if installed)
#**************************************                                  
#
0.5 1 2 = sys_scalefact  # factorization/renormalization scale factor
0.5 1 2 = sys_alpsfact  # \alpha_s emission scale factors
30 50 = sys_matchscale # variation of merging scale
# PDF sets and number of members (0 or none for all members).
CT10nlo.LHgrid = sys_pdf # matching scales
# MSTW2008nlo68cl.LHgrid 1  = sys_pdf
</MGRunCard>
<slha>
######################################################################
## PARAM_CARD AUTOMATICALY GENERATED BY MG5 FOLLOWING UFO MODEL   ####
######################################################################
##                                                                  ##
##  Width set on Auto will be computed following the information    ##
##        present in the decay.py files of the model.               ##
##        See  arXiv:1402.1178 for more details.                    ##
##                                                                  ##
######################################################################

###################################
## INFORMATION FOR CKMBLOCK
###################################
Block ckmblock 
    1 2.277360e-01 # cabi 

###################################
## INFORMATION FOR FRBLOCK
###################################
Block frblock 
    1 1.000000e+00 # gz 

###################################
## INFORMATION FOR MASS
###################################
Block mass 
    1 5.040000e-03 # MD 
    2 2.550000e-03 # MU 
    3 1.010000e-01 # MS 
    4 1.270000e+00 # MC 
    5 4.700000e+00 # MB 
    6 1.720000e+02 # MT 
   11 5.110000e-04 # Me 
   13 1.056600e-01 # MM 
   15 1.777000e+00 # MTA 
   23 9.118760e+01 # MZ 
   25 1.200000e+02 # MH 
  10030 1.200000e+03 # MZph 
  10031 3.000000e+02 # MZpl 
## Dependent parameters, given by model restrictions.
## Those values should be edited following the 
## analytical expression. MG5 ignores those values 
## but they are important for interfacing the output of MG5
## to external program such as Pythia.
  12 0.000000 # ve : 0.0 
  14 0.000000 # vm : 0.0 
  16 0.000000 # vt : 0.0 
  21 0.000000 # g : 0.0 
  22 0.000000 # a : 0.0 
  24 79.824360 # w+ : cmath.sqrt(MZ__exp__2/2. + cmath.sqrt(MZ__exp__4/4. - (aEW*cmath.pi*MZ__exp__2)/(Gf*sqrt__2))) 

###################################
## INFORMATION FOR SMINPUTS
###################################
Block sminputs 
    1 1.279000e+02 # aEWM1 
    2 1.166370e-05 # Gf 
    3 1.184000e-01 # aS 

###################################
## INFORMATION FOR YUKAWA
###################################
Block yukawa 
    1 5.040000e-03 # ymdo 
    2 2.550000e-03 # ymup 
    3 1.010000e-01 # yms 
    4 1.270000e+00 # ymc 
    5 4.700000e+00 # ymb 
    6 1.720000e+02 # ymt 
   11 5.110000e-04 # yme 
   13 1.056600e-01 # ymm 
   15 1.777000e+00 # ymtau 

###################################
## INFORMATION FOR DECAY
###################################
DECAY   6 1.508336e+00 # WT 
DECAY  23 2.495200e+00 # WZ 
DECAY  24 2.085000e+00 # WW 
DECAY  25 5.753088e-03 # WH 
## Dependent parameters, given by model restrictions.
## Those values should be edited following the 
## analytical expression. MG5 ignores those values 
## but they are important for interfacing the output of MG5
## to external program such as Pythia.
DECAY  1 0.000000 # d : 0.0 
DECAY  2 0.000000 # u : 0.0 
DECAY  3 0.000000 # s : 0.0 
DECAY  4 0.000000 # c : 0.0 
DECAY  5 0.000000 # b : 0.0 
DECAY  11 0.000000 # e- : 0.0 
DECAY  12 0.000000 # ve : 0.0 
DECAY  13 0.000000 # mu- : 0.0 
DECAY  14 0.000000 # vm : 0.0 
DECAY  15 0.000000 # ta- : 0.0 
DECAY  16 0.000000 # vt : 0.0 
DECAY  21 0.000000 # g : 0.0 
DECAY  22 0.000000 # a : 0.0 
DECAY  10030 0.308725 # zph : (gz__exp__2*MZph*(5 + cmath.sqrt(1 - (4*MT__exp__2)/MZph__exp__2)))/(144.*cmath.pi) 
DECAY  10031 0.132629 # zpl : (5*gz__exp__2*MZpl)/(144.*cmath.pi) 
#===========================================================
# QUANTUM NUMBERS OF NEW STATE(S) (NON SM PDG CODE)
#===========================================================

Block QNUMBERS 10030  # zph 
        1 0  # 3 times electric charge
        2 3  # number of spin states (2S+1)
        3 1  # colour rep (1: singlet, 3: triplet, 8: octet)
        4 0  # Particle/Antiparticle distinction (0=own anti)
Block QNUMBERS 10031  # zpl 
        1 0  # 3 times electric charge
        2 3  # number of spin states (2S+1)
        3 1  # colour rep (1: singlet, 3: triplet, 8: octet)
        4 0  # Particle/Antiparticle distinction (0=own anti)
</slha>
## END BANNER##
<MGGenerationInfo>
#  Number of Events        :         4016
#  Integrated weight (pb)  :  0.77430E+00
#  Max wgt                 :  0.25802E-03
#  Average wgt             :  0.19280E-03
</MGGenerationInfo>
</header>
<init>
     2212     2212  0.40000000000E+04  0.40000000000E+04 0 0  247000  247000 2   1
  0.77427231910E+00  0.14801470835E-02  0.25802440000E-03   0
</init>
<event>
 5   0  0.2580244E-03  0.1203473E+04  0.7818609E-02  0.9109822E-01
        2   -1    0    0  501    0  0.00000000000E+00  0.00000000000E+00  0.12576176733E+04  0.12576176733E+04  0.25500000920E-02 0. -1.
       -2   -1    0    0    0  501  0.00000000000E+00  0.00000000000E+00 -0.28791473753E+03  0.28791473754E+03  0.25500000920E-02 0.  1.
    10030    2    1    2    0    0  0.00000000000E+00  0.00000000000E+00  0.96970293575E+03  0.15455324108E+04  0.12034727456E+04 0.  0.
        1    1    3    3  502    0  0.58746212802E+03  0.12812182069E+03  0.51523394659E+03  0.79182887831E+03  0.50400001928E-02 0. -1.
       -1    1    3    3    0  502 -0.58746212802E+03 -0.12812182069E+03  0.45446898916E+03  0.75370353252E+03  0.50400001928E-02 0.  1.
</event>
<event>
 5   0  0.2580244E-03  0.1189223E+04  0.7818609E-02  0.9122342E-01
        2   -1    0    0  501    0  0.00000000000E+00  0.00000000000E+00  0.16507946345E+04  0.16507946345E+04  0.25500000920E-02 0.  1.
       -2   -1    0    0    0  501  0.00000000000E+00  0.00000000000E+00 -0.21417750623E+03  0.21417750625E+03  0.25500000920E-02 0. -1.
    10030    2    1    2    0    0  0.00000000000E+00  0.00000000000E+00  0.14366171283E+04  0.18649721408E+04  0.11892234074E+04 0.  0.
        1    1    3    3  502    0 -0.19708696665E+03 -0.26682311912E+03  0.14922014955E+04  0.15286278659E+04  0.50400001928E-02 0.  1.
       -1    1    3    3    0  502  0.19708696665E+03  0.26682311912E+03 -0.55584367199E+02  0.33634427485E+03  0.50400001928E-02 0. -1.
</event>
<event>
 5   0  0.2517023E-03  0.1194894E+04  0.7818609E-02  0.9117337E-01
        2   -1    0    0  501    0  0.00000000000E+00  0.00000000000E+00  0.14711335511E+04  0.14711335511E+04  0.25500000920E-02 0.  1.
       -2   -1    0    0    0  501  0.00000000000E+00  0.00000000000E+00 -0.24263136632E+03  0.24263136634E+03  0.25500000920E-02 0. -1.
    10030    2    1    2    0    0  0.00000000000E+00  0.00000000000E+00  0.12285021848E+04  0.17137649175E+04  0.11948943779E+04 0.  0.
        3    1    3    3  502    0  0.41045834690E+03  0.15414600058E+03  0.32179293730E+02  0.43962775297E+03  0.10100000352E+00 0. -1.
       -3    1    3    3    0  502 -0.41045834690E+03 -0.15414600058E+03  0.11963228911E+04  0.12741371645E+04  0.10100000352E+00 0.  1.
</event>
<event>
 5   0  0.2580244E-03  0.1216808E+04  0.7818609E-02  0.9098271E-01
       -2   -1    0    0    0  501  0.00000000000E+00  0.00000000000E+00  0.50590844864E+03  0.50590844865E+03  0.25500000920E-02 0. -1.
        2   -1    0    0  501    0  0.00000000000E+00  0.00000000000E+00 -0.73166441332E+03  0.73166441332E+03  0.25500000920E-02 0.  1.
    10030    2    1    2    0    0  0.00000000000E+00  0.00000000000E+00 -0.22575596468E+03  0.12375728620E+04  0.12168076401E+04 0.  0.
        1    1    3    3  502    0 -0.33270477251E+03  0.50772955561E+03 -0.71272166053E+02  0.61119676780E+03  0.50400001928E-02 0.  1.
       -1    1    3    3    0  502  0.33270477251E+03 -0.50772955561E+03 -0.15448379863E+03  0.62637609417E+03  0.50400001928E-02 0. -1.
</event>
<event>
 5   0  0.2517023E-03  0.1197134E+04  0.7818609E-02  0.9115369E-01
        2   -1    0    0  501    0  0.00000000000E+00  0.00000000000E+00  0.21334054409E+04  0.21334054409E+04  0.25500000920E-02 0.  1.
       -2   -1    0    0    0  501  0.00000000000E+00  0.00000000000E+00 -0.16793918511E+03  0.16793918513E+03  0.25500000920E-02 0. -1.
    10030    2    1    2    0    0  0.00000000000E+00  0.00000000000E+00  0.19654662558E+04  0.23013446260E+04  0.11971338626E+04 0.  0.
        3    1    3    3  502    0  0.19405938446E+02  0.59066043114E+03  0.11653694810E+04  0.13066531188E+04  0.10100000352E+00 0.  1.
       -3    1    3    3    0  502 -0.19405938446E+02 -0.59066043114E+03  0.80009677479E+03  0.99469150725E+03  0.10100000352E+00 0. -1.
</event>
<event>
 5   0  0.1404833E-03  0.1227056E+04  0.7818609E-02  0.9089499E-01
        1   -1    0    0  501    0  0.00000000000E+00  0.00000000000E+00  0.13908967950E+04  0.13908967951E+04  0.50400001928E-02 0. -1.
       -1   -1    0    0    0  501  0.00000000000E+00  0.00000000000E+00 -0.27062869426E+03  0.27062869430E+03  0.50400001928E-02 0.  1.
    10030    2    1    2    0    0  0.00000000000E+00  0.00000000000E+00  0.11202681008E+04  0.16615254894E+04  0.12270559621E+04 0.  0.
        1    1    3    3  502    0  0.25279075822E+03 -0.55828021471E+03  0.59929978002E+03  0.85716987344E+03  0.50400001928E-02 0. -1.
       -1    1    3    3    0  502 -0.25279075822E+03  0.55828021471E+03  0.52096832077E+03  0.80435561592E+03  0.50400001928E-02 0.  1.
</event>
<event>
 5   0  0.1403154E-03  0.1193001E+04  0.7818609E-02  0.9119005E-01
        1   -1    0    0  501    0  0.00000000000E+00  0.00000000000E+00  0.10010003168E+04  0.10010003168E+04  0.50400001928E-02 0.  1.
       -1   -1    0    0    0  501  0.00000000000E+00  0.00000000000E+00 -0.35545732401E+03  0.35545732404E+03  0.50400001928E-02 0. -1.
    10030    2    1    2    0    0  0.00000000000E+00  0.00000000000E+00  0.64554299276E+03  0.13564576408E+04  0.11930010796E+04 0.  0.
        3    1    3    3  502    0 -0.10113068810E+03  0.42971939607E+03 -0.13334886909E+03  0.46115952394E+03  0.10100000352E+00 0. -1.
       -3    1    3    3    0  502  0.10113068810E+03 -0.42971939607E+03  0.77889186186E+03  0.89529811689E+03  0.10100000352E+00 0.  1.
</event>
<event>
 5   0  0.2580244E-03  0.1194162E+04  0.7818609E-02  0.9117982E-01
       -2   -1    0    0    0  501  0.00000000000E+00  0.00000000000E+00  0.47141325114E+03  0.47141325115E+03  0.25500000920E-02 0. -1.
        2   -1    0    0  501    0  0.00000000000E+00  0.00000000000E+00 -0.75624848688E+03  0.75624848688E+03  0.25500000920E-02 0.  1.
    10030    2    1    2    0    0  0.00000000000E+00  0.00000000000E+00 -0.28483523574E+03  0.12276617380E+04  0.11941617275E+04 0.  0.
        1    1    3    3  502    0  0.63781056152E+01 -0.40212214409E+03  0.31128200673E+03  0.50856601020E+03  0.50400001928E-02 0. -1.
       -1    1    3    3    0  502 -0.63781056152E+01  0.40212214409E+03 -0.59611724246E+03  0.71909572783E+03  0.50400001928E-02 0.  1.
</event>
<event>
 5   0  0.1423024E-03  0.1236402E+04  0.7818609E-02  0.9081577E-01
       -1   -1    0    0    0  501  0.00000000000E+00  0.00000000000E+00  0.12165733873E+04  0.12165733873E+04  0.50400001928E-02 0. -1.
        1   -1    0    0  501    0  0.00000000000E+00  0.00000000000E+00 -0.31413858823E+03  0.31413858827E+03  0.50400001928E-02 0.  1.
    10030    2    1    2    0    0  0.00000000000E+00  0.00000000000E+00  0.90243479906E+03  0.15307119756E+04  0.12364022750E+04 0.  0.
        2    1    3    3  502    0 -0.11725394829E+03  0.56493141169E+03  0.72604117893E+03  0.92737898499E+03  0.25500000920E-02 0. -1.
       -2    1    3    3    0  502  0.11725394829E+03 -0.56493141169E+03  0.17639362013E+03  0.60333299059E+03  0.25500000920E-02 0.  1.
</event>
<event>
 5   0  0.2580244E-03  0.1199904E+04  0.7818609E-02  0.9112940E-01
        2   -1    0    0  501    0  0.00000000000E+00  0.00000000000E+00  0.60902239326E+03  0.60902239326E+03  0.25500000920E-02 0.  1.
       -2   -1    0    0    0  501  0.00000000000E+00  0.00000000000E+00 -0.59101717056E+03  0.59101717057E+03  0.25500000920E-02 0. -1.
    10030    2    1    2    0    0  0.00000000000E+00  0.00000000000E+00  0.18005222693E+02  0.12000395638E+04  0.11999044823E+04 0.  0.
        1    1    3    3  502    0  0.45218120297E+03 -0.24201608934E+03 -0.30232500251E+03  0.59534866674E+03  0.50400001928E-02 0. -1.
       -1    1    3    3    0  502 -0.45218120297E+03  0.24201608934E+03  0.32033022521E+03  0.60469089709E+03  0.50400001928E-02 0.  1.
</event>
<event>
 5   0  0.9678750E-04  0.1194460E+04  0.7818609E-02  0.9117720E-01
        4   -1    0    0  501    0  0.00000000000E+00  0.00000000000E+00  0.61004216375E+03  0.61004348571E+03  0.12699999809E+01 0. -1.
       -4   -1    0    0    0  501  0.00000000000E+00  0.00000000000E+00 -0.58468405306E+03  0.58468543235E+03  0.12699999809E+01 0.  1.
    10030    2    1    2    0    0  0.00000000000E+00  0.00000000000E+00  0.25358110687E+02  0.11947289181E+04  0.11944597749E+04 0.  0.
        4    1    3    3  502    0  0.48832862382E+03  0.10556851832E+03  0.33997193112E+03  0.60431124742E+03  0.12699999809E+01 0. -1.
       -4    1    3    3    0  502 -0.48832862382E+03 -0.10556851832E+03 -0.31461382043E+03  0.59041767065E+03  0.12699999809E+01 0.  1.
</event>
<event>
 5   0  0.2499890E-03  0.1193923E+04  0.7818609E-02  0.9118192E-01
        2   -1    0    0  501    0  0.00000000000E+00  0.00000000000E+00  0.14193624989E+04  0.14193624989E+04  0.25500000920E-02 0.  1.
       -2   -1    0    0    0  501  0.00000000000E+00  0.00000000000E+00 -0.25107270280E+03  0.25107270281E+03  0.25500000920E-02 0. -1.
    10030    2    1    2    0    0  0.00000000000E+00  0.00000000000E+00  0.11682897961E+04  0.16704352017E+04  0.11939232452E+04 0.  0.
        5    1    3    3  502    0  0.52390176680E+03  0.17699519873E+03  0.89868351225E+03  0.10552035381E+04  0.46999998093E+01 0.  1.
       -5    1    3    3    0  502 -0.52390176680E+03 -0.17699519873E+03  0.26960628387E+03  0.61523166362E+03  0.46999998093E+01 0. -1.
</event>
<event>
 5   0  0.1469851E-03  0.1203790E+04  0.7818609E-02  0.9109546E-01
        1   -1    0    0  501    0  0.00000000000E+00  0.00000000000E+00  0.44024724277E+03  0.44024724280E+03  0.50400001928E-02 0. -1.
       -1   -1    0    0    0  501  0.00000000000E+00  0.00000000000E+00 -0.82289555979E+03  0.82289555981E+03  0.50400001928E-02 0.  1.
    10030    2    1    2    0    0  0.00000000000E+00  0.00000000000E+00 -0.38264831702E+03  0.12631428026E+04  0.12037898510E+04 0.  0.
        5    1    3    3  502    0  0.32825614408E+03 -0.48267588868E+03 -0.34528014215E+03  0.67820983198E+03  0.46999998093E+01 0.  1.
       -5    1    3    3    0  502 -0.32825614408E+03  0.48267588868E+03 -0.37368174870E+02  0.58493297063E+03  0.46999998093E+01 0. -1.
</event>
<event>
 5   0  0.9678750E-04  0.1209410E+04  0.7818609E-02  0.9104659E-01
        3   -1    0    0  501    0  0.00000000000E+00  0.00000000000E+00  0.62828790518E+03  0.62828791330E+03  0.10100000352E+00 0.  1.
       -3   -1    0    0    0  501  0.00000000000E+00  0.00000000000E+00 -0.58200755344E+03  0.58200756221E+03  0.10100000352E+00 0. -1.
    10030    2    1    2    0    0  0.00000000000E+00  0.00000000000E+00  0.46280351742E+02  0.12102954755E+04  0.12094102972E+04 0.  0.
        3    1    3    3  502    0  0.24783855928E+03  0.49125525857E+03 -0.22786729884E+03  0.59554949133E+03  0.10100000352E+00 0. -1.
       -3    1    3    3    0  502 -0.24783855928E+03 -0.49125525857E+03  0.27414765059E+03  0.61474598418E+03  0.10100000352E+00 0.  1.
</event>
<event>
 5   0  0.1404833E-03  0.1204562E+04  0.7818609E-02  0.9108873E-01
       -1   -1    0    0    0  501  0.00000000000E+00  0.00000000000E+00  0.49638032896E+03  0.49638032899E+03  0.50400001928E-02 0. -1.
        1   -1    0    0  501    0  0.00000000000E+00  0.00000000000E+00 -0.73077474799E+03  0.73077474801E+03  0.50400001928E-02 0.  1.
    10030    2    1    2    0    0  0.00000000000E+00  0.00000000000E+00 -0.23439441903E+03  0.12271550770E+04  0.12045616793E+04 0.  0.
        1    1    3    3  502    0  0.26676436514E+02 -0.13761144219E+03  0.47953125890E+03  0.49959860846E+03  0.50400001928E-02 0. -1.
       -1    1    3    3    0  502 -0.26676436514E+02  0.13761144219E+03 -0.71392567792E+03  0.72755646854E+03  0.50400001928E-02 0.  1.
</event>
<event>
 5   0  0.1403154E-03  0.1126557E+04  0.7818609E-02  0.9179687E-01
       -1   -1    0    0    0  501  0.00000000000E+00  0.00000000000E+00  0.75309259313E+03  0.75309259314E+03  0.50400001928E-02 0. -1.
        1   -1    0    0  501    0  0.00000000000E+00  0.00000000000E+00 -0.42130659659E+03  0.42130659662E+03  0.50400001928E-02 0.  1.
    10030    2    1    2    0    0  0.00000000000E+00  0.00000000000E+00  0.33178599654E+03  0.11743991898E+04  0.11265573707E+04 0.  0.
        3    1    3    3  502    0  0.53865101641E+02  0.26744281209E+03 -0.34783902013E+03  0.44206232710E+03  0.10100000352E+00 0.  1.
       -3    1    3    3    0  502 -0.53865101641E+02 -0.26744281209E+03  0.67962501667E+03  0.73233686266E+03  0.10100000352E+00 0. -1.
</event>
<event>
 5   0  0.1403154E-03  0.1211933E+04  0.7818609E-02  0.9102475E-01
        1   -1    0    0  501    0  0.00000000000E+00  0.00000000000E+00  0.99197493161E+03  0.99197493162E+03  0.50400001928E-02 0.  1.
       -1   -1    0    0    0  501  0.00000000000E+00  0.00000000000E+00 -0.37016629607E+03  0.37016629610E+03  0.50400001928E-02 0. -1.
    10030    2    1    2    0    0  0.00000000000E+00  0.00000000000E+00  0.62180863554E+03  0.13621412277E+04  0.12119334738E+04 0.  0.
        3    1    3    3  502    0 -0.82156293233E+02  0.33222826060E+02  0.98465234473E+03  0.98863221821E+03  0.10100000352E+00 0.  1.
       -3    1    3    3    0  502  0.82156293233E+02 -0.33222826060E+02 -0.36284370919E+03  0.37350900952E+03  0.10100000352E+00 0. -1.
</event>
<event>
 5   0  0.2580244E-03  0.1193735E+04  0.7818609E-02  0.9118358E-01
       -2   -1    0    0    0  501  0.00000000000E+00  0.00000000000E+00  0.42167487776E+03  0.42167487776E+03  0.25500000920E-02 0. -1.
        2   -1    0    0  501    0  0.00000000000E+00  0.00000000000E+00 -0.84484680154E+03  0.84484680154E+03  0.25500000920E-02 0.  1.
    10030    2    1    2    0    0  0.00000000000E+00  0.00000000000E+00 -0.42317192378E+03  0.12665216793E+04  0.11937347641E+04 0.  0.
        1    1    3    3  502    0  0.59117323554E+02 -0.56098392831E+03 -0.41855165302E+03  0.70241249422E+03  0.50400001928E-02 0. -1.
       -1    1    3    3    0  502 -0.59117323554E+02  0.56098392831E+03 -0.46202707665E+01  0.56410918509E+03  0.50400001928E-02 0.  1.
</event>
<event>
 5   0  0.1455076E-03  0.1202278E+04  0.7818609E-02  0.9110865E-01
        1   -1    0    0  501    0  0.00000000000E+00  0.00000000000E+00  0.11448338200E+04  0.11448338200E+04  0.50400001928E-02 0.  1.
       -1   -1    0    0    0  501  0.00000000000E+00  0.00000000000E+00 -0.31565098247E+03  0.31565098251E+03  0.50400001928E-02 0. -1.
    10030    2    1    2    0    0  0.00000000000E+00  0.00000000000E+00  0.82918283753E+03  0.14604848025E+04  0.12022777052E+04 0.  0.
        4    1    3    3  502    0  0.44227627389E+03  0.39800128259E+03  0.51875695480E+03  0.78938185591E+03  0.12699999809E+01 0.  1.
       -4    1    3    3    0  502 -0.44227627389E+03 -0.39800128259E+03  0.31042588274E+03  0.67110294662E+03  0.12699999809E+01 0. -1.
</event>
<event>
 5   0  0.1404833E-03  0.1160090E+04  0.7818609E-02  0.9148526E-01
        1   -1    0    0  501    0  0.00000000000E+00  0.00000000000E+00  0.50011268055E+03  0.50011268057E+03  0.50400001928E-02 0. -1.
       -1   -1    0    0    0  501  0.00000000000E+00  0.00000000000E+00 -0.67275237898E+03  0.67275237900E+03  0.50400001928E-02 0.  1.
    10030    2    1    2    0    0  0.00000000000E+00  0.00000000000E+00 -0.17263969843E+03  0.11728650596E+04  0.11600896442E+04 0.  0.
        1    1    3    3  502    0 -0.30056271902E+03 -0.71588915787E+02  0.40999260768E+03  0.51337789133E+03  0.50400001928E-02 0. -1.
       -1    1    3    3    0  502  0.30056271902E+03  0.71588915787E+02 -0.58263230611E+03  0.65948716824E+03  0.50400001928E-02 0.  1.
</event>
<event>
 5   0  0.2484507E-03  0.1186417E+04  0.7818609E-02  0.9124830E-01
        2   -1    0    0  501    0  0.00000000000E+00  0.00000000000E+00  0.17937130795E+04  0.17937130795E+04  0.25500000920E-02 0. -1.
       -2   -1    0    0    0  501  0.00000000000E+00  0.00000000000E+00 -0.19618309269E+03  0.19618309271E+03  0.25500000920E-02 0.  1.
    10030    2    1    2    0    0  0.00000000000E+00  0.00000000000E+00  0.15975299868E+04  0.19898961722E+04  0.11864167554E+04 0.  0.
        2    1    3    3  502    0  0.19354318107E+02  0.28591654669E+03  0.16699143936E+04  0.16943249226E+04  0.25500000920E-02 0. -1.
       -2    1    3    3    0  502 -0.19354318107E+02 -0.28591654669E+03 -0.72384406738E+02  0.29557124969E+03  0.25500000920E-02 0.  1.
</event>
<event>
 5   0  0.1403154E-03  0.1199514E+04  0.7818609E-02  0.9113282E-01
        1   -1    0    0  501    0  0.00000000000E+00  0.00000000000E+00  0.10780068563E+04  0.10780068563E+04  0.50400001928E-02 0.  1.
       -1   -1    0    0    0  501  0.00000000000E+00  0.00000000000E+00 -0.33367912661E+03  0.33367912665E+03  0.50400001928E-02 0. -1.
    10030    2    1    2    0    0  0.00000000000E+00  0.00000000000E+00  0.74432772969E+03  0.14116859830E+04  0.11995138788E+04 0.  0.
        3    1    3    3  502    0 -0.31645291984E+03  0.30494795213E+03 -0.10816059341E+03  0.45258637645E+03  0.10100000352E+00 0. -1.
       -3    1    3    3    0  502  0.31645291984E+03 -0.30494795213E+03  0.85248832310E+03  0.95909960651E+03  0.10100000352E+00 0.  1.
</event>
<event>
 5   0  0.9678750E-04  0.1183687E+04  0.7818609E-02  0.9127256E-01
       -3   -1    0    0    0  501  0.00000000000E+00  0.00000000000E+00  0.22863182685E+03  0.22863184916E+03  0.10100000352E+00 0. -1.
        3   -1    0    0  501    0  0.00000000000E+00  0.00000000000E+00 -0.15320642859E+04  0.15320642892E+04  0.10100000352E+00 0.  1.
    10030    2    1    2    0    0  0.00000000000E+00  0.00000000000E+00 -0.13034324591E+04  0.17606961384E+04  0.11836869166E+04 0.  0.
        3    1    3    3  502    0  0.23705702225E+03 -0.43144736684E+03 -0.16302973672E+03  0.51857648173E+03  0.10100000352E+00 0.  1.
       -3    1    3    3    0  502 -0.23705702225E+03  0.43144736684E+03 -0.11404027224E+04  0.12421196567E+04  0.10100000352E+00 0. -1.
</event>
<event>
 5   0  0.2517023E-03  0.1205415E+04  0.7818609E-02  0.9108130E-01
       -2   -1    0    0    0  501  0.00000000000E+00  0.00000000000E+00  0.63333531789E+03  0.63333531789E+03  0.25500000920E-02 0.  1.
        2   -1    0    0  501    0  0.00000000000E+00  0.00000000000E+00 -0.57356103145E+03  0.57356103146E+03  0.25500000920E-02 0. -1.
    10030    2    1    2    0    0  0.00000000000E+00  0.00000000000E+00  0.59774286438E+02  0.12068963494E+04  0.12054152118E+04 0.  0.
        3    1    3    3  502    0 -0.31361078039E+03  0.50757906636E+03  0.11524574106E+03  0.60767575336E+03  0.10100000352E+00 0.  1.
       -3    1    3    3    0  502  0.31361078039E+03 -0.50757906636E+03 -0.55471454624E+02  0.59922059599E+03  0.10100000352E+00 0. -1.
</event>
<event>
 5   0  0.1404833E-03  0.1199027E+04  0.7818609E-02  0.9113709E-01
       -1   -1    0    0    0  501  0.00000000000E+00  0.00000000000E+00  0.41334174875E+03  0.41334174878E+03  0.50400001928E-02 0. -1.
        1   -1    0    0  501    0  0.00000000000E+00  0.00000000000E+00 -0.86953755398E+03  0.86953755400E+03  0.50400001928E-02 0.  1.
    10030    2    1    2    0    0  0.00000000000E+00  0.00000000000E+00 -0.45619580523E+03  0.12828793028E+04  0.11990265605E+04 0.  0.
        1    1    3    3  502    0  0.22835266899E+03  0.20619032774E+03 -0.77862733304E+03  0.83720960127E+03  0.50400001928E-02 0.  1.
       -1    1    3    3    0  502 -0.22835266899E+03 -0.20619032774E+03  0.32243152780E+03  0.44566970150E+03  0.50400001928E-02 0. -1.
</event>
<event>
 5   0  0.2484507E-03  0.1207481E+04  0.7818609E-02  0.9106334E-01
       -2   -1    0    0    0  501  0.00000000000E+00  0.00000000000E+00  0.59403263752E+03  0.59403263753E+03  0.25500000920E-02 0. -1.
        2   -1    0    0  501    0  0.00000000000E+00  0.00000000000E+00 -0.61360691857E+03  0.61360691858E+03  0.25500000920E-02 0.  1.
    10030    2    1    2    0    0  0.00000000000E+00  0.00000000000E+00 -0.19574281052E+02  0.12076395561E+04  0.12074809087E+04 0.  0.
        2    1    3    3  502    0  0.40308654826E+03 -0.44601371373E+03  0.45857728958E+02  0.60291784642E+03  0.25500000920E-02 0.  1.
       -2    1    3    3    0  502 -0.40308654826E+03  0.44601371373E+03 -0.65432010010E+02  0.60472170968E+03  0.25500000920E-02 0. -1.
</event>
<event>
 5   0  0.1423024E-03  0.1201227E+04  0.7818609E-02  0.9111784E-01
        1   -1    0    0  501    0  0.00000000000E+00  0.00000000000E+00  0.52841022461E+03  0.52841022463E+03  0.50400001928E-02 0.  1.
       -1   -1    0    0    0  501  0.00000000000E+00  0.00000000000E+00 -0.68268244394E+03  0.68268244396E+03  0.50400001928E-02 0. -1.
    10030    2    1    2    0    0  0.00000000000E+00  0.00000000000E+00 -0.15427221933E+03  0.12110926686E+04  0.12012266790E+04 0.  0.
        2    1    3    3  502    0 -0.33099151818E+03 -0.36137580427E+03 -0.42724682291E+03  0.65014437221E+03  0.25500000920E-02 0. -1.
       -2    1    3    3    0  502  0.33099151818E+03  0.36137580427E+03  0.27297460358E+03  0.56094829639E+03  0.25500000920E-02 0.  1.
</event>
<event>
 5   0  0.2517023E-03  0.1048779E+04  0.7818609E-02  0.9256606E-01
        2   -1    0    0  501    0  0.00000000000E+00  0.00000000000E+00  0.26433445062E+04  0.26433445062E+04  0.25500000920E-02 0. -1.
       -2   -1    0    0    0  501  0.00000000000E+00  0.00000000000E+00 -0.10402888635E+03  0.10402888638E+03  0.25500000920E-02 0.  1.
    10030    2    1    2    0    0  0.00000000000E+00  0.00000000000E+00  0.25393156199E+04  0.27473733926E+04  0.10487786902E+04 0.  0.
        3    1    3    3  502    0  0.39837259045E+03  0.32599787774E+03  0.15317328509E+04  0.16159148720E+04  0.10100000352E+00 0. -1.
       -3    1    3    3    0  502 -0.39837259045E+03 -0.32599787774E+03  0.10075827690E+04  0.11314585206E+04  0.10100000352E+00 0.  1.
</event>
<event>
 5   0  0.2499890E-03  0.1210148E+04  0.7818609E-02  0.9104020E-01
       -2   -1    0    0    0  501  0.00000000000E+00  0.00000000000E+00  0.18527800338E+03  0.18527800340E+03  0.25500000920E-02 0.  1.
        2   -1    0    0  501    0  0.00000000000E+00  0.00000000000E+00 -0.19760269403E+04  0.19760269403E+04  0.25500000920E-02 0. -1.
    10030    2    1    2    0    0  0.00000000000E+00  0.00000000000E+00 -0.17907489369E+04  0.21613049437E+04  0.12101476375E+04 0.  0.
        5    1    3    3  502    0 -0.15333682314E+03  0.43097452989E+03 -0.18806820505E+03  0.49461395703E+03  0.46999998093E+01 0.  1.
       -5    1    3    3    0  502  0.15333682314E+03 -0.43097452989E+03 -0.16026807319E+04  0.16666909867E+04  0.46999998093E+01 0. -1.
</event>
<event>
 5   0  0.1423024E-03  0.1191988E+04  0.7818609E-02  0.9119899E-01
        1   -1    0    0  501    0  0.00000000000E+00  0.00000000000E+00  0.21266188519E+04  0.21266188519E+04  0.50400001928E-02 0. -1.
       -1   -1    0    0    0  501  0.00000000000E+00  0.00000000000E+00 -0.16702972015E+03  0.16702972022E+03  0.50400001928E-02 0.  1.
    10030    2    1    2    0    0  0.00000000000E+00  0.00000000000E+00  0.19595891318E+04  0.22936485722E+04  0.11919875029E+04 0.  0.
        2    1    3    3  502    0  0.28736755102E+03 -0.51760124649E+03  0.84763270062E+03  0.10339111930E+04  0.25500000920E-02 0. -1.
       -2    1    3    3    0  502 -0.28736755102E+03  0.51760124649E+03  0.11119564312E+04  0.12597373792E+04  0.25500000920E-02 0.  1.
</event>
<event>
 5   0  0.2517023E-03  0.1201799E+04  0.7818609E-02  0.9111283E-01
       -2   -1    0    0    0  501  0.00000000000E+00  0.00000000000E+00  0.50287415093E+03  0.50287415093E+03  0.25500000920E-02 0. -1.
        2   -1    0    0  501    0  0.00000000000E+00  0.00000000000E+00 -0.71803346981E+03  0.71803346982E+03  0.25500000920E-02 0.  1.
    10030    2    1    2    0    0  0.00000000000E+00  0.00000000000E+00 -0.21515931889E+03  0.12209076208E+04  0.12017994366E+04 0.  0.
        3    1    3    3  502    0  0.55563247837E+03  0.21473724439E+03 -0.27324062510E+02  0.59631044746E+03  0.10100000352E+00 0. -1.
       -3    1    3    3    0  502 -0.55563247837E+03 -0.21473724439E+03 -0.18783525638E+03  0.62459717330E+03  0.10100000352E+00 0.  1.
</event>
<event>
 5   0  0.2580244E-03  0.1198505E+04  0.7818609E-02  0.9114166E-01
       -2   -1    0    0    0  501  0.00000000000E+00  0.00000000000E+00  0.38236119815E+03  0.38236119815E+03  0.25500000920E-02 0.  1.
        2   -1    0    0  501    0  0.00000000000E+00  0.00000000000E+00 -0.93917326932E+03  0.93917326933E+03  0.25500000920E-02 0. -1.
    10030    2    1    2    0    0  0.00000000000E+00  0.00000000000E+00 -0.55681207118E+03  0.13215344675E+04  0.11985047627E+04 0.  0.
        1    1    3    3  502    0 -0.28439721249E+03  0.51707543509E+03 -0.16352552109E+03  0.61236376127E+03  0.50400001928E-02 0.  1.
       -1    1    3    3    0  502  0.28439721249E+03 -0.51707543509E+03 -0.39328655008E+03  0.70917070621E+03  0.50400001928E-02 0. -1.
</event>
<event>
 5   0  0.1403154E-03  0.1200997E+04  0.7818609E-02  0.9111985E-01
       -1   -1    0    0    0  501  0.00000000000E+00  0.00000000000E+00  0.37148720618E+03  0.37148720621E+03  0.50400001928E-02 0. -1.
        1   -1    0    0  501    0  0.00000000000E+00  0.00000000000E+00 -0.97068801345E+03  0.97068801347E+03  0.50400001928E-02 0.  1.
    10030    2    1    2    0    0  0.00000000000E+00  0.00000000000E+00 -0.59920080728E+03  0.13421752197E+04  0.12009965499E+04 0.  0.
        3    1    3    3  502    0 -0.28808055798E+03  0.35209315432E+03  0.13844287451E+03  0.47552753538E+03  0.10100000352E+00 0. -1.
       -3    1    3    3    0  502  0.28808055798E+03 -0.35209315432E+03 -0.73764368179E+03  0.86664768429E+03  0.10100000352E+00 0.  1.
</event>
<event>
 5   0  0.2517023E-03  0.1188844E+04  0.7818609E-02  0.9122677E-01
       -2   -1    0    0    0  501  0.00000000000E+00  0.00000000000E+00  0.28937911523E+03  0.28937911524E+03  0.25500000920E-02 0. -1.
        2   -1    0    0  501    0  0.00000000000E+00  0.00000000000E+00 -0.12210200988E+04  0.12210200988E+04  0.25500000920E-02 0.  1.
    10030    2    1    2    0    0  0.00000000000E+00  0.00000000000E+00 -0.93164098356E+03  0.15103992140E+04  0.11888443395E+04 0.  0.
        3    1    3    3  502    0  0.17372329932E+03  0.23052863001E+03  0.19435633716E+03  0.34799084755E+03  0.10100000352E+00 0. -1.
       -3    1    3    3    0  502 -0.17372329932E+03 -0.23052863001E+03 -0.11259973207E+04  0.11624083665E+04  0.10100000352E+00 0.  1.
</event>
<event>
 5   0  0.1455076E-03  0.1208889E+04  0.7818609E-02  0.9105112E-01
        1   -1    0    0  501    0  0.00000000000E+00  0.00000000000E+00  0.77574706789E+03  0.77574706791E+03  0.50400001928E-02 0.  1.
       -1   -1    0    0    0  501  0.00000000000E+00  0.00000000000E+00 -0.47096913962E+03  0.47096913965E+03  0.50400001928E-02 0. -1.
    10030    2    1    2    0    0  0.00000000000E+00  0.00000000000E+00  0.30477792827E+03  0.12467162076E+04  0.12088886287E+04 0.  0.
        4    1    3    3  502    0 -0.47042060128E+03  0.34600931701E+03 -0.84836268132E+01  0.58403045673E+03  0.12699999809E+01 0. -1.
       -4    1    3    3    0  502  0.47042060128E+03 -0.34600931701E+03  0.31326155509E+03  0.66268575083E+03  0.12699999809E+01 0.  1.
</event>
<event>
 5   0  0.1404833E-03  0.1208013E+04  0.7818609E-02  0.9105871E-01
       -1   -1    0    0    0  501  0.00000000000E+00  0.00000000000E+00  0.25318623240E+03  0.25318623245E+03  0.50400001928E-02 0.  1.
        1   -1    0    0  501    0  0.00000000000E+00  0.00000000000E+00 -0.14409319798E+04  0.14409319798E+04  0.50400001928E-02 0. -1.
    10030    2    1    2    0    0  0.00000000000E+00  0.00000000000E+00 -0.11877457474E+04  0.16941182122E+04  0.12080134753E+04 0.  0.
        1    1    3    3  502    0  0.58659410400E+03 -0.12847968974E+03 -0.68502311486E+03  0.91096451163E+03  0.50400001928E-02 0.  1.
       -1    1    3    3    0  502 -0.58659410400E+03  0.12847968974E+03 -0.50272263251E+03  0.78315370061E+03  0.50400001928E-02 0. -1.
</event>
<event>
 5   0  0.1403154E-03  0.9709437E+03  0.7818609E-02  0.9341000E-01
        1   -1    0    0  501    0  0.00000000000E+00  0.00000000000E+00  0.54315928755E+03  0.54315928757E+03  0.50400001928E-02 0.  1.
       -1   -1    0    0    0  501  0.00000000000E+00  0.00000000000E+00 -0.43391123878E+03  0.43391123881E+03  0.50400001928E-02 0. -1.
    10030    2    1    2    0    0  0.00000000000E+00  0.00000000000E+00  0.10924804877E+03  0.97707052638E+03  0.97094370452E+03 0.  0.
        3    1    3    3  502    0 -0.14974202546E+03  0.11740890803E+03  0.50406898655E+03  0.53878852927E+03  0.10100000352E+00 0.  1.
       -3    1    3    3    0  502  0.14974202546E+03 -0.11740890803E+03 -0.39482093778E+03  0.43828199710E+03  0.10100000352E+00 0. -1.
</event>
<event>
 5   0  0.2579442E-03  0.1093217E+04  0.7818609E-02  0.9211828E-01
       -2   -1    0    0    0  501  0.00000000000E+00  0.00000000000E+00  0.49368883183E+03  0.49368883183E+03  0.25500000920E-02 0.  1.
        2   -1    0    0  501    0  0.00000000000E+00  0.00000000000E+00 -0.60520087201E+03  0.60520087202E+03  0.25500000920E-02 0. -1.
    10030    2    1    2    0    0  0.00000000000E+00  0.00000000000E+00 -0.11151204018E+03  0.10988897039E+04  0.10932171084E+04 0.  0.
        4    1    3    3  502    0 -0.78401232636E+02  0.34733981556E+03 -0.47262180408E+03  0.59174714477E+03  0.12699999809E+01 0. -1.
       -4    1    3    3    0  502  0.78401232636E+02 -0.34733981556E+03  0.36110976389E+03  0.50714255908E+03  0.12699999809E+01 0.  1.
</event>
<event>
 5   0  0.2579442E-03  0.1186984E+04  0.7818609E-02  0.9124327E-01
        2   -1    0    0  501    0  0.00000000000E+00  0.00000000000E+00  0.99950048899E+03  0.99950048900E+03  0.25500000920E-02 0.  1.
       -2   -1    0    0    0  501  0.00000000000E+00  0.00000000000E+00 -0.35240849974E+03  0.35240849975E+03  0.25500000920E-02 0. -1.
    10030    2    1    2    0    0  0.00000000000E+00  0.00000000000E+00  0.64709198925E+03  0.13519089887E+04  0.11869835177E+04 0.  0.
        4    1    3    3  502    0 -0.12314294617E+03 -0.60096018929E+02  0.98123635138E+03  0.99075834937E+03  0.12699999809E+01 0.  1.
       -4    1    3    3    0  502  0.12314294617E+03  0.60096018929E+02 -0.33414436213E+03  0.36115063938E+03  0.12699999809E+01 0. -1.
</event>
<event>
 5   0  0.9678750E-04  0.1244713E+04  0.7818609E-02  0.9074595E-01
       -4   -1    0    0    0  501  0.00000000000E+00  0.00000000000E+00  0.15041279190E+04  0.15041284551E+04  0.12699999809E+01 0. -1.
        4   -1    0    0  501    0  0.00000000000E+00  0.00000000000E+00 -0.25750766697E+03  0.25751079870E+03  0.12699999809E+01 0.  1.
    10030    2    1    2    0    0  0.00000000000E+00  0.00000000000E+00  0.12466202520E+04  0.17616392538E+04  0.12447131428E+04 0.  0.
        3    1    3    3  502    0 -0.25516276083E+03  0.39199573371E+03  0.12043737379E+04  0.12920080497E+04  0.10100000352E+00 0. -1.
       -3    1    3    3    0  502  0.25516276083E+03 -0.39199573371E+03  0.42246514139E+02  0.46963120415E+03  0.10100000352E+00 0.  1.
</event>
<event>
 5   0  0.1403154E-03  0.1198445E+04  0.7818609E-02  0.9114219E-01
        1   -1    0    0  501    0  0.00000000000E+00  0.00000000000E+00  0.67091040895E+03  0.67091040897E+03  0.50400001928E-02 0. -1.
       -1   -1    0    0    0  501  0.00000000000E+00  0.00000000000E+00 -0.53519457514E+03  0.53519457516E+03  0.50400001928E-02 0.  1.
    10030    2    1    2    0    0  0.00000000000E+00  0.00000000000E+00  0.13571583382E+03  0.12061049841E+04  0.11984450113E+04 0.  0.
        3    1    3    3  502    0 -0.59201538270E+03 -0.90353622002E+02  0.47193515568E+02  0.60072724966E+03  0.10100000352E+00 0.  1.
       -3    1    3    3    0  502  0.59201538270E+03  0.90353622002E+02  0.88522318247E+02  0.60537773447E+03  0.10100000352E+00 0. -1.
</event>
<event>
 5   0  0.1469851E-03  0.1200698E+04  0.7818609E-02  0.9112246E-01
       -1   -1    0    0    0  501  0.00000000000E+00  0.00000000000E+00  0.11102463260E+04  0.11102463260E+04  0.50400001928E-02 0. -1.
        1   -1    0    0  501    0  0.00000000000E+00  0.00000000000E+00 -0.32462959281E+03  0.32462959285E+03  0.50400001928E-02 0.  1.
    10030    2    1    2    0    0  0.00000000000E+00  0.00000000000E+00  0.78561673316E+03  0.14348759188E+04  0.12006978184E+04 0.  0.
        5    1    3    3  502    0 -0.22835683703E+03  0.36223593773E+03  0.89562564960E+03  0.99273818996E+03  0.46999998093E+01 0. -1.
       -5    1    3    3    0  502  0.22835683703E+03 -0.36223593773E+03 -0.11000891643E+03  0.44213772888E+03  0.46999998093E+01 0.  1.
</event>
<event>
 5   0  0.2484507E-03  0.1311114E+04  0.7818609E-02  0.9020798E-01
        2   -1    0    0  501    0  0.00000000000E+00  0.00000000000E+00  0.22070713977E+04  0.22070713977E+04  0.25500000920E-02 0.  1.
       -2   -1    0    0    0  501  0.00000000000E+00  0.00000000000E+00 -0.19471733464E+03  0.19471733466E+03  0.25500000920E-02 0. -1.
    10030    2    1    2    0    0  0.00000000000E+00  0.00000000000E+00  0.20123540630E+04  0.24017887323E+04  0.13111141216E+04 0.  0.
        2    1    3    3  502    0 -0.11342836028E+03 -0.14286249213E+03 -0.14728846552E+03  0.23445591623E+03  0.25500000920E-02 0. -1.
       -2    1    3    3    0  502  0.11342836028E+03  0.14286249213E+03  0.21596425285E+04  0.21673328161E+04  0.25500000920E-02 0.  1.
</event>
<event>
 5   0  0.2517023E-03  0.1165165E+04  0.7818609E-02  0.9143906E-01
       -2   -1    0    0    0  501  0.00000000000E+00  0.00000000000E+00  0.65192212637E+03  0.65192212637E+03  0.25500000920E-02 0.  1.
        2   -1    0    0  501    0  0.00000000000E+00  0.00000000000E+00 -0.52061783929E+03  0.52061783929E+03  0.25500000920E-02 0. -1.
    10030    2    1    2    0    0  0.00000000000E+00  0.00000000000E+00  0.13130428708E+03  0.11725399657E+04  0.11651648618E+04 0.  0.
        3    1    3    3  502    0  0.17901555750E+03  0.55432565796E+03  0.74583778320E+02  0.58727017214E+03  0.10100000352E+00 0. -1.
       -3    1    3    3    0  502 -0.17901555750E+03 -0.55432565796E+03  0.56720508760E+02  0.58526979352E+03  0.10100000352E+00 0.  1.
</event>
<event>
 5   0  0.2580244E-03  0.1211432E+04  0.7818609E-02  0.9102909E-01
        2   -1    0    0  501    0  0.00000000000E+00  0.00000000000E+00  0.10357916346E+04  0.10357916346E+04  0.25500000920E-02 0. -1.
       -2   -1    0    0    0  501  0.00000000000E+00  0.00000000000E+00 -0.35421395264E+03  0.35421395265E+03  0.25500000920E-02 0.  1.
    10030    2    1    2    0    0  0.00000000000E+00  0.00000000000E+00  0.68157768194E+03  0.13900055872E+04  0.12114319610E+04 0.  0.
        1    1    3    3  502    0 -0.34355592878E+03 -0.29914607931E+03  0.79885120964E+03  0.91960986735E+03  0.50400001928E-02 0. -1.
       -1    1    3    3    0  502  0.34355592878E+03  0.29914607931E+03 -0.11727352769E+03  0.47039571989E+03  0.50400001928E-02 0.  1.
</event>
<event>
 5   0  0.2484507E-03  0.1162586E+04  0.7818609E-02  0.9146250E-01
        2   -1    0    0  501    0  0.00000000000E+00  0.00000000000E+00  0.72211941762E+03  0.72211941762E+03  0.25500000920E-02 0.  1.
       -2   -1    0    0    0  501  0.00000000000E+00  0.00000000000E+00 -0.46793060017E+03  0.46793060018E+03  0.25500000920E-02 0. -1.
    10030    2    1    2    0    0  0.00000000000E+00  0.00000000000E+00  0.25418881745E+03  0.11900500178E+04  0.11625863796E+04 0.  0.
        2    1    3    3  502    0  0.42735039873E+03  0.32138586674E+03  0.36048162367E+03  0.64487536753E+03  0.25500000920E-02 0.  1.
       -2    1    3    3    0  502 -0.42735039873E+03 -0.32138586674E+03 -0.10629280622E+03  0.54517465027E+03  0.25500000920E-02 0. -1.
</event>
<event>
 5   0  0.2517023E-03  0.1228036E+04  0.7818609E-02  0.9088664E-01
       -2   -1    0    0    0  501  0.00000000000E+00  0.00000000000E+00  0.91489518308E+03  0.91489518308E+03  0.25500000920E-02 0.  1.
        2   -1    0    0  501    0  0.00000000000E+00  0.00000000000E+00 -0.41208916359E+03  0.41208916359E+03  0.25500000920E-02 0. -1.
    10030    2    1    2    0    0  0.00000000000E+00  0.00000000000E+00  0.50280601949E+03  0.13269843467E+04  0.12280364665E+04 0.  0.
        3    1    3    3  502    0 -0.21707852754E+03  0.40543637008E+03  0.69102091403E+03  0.83006725699E+03  0.10100000352E+00 0.  1.
       -3    1    3    3    0  502  0.21707852754E+03 -0.40543637008E+03 -0.18821489453E+03  0.49691708969E+03  0.10100000352E+00 0. -1.
</event>
<event>
 5   0  0.1403154E-03  0.1183707E+04  0.7818609E-02  0.9127238E-01
       -1   -1    0    0    0  501  0.00000000000E+00  0.00000000000E+00  0.51719487996E+03  0.51719487998E+03  0.50400001928E-02 0. -1.
        1   -1    0    0  501    0  0.00000000000E+00  0.00000000000E+00 -0.67728966214E+03  0.67728966216E+03  0.50400001928E-02 0.  1.
    10030    2    1    2    0    0  0.00000000000E+00  0.00000000000E+00 -0.16009478218E+03  0.11944845421E+04  0.11837073042E+04 0.  0.
        3    1    3    3  502    0  0.33323347959E+03  0.41590320183E+03 -0.33982219073E+03  0.63205945664E+03  0.10100000352E+00 0.  1.
       -3    1    3    3    0  502 -0.33323347959E+03 -0.41590320183E+03  0.17972740854E+03  0.56242508550E+03  0.10100000352E+00 0. -1.
</event>
<event>
 5   0  0.2499890E-03  0.1176837E+04  0.7818609E-02  0.9133376E-01
        2   -1    0    0  501    0  0.00000000000E+00  0.00000000000E+00  0.38166936884E+03  0.38166936885E+03  0.25500000920E-02 0.  1.
       -2   -1    0    0    0  501  0.00000000000E+00  0.00000000000E+00 -0.90716318586E+03  0.90716318586E+03  0.25500000920E-02 0. -1.
    10030    2    1    2    0    0  0.00000000000E+00  0.00000000000E+00 -0.52549381701E+03  0.12888325547E+04  0.11768371180E+04 0.  0.
        5    1    3    3  502    0  0.49685422402E+02  0.53094217603E+03  0.96086300455E+01  0.53336915101E+03  0.46999998093E+01 0.  1.
       -5    1    3    3    0  502 -0.49685422402E+02 -0.53094217603E+03 -0.53510244706E+03  0.75546340370E+03  0.46999998093E+01 0. -1.
</event>
<event>
 5   0  0.1469851E-03  0.1203895E+04  0.7818609E-02  0.9109454E-01
       -1   -1    0    0    0  501  0.00000000000E+00  0.00000000000E+00  0.37232041607E+03  0.37232041611E+03  0.50400001928E-02 0.  1.
        1   -1    0    0  501    0  0.00000000000E+00  0.00000000000E+00 -0.97319552924E+03  0.97319552926E+03  0.50400001928E-02 0. -1.
    10030    2    1    2    0    0  0.00000000000E+00  0.00000000000E+00 -0.60087511317E+03  0.13455159454E+04  0.12038946206E+04 0.  0.
        5    1    3    3  502    0 -0.36293932812E+03  0.16868232237E+03  0.20205112386E+03  0.44835859357E+03  0.46999998093E+01 0.  1.
       -5    1    3    3    0  502  0.36293932812E+03 -0.16868232237E+03 -0.80292623703E+03  0.89715735180E+03  0.46999998093E+01 0. -1.
</event>
<event>
 5   0  0.1403154E-03  0.1141468E+04  0.7818609E-02  0.9165691E-01
        1   -1    0    0  501    0  0.00000000000E+00  0.00000000000E+00  0.43321933818E+03  0.43321933821E+03  0.50400001928E-02 0.  1.
       -1   -1    0    0    0  501  0.00000000000E+00  0.00000000000E+00 -0.75189893998E+03  0.75189893999E+03  0.50400001928E-02 0. -1.
    10030    2    1    2    0    0  0.00000000000E+00  0.00000000000E+00 -0.31867960180E+03  0.11851182782E+04  0.11414677589E+04 0.  0.
        3    1    3    3  502    0  0.56211716115E+03  0.98461286614E+02 -0.16782694454E+03  0.59484134131E+03  0.10100000352E+00 0.  1.
       -3    1    3    3    0  502 -0.56211716115E+03 -0.98461286614E+02 -0.15085265726E+03  0.59027693689E+03  0.10100000352E+00 0. -1.
</event>
<event>
 5   0  0.2517023E-03  0.1189104E+04  0.7818609E-02  0.9122448E-01
        2   -1    0    0  501    0  0.00000000000E+00  0.00000000000E+00  0.14856577634E+04  0.14856577634E+04  0.25500000920E-02 0. -1.
       -2   -1    0    0    0  501  0.00000000000E+00  0.00000000000E+00 -0.23793634632E+03  0.23793634634E+03  0.25500000920E-02 0.  1.
    10030    2    1    2    0    0  0.00000000000E+00  0.00000000000E+00  0.12477214171E+04  0.17235941097E+04  0.11891038308E+04 0.  0.
        3    1    3    3  502    0  0.18174507319E+03  0.19717665783E+03 -0.14530110885E+03  0.30499562039E+03  0.10100000352E+00 0.  1.
       -3    1    3    3    0  502 -0.18174507319E+03 -0.19717665783E+03  0.13930225259E+04  0.14185984893E+04  0.10100000352E+00 0. -1.
</event>
<event>
 5   0  0.1404833E-03  0.1196271E+04  0.7818609E-02  0.9116127E-01
       -1   -1    0    0    0  501  0.00000000000E+00  0.00000000000E+00  0.41361294153E+03  0.41361294156E+03  0.50400001928E-02 0.  1.
        1   -1    0    0  501    0  0.00000000000E+00  0.00000000000E+00 -0.86497796561E+03  0.86497796562E+03  0.50400001928E-02 0. -1.
    10030    2    1    2    0    0  0.00000000000E+00  0.00000000000E+00 -0.45136502408E+03  0.12785909072E+04  0.11962710073E+04 0.  0.
        1    1    3    3  502    0  0.37123230754E+02  0.36835865068E+03 -0.72779734857E+03  0.81655080087E+03  0.50400001928E-02 0. -1.
       -1    1    3    3    0  502 -0.37123230754E+02 -0.36835865068E+03  0.27643232450E+03  0.46204010631E+03  0.50400001928E-02 0.  1.
</event>
<event>
 5   0  0.1403154E-03  0.1209844E+04  0.7818609E-02  0.9104284E-01
       -1   -1    0    0    0  501  0.00000000000E+00  0.00000000000E+00  0.33050936836E+03  0.33050936840E+03  0.50400001928E-02 0. -1.
        1   -1    0    0  501    0  0.00000000000E+00  0.00000000000E+00 -0.11071708192E+04  0.11071708192E+04  0.50400001928E-02 0.  1.
    10030    2    1    2    0    0  0.00000000000E+00  0.00000000000E+00 -0.77666145081E+03  0.14376801876E+04  0.12098435075E+04 0.  0.
        3    1    3    3  502    0 -0.20209401172E+03  0.43183692013E+03  0.54077156692E+02  0.47984316629E+03  0.10100000352E+00 0. -1.
       -3    1    3    3    0  502  0.20209401172E+03 -0.43183692013E+03 -0.83073860750E+03  0.95783702129E+03  0.10100000352E+00 0.  1.
</event>
<event>
 5   0  0.1423024E-03  0.1204902E+04  0.7818609E-02  0.9108576E-01
        1   -1    0    0  501    0  0.00000000000E+00  0.00000000000E+00  0.72349237812E+03  0.72349237813E+03  0.50400001928E-02 0. -1.
       -1   -1    0    0    0  501  0.00000000000E+00  0.00000000000E+00 -0.50166038058E+03  0.50166038060E+03  0.50400001928E-02 0.  1.
    10030    2    1    2    0    0  0.00000000000E+00  0.00000000000E+00  0.22183199754E+03  0.12251527587E+04  0.12049024222E+04 0.  0.
        2    1    3    3  502    0 -0.52746409330E+03  0.18910785425E+03  0.33592064955E+03  0.65331679380E+03  0.25500000920E-02 0. -1.
       -2    1    3    3    0  502  0.52746409330E+03 -0.18910785425E+03 -0.11408865201E+03  0.57183596493E+03  0.25500000920E-02 0.  1.
</event>
<event>
 5   0  0.1469851E-03  0.1201428E+04  0.7818609E-02  0.9111608E-01
        1   -1    0    0  501    0  0.00000000000E+00  0.00000000000E+00  0.29148691783E+03  0.29148691787E+03  0.50400001928E-02 0. -1.
       -1   -1    0    0    0  501  0.00000000000E+00  0.00000000000E+00 -0.12379869903E+04  0.12379869904E+04  0.50400001928E-02 0.  1.
    10030    2    1    2    0    0  0.00000000000E+00  0.00000000000E+00 -0.94650007252E+03  0.15294739082E+04  0.12014275045E+04 0.  0.
        5    1    3    3  502    0 -0.21601648027E+03 -0.45671988821E+03 -0.59600299324E+02  0.50875383214E+03  0.46999998093E+01 0. -1.
       -5    1    3    3    0  502  0.21601648027E+03  0.45671988821E+03 -0.88689977320E+03  0.10207200761E+04  0.46999998093E+01 0.  1.
</event>
<event>
 5   0  0.2579442E-03  0.1189813E+04  0.7818609E-02  0.9121820E-01
       -2   -1    0    0    0  501  0.00000000000E+00  0.00000000000E+00  0.71708078133E+03  0.71708078133E+03  0.25500000920E-02 0.  1.
        2   -1    0    0  501    0  0.00000000000E+00  0.00000000000E+00 -0.49354802105E+03  0.49354802106E+03  0.25500000920E-02 0. -1.
    10030    2    1    2    0    0  0.00000000000E+00  0.00000000000E+00  0.22353276027E+03  0.12106288024E+04  0.11898130955E+04 0.  0.
        4    1    3    3  502    0  0.37581582559E+03  0.11627640402E+03  0.56584103949E+03  0.68915559329E+03  0.12699999809E+01 0.  1.
       -4    1    3    3    0  502 -0.37581582559E+03 -0.11627640402E+03 -0.34230827921E+03  0.52147320910E+03  0.12699999809E+01 0. -1.
</event>
<event>
 5   0  0.2580244E-03  0.1195924E+04  0.7818609E-02  0.9116432E-01
       -2   -1    0    0    0  501  0.00000000000E+00  0.00000000000E+00  0.83900305996E+03  0.83900305997E+03  0.25500000920E-02 0.  1.
        2   -1    0    0  501    0  0.00000000000E+00  0.00000000000E+00 -0.42617059038E+03  0.42617059038E+03  0.25500000920E-02 0. -1.
    10030    2    1    2    0    0  0.00000000000E+00  0.00000000000E+00  0.41283246959E+03  0.12651736503E+04  0.11959237926E+04 0.  0.
        1    1    3    3  502    0 -0.16531344456E+03  0.29658814878E+02 -0.40070528969E+03  0.43448004495E+03  0.50400001928E-02 0. -1.
       -1    1    3    3    0  502  0.16531344456E+03 -0.29658814878E+02  0.81353775928E+03  0.83069360540E+03  0.50400001928E-02 0.  1.
</event>
<event>
 5   0  0.1455076E-03  0.1254996E+04  0.7818609E-02  0.9066035E-01
        1   -1    0    0  501    0  0.00000000000E+00  0.00000000000E+00  0.12716339788E+04  0.12716339788E+04  0.50400001928E-02 0. -1.
       -1   -1    0    0    0  501  0.00000000000E+00  0.00000000000E+00 -0.30964417112E+03  0.30964417116E+03  0.50400001928E-02 0.  1.
    10030    2    1    2    0    0  0.00000000000E+00  0.00000000000E+00  0.96198980770E+03  0.15812781500E+04  0.12549964930E+04 0.  0.
        4    1    3    3  502    0 -0.60523341648E+02 -0.95957560485E+02 -0.29661306361E+03  0.31757180401E+03  0.12699999809E+01 0.  1.
       -4    1    3    3    0  502  0.60523341648E+02  0.95957560485E+02  0.12586028713E+04  0.12637063460E+04  0.12699999809E+01 0. -1.
</event>
<event>
 5   0  0.2484507E-03  0.1197520E+04  0.7818609E-02  0.9115030E-01
       -2   -1    0    0    0  501  0.00000000000E+00  0.00000000000E+00  0.26381852169E+03  0.26381852170E+03  0.25500000920E-02 0.  1.
        2   -1    0    0  501    0  0.00000000000E+00  0.00000000000E+00 -0.13589398975E+04  0.13589398975E+04  0.25500000920E-02 0. -1.
    10030    2    1    2    0    0  0.00000000000E+00  0.00000000000E+00 -0.10951213758E+04  0.16227584192E+04  0.11975199620E+04 0.  0.
        2    1    3    3  502    0  0.40455519195E+01  0.23801601709E+03  0.19693721621E+03  0.30895348844E+03  0.25500000920E-02 0.  1.
       -2    1    3    3    0  502 -0.40455519195E+01 -0.23801601709E+03 -0.12920585921E+04  0.13138049308E+04  0.25500000920E-02 0. -1.
</event>
<event>
 5   0  0.1469851E-03  0.1202848E+04  0.7818609E-02  0.9110367E-01
        1   -1    0    0  501    0  0.00000000000E+00  0.00000000000E+00  0.76113819341E+03  0.76113819342E+03  0.50400001928E-02 0.  1.
       -1   -1    0    0    0  501  0.00000000000E+00  0.00000000000E+00 -0.47522365898E+03  0.47522365901E+03  0.50400001928E-02 0. -1.
    10030    2    1    2    0    0  0.00000000000E+00  0.00000000000E+00  0.28591453443E+03  0.12363618524E+04  0.12028480823E+04 0.  0.
        5    1    3    3  502    0 -0.59226243185E+03 -0.69604659113E+02  0.62881667046E+02  0.59966306440E+03  0.46999998093E+01 0.  1.
       -5    1    3    3    0  502  0.59226243185E+03  0.69604659113E+02  0.22303286738E+03  0.63669878803E+03  0.46999998093E+01 0. -1.
</event>
<event>
 5   0  0.2484507E-03  0.1221937E+04  0.7818609E-02  0.9093869E-01
       -2   -1    0    0    0  501  0.00000000000E+00  0.00000000000E+00  0.91089694597E+03  0.91089694597E+03  0.25500000920E-02 0.  1.
        2   -1    0    0  501    0  0.00000000000E+00  0.00000000000E+00 -0.40979634466E+03  0.40979634467E+03  0.25500000920E-02 0. -1.
    10030    2    1    2    0    0  0.00000000000E+00  0.00000000000E+00  0.50110060131E+03  0.13206932906E+04  0.12219365594E+04 0.  0.
        2    1    3    3  502    0 -0.53084595097E+03 -0.20582462300E+03  0.49009528843E+03  0.75123537646E+03  0.25500000920E-02 0.  1.
       -2    1    3    3    0  502  0.53084595097E+03  0.20582462300E+03  0.11005312876E+02  0.56945791418E+03  0.25500000920E-02 0. -1.
</event>
<event>
 5   0  0.1455076E-03  0.1195196E+04  0.7818609E-02  0.9117072E-01
       -1   -1    0    0    0  501  0.00000000000E+00  0.00000000000E+00  0.42525448997E+03  0.42525449000E+03  0.50400001928E-02 0. -1.
        1   -1    0    0  501    0  0.00000000000E+00  0.00000000000E+00 -0.83978694951E+03  0.83978694953E+03  0.50400001928E-02 0.  1.
    10030    2    1    2    0    0  0.00000000000E+00  0.00000000000E+00 -0.41453245954E+03  0.12650414395E+04  0.11951956675E+04 0.  0.
        4    1    3    3  502    0 -0.49594899282E+03  0.61350331942E+02  0.13959223395E+03  0.51886112919E+03  0.12699999809E+01 0. -1.
       -4    1    3    3    0  502  0.49594899282E+03 -0.61350331942E+02 -0.55412469349E+03  0.74618031034E+03  0.12699999809E+01 0.  1.
</event>
<event>
 5   0  0.1423024E-03  0.1200827E+04  0.7818609E-02  0.9112133E-01
       -1   -1    0    0    0  501  0.00000000000E+00  0.00000000000E+00  0.63517747929E+03  0.63517747931E+03  0.50400001928E-02 0.  1.
        1   -1    0    0  501    0  0.00000000000E+00  0.00000000000E+00 -0.56755235566E+03  0.56755235568E+03  0.50400001928E-02 0. -1.
    10030    2    1    2    0    0  0.00000000000E+00  0.00000000000E+00  0.67625123630E+02  0.12027298350E+04  0.12008271727E+04 0.  0.
        2    1    3    3  502    0 -0.80119236449E+02  0.36251687580E+03  0.50642767422E+03  0.62793834611E+03  0.25500000920E-02 0.  1.
       -2    1    3    3    0  502  0.80119236449E+02 -0.36251687580E+03 -0.43880255059E+03  0.57479148889E+03  0.25500000920E-02 0. -1.
</event>
<event>
 5   0  0.1423024E-03  0.1192303E+04  0.7818609E-02  0.9119620E-01
        1   -1    0    0  501    0  0.00000000000E+00  0.00000000000E+00  0.35207616960E+03  0.35207616964E+03  0.50400001928E-02 0.  1.
       -1   -1    0    0    0  501  0.00000000000E+00  0.00000000000E+00 -0.10094313093E+04  0.10094313094E+04  0.50400001928E-02 0. -1.
    10030    2    1    2    0    0  0.00000000000E+00  0.00000000000E+00 -0.65735513974E+03  0.13615074790E+04  0.11923031643E+04 0.  0.
        2    1    3    3  502    0 -0.24342471268E+03  0.54413868214E+03 -0.33708540251E+03  0.68481316046E+03  0.25500000920E-02 0.  1.
       -2    1    3    3    0  502  0.24342471268E+03 -0.54413868214E+03 -0.32026973723E+03  0.67669431853E+03  0.25500000920E-02 0. -1.
</event>
<event>
 5   0  0.2484507E-03  0.1221301E+04  0.7818609E-02  0.9094413E-01
       -2   -1    0    0    0  501  0.00000000000E+00  0.00000000000E+00  0.80100700010E+03  0.80100700010E+03  0.25500000920E-02 0.  1.
        2   -1    0    0  501    0  0.00000000000E+00  0.00000000000E+00 -0.46553190392E+03  0.46553190392E+03  0.25500000920E-02 0. -1.
    10030    2    1    2    0    0  0.00000000000E+00  0.00000000000E+00  0.33547509618E+03  0.12665389040E+04  0.12213014596E+04 0.  0.
        2    1    3    3  502    0 -0.21433215810E+03 -0.30829472467E+03 -0.33167077180E+03  0.50098843513E+03  0.25500000920E-02 0. -1.
       -2    1    3    3    0  502  0.21433215810E+03  0.30829472467E+03  0.66714586798E+03  0.76555046890E+03  0.25500000920E-02 0.  1.
</event>
<event>
 5   0  0.1469851E-03  0.1131319E+04  0.7818609E-02  0.9175193E-01
        1   -1    0    0  501    0  0.00000000000E+00  0.00000000000E+00  0.10076376579E+04  0.10076376579E+04  0.50400001928E-02 0.  1.
       -1   -1    0    0    0  501  0.00000000000E+00  0.00000000000E+00 -0.31754537210E+03  0.31754537214E+03  0.50400001928E-02 0. -1.
    10030    2    1    2    0    0  0.00000000000E+00  0.00000000000E+00  0.69009228581E+03  0.13251830301E+04  0.11313190090E+04 0.  0.
        5    1    3    3  502    0 -0.27583246209E+03  0.16877770441E+03  0.88866258631E+03  0.94568110003E+03  0.46999998093E+01 0.  1.
       -5    1    3    3    0  502  0.27583246209E+03 -0.16877770441E+03 -0.19857030050E+03  0.37950193002E+03  0.46999998093E+01 0. -1.
</event>
<event>
 5   0  0.2499890E-03  0.1208904E+04  0.7818609E-02  0.9105098E-01
        2   -1    0    0  501    0  0.00000000000E+00  0.00000000000E+00  0.18896408543E+04  0.18896408543E+04  0.25500000920E-02 0. -1.
       -2   -1    0    0    0  501  0.00000000000E+00  0.00000000000E+00 -0.19335008787E+03  0.19335008789E+03  0.25500000920E-02 0.  1.
    10030    2    1    2    0    0  0.00000000000E+00  0.00000000000E+00  0.16962907664E+04  0.20829909422E+04  0.12089040082E+04 0.  0.
        5    1    3    3  502    0 -0.38787229949E+03 -0.41205881695E+03  0.12140745742E+04  0.13394911537E+04  0.46999998093E+01 0. -1.
       -5    1    3    3    0  502  0.38787229949E+03  0.41205881695E+03  0.48221619226E+03  0.74349978845E+03  0.46999998093E+01 0.  1.
</event>
<event>
 5   0  0.2499890E-03  0.1209601E+04  0.7818609E-02  0.9104494E-01
        2   -1    0    0  501    0  0.00000000000E+00  0.00000000000E+00  0.10250344540E+04  0.10250344540E+04  0.25500000920E-02 0.  1.
       -2   -1    0    0    0  501  0.00000000000E+00  0.00000000000E+00 -0.35685039137E+03  0.35685039138E+03  0.25500000920E-02 0. -1.
    10030    2    1    2    0    0  0.00000000000E+00  0.00000000000E+00  0.66818406265E+03  0.13818848454E+04  0.12096014982E+04 0.  0.
        5    1    3    3  502    0  0.14992551424E+03  0.47884838091E+03 -0.51617093636E+02  0.50444013131E+03  0.46999998093E+01 0. -1.
       -5    1    3    3    0  502 -0.14992551424E+03 -0.47884838091E+03  0.71980115629E+03  0.87744471410E+03  0.46999998093E+01 0.  1.
</event>
<event>
 5   0  0.2579442E-03  0.1213215E+04  0.7818609E-02  0.9101368E-01
       -2   -1    0    0    0  501  0.00000000000E+00  0.00000000000E+00  0.85428251328E+03  0.85428251328E+03  0.25500000920E-02 0. -1.
        2   -1    0    0  501    0  0.00000000000E+00  0.00000000000E+00 -0.43073859231E+03  0.43073859231E+03  0.25500000920E-02 0.  1.
    10030    2    1    2    0    0  0.00000000000E+00  0.00000000000E+00  0.42354392097E+03  0.12850211056E+04  0.12132146508E+04 0.  0.
        4    1    3    3  502    0 -0.13374480467E+03 -0.50037071549E+03 -0.12269020727E+03  0.53227157125E+03  0.12699999809E+01 0.  1.
       -4    1    3    3    0  502  0.13374480467E+03  0.50037071549E+03  0.54623412824E+03  0.75274953435E+03  0.12699999809E+01 0. -1.
</event>
<event>
 5   0  0.1455076E-03  0.1190669E+04  0.7818609E-02  0.9121063E-01
       -1   -1    0    0    0  501  0.00000000000E+00  0.00000000000E+00  0.52174563286E+03  0.52174563289E+03  0.50400001928E-02 0.  1.
        1   -1    0    0  501    0  0.00000000000E+00  0.00000000000E+00 -0.67930296938E+03  0.67930296940E+03  0.50400001928E-02 0. -1.
    10030    2    1    2    0    0  0.00000000000E+00  0.00000000000E+00 -0.15755733652E+03  0.12010486023E+04  0.11906693205E+04 0.  0.
        4    1    3    3  502    0 -0.43926348655E+03 -0.30957406178E+02  0.32535197545E+03  0.54750917111E+03  0.12699999809E+01 0.  1.
       -4    1    3    3    0  502  0.43926348655E+03  0.30957406178E+02 -0.48290931197E+03  0.65353943118E+03  0.12699999809E+01 0. -1.
</event>
<event>
 5   0  0.1423024E-03  0.1214854E+04  0.7818609E-02  0.9099953E-01
       -1   -1    0    0    0  501  0.00000000000E+00  0.00000000000E+00  0.29483053618E+03  0.29483053623E+03  0.50400001928E-02 0.  1.
        1   -1    0    0  501    0  0.00000000000E+00  0.00000000000E+00 -0.12514570297E+04  0.12514570297E+04  0.50400001928E-02 0. -1.
    10030    2    1    2    0    0  0.00000000000E+00  0.00000000000E+00 -0.95662649347E+03  0.15462875659E+04  0.12148543075E+04 0.  0.
        2    1    3    3  502    0 -0.23579856540E+03 -0.52290735665E+03 -0.73266876856E+03  0.93050340758E+03  0.25500000920E-02 0. -1.
       -2    1    3    3    0  502  0.23579856540E+03  0.52290735665E+03 -0.22395772491E+03  0.61578415831E+03  0.25500000920E-02 0.  1.
</event>
<event>
 5   0  0.2484507E-03  0.1187162E+04  0.7818609E-02  0.9124169E-01
       -2   -1    0    0    0  501  0.00000000000E+00  0.00000000000E+00  0.20488288305E+03  0.20488288307E+03  0.25500000920E-02 0.  1.
        2   -1    0    0  501    0  0.00000000000E+00  0.00000000000E+00 -0.17197056342E+04  0.17197056342E+04  0.25500000920E-02 0. -1.
    10030    2    1    2    0    0  0.00000000000E+00  0.00000000000E+00 -0.15148227511E+04  0.19245885172E+04  0.11871617385E+04 0.  0.
        2    1    3    3  502    0  0.44541424779E+03 -0.34288192204E+03 -0.44821260344E+03  0.71892725813E+03  0.25500000920E-02 0.  1.
       -2    1    3    3    0  502 -0.44541424779E+03  0.34288192204E+03 -0.10666101477E+04  0.12056612591E+04  0.25500000920E-02 0. -1.
</event>
<event>
 5   0  0.1423024E-03  0.1194539E+04  0.7818609E-02  0.9117650E-01
        1   -1    0    0  501    0  0.00000000000E+00  0.00000000000E+00  0.87397677228E+03  0.87397677229E+03  0.50400001928E-02 0. -1.
       -1   -1    0    0    0  501  0.00000000000E+00  0.00000000000E+00 -0.40816995931E+03  0.40816995934E+03  0.50400001928E-02 0.  1.
    10030    2    1    2    0    0  0.00000000000E+00  0.00000000000E+00  0.46580681297E+03  0.12821467316E+04  0.11945393482E+04 0.  0.
        2    1    3    3  502    0 -0.83051860842E+02  0.50012423483E+03  0.57182940897E+03  0.76420595053E+03  0.25500000920E-02 0. -1.
       -2    1    3    3    0  502  0.83051860842E+02 -0.50012423483E+03 -0.10602259600E+03  0.51794078110E+03  0.25500000920E-02 0.  1.
</event>
<event>
 5   0  0.2517023E-03  0.1193942E+04  0.7818609E-02  0.9118176E-01
        2   -1    0    0  501    0  0.00000000000E+00  0.00000000000E+00  0.76684330197E+03  0.76684330197E+03  0.25500000920E-02 0.  1.
       -2   -1    0    0    0  501  0.00000000000E+00  0.00000000000E+00 -0.46472886285E+03  0.46472886286E+03  0.25500000920E-02 0. -1.
    10030    2    1    2    0    0  0.00000000000E+00  0.00000000000E+00  0.30211443911E+03  0.12315721648E+04  0.11939417334E+04 0.  0.
        3    1    3    3  502    0  0.48356909703E+03 -0.29679232772E+03 -0.40398288934E+02  0.56882052472E+03  0.10100000352E+00 0. -1.
       -3    1    3    3    0  502 -0.48356909703E+03  0.29679232772E+03  0.34251272805E+03  0.66275164011E+03  0.10100000352E+00 0.  1.
</event>
<event>
 5   0  0.2499890E-03  0.1247155E+04  0.7818609E-02  0.9072554E-01
        2   -1    0    0  501    0  0.00000000000E+00  0.00000000000E+00  0.13169760707E+04  0.13169760707E+04  0.25500000920E-02 0. -1.
       -2   -1    0    0    0  501  0.00000000000E+00  0.00000000000E+00 -0.29525891747E+03  0.29525891748E+03  0.25500000920E-02 0.  1.
    10030    2    1    2    0    0  0.00000000000E+00  0.00000000000E+00  0.10217171532E+04  0.16122349881E+04  0.12471550488E+04 0.  0.
        5    1    3    3  502    0  0.42024262465E+03  0.42758664173E+03  0.73248788157E+03  0.94657001136E+03  0.46999998093E+01 0.  1.
       -5    1    3    3    0  502 -0.42024262465E+03 -0.42758664173E+03  0.28922927164E+03  0.66566497679E+03  0.46999998093E+01 0. -1.
</event>
<event>
 5   0  0.1469851E-03  0.1196792E+04  0.7818609E-02  0.9115669E-01
        1   -1    0    0  501    0  0.00000000000E+00  0.00000000000E+00  0.12578904589E+04  0.12578904589E+04  0.50400001928E-02 0. -1.
       -1   -1    0    0    0  501  0.00000000000E+00  0.00000000000E+00 -0.28466543545E+03  0.28466543549E+03  0.50400001928E-02 0.  1.
    10030    2    1    2    0    0  0.00000000000E+00  0.00000000000E+00  0.97322502345E+03  0.15425558944E+04  0.11967922715E+04 0.  0.
        5    1    3    3  502    0  0.43326970066E+03 -0.32545050386E+03  0.81373940590E+03  0.97766792659E+03  0.46999998093E+01 0. -1.
       -5    1    3    3    0  502 -0.43326970066E+03  0.32545050386E+03  0.15948561755E+03  0.56488796781E+03  0.46999998093E+01 0.  1.
</event>
<event>
 5   0  0.1403154E-03  0.1186486E+04  0.7818609E-02  0.9124768E-01
        1   -1    0    0  501    0  0.00000000000E+00  0.00000000000E+00  0.40708132080E+03  0.40708132084E+03  0.50400001928E-02 0. -1.
       -1   -1    0    0    0  501  0.00000000000E+00  0.00000000000E+00 -0.86453766494E+03  0.86453766496E+03  0.50400001928E-02 0.  1.
    10030    2    1    2    0    0  0.00000000000E+00  0.00000000000E+00 -0.45745634414E+03  0.12716189858E+04  0.11864857935E+04 0.  0.
        3    1    3    3  502    0  0.17825756943E+03  0.48352939607E+02  0.37548107265E+03  0.41844929674E+03  0.10100000352E+00 0. -1.
       -3    1    3    3    0  502 -0.17825756943E+03 -0.48352939607E+02 -0.83293741679E+03  0.85316968905E+03  0.10100000352E+00 0.  1.
</event>
<event>
 5   0  0.2517023E-03  0.1057363E+04  0.7818609E-02  0.9247775E-01
       -2   -1    0    0    0  501  0.00000000000E+00  0.00000000000E+00  0.31358678077E+03  0.31358678078E+03  0.25500000920E-02 0.  1.
        2   -1    0    0  501    0  0.00000000000E+00  0.00000000000E+00 -0.89131318204E+03  0.89131318205E+03  0.25500000920E-02 0. -1.
    10030    2    1    2    0    0  0.00000000000E+00  0.00000000000E+00 -0.57772640128E+03  0.12048999628E+04  0.10573628165E+04 0.  0.
        3    1    3    3  502    0 -0.41986032127E+03 -0.80039862700E+02 -0.64343008805E+03  0.77245799718E+03  0.10100000352E+00 0. -1.
       -3    1    3    3    0  502  0.41986032127E+03  0.80039862700E+02  0.65703686773E+02  0.43244196565E+03  0.10100000352E+00 0.  1.
</event>
<event>
 5   0  0.2580244E-03  0.1204253E+04  0.7818609E-02  0.9109142E-01
        2   -1    0    0  501    0  0.00000000000E+00  0.00000000000E+00  0.97947808549E+03  0.97947808549E+03  0.25500000920E-02 0. -1.
       -2   -1    0    0    0  501  0.00000000000E+00  0.00000000000E+00 -0.37015229901E+03  0.37015229902E+03  0.25500000920E-02 0.  1.
    10030    2    1    2    0    0  0.00000000000E+00  0.00000000000E+00  0.60932578648E+03  0.13496303845E+04  0.12042525735E+04 0.  0.
        1    1    3    3  502    0 -0.13402873919E+03 -0.25051177813E+02 -0.35262292943E+03  0.37806638944E+03  0.50400001928E-02 0.  1.
       -1    1    3    3    0  502  0.13402873919E+03  0.25051177813E+02  0.96194871591E+03  0.97156399507E+03  0.50400001928E-02 0. -1.
</event>
<event>
 5   0  0.2580244E-03  0.1219070E+04  0.7818609E-02  0.9096326E-01
        2   -1    0    0  501    0  0.00000000000E+00  0.00000000000E+00  0.20605824185E+04  0.20605824185E+04  0.25500000920E-02 0. -1.
       -2   -1    0    0    0  501  0.00000000000E+00  0.00000000000E+00 -0.18030485604E+03  0.18030485606E+03  0.25500000920E-02 0.  1.
    10030    2    1    2    0    0  0.00000000000E+00  0.00000000000E+00  0.18802775624E+04  0.22408872745E+04  0.12190701643E+04 0.  0.
        1    1    3    3  502    0  0.32298205303E+03  0.29421350423E+01 -0.10061568241E+02  0.32315212814E+03  0.50400001928E-02 0.  1.
       -1    1    3    3    0  502 -0.32298205303E+03 -0.29421350423E+01  0.18903391307E+04  0.19177351464E+04  0.50400001928E-02 0. -1.
</event>
<event>
 5   0  0.2484507E-03  0.1202618E+04  0.7818609E-02  0.9110568E-01
        2   -1    0    0  501    0  0.00000000000E+00  0.00000000000E+00  0.14552287890E+04  0.14552287890E+04  0.25500000920E-02 0. -1.
       -2   -1    0    0    0  501  0.00000000000E+00  0.00000000000E+00 -0.24846440325E+03  0.24846440326E+03  0.25500000920E-02 0.  1.
    10030    2    1    2    0    0  0.00000000000E+00  0.00000000000E+00  0.12067643857E+04  0.17036931922E+04  0.12026180652E+04 0.  0.
        2    1    3    3  502    0  0.37072133257E+03  0.46499078522E+03  0.47729353068E+03  0.76253514752E+03  0.25500000920E-02 0. -1.
       -2    1    3    3    0  502 -0.37072133257E+03 -0.46499078522E+03  0.72947085506E+03  0.94115804473E+03  0.25500000920E-02 0.  1.
</event>
<event>
 5   0  0.1404833E-03  0.1168211E+04  0.7818609E-02  0.9141146E-01
       -1   -1    0    0    0  501  0.00000000000E+00  0.00000000000E+00  0.88747928068E+03  0.88747928070E+03  0.50400001928E-02 0. -1.
        1   -1    0    0  501    0  0.00000000000E+00  0.00000000000E+00 -0.38443606028E+03  0.38443606031E+03  0.50400001928E-02 0.  1.
    10030    2    1    2    0    0  0.00000000000E+00  0.00000000000E+00  0.50304322041E+03  0.12719153410E+04  0.11682106630E+04 0.  0.
        1    1    3    3  502    0  0.37313247318E+02 -0.57833417480E+03  0.33090753323E+03  0.66735484694E+03  0.50400001928E-02 0. -1.
       -1    1    3    3    0  502 -0.37313247318E+02  0.57833417480E+03  0.17213568718E+03  0.60456049407E+03  0.50400001928E-02 0.  1.
</event>
<event>
 5   0  0.2580244E-03  0.1196292E+04  0.7818609E-02  0.9116108E-01
        2   -1    0    0  501    0  0.00000000000E+00  0.00000000000E+00  0.54186239087E+03  0.54186239087E+03  0.25500000920E-02 0. -1.
       -2   -1    0    0    0  501  0.00000000000E+00  0.00000000000E+00 -0.66027626701E+03  0.66027626701E+03  0.25500000920E-02 0.  1.
    10030    2    1    2    0    0  0.00000000000E+00  0.00000000000E+00 -0.11841387614E+03  0.12021386579E+04  0.11962924002E+04 0.  0.
        1    1    3    3  502    0  0.55095528317E+02 -0.24810583161E+02  0.53878761304E+03  0.54216526472E+03  0.50400001928E-02 0. -1.
       -1    1    3    3    0  502 -0.55095528317E+02  0.24810583161E+02 -0.65720148918E+03  0.65997339316E+03  0.50400001928E-02 0.  1.
</event>
<event>
 5   0  0.2579442E-03  0.1189830E+04  0.7818609E-02  0.9121805E-01
       -2   -1    0    0    0  501  0.00000000000E+00  0.00000000000E+00  0.29474561658E+03  0.29474561659E+03  0.25500000920E-02 0.  1.
        2   -1    0    0  501    0  0.00000000000E+00  0.00000000000E+00 -0.12007777139E+04  0.12007777139E+04  0.25500000920E-02 0. -1.
    10030    2    1    2    0    0  0.00000000000E+00  0.00000000000E+00 -0.90603209733E+03  0.14955233305E+04  0.11898301857E+04 0.  0.
        4    1    3    3  502    0  0.19050363031E+03 -0.19632638972E+03  0.21099874779E+03  0.34548193720E+03  0.12699999809E+01 0.  1.
       -4    1    3    3    0  502 -0.19050363031E+03  0.19632638972E+03 -0.11170308451E+04  0.11500413933E+04  0.12699999809E+01 0. -1.
</event>
<event>
 5   0  0.2517023E-03  0.1203758E+04  0.7818609E-02  0.9109573E-01
        2   -1    0    0  501    0  0.00000000000E+00  0.00000000000E+00  0.77463594836E+03  0.77463594836E+03  0.25500000920E-02 0. -1.
       -2   -1    0    0    0  501  0.00000000000E+00  0.00000000000E+00 -0.46764990236E+03  0.46764990237E+03  0.25500000920E-02 0.  1.
    10030    2    1    2    0    0  0.00000000000E+00  0.00000000000E+00  0.30698604600E+03  0.12422858507E+04  0.12037581578E+04 0.  0.
        3    1    3    3  502    0 -0.54241451935E+03 -0.40974387726E+02  0.41935432691E+03  0.68684093716E+03  0.10100000352E+00 0. -1.
       -3    1    3    3    0  502  0.54241451935E+03  0.40974387726E+02 -0.11236828091E+03  0.55544491357E+03  0.10100000352E+00 0.  1.
</event>
<event>
 5   0  0.1403154E-03  0.1199207E+04  0.7818609E-02  0.9113551E-01
        1   -1    0    0  501    0  0.00000000000E+00  0.00000000000E+00  0.22475775966E+04  0.22475775966E+04  0.50400001928E-02 0. -1.
       -1   -1    0    0    0  501  0.00000000000E+00  0.00000000000E+00 -0.15996081115E+03  0.15996081123E+03  0.50400001928E-02 0.  1.
    10030    2    1    2    0    0  0.00000000000E+00  0.00000000000E+00  0.20876167854E+04  0.24075384078E+04  0.11992069639E+04 0.  0.
        3    1    3    3  502    0 -0.39322514166E+03  0.39114291191E+03  0.15011976095E+04  0.16003790371E+04  0.10100000352E+00 0. -1.
       -3    1    3    3    0  502  0.39322514166E+03 -0.39114291191E+03  0.58641917595E+03  0.80715937069E+03  0.10100000352E+00 0.  1.
</event>
<event>
 5   0  0.9678750E-04  0.1191311E+04  0.7818609E-02  0.9120496E-01
        4   -1    0    0  501    0  0.00000000000E+00  0.00000000000E+00  0.36399305016E+03  0.36399526572E+03  0.12699999809E+01 0.  1.
       -4   -1    0    0    0  501  0.00000000000E+00  0.00000000000E+00 -0.97475348710E+03  0.97475431443E+03  0.12699999809E+01 0. -1.
    10030    2    1    2    0    0  0.00000000000E+00  0.00000000000E+00 -0.61076043693E+03  0.13387495802E+04  0.11913110958E+04 0.  0.
        5    1    3    3  502    0  0.39912425434E+03 -0.29500522562E+03  0.64702944347E+02  0.50053652669E+03  0.46999998093E+01 0.  1.
       -5    1    3    3    0  502 -0.39912425434E+03  0.29500522562E+03 -0.67546338128E+03  0.83821305346E+03  0.46999998093E+01 0. -1.
</event>
<event>
 5   0  0.2580244E-03  0.1221686E+04  0.7818609E-02  0.9094084E-01
        2   -1    0    0  501    0  0.00000000000E+00  0.00000000000E+00  0.84466407442E+03  0.84466407442E+03  0.25500000920E-02 0. -1.
       -2   -1    0    0    0  501  0.00000000000E+00  0.00000000000E+00 -0.44174864582E+03  0.44174864583E+03  0.25500000920E-02 0.  1.
    10030    2    1    2    0    0  0.00000000000E+00  0.00000000000E+00  0.40291542860E+03  0.12864127202E+04  0.12216860661E+04 0.  0.
        1    1    3    3  502    0  0.17686603456E+03 -0.56335450409E+03  0.36709628901E+02  0.59160585556E+03  0.50400001928E-02 0.  1.
       -1    1    3    3    0  502 -0.17686603456E+03  0.56335450409E+03  0.36620579970E+03  0.69480686469E+03  0.50400001928E-02 0. -1.
</event>
<event>
 5   0  0.2579442E-03  0.1195388E+04  0.7818609E-02  0.9116903E-01
        2   -1    0    0  501    0  0.00000000000E+00  0.00000000000E+00  0.14053789361E+04  0.14053789361E+04  0.25500000920E-02 0. -1.
       -2   -1    0    0    0  501  0.00000000000E+00  0.00000000000E+00 -0.25419327633E+03  0.25419327634E+03  0.25500000920E-02 0.  1.
    10030    2    1    2    0    0  0.00000000000E+00  0.00000000000E+00  0.11511856598E+04  0.16595722125E+04  0.11953875962E+04 0.  0.
        4    1    3    3  502    0 -0.29432824121E+03  0.30826579381E+03  0.11573264023E+04  0.12333137993E+04  0.12699999809E+01 0. -1.
       -4    1    3    3    0  502  0.29432824121E+03 -0.30826579381E+03 -0.61407424588E+01  0.42625841320E+03  0.12699999809E+01 0.  1.
</event>
<event>
 5   0  0.2517023E-03  0.1213772E+04  0.7818609E-02  0.9100887E-01
        2   -1    0    0  501    0  0.00000000000E+00  0.00000000000E+00  0.16904339066E+04  0.16904339066E+04  0.25500000920E-02 0. -1.
       -2   -1    0    0    0  501  0.00000000000E+00  0.00000000000E+00 -0.21787938826E+03  0.21787938827E+03  0.25500000920E-02 0.  1.
    10030    2    1    2    0    0  0.00000000000E+00  0.00000000000E+00  0.14725545184E+04  0.19083132949E+04  0.12137721458E+04 0.  0.
        3    1    3    3  502    0 -0.37636260819E+03 -0.14769890674E+03  0.14478629780E+04  0.15032534694E+04  0.10100000352E+00 0. -1.
       -3    1    3    3    0  502  0.37636260819E+03  0.14769890674E+03  0.24691540376E+02  0.40505982554E+03  0.10100000352E+00 0.  1.
</event>
<event>
 5   0  0.1404833E-03  0.1245584E+04  0.7818609E-02  0.9073867E-01
       -1   -1    0    0    0  501  0.00000000000E+00  0.00000000000E+00  0.83434467986E+03  0.83434467988E+03  0.50400001928E-02 0.  1.
        1   -1    0    0  501    0  0.00000000000E+00  0.00000000000E+00 -0.46487952033E+03  0.46487952036E+03  0.50400001928E-02 0. -1.
    10030    2    1    2    0    0  0.00000000000E+00  0.00000000000E+00  0.36946515953E+03  0.12992242002E+04  0.12455838062E+04 0.  0.
        1    1    3    3  502    0  0.82091680533E+02  0.61302897982E+03  0.10860902046E+03  0.62796456386E+03  0.50400001928E-02 0. -1.
       -1    1    3    3    0  502 -0.82091680533E+02 -0.61302897982E+03  0.26085613907E+03  0.67125963637E+03  0.50400001928E-02 0.  1.
</event>
<event>
 5   0  0.2484507E-03  0.1207032E+04  0.7818609E-02  0.9106723E-01
       -2   -1    0    0    0  501  0.00000000000E+00  0.00000000000E+00  0.27818955213E+03  0.27818955214E+03  0.25500000920E-02 0. -1.
        2   -1    0    0  501    0  0.00000000000E+00  0.00000000000E+00 -0.13092934337E+04  0.13092934337E+04  0.25500000920E-02 0.  1.
    10030    2    1    2    0    0  0.00000000000E+00  0.00000000000E+00 -0.10311038816E+04  0.15874829858E+04  0.12070323176E+04 0.  0.
        2    1    3    3  502    0 -0.21030650542E+03 -0.32679166096E+03  0.91735230316E+02  0.39929559023E+03  0.25500000920E-02 0. -1.
       -2    1    3    3    0  502  0.21030650542E+03  0.32679166096E+03 -0.11228391119E+04  0.11881873956E+04  0.25500000920E-02 0.  1.
</event>
<event>
 5   0  0.1404833E-03  0.1201494E+04  0.7818609E-02  0.9111550E-01
        1   -1    0    0  501    0  0.00000000000E+00  0.00000000000E+00  0.70387418727E+03  0.70387418728E+03  0.50400001928E-02 0.  1.
       -1   -1    0    0    0  501  0.00000000000E+00  0.00000000000E+00 -0.51272897658E+03  0.51272897661E+03  0.50400001928E-02 0. -1.
    10030    2    1    2    0    0  0.00000000000E+00  0.00000000000E+00  0.19114521068E+03  0.12166031639E+04  0.12014935567E+04 0.  0.
        1    1    3    3  502    0  0.87382674266E+02 -0.15793562247E+03 -0.48462292472E+03  0.51714482671E+03  0.50400001928E-02 0. -1.
       -1    1    3    3    0  502 -0.87382674266E+02  0.15793562247E+03  0.67576813540E+03  0.69945833718E+03  0.50400001928E-02 0.  1.
</event>
<event>
 5   0  0.1423024E-03  0.1122808E+04  0.7818609E-02  0.9183242E-01
       -1   -1    0    0    0  501  0.00000000000E+00  0.00000000000E+00  0.51961559516E+03  0.51961559519E+03  0.50400001928E-02 0.  1.
        1   -1    0    0  501    0  0.00000000000E+00  0.00000000000E+00 -0.60655329356E+03  0.60655329358E+03  0.50400001928E-02 0. -1.
    10030    2    1    2    0    0  0.00000000000E+00  0.00000000000E+00 -0.86937698395E+02  0.11261688888E+04  0.11228081771E+04 0.  0.
        2    1    3    3  502    0  0.38650947382E+03 -0.17732345180E+03 -0.41109199434E+03  0.59146412210E+03  0.25500000920E-02 0. -1.
       -2    1    3    3    0  502 -0.38650947382E+03  0.17732345180E+03  0.32415429595E+03  0.53470476667E+03  0.25500000920E-02 0.  1.
</event>
<event>
 5   0  0.2499890E-03  0.1165076E+04  0.7818609E-02  0.9143987E-01
       -2   -1    0    0    0  501  0.00000000000E+00  0.00000000000E+00  0.24808670462E+03  0.24808670464E+03  0.25500000920E-02 0.  1.
        2   -1    0    0  501    0  0.00000000000E+00  0.00000000000E+00 -0.13678699468E+04  0.13678699468E+04  0.25500000920E-02 0. -1.
    10030    2    1    2    0    0  0.00000000000E+00  0.00000000000E+00 -0.11197832422E+04  0.16159566515E+04  0.11650757014E+04 0.  0.
        5    1    3    3  502    0  0.88369684816E+02  0.42643003252E+03 -0.23289546252E+02  0.43613789882E+03  0.46999998093E+01 0.  1.
       -5    1    3    3    0  502 -0.88369684816E+02 -0.42643003252E+03 -0.10964936960E+04  0.11798187527E+04  0.46999998093E+01 0. -1.
</event>
<event>
 5   0  0.1404833E-03  0.1202350E+04  0.7818609E-02  0.9110802E-01
        1   -1    0    0  501    0  0.00000000000E+00  0.00000000000E+00  0.37640253176E+03  0.37640253179E+03  0.50400001928E-02 0.  1.
       -1   -1    0    0    0  501  0.00000000000E+00  0.00000000000E+00 -0.96017225468E+03  0.96017225470E+03  0.50400001928E-02 0. -1.
    10030    2    1    2    0    0  0.00000000000E+00  0.00000000000E+00 -0.58376972293E+03  0.13365747865E+04  0.12023498120E+04 0.  0.
        1    1    3    3  502    0  0.15215416980E+02 -0.46313187982E+03  0.13387100098E+03  0.48233193129E+03  0.50400001928E-02 0.  1.
       -1    1    3    3    0  502 -0.15215416980E+02  0.46313187982E+03 -0.71764072391E+03  0.85424285519E+03  0.50400001928E-02 0. -1.
</event>
<event>
 5   0  0.2579442E-03  0.1207133E+04  0.7818609E-02  0.9106636E-01
       -2   -1    0    0    0  501  0.00000000000E+00  0.00000000000E+00  0.10659737816E+04  0.10659737816E+04  0.25500000920E-02 0. -1.
        2   -1    0    0  501    0  0.00000000000E+00  0.00000000000E+00 -0.34174607970E+03  0.34174607971E+03  0.25500000920E-02 0.  1.
    10030    2    1    2    0    0  0.00000000000E+00  0.00000000000E+00  0.72422770195E+03  0.14077198614E+04  0.12071327366E+04 0.  0.
        4    1    3    3  502    0  0.15283431038E+03 -0.19346007120E+03  0.10045716132E+04  0.10343842924E+04  0.12699999809E+01 0. -1.
       -4    1    3    3    0  502 -0.15283431038E+03  0.19346007120E+03 -0.28034391120E+03  0.37333556893E+03  0.12699999809E+01 0.  1.
</event>
<event>
 5   0  0.1469851E-03  0.1178833E+04  0.7818609E-02  0.9131588E-01
        1   -1    0    0  501    0  0.00000000000E+00  0.00000000000E+00  0.80029347137E+03  0.80029347139E+03  0.50400001928E-02 0. -1.
       -1   -1    0    0    0  501  0.00000000000E+00  0.00000000000E+00 -0.43410564915E+03  0.43410564918E+03  0.50400001928E-02 0.  1.
    10030    2    1    2    0    0  0.00000000000E+00  0.00000000000E+00  0.36618782222E+03  0.12343991206E+04  0.11788331806E+04 0.  0.
        5    1    3    3  502    0 -0.27232222408E+03  0.35930700015E+03  0.58063205679E+03  0.73513032141E+03  0.46999998093E+01 0. -1.
       -5    1    3    3    0  502  0.27232222408E+03 -0.35930700015E+03 -0.21444423457E+03  0.49926879917E+03  0.46999998093E+01 0.  1.
</event>
<event>
 5   0  0.2517023E-03  0.1196657E+04  0.7818609E-02  0.9115788E-01
       -2   -1    0    0    0  501  0.00000000000E+00  0.00000000000E+00  0.34111660525E+03  0.34111660526E+03  0.25500000920E-02 0. -1.
        2   -1    0    0  501    0  0.00000000000E+00  0.00000000000E+00 -0.10494854417E+04  0.10494854417E+04  0.25500000920E-02 0.  1.
    10030    2    1    2    0    0  0.00000000000E+00  0.00000000000E+00 -0.70836883649E+03  0.13906020470E+04  0.11966568617E+04 0.  0.
        3    1    3    3  502    0 -0.29215878324E+03 -0.48993884659E+03 -0.14436652852E+03  0.58842037081E+03  0.10100000352E+00 0. -1.
       -3    1    3    3    0  502  0.29215878324E+03  0.48993884659E+03 -0.56400230797E+03  0.80218167619E+03  0.10100000352E+00 0.  1.
</event>
<event>
 5   0  0.2517023E-03  0.1206321E+04  0.7818609E-02  0.9107341E-01
       -2   -1    0    0    0  501  0.00000000000E+00  0.00000000000E+00  0.30296238790E+03  0.30296238791E+03  0.25500000920E-02 0. -1.
        2   -1    0    0  501    0  0.00000000000E+00  0.00000000000E+00 -0.12008183135E+04  0.12008183135E+04  0.25500000920E-02 0.  1.
    10030    2    1    2    0    0  0.00000000000E+00  0.00000000000E+00 -0.89785592559E+03  0.15037807014E+04  0.12063213232E+04 0.  0.
        3    1    3    3  502    0  0.60744599534E+02  0.59891999398E+03 -0.49569908400E+03  0.77981578443E+03  0.10100000352E+00 0.  1.
       -3    1    3    3    0  502 -0.60744599534E+02 -0.59891999398E+03 -0.40215684159E+03  0.72396491697E+03  0.10100000352E+00 0. -1.
</event>
<event>
 5   0  0.1403154E-03  0.1127200E+04  0.7818609E-02  0.9179079E-01
        1   -1    0    0  501    0  0.00000000000E+00  0.00000000000E+00  0.32811692272E+03  0.32811692276E+03  0.50400001928E-02 0. -1.
       -1   -1    0    0    0  501  0.00000000000E+00  0.00000000000E+00 -0.96808463773E+03  0.96808463774E+03  0.50400001928E-02 0.  1.
    10030    2    1    2    0    0  0.00000000000E+00  0.00000000000E+00 -0.63996771501E+03  0.12962015605E+04  0.11271999863E+04 0.  0.
        3    1    3    3  502    0  0.51516271925E+03 -0.21620748751E+03 -0.40531642142E+03  0.69023163984E+03  0.10100000352E+00 0.  1.
       -3    1    3    3    0  502 -0.51516271925E+03  0.21620748751E+03 -0.23465129358E+03  0.60596992066E+03  0.10100000352E+00 0. -1.
</event>
<event>
 5   0  0.2484507E-03  0.1188498E+04  0.7818609E-02  0.9122985E-01
        2   -1    0    0  501    0  0.00000000000E+00  0.00000000000E+00  0.14627529588E+04  0.14627529588E+04  0.25500000920E-02 0.  1.
       -2   -1    0    0    0  501  0.00000000000E+00  0.00000000000E+00 -0.24141577742E+03  0.24141577744E+03  0.25500000920E-02 0. -1.
    10030    2    1    2    0    0  0.00000000000E+00  0.00000000000E+00  0.12213371814E+04  0.17041687363E+04  0.11884976108E+04 0.  0.
        2    1    3    3  502    0 -0.43825918249E+03  0.37927184019E+03  0.42254309890E+03  0.71725930473E+03  0.25500000920E-02 0. -1.
       -2    1    3    3    0  502  0.43825918249E+03 -0.37927184019E+03  0.79879408250E+03  0.98690943152E+03  0.25500000920E-02 0.  1.
</event>
<event>
 5   0  0.2579442E-03  0.1214760E+04  0.7818609E-02  0.9100034E-01
        2   -1    0    0  501    0  0.00000000000E+00  0.00000000000E+00  0.17232119241E+04  0.17232119241E+04  0.25500000920E-02 0.  1.
       -2   -1    0    0    0  501  0.00000000000E+00  0.00000000000E+00 -0.21408316231E+03  0.21408316233E+03  0.25500000920E-02 0. -1.
    10030    2    1    2    0    0  0.00000000000E+00  0.00000000000E+00  0.15091287618E+04  0.19372950864E+04  0.12147603188E+04 0.  0.
        4    1    3    3  502    0 -0.11950311466E+02 -0.31022277277E+03 -0.77986524757E+02  0.32010074919E+03  0.12699999809E+01 0. -1.
       -4    1    3    3    0  502  0.11950311466E+02  0.31022277277E+03  0.15871152865E+04  0.16171943372E+04  0.12699999809E+01 0.  1.
</event>
<event>
 5   0  0.2579442E-03  0.1214262E+04  0.7818609E-02  0.9100464E-01
       -2   -1    0    0    0  501  0.00000000000E+00  0.00000000000E+00  0.23113277190E+04  0.23113277190E+04  0.25500000920E-02 0. -1.
        2   -1    0    0  501    0  0.00000000000E+00  0.00000000000E+00 -0.15947900341E+03  0.15947900343E+03  0.25500000920E-02 0.  1.
    10030    2    1    2    0    0  0.00000000000E+00  0.00000000000E+00  0.21518487156E+04  0.24708067224E+04  0.12142623130E+04 0.  0.
        4    1    3    3  502    0  0.42178105323E+03  0.33930989596E+03  0.51652922133E+03  0.74822089770E+03  0.12699999809E+01 0.  1.
       -4    1    3    3    0  502 -0.42178105323E+03 -0.33930989596E+03  0.16353194942E+04  0.17225858247E+04  0.12699999809E+01 0. -1.
</event>
<event>
 5   0  0.1455076E-03  0.1206125E+04  0.7818609E-02  0.9107512E-01
        1   -1    0    0  501    0  0.00000000000E+00  0.00000000000E+00  0.13952229138E+04  0.13952229138E+04  0.50400001928E-02 0.  1.
       -1   -1    0    0    0  501  0.00000000000E+00  0.00000000000E+00 -0.26066397861E+03  0.26066397866E+03  0.50400001928E-02 0. -1.
    10030    2    1    2    0    0  0.00000000000E+00  0.00000000000E+00  0.11345589352E+04  0.16558868925E+04  0.12061249617E+04 0.  0.
        4    1    3    3  502    0  0.64295154764E+02 -0.47325654468E+02  0.13879341217E+04  0.13902288745E+04  0.12699999809E+01 0.  1.
       -4    1    3    3    0  502 -0.64295154764E+02  0.47325654468E+02 -0.25337518647E+03  0.26565801798E+03  0.12699999809E+01 0. -1.
</event>
<event>
 5   0  0.1403154E-03  0.1179998E+04  0.7818609E-02  0.9130547E-01
       -1   -1    0    0    0  501  0.00000000000E+00  0.00000000000E+00  0.15960116362E+03  0.15960116370E+03  0.50400001928E-02 0.  1.
        1   -1    0    0  501    0  0.00000000000E+00  0.00000000000E+00 -0.21810541054E+04  0.21810541054E+04  0.50400001928E-02 0. -1.
    10030    2    1    2    0    0  0.00000000000E+00  0.00000000000E+00 -0.20214529418E+04  0.23406552691E+04  0.11799979207E+04 0.  0.
        3    1    3    3  502    0  0.42477975914E+03 -0.27615684323E+03 -0.16104144087E+04  0.16882342917E+04  0.10100000352E+00 0. -1.
       -3    1    3    3    0  502 -0.42477975914E+03  0.27615684323E+03 -0.41103853308E+03  0.65242097737E+03  0.10100000352E+00 0.  1.
</event>
<event>
 5   0  0.1404833E-03  0.1203102E+04  0.7818609E-02  0.9110146E-01
        1   -1    0    0  501    0  0.00000000000E+00  0.00000000000E+00  0.65372298894E+03  0.65372298896E+03  0.50400001928E-02 0. -1.
       -1   -1    0    0    0  501  0.00000000000E+00  0.00000000000E+00 -0.55354230114E+03  0.55354230116E+03  0.50400001928E-02 0.  1.
    10030    2    1    2    0    0  0.00000000000E+00  0.00000000000E+00  0.10018068780E+03  0.12072652901E+04  0.12031015379E+04 0.  0.
        1    1    3    3  502    0 -0.31994148549E+03  0.24977299284E+03  0.49560235430E+03  0.64060190110E+03  0.50400001928E-02 0. -1.
       -1    1    3    3    0  502  0.31994148549E+03 -0.24977299284E+03 -0.39542166650E+03  0.56666338902E+03  0.50400001928E-02 0.  1.
</event>
<event>
 5   0  0.1455076E-03  0.1185418E+04  0.7818609E-02  0.9125716E-01
        1   -1    0    0  501    0  0.00000000000E+00  0.00000000000E+00  0.41349676757E+03  0.41349676760E+03  0.50400001928E-02 0. -1.
       -1   -1    0    0    0  501  0.00000000000E+00  0.00000000000E+00 -0.84959336289E+03  0.84959336290E+03  0.50400001928E-02 0.  1.
    10030    2    1    2    0    0  0.00000000000E+00  0.00000000000E+00 -0.43609659532E+03  0.12630901305E+04  0.11854182542E+04 0.  0.
        4    1    3    3  502    0 -0.57449676415E+03  0.42887242635E+02 -0.36652211311E+03  0.68280738126E+03  0.12699999809E+01 0.  1.
       -4    1    3    3    0  502  0.57449676415E+03 -0.42887242635E+02 -0.69574482208E+02  0.58028274924E+03  0.12699999809E+01 0. -1.
</event>
<event>
 5   0  0.1404833E-03  0.1176864E+04  0.7818609E-02  0.9133352E-01
       -1   -1    0    0    0  501  0.00000000000E+00  0.00000000000E+00  0.33344202309E+03  0.33344202313E+03  0.50400001928E-02 0. -1.
        1   -1    0    0  501    0  0.00000000000E+00  0.00000000000E+00 -0.10384186460E+04  0.10384186461E+04  0.50400001928E-02 0.  1.
    10030    2    1    2    0    0  0.00000000000E+00  0.00000000000E+00 -0.70497662296E+03  0.13718606692E+04  0.11768643323E+04 0.  0.
        1    1    3    3  502    0  0.10012161482E+02 -0.58800060887E+03 -0.37601838546E+03  0.69802205241E+03  0.50400001928E-02 0.  1.
       -1    1    3    3    0  502 -0.10012161482E+02  0.58800060887E+03 -0.32895823749E+03  0.67383861677E+03  0.50400001928E-02 0. -1.
</event>
<event>
 5   0  0.2484507E-03  0.1194421E+04  0.7818609E-02  0.9117753E-01
       -2   -1    0    0    0  501  0.00000000000E+00  0.00000000000E+00  0.26298666669E+03  0.26298666670E+03  0.25500000920E-02 0.  1.
        2   -1    0    0  501    0  0.00000000000E+00  0.00000000000E+00 -0.13561929890E+04  0.13561929890E+04  0.25500000920E-02 0. -1.
    10030    2    1    2    0    0  0.00000000000E+00  0.00000000000E+00 -0.10932063223E+04  0.16191796557E+04  0.11944214894E+04 0.  0.
        2    1    3    3  502    0  0.13706418798E+03 -0.56420737578E+03 -0.35708733638E+03  0.68163620819E+03  0.25500000920E-02 0.  1.
       -2    1    3    3    0  502 -0.13706418798E+03  0.56420737578E+03 -0.73611898595E+03  0.93754344752E+03  0.25500000920E-02 0. -1.
</event>
<event>
 5   0  0.1455076E-03  0.1179402E+04  0.7818609E-02  0.9131080E-01
       -1   -1    0    0    0  501  0.00000000000E+00  0.00000000000E+00  0.39183897145E+03  0.39183897148E+03  0.50400001928E-02 0.  1.
        1   -1    0    0  501    0  0.00000000000E+00  0.00000000000E+00 -0.88747463621E+03  0.88747463622E+03  0.50400001928E-02 0. -1.
    10030    2    1    2    0    0  0.00000000000E+00  0.00000000000E+00 -0.49563566476E+03  0.12793136077E+04  0.11794017953E+04 0.  0.
        4    1    3    3  502    0  0.35225925523E+03  0.14615691567E+03  0.24005886237E+03  0.45064209435E+03  0.12699999809E+01 0.  1.
       -4    1    3    3    0  502 -0.35225925523E+03 -0.14615691567E+03 -0.73569452714E+03  0.82867151336E+03  0.12699999809E+01 0. -1.
</event>
<event>
 5   0  0.2484507E-03  0.1183096E+04  0.7818609E-02  0.9127783E-01
       -2   -1    0    0    0  501  0.00000000000E+00  0.00000000000E+00  0.18605365966E+03  0.18605365968E+03  0.25500000920E-02 0.  1.
        2   -1    0    0  501    0  0.00000000000E+00  0.00000000000E+00 -0.18807954832E+04  0.18807954832E+04  0.25500000920E-02 0. -1.
    10030    2    1    2    0    0  0.00000000000E+00  0.00000000000E+00 -0.16947418236E+04  0.20668491429E+04  0.11830957404E+04 0.  0.
        2    1    3    3  502    0 -0.10761209568E+03  0.55816592852E+03 -0.11333608421E+04  0.12679260094E+04  0.25500000920E-02 0. -1.
       -2    1    3    3    0  502  0.10761209568E+03 -0.55816592852E+03 -0.56138098147E+03  0.79892313351E+03  0.25500000920E-02 0.  1.
</event>
<event>
 5   0  0.1404833E-03  0.1178084E+04  0.7818609E-02  0.9132259E-01
        1   -1    0    0  501    0  0.00000000000E+00  0.00000000000E+00  0.86688989169E+03  0.86688989171E+03  0.50400001928E-02 0. -1.
       -1   -1    0    0    0  501  0.00000000000E+00  0.00000000000E+00 -0.40024746224E+03  0.40024746227E+03  0.50400001928E-02 0.  1.
    10030    2    1    2    0    0  0.00000000000E+00  0.00000000000E+00  0.46664242945E+03  0.12671373540E+04  0.11780840025E+04 0.  0.
        1    1    3    3  502    0  0.12263915606E+03  0.71997172396E+02 -0.38150577364E+03  0.40714937158E+03  0.50400001928E-02 0.  1.
       -1    1    3    3    0  502 -0.12263915606E+03 -0.71997172396E+02  0.84814820310E+03  0.85998798240E+03  0.50400001928E-02 0. -1.
</event>
<event>
 5   0  0.1403154E-03  0.1203082E+04  0.7818609E-02  0.9110163E-01
       -1   -1    0    0    0  501  0.00000000000E+00  0.00000000000E+00  0.80154435859E+03  0.80154435860E+03  0.50400001928E-02 0.  1.
        1   -1    0    0  501    0  0.00000000000E+00  0.00000000000E+00 -0.45144277506E+03  0.45144277509E+03  0.50400001928E-02 0. -1.
    10030    2    1    2    0    0  0.00000000000E+00  0.00000000000E+00  0.35010158352E+03  0.12529871337E+04  0.12030817256E+04 0.  0.
        3    1    3    3  502    0  0.22421556825E+03 -0.42525376893E+03 -0.20152501667E+03  0.52127318325E+03  0.10100000352E+00 0. -1.
       -3    1    3    3    0  502 -0.22421556825E+03  0.42525376893E+03  0.55162660019E+03  0.73171395044E+03  0.10100000352E+00 0.  1.
</event>
<event>
 5   0  0.2484507E-03  0.1217684E+04  0.7818609E-02  0.9097517E-01
        2   -1    0    0  501    0  0.00000000000E+00  0.00000000000E+00  0.10731446660E+04  0.10731446660E+04  0.25500000920E-02 0.  1.
       -2   -1    0    0    0  501  0.00000000000E+00  0.00000000000E+00 -0.34542265174E+03  0.34542265175E+03  0.25500000920E-02 0. -1.
    10030    2    1    2    0    0  0.00000000000E+00  0.00000000000E+00  0.72772201428E+03  0.14185673178E+04  0.12176838280E+04 0.  0.
        2    1    3    3  502    0 -0.19803370780E+03 -0.56426287520E+03  0.49708883665E+03  0.77762925181E+03  0.25500000920E-02 0.  1.
       -2    1    3    3    0  502  0.19803370780E+03  0.56426287520E+03  0.23063317763E+03  0.64093806595E+03  0.25500000920E-02 0. -1.
</event>
<event>
 5   0  0.2517023E-03  0.9862953E+03  0.7818609E-02  0.9323705E-01
       -2   -1    0    0    0  501  0.00000000000E+00  0.00000000000E+00  0.17471110731E+03  0.17471110733E+03  0.25500000920E-02 0. -1.
        2   -1    0    0  501    0  0.00000000000E+00  0.00000000000E+00 -0.13919814296E+04  0.13919814296E+04  0.25500000920E-02 0.  1.
    10030    2    1    2    0    0  0.00000000000E+00  0.00000000000E+00 -0.12172703223E+04  0.15666925369E+04  0.98629532480E+03 0.  0.
        3    1    3    3  502    0  0.16251973556E+03 -0.33698196327E+03 -0.98283592982E+02  0.38681931553E+03  0.10100000352E+00 0. -1.
       -3    1    3    3    0  502 -0.16251973556E+03  0.33698196327E+03 -0.11189867293E+04  0.11798732214E+04  0.10100000352E+00 0.  1.
</event>
<event>
 5   0  0.2499890E-03  0.1189947E+04  0.7818609E-02  0.9121702E-01
       -2   -1    0    0    0  501  0.00000000000E+00  0.00000000000E+00  0.26421360766E+03  0.26421360767E+03  0.25500000920E-02 0.  1.
        2   -1    0    0  501    0  0.00000000000E+00  0.00000000000E+00 -0.13397999200E+04  0.13397999200E+04  0.25500000920E-02 0. -1.
    10030    2    1    2    0    0  0.00000000000E+00  0.00000000000E+00 -0.10755863123E+04  0.16040135277E+04  0.11899468398E+04 0.  0.
        5    1    3    3  502    0  0.35836374721E+03  0.19469655226E+03 -0.11216994141E+04  0.11935505806E+04  0.46999998093E+01 0. -1.
       -5    1    3    3    0  502 -0.35836374721E+03 -0.19469655226E+03  0.46113101782E+02  0.41046294708E+03  0.46999998093E+01 0.  1.
</event>
<event>
 5   0  0.1455076E-03  0.1224511E+04  0.7818609E-02  0.9091668E-01
        1   -1    0    0  501    0  0.00000000000E+00  0.00000000000E+00  0.27956292248E+03  0.27956292253E+03  0.50400001928E-02 0.  1.
       -1   -1    0    0    0  501  0.00000000000E+00  0.00000000000E+00 -0.13408678794E+04  0.13408678794E+04  0.50400001928E-02 0. -1.
    10030    2    1    2    0    0  0.00000000000E+00  0.00000000000E+00 -0.10613049569E+04  0.16204308019E+04  0.12245112381E+04 0.  0.
        4    1    3    3  502    0 -0.46298375914E+03  0.40061348317E+03 -0.53488010071E+03  0.81298429207E+03  0.12699999809E+01 0. -1.
       -4    1    3    3    0  502  0.46298375914E+03 -0.40061348317E+03 -0.52642485617E+03  0.80744650982E+03  0.12699999809E+01 0.  1.
</event>
<event>
 5   0  0.1404833E-03  0.1210826E+04  0.7818609E-02  0.9103433E-01
       -1   -1    0    0    0  501  0.00000000000E+00  0.00000000000E+00  0.74061955253E+03  0.74061955254E+03  0.50400001928E-02 0.  1.
        1   -1    0    0  501    0  0.00000000000E+00  0.00000000000E+00 -0.49488956292E+03  0.49488956294E+03  0.50400001928E-02 0. -1.
    10030    2    1    2    0    0  0.00000000000E+00  0.00000000000E+00  0.24572998961E+03  0.12355091155E+04  0.12108259770E+04 0.  0.
        1    1    3    3  502    0  0.44581353644E+03 -0.38483245286E+03  0.26600713593E+03  0.64622404972E+03  0.50400001928E-02 0.  1.
       -1    1    3    3    0  502 -0.44581353644E+03  0.38483245286E+03 -0.20277146316E+02  0.58928506577E+03  0.50400001928E-02 0. -1.
</event>
<event>
 5   0  0.1403154E-03  0.1176829E+04  0.7818609E-02  0.9133384E-01
        1   -1    0    0  501    0  0.00000000000E+00  0.00000000000E+00  0.48605449827E+03  0.48605449829E+03  0.50400001928E-02 0.  1.
       -1   -1    0    0    0  501  0.00000000000E+00  0.00000000000E+00 -0.71233033094E+03  0.71233033096E+03  0.50400001928E-02 0. -1.
    10030    2    1    2    0    0  0.00000000000E+00  0.00000000000E+00 -0.22627583268E+03  0.11983848293E+04  0.11768285544E+04 0.  0.
        3    1    3    3  502    0 -0.49958574716E+03 -0.23086957709E+03 -0.32514528735E+03  0.63922308194E+03  0.10100000352E+00 0. -1.
       -3    1    3    3    0  502  0.49958574716E+03  0.23086957709E+03  0.98869454671E+02  0.55916174732E+03  0.10100000352E+00 0.  1.
</event>
<event>
 5   0  0.2517023E-03  0.1226240E+04  0.7818609E-02  0.9090193E-01
       -2   -1    0    0    0  501  0.00000000000E+00  0.00000000000E+00  0.77087246498E+03  0.77087246499E+03  0.25500000920E-02 0. -1.
        2   -1    0    0  501    0  0.00000000000E+00  0.00000000000E+00 -0.48765048953E+03  0.48765048953E+03  0.25500000920E-02 0.  1.
    10030    2    1    2    0    0  0.00000000000E+00  0.00000000000E+00  0.28322197546E+03  0.12585229545E+04  0.12262403270E+04 0.  0.
        3    1    3    3  502    0  0.42589179580E+01 -0.34631570452E+03  0.66085879076E+03  0.74611464072E+03  0.10100000352E+00 0. -1.
       -3    1    3    3    0  502 -0.42589179580E+01  0.34631570452E+03 -0.37763681530E+03  0.51240831380E+03  0.10100000352E+00 0.  1.
</event>
<event>
 5   0  0.2484507E-03  0.1197914E+04  0.7818609E-02  0.9114685E-01
        2   -1    0    0  501    0  0.00000000000E+00  0.00000000000E+00  0.96505987715E+03  0.96505987715E+03  0.25500000920E-02 0. -1.
       -2   -1    0    0    0  501  0.00000000000E+00  0.00000000000E+00 -0.37173779946E+03  0.37173779947E+03  0.25500000920E-02 0.  1.
    10030    2    1    2    0    0  0.00000000000E+00  0.00000000000E+00  0.59332207769E+03  0.13367976766E+04  0.11979135780E+04 0.  0.
        2    1    3    3  502    0 -0.35482262630E+03  0.29958770350E+03 -0.12547845528E+03  0.48103714094E+03  0.25500000920E-02 0.  1.
       -2    1    3    3    0  502  0.35482262630E+03 -0.29958770350E+03  0.71880053297E+03  0.85576053568E+03  0.25500000920E-02 0. -1.
</event>
<event>
 5   0  0.9678750E-04  0.1198680E+04  0.7818609E-02  0.9114012E-01
        4   -1    0    0  501    0  0.00000000000E+00  0.00000000000E+00  0.42371805585E+03  0.42371995912E+03  0.12699999809E+01 0.  1.
       -4   -1    0    0    0  501  0.00000000000E+00  0.00000000000E+00 -0.84774949821E+03  0.84775044949E+03  0.12699999809E+01 0. -1.
    10030    2    1    2    0    0  0.00000000000E+00  0.00000000000E+00 -0.42403144236E+03  0.12714704086E+04  0.11986802475E+04 0.  0.
        5    1    3    3  502    0  0.42418535385E+03  0.24173771172E+03  0.15667772624E+03  0.51277708177E+03  0.46999998093E+01 0.  1.
       -5    1    3    3    0  502 -0.42418535385E+03 -0.24173771172E+03 -0.58070916860E+03  0.75869332684E+03  0.46999998093E+01 0. -1.
</event>
<event>
 5   0  0.1423024E-03  0.1183700E+04  0.7818609E-02  0.9127245E-01
        1   -1    0    0  501    0  0.00000000000E+00  0.00000000000E+00  0.82864450280E+03  0.82864450281E+03  0.50400001928E-02 0.  1.
       -1   -1    0    0    0  501  0.00000000000E+00  0.00000000000E+00 -0.42272196737E+03  0.42272196740E+03  0.50400001928E-02 0. -1.
    10030    2    1    2    0    0  0.00000000000E+00  0.00000000000E+00  0.40592253543E+03  0.12513664702E+04  0.11836996823E+04 0.  0.
        2    1    3    3  502    0  0.48590625892E+03  0.22460455398E+02  0.55939519560E+03  0.74130449168E+03  0.25500000920E-02 0.  1.
       -2    1    3    3    0  502 -0.48590625892E+03 -0.22460455398E+02 -0.15347266017E+03  0.51006197853E+03  0.25500000920E-02 0. -1.
</event>
<event>
 5   0  0.2579442E-03  0.1179712E+04  0.7818609E-02  0.9130802E-01
       -2   -1    0    0    0  501  0.00000000000E+00  0.00000000000E+00  0.27657530275E+03  0.27657530276E+03  0.25500000920E-02 0.  1.
        2   -1    0    0  501    0  0.00000000000E+00  0.00000000000E+00 -0.12579950223E+04  0.12579950223E+04  0.25500000920E-02 0. -1.
    10030    2    1    2    0    0  0.00000000000E+00  0.00000000000E+00 -0.98141971953E+03  0.15345703250E+04  0.11797124296E+04 0.  0.
        4    1    3    3  502    0 -0.57923288085E+03  0.55362999222E+02 -0.36490861716E+03  0.68683018550E+03  0.12699999809E+01 0. -1.
       -4    1    3    3    0  502  0.57923288085E+03 -0.55362999222E+02 -0.61651110237E+03  0.84774013954E+03  0.12699999809E+01 0.  1.
</event>
<event>
 5   0  0.1403154E-03  0.1202643E+04  0.7818609E-02  0.9110547E-01
        1   -1    0    0  501    0  0.00000000000E+00  0.00000000000E+00  0.21853726903E+03  0.21853726909E+03  0.50400001928E-02 0.  1.
       -1   -1    0    0    0  501  0.00000000000E+00  0.00000000000E+00 -0.16545799556E+04  0.16545799556E+04  0.50400001928E-02 0. -1.
    10030    2    1    2    0    0  0.00000000000E+00  0.00000000000E+00 -0.14360426865E+04  0.18731172247E+04  0.12026427316E+04 0.  0.
        3    1    3    3  502    0  0.23074929430E+03 -0.10767049145E+03  0.13042250948E+03  0.28609126643E+03  0.10100000352E+00 0.  1.
       -3    1    3    3    0  502 -0.23074929430E+03  0.10767049145E+03 -0.15664651960E+04  0.15870259582E+04  0.10100000352E+00 0. -1.
</event>
<event>
 5   0  0.2580244E-03  0.1193802E+04  0.7818609E-02  0.9118299E-01
       -2   -1    0    0    0  501  0.00000000000E+00  0.00000000000E+00  0.65694948134E+03  0.65694948134E+03  0.25500000920E-02 0.  1.
        2   -1    0    0  501    0  0.00000000000E+00  0.00000000000E+00 -0.54234119922E+03  0.54234119922E+03  0.25500000920E-02 0. -1.
    10030    2    1    2    0    0  0.00000000000E+00  0.00000000000E+00  0.11460828212E+03  0.11992906806E+04  0.11938019426E+04 0.  0.
        1    1    3    3  502    0 -0.35064133806E+03  0.48305260142E+03  0.56031104693E+02  0.59952368461E+03  0.50400001928E-02 0.  1.
       -1    1    3    3    0  502  0.35064133806E+03 -0.48305260142E+03  0.58577177430E+02  0.59976699595E+03  0.50400001928E-02 0. -1.
</event>
<event>
 5   0  0.9678750E-04  0.1211160E+04  0.7818609E-02  0.9103144E-01
       -4   -1    0    0    0  501  0.00000000000E+00  0.00000000000E+00  0.10649821036E+04  0.10649828609E+04  0.12699999809E+01 0. -1.
        4   -1    0    0  501    0  0.00000000000E+00  0.00000000000E+00 -0.34434852108E+03  0.34435086303E+03  0.12699999809E+01 0.  1.
    10030    2    1    2    0    0  0.00000000000E+00  0.00000000000E+00  0.72063358255E+03  0.14093337239E+04  0.12111600988E+04 0.  0.
        5    1    3    3  502    0 -0.29625402036E+03 -0.21371156935E+03 -0.20168543454E+03  0.41729867476E+03  0.46999998093E+01 0.  1.
       -5    1    3    3    0  502  0.29625402036E+03  0.21371156935E+03  0.92231901709E+03  0.99203504915E+03  0.46999998093E+01 0. -1.
</event>
<event>
 5   0  0.1455076E-03  0.1198160E+04  0.7818609E-02  0.9114468E-01
        1   -1    0    0  501    0  0.00000000000E+00  0.00000000000E+00  0.34068186227E+03  0.34068186231E+03  0.50400001928E-02 0. -1.
       -1   -1    0    0    0  501  0.00000000000E+00  0.00000000000E+00 -0.10534666326E+04  0.10534666326E+04  0.50400001928E-02 0.  1.
    10030    2    1    2    0    0  0.00000000000E+00  0.00000000000E+00 -0.71278477033E+03  0.13941484949E+04  0.11981602134E+04 0.  0.
        4    1    3    3  502    0  0.71174951601E+01 -0.37684197621E+03  0.18543214066E+03  0.42005621702E+03  0.12699999809E+01 0. -1.
       -4    1    3    3    0  502 -0.71174951601E+01  0.37684197621E+03 -0.89821691099E+03  0.97409227789E+03  0.12699999809E+01 0.  1.
</event>
<event>
 5   0  0.2579442E-03  0.1202753E+04  0.7818609E-02  0.9110450E-01
        2   -1    0    0  501    0  0.00000000000E+00  0.00000000000E+00  0.10556354257E+04  0.10556354257E+04  0.25500000920E-02 0.  1.
       -2   -1    0    0    0  501  0.00000000000E+00  0.00000000000E+00 -0.34259351577E+03  0.34259351577E+03  0.25500000920E-02 0. -1.
    10030    2    1    2    0    0  0.00000000000E+00  0.00000000000E+00  0.71304190992E+03  0.13982289415E+04  0.12027532612E+04 0.  0.
        4    1    3    3  502    0 -0.20898671972E+03 -0.56272857943E+03  0.39865077871E+03  0.72059902816E+03  0.12699999809E+01 0. -1.
       -4    1    3    3    0  502  0.20898671972E+03  0.56272857943E+03  0.31439113121E+03  0.67762991330E+03  0.12699999809E+01 0.  1.
</event>
<event>
 5   0  0.2484507E-03  0.1189993E+04  0.7818609E-02  0.9121661E-01
       -2   -1    0    0    0  501  0.00000000000E+00  0.00000000000E+00  0.32152416998E+03  0.32152416999E+03  0.25500000920E-02 0. -1.
        2   -1    0    0  501    0  0.00000000000E+00  0.00000000000E+00 -0.11010712524E+04  0.11010712524E+04  0.25500000920E-02 0.  1.
    10030    2    1    2    0    0  0.00000000000E+00  0.00000000000E+00 -0.77954708243E+03  0.14225954224E+04  0.11899933118E+04 0.  0.
        2    1    3    3  502    0 -0.54896660669E+03  0.11836542779E+03 -0.62478601140E+03  0.84007872834E+03  0.25500000920E-02 0.  1.
       -2    1    3    3    0  502  0.54896660669E+03 -0.11836542779E+03 -0.15476107103E+03  0.58251669407E+03  0.25500000920E-02 0. -1.
</event>
<event>
 5   0  0.1469851E-03  0.1206430E+04  0.7818609E-02  0.9107247E-01
        1   -1    0    0  501    0  0.00000000000E+00  0.00000000000E+00  0.11994181092E+04  0.11994181092E+04  0.50400001928E-02 0. -1.
       -1   -1    0    0    0  501  0.00000000000E+00  0.00000000000E+00 -0.30337058458E+03  0.30337058462E+03  0.50400001928E-02 0.  1.
    10030    2    1    2    0    0  0.00000000000E+00  0.00000000000E+00  0.89604752466E+03  0.15027886939E+04  0.12064297294E+04 0.  0.
        5    1    3    3  502    0 -0.20882851963E+02  0.40438691846E+03 -0.10888220677E+03  0.41933554378E+03  0.46999998093E+01 0.  1.
       -5    1    3    3    0  502  0.20882851963E+02 -0.40438691846E+03  0.10049297314E+04  0.10834531501E+04  0.46999998093E+01 0. -1.
</event>
<event>
 5   0  0.2499890E-03  0.1189085E+04  0.7818609E-02  0.9122464E-01
       -2   -1    0    0    0  501  0.00000000000E+00  0.00000000000E+00  0.11648730254E+04  0.11648730254E+04  0.25500000920E-02 0. -1.
        2   -1    0    0  501    0  0.00000000000E+00  0.00000000000E+00 -0.30345016682E+03  0.30345016683E+03  0.25500000920E-02 0.  1.
    10030    2    1    2    0    0  0.00000000000E+00  0.00000000000E+00  0.86142285858E+03  0.14683231922E+04  0.11890852180E+04 0.  0.
        5    1    3    3  502    0 -0.50222203109E+03  0.36670182393E+02  0.82097992643E+03  0.96312086489E+03  0.46999998093E+01 0. -1.
       -5    1    3    3    0  502  0.50222203109E+03 -0.36670182393E+02  0.40442932144E+02  0.50520232734E+03  0.46999998093E+01 0.  1.
</event>
<event>
 5   0  0.2484507E-03  0.1204511E+04  0.7818609E-02  0.9108917E-01
       -2   -1    0    0    0  501  0.00000000000E+00  0.00000000000E+00  0.35904851554E+03  0.35904851555E+03  0.25500000920E-02 0. -1.
        2   -1    0    0  501    0  0.00000000000E+00  0.00000000000E+00 -0.10102024648E+04  0.10102024648E+04  0.25500000920E-02 0.  1.
    10030    2    1    2    0    0  0.00000000000E+00  0.00000000000E+00 -0.65115394924E+03  0.13692509803E+04  0.12045110135E+04 0.  0.
        2    1    3    3  502    0 -0.59258193251E+02  0.19810706344E+03 -0.96858425439E+03  0.99041072284E+03  0.25500000920E-02 0.  1.
       -2    1    3    3    0  502  0.59258193251E+02 -0.19810706344E+03  0.31743030516E+03  0.37884025749E+03  0.25500000920E-02 0. -1.
</event>
<event>
 5   0  0.9678750E-04  0.1211348E+04  0.7818609E-02  0.9102982E-01
       -4   -1    0    0    0  501  0.00000000000E+00  0.00000000000E+00  0.90155694677E+03  0.90155784128E+03  0.12699999809E+01 0. -1.
        4   -1    0    0  501    0  0.00000000000E+00  0.00000000000E+00 -0.40689478439E+03  0.40689676634E+03  0.12699999809E+01 0.  1.
    10030    2    1    2    0    0  0.00000000000E+00  0.00000000000E+00  0.49466216238E+03  0.13084546076E+04  0.12113475163E+04 0.  0.
        2    1    3    3  502    0  0.11685155270E+03  0.20457902636E+03  0.85003368868E+03  0.88207943820E+03  0.25500000920E-02 0. -1.
       -2    1    3    3    0  502 -0.11685155270E+03 -0.20457902636E+03 -0.35537152629E+03  0.42637516943E+03  0.25500000920E-02 0.  1.
</event>
<event>
 5   0  0.1403154E-03  0.1197057E+04  0.7818609E-02  0.9115437E-01
        1   -1    0    0  501    0  0.00000000000E+00  0.00000000000E+00  0.56748586008E+03  0.56748586010E+03  0.50400001928E-02 0. -1.
       -1   -1    0    0    0  501  0.00000000000E+00  0.00000000000E+00 -0.63126874497E+03  0.63126874499E+03  0.50400001928E-02 0.  1.
    10030    2    1    2    0    0  0.00000000000E+00  0.00000000000E+00 -0.63782884888E+02  0.11987546051E+04  0.11970565345E+04 0.  0.
        3    1    3    3  502    0 -0.21920913969E+03  0.55662234341E+03 -0.50759517635E+02  0.60038122801E+03  0.10100000352E+00 0.  1.
       -3    1    3    3    0  502  0.21920913969E+03 -0.55662234341E+03 -0.13023367253E+02  0.59837337709E+03  0.10100000352E+00 0. -1.
</event>
<event>
 5   0  0.2580244E-03  0.1199328E+04  0.7818609E-02  0.9113445E-01
       -2   -1    0    0    0  501  0.00000000000E+00  0.00000000000E+00  0.14533871749E+03  0.14533871752E+03  0.25500000920E-02 0. -1.
        2   -1    0    0  501    0  0.00000000000E+00  0.00000000000E+00 -0.24741994368E+04  0.24741994368E+04  0.25500000920E-02 0.  1.
    10030    2    1    2    0    0  0.00000000000E+00  0.00000000000E+00 -0.23288607193E+04  0.26195381544E+04  0.11993281002E+04 0.  0.
        1    1    3    3  502    0  0.24224841159E+03  0.51435836319E+03 -0.74801388752E+03  0.93956031986E+03  0.50400001928E-02 0. -1.
       -1    1    3    3    0  502 -0.24224841159E+03 -0.51435836319E+03 -0.15808468318E+04  0.16799778345E+04  0.50400001928E-02 0.  1.
</event>
<event>
 5   0  0.1403154E-03  0.1153766E+04  0.7818609E-02  0.9154317E-01
       -1   -1    0    0    0  501  0.00000000000E+00  0.00000000000E+00  0.26321474439E+03  0.26321474444E+03  0.50400001928E-02 0.  1.
        1   -1    0    0  501    0  0.00000000000E+00  0.00000000000E+00 -0.12643432022E+04  0.12643432022E+04  0.50400001928E-02 0. -1.
    10030    2    1    2    0    0  0.00000000000E+00  0.00000000000E+00 -0.10011284578E+04  0.15275579466E+04  0.11537656137E+04 0.  0.
        3    1    3    3  502    0  0.70375161442E+02 -0.60906648708E+02 -0.12543374566E+04  0.12577856528E+04  0.10100000352E+00 0. -1.
       -3    1    3    3    0  502 -0.70375161442E+02  0.60906648708E+02  0.25320899884E+03  0.26977229379E+03  0.10100000352E+00 0.  1.
</event>
<event>
 5   0  0.2484507E-03  0.1210246E+04  0.7818609E-02  0.9103936E-01
       -2   -1    0    0    0  501  0.00000000000E+00  0.00000000000E+00  0.14877354146E+03  0.14877354148E+03  0.25500000920E-02 0. -1.
        2   -1    0    0  501    0  0.00000000000E+00  0.00000000000E+00 -0.24612814200E+04  0.24612814200E+04  0.25500000920E-02 0.  1.
    10030    2    1    2    0    0  0.00000000000E+00  0.00000000000E+00 -0.23125078785E+04  0.26100549615E+04  0.12102455179E+04 0.  0.
        2    1    3    3  502    0  0.34117221694E+03 -0.49544985565E+03 -0.12977479794E+04  0.14303911560E+04  0.25500000920E-02 0. -1.
       -2    1    3    3    0  502 -0.34117221694E+03  0.49544985565E+03 -0.10147598991E+04  0.11796638054E+04  0.25500000920E-02 0.  1.
</event>
<event>
 5   0  0.2517023E-03  0.1183852E+04  0.7818609E-02  0.9127109E-01
        2   -1    0    0  501    0  0.00000000000E+00  0.00000000000E+00  0.70231987943E+03  0.70231987944E+03  0.25500000920E-02 0. -1.
       -2   -1    0    0    0  501  0.00000000000E+00  0.00000000000E+00 -0.49888472226E+03  0.49888472227E+03  0.25500000920E-02 0.  1.
    10030    2    1    2    0    0  0.00000000000E+00  0.00000000000E+00  0.20343515718E+03  0.12012046017E+04  0.11838524536E+04 0.  0.
        3    1    3    3  502    0  0.31908260052E+02  0.39973902306E+03  0.54349247535E+03  0.67542098322E+03  0.10100000352E+00 0. -1.
       -3    1    3    3    0  502 -0.31908260052E+02 -0.39973902306E+03 -0.34005731817E+03  0.52578361848E+03  0.10100000352E+00 0.  1.
</event>
<event>
 5   0  0.2580244E-03  0.1187724E+04  0.7818609E-02  0.9123670E-01
       -2   -1    0    0    0  501  0.00000000000E+00  0.00000000000E+00  0.41412889664E+03  0.41412889664E+03  0.25500000920E-02 0.  1.
        2   -1    0    0  501    0  0.00000000000E+00  0.00000000000E+00 -0.85160011005E+03  0.85160011005E+03  0.25500000920E-02 0. -1.
    10030    2    1    2    0    0  0.00000000000E+00  0.00000000000E+00 -0.43747121341E+03  0.12657290067E+04  0.11877242339E+04 0.  0.
        1    1    3    3  502    0  0.33063871689E+03  0.13341205119E+02  0.30677578549E+03  0.45123312318E+03  0.50400001928E-02 0.  1.
       -1    1    3    3    0  502 -0.33063871689E+03 -0.13341205119E+02 -0.74424699891E+03  0.81449588352E+03  0.50400001928E-02 0. -1.
</event>
<event>
 5   0  0.2499890E-03  0.1155435E+04  0.7818609E-02  0.9152784E-01
       -2   -1    0    0    0  501  0.00000000000E+00  0.00000000000E+00  0.27660561532E+03  0.27660561533E+03  0.25500000920E-02 0.  1.
        2   -1    0    0  501    0  0.00000000000E+00  0.00000000000E+00 -0.12066182138E+04  0.12066182138E+04  0.25500000920E-02 0. -1.
    10030    2    1    2    0    0  0.00000000000E+00  0.00000000000E+00 -0.93001259849E+03  0.14832238291E+04  0.11554347640E+04 0.  0.
        5    1    3    3  502    0 -0.25908639803E+03  0.21301967611E+03 -0.10687955452E+04  0.11202004961E+04  0.46999998093E+01 0. -1.
       -5    1    3    3    0  502  0.25908639803E+03 -0.21301967611E+03  0.13878294668E+03  0.36302333305E+03  0.46999998093E+01 0.  1.
</event>
<event>
 5   0  0.1455076E-03  0.1198332E+04  0.7818609E-02  0.9114318E-01
        1   -1    0    0  501    0  0.00000000000E+00  0.00000000000E+00  0.55274058543E+03  0.55274058545E+03  0.50400001928E-02 0.  1.
       -1   -1    0    0    0  501  0.00000000000E+00  0.00000000000E+00 -0.64949021102E+03  0.64949021104E+03  0.50400001928E-02 0. -1.
    10030    2    1    2    0    0  0.00000000000E+00  0.00000000000E+00 -0.96749625586E+02  0.12022307965E+04  0.11983315059E+04 0.  0.
        4    1    3    3  502    0 -0.27129328205E+03 -0.18201097323E+03  0.45552434128E+03  0.56056407097E+03  0.12699999809E+01 0.  1.
       -4    1    3    3    0  502  0.27129328205E+03  0.18201097323E+03 -0.55227396687E+03  0.64166672552E+03  0.12699999809E+01 0. -1.
</event>
<event>
 5   0  0.1469851E-03  0.1182679E+04  0.7818609E-02  0.9128154E-01
       -1   -1    0    0    0  501  0.00000000000E+00  0.00000000000E+00  0.21953799822E+03  0.21953799827E+03  0.50400001928E-02 0. -1.
        1   -1    0    0  501    0  0.00000000000E+00  0.00000000000E+00 -0.15928112475E+04  0.15928112475E+04  0.50400001928E-02 0.  1.
    10030    2    1    2    0    0  0.00000000000E+00  0.00000000000E+00 -0.13732732492E+04  0.18123492457E+04  0.11826793189E+04 0.  0.
        5    1    3    3  502    0  0.22555496614E+03 -0.26973881996E+03  0.41905219651E+02  0.35413586542E+03  0.46999998093E+01 0. -1.
       -5    1    3    3    0  502 -0.22555496614E+03  0.26973881996E+03 -0.14151784689E+04  0.14582133803E+04  0.46999998093E+01 0.  1.
</event>
<event>
 5   0  0.9678750E-04  0.1203424E+04  0.7818609E-02  0.9109865E-01
        3   -1    0    0  501    0  0.00000000000E+00  0.00000000000E+00  0.51909151898E+03  0.51909152881E+03  0.10100000352E+00 0.  1.
       -3   -1    0    0    0  501  0.00000000000E+00  0.00000000000E+00 -0.69748277934E+03  0.69748278665E+03  0.10100000352E+00 0. -1.
    10030    2    1    2    0    0  0.00000000000E+00  0.00000000000E+00 -0.17839126035E+03  0.12165743155E+04  0.12034241244E+04 0.  0.
        5    1    3    3  502    0 -0.51892845456E+03 -0.21966151764E+03  0.12405347201E+03  0.57701757097E+03  0.46999998093E+01 0.  1.
       -5    1    3    3    0  502  0.51892845456E+03  0.21966151764E+03 -0.30244473237E+03  0.63955674449E+03  0.46999998093E+01 0. -1.
</event>
<event>
 5   0  0.2579442E-03  0.1194347E+04  0.7818609E-02  0.9117819E-01
        2   -1    0    0  501    0  0.00000000000E+00  0.00000000000E+00  0.10462031392E+04  0.10462031392E+04  0.25500000920E-02 0. -1.
       -2   -1    0    0    0  501  0.00000000000E+00  0.00000000000E+00 -0.34086721977E+03  0.34086721978E+03  0.25500000920E-02 0.  1.
    10030    2    1    2    0    0  0.00000000000E+00  0.00000000000E+00  0.70533591943E+03  0.13870703590E+04  0.11943472784E+04 0.  0.
        4    1    3    3  502    0  0.30572623614E+03 -0.29727341212E+03  0.83818802869E+03  0.94042585958E+03  0.12699999809E+01 0. -1.
       -4    1    3    3    0  502 -0.30572623614E+03  0.29727341212E+03 -0.13285210926E+03  0.44664449941E+03  0.12699999809E+01 0.  1.
</event>
<event>
 5   0  0.1455076E-03  0.1200327E+04  0.7818609E-02  0.9112571E-01
       -1   -1    0    0    0  501  0.00000000000E+00  0.00000000000E+00  0.33288034448E+03  0.33288034452E+03  0.50400001928E-02 0. -1.
        1   -1    0    0  501    0  0.00000000000E+00  0.00000000000E+00 -0.10820584640E+04  0.10820584640E+04  0.50400001928E-02 0.  1.
    10030    2    1    2    0    0  0.00000000000E+00  0.00000000000E+00 -0.74917811950E+03  0.14149388085E+04  0.12003266127E+04 0.  0.
        4    1    3    3  502    0 -0.19312539266E+03  0.41146961707E+03  0.87386813814E+02  0.46286362051E+03  0.12699999809E+01 0. -1.
       -4    1    3    3    0  502  0.19312539266E+03 -0.41146961707E+03 -0.83656493332E+03  0.95207518801E+03  0.12699999809E+01 0.  1.
</event>
<event>
 5   0  0.9678750E-04  0.1217651E+04  0.7818609E-02  0.9097546E-01
        3   -1    0    0  501    0  0.00000000000E+00  0.00000000000E+00  0.14824167010E+04  0.14824167045E+04  0.10100000352E+00 0.  1.
       -3   -1    0    0    0  501  0.00000000000E+00  0.00000000000E+00 -0.25004325497E+03  0.25004327537E+03  0.10100000352E+00 0. -1.
    10030    2    1    2    0    0  0.00000000000E+00  0.00000000000E+00  0.12323734460E+04  0.17324599798E+04  0.12176507181E+04 0.  0.
        5    1    3    3  502    0 -0.51297748493E+02  0.60584953309E+03  0.57207769448E+03  0.83485333698E+03  0.46999998093E+01 0. -1.
       -5    1    3    3    0  502  0.51297748493E+02 -0.60584953309E+03  0.66029575157E+03  0.89760664285E+03  0.46999998093E+01 0.  1.
</event>
<event>
 5   0  0.1404833E-03  0.1209962E+04  0.7818609E-02  0.9104182E-01
       -1   -1    0    0    0  501  0.00000000000E+00  0.00000000000E+00  0.28644610749E+03  0.28644610753E+03  0.50400001928E-02 0. -1.
        1   -1    0    0  501    0  0.00000000000E+00  0.00000000000E+00 -0.12777336266E+04  0.12777336266E+04  0.50400001928E-02 0.  1.
    10030    2    1    2    0    0  0.00000000000E+00  0.00000000000E+00 -0.99128751914E+03  0.15641797342E+04  0.12099616916E+04 0.  0.
        1    1    3    3  502    0 -0.12782009516E+03  0.22475666709E+03 -0.12027070582E+04  0.12301860851E+04  0.50400001928E-02 0.  1.
       -1    1    3    3    0  502  0.12782009516E+03 -0.22475666709E+03  0.21141953903E+03  0.33399364909E+03  0.50400001928E-02 0. -1.
</event>
<event>
 5   0  0.2580244E-03  0.1197761E+04  0.7818609E-02  0.9114819E-01
       -2   -1    0    0    0  501  0.00000000000E+00  0.00000000000E+00  0.23111343021E+03  0.23111343022E+03  0.25500000920E-02 0. -1.
        2   -1    0    0  501    0  0.00000000000E+00  0.00000000000E+00 -0.15518695855E+04  0.15518695855E+04  0.25500000920E-02 0.  1.
    10030    2    1    2    0    0  0.00000000000E+00  0.00000000000E+00 -0.13207561553E+04  0.17829830157E+04  0.11977610833E+04 0.  0.
        1    1    3    3  502    0 -0.57522343053E+03  0.16369662690E+03 -0.70696240827E+03  0.92599915087E+03  0.50400001928E-02 0. -1.
       -1    1    3    3    0  502  0.57522343053E+03 -0.16369662690E+03 -0.61379374698E+03  0.85698386481E+03  0.50400001928E-02 0.  1.
</event>
<event>
 5   0  0.1469851E-03  0.1201102E+04  0.7818609E-02  0.9111893E-01
       -1   -1    0    0    0  501  0.00000000000E+00  0.00000000000E+00  0.51216188822E+03  0.51216188825E+03  0.50400001928E-02 0.  1.
        1   -1    0    0  501    0  0.00000000000E+00  0.00000000000E+00 -0.70419385509E+03  0.70419385511E+03  0.50400001928E-02 0. -1.
    10030    2    1    2    0    0  0.00000000000E+00  0.00000000000E+00 -0.19203196687E+03  0.12163557434E+04  0.12011015853E+04 0.  0.
        5    1    3    3  502    0  0.15643328982E+03  0.13733291410E+03 -0.66647048554E+03  0.69823828422E+03  0.46999998093E+01 0. -1.
       -5    1    3    3    0  502 -0.15643328982E+03 -0.13733291410E+03  0.47443851867E+03  0.51811745913E+03  0.46999998093E+01 0.  1.
</event>
<event>
 5   0  0.2579442E-03  0.1210475E+04  0.7818609E-02  0.9103737E-01
       -2   -1    0    0    0  501  0.00000000000E+00  0.00000000000E+00  0.72721922112E+03  0.72721922112E+03  0.25500000920E-02 0. -1.
        2   -1    0    0  501    0  0.00000000000E+00  0.00000000000E+00 -0.50371643427E+03  0.50371643427E+03  0.25500000920E-02 0.  1.
    10030    2    1    2    0    0  0.00000000000E+00  0.00000000000E+00  0.22350278685E+03  0.12309356554E+04  0.12104747383E+04 0.  0.
        4    1    3    3  502    0 -0.51923093997E+03 -0.16760814007E+03  0.37812841461E+03  0.66383429294E+03  0.12699999809E+01 0. -1.
       -4    1    3    3    0  502  0.51923093997E+03  0.16760814007E+03 -0.15462562776E+03  0.56710136246E+03  0.12699999809E+01 0.  1.
</event>
<event>
 5   0  0.2580244E-03  0.1202782E+04  0.7818609E-02  0.9110425E-01
        2   -1    0    0  501    0  0.00000000000E+00  0.00000000000E+00  0.17243214827E+04  0.17243214827E+04  0.25500000920E-02 0. -1.
       -2   -1    0    0    0  501  0.00000000000E+00  0.00000000000E+00 -0.20974708730E+03  0.20974708731E+03  0.25500000920E-02 0.  1.
    10030    2    1    2    0    0  0.00000000000E+00  0.00000000000E+00  0.15145743954E+04  0.19340685701E+04  0.12027824551E+04 0.  0.
        1    1    3    3  502    0 -0.90619104706E+02 -0.31504468040E+03 -0.53446180873E+02  0.33214675531E+03  0.50400001928E-02 0.  1.
       -1    1    3    3    0  502  0.90619104706E+02  0.31504468040E+03  0.15680205763E+04  0.16019218147E+04  0.50400001928E-02 0. -1.
</event>
<event>
 5   0  0.2517023E-03  0.1201393E+04  0.7818609E-02  0.9111638E-01
       -2   -1    0    0    0  501  0.00000000000E+00  0.00000000000E+00  0.51048858551E+03  0.51048858551E+03  0.25500000920E-02 0.  1.
        2   -1    0    0  501    0  0.00000000000E+00  0.00000000000E+00 -0.70684494283E+03  0.70684494283E+03  0.25500000920E-02 0. -1.
    10030    2    1    2    0    0  0.00000000000E+00  0.00000000000E+00 -0.19635635732E+03  0.12173335283E+04  0.12013929832E+04 0.  0.
        3    1    3    3  502    0  0.13680700235E+03 -0.58154743216E+03 -0.16164060293E+03  0.61890327715E+03  0.10100000352E+00 0. -1.
       -3    1    3    3    0  502 -0.13680700235E+03  0.58154743216E+03 -0.34715754389E+02  0.59843025120E+03  0.10100000352E+00 0.  1.
</event>
<event>
 5   0  0.2484507E-03  0.1215337E+04  0.7818609E-02  0.9099537E-01
        2   -1    0    0  501    0  0.00000000000E+00  0.00000000000E+00  0.82263461574E+03  0.82263461575E+03  0.25500000920E-02 0.  1.
       -2   -1    0    0    0  501  0.00000000000E+00  0.00000000000E+00 -0.44887615092E+03  0.44887615093E+03  0.25500000920E-02 0. -1.
    10030    2    1    2    0    0  0.00000000000E+00  0.00000000000E+00  0.37375846482E+03  0.12715107667E+04  0.12153370889E+04 0.  0.
        2    1    3    3  502    0  0.21558923666E+03 -0.27662768304E+03 -0.33230292285E+03  0.48314265650E+03  0.25500000920E-02 0. -1.
       -2    1    3    3    0  502 -0.21558923666E+03  0.27662768304E+03  0.70606138767E+03  0.78836811018E+03  0.25500000920E-02 0.  1.
</event>
<event>
 5   0  0.2580244E-03  0.1120641E+04  0.7818609E-02  0.9185304E-01
        2   -1    0    0  501    0  0.00000000000E+00  0.00000000000E+00  0.10854579348E+04  0.10854579348E+04  0.25500000920E-02 0.  1.
       -2   -1    0    0    0  501  0.00000000000E+00  0.00000000000E+00 -0.28924107353E+03  0.28924107354E+03  0.25500000920E-02 0. -1.
    10030    2    1    2    0    0  0.00000000000E+00  0.00000000000E+00  0.79621686123E+03  0.13746990083E+04  0.11206409208E+04 0.  0.
        1    1    3    3  502    0  0.53409103038E+03  0.97595640281E+02  0.22821545884E+03  0.58894858299E+03  0.50400001928E-02 0.  1.
       -1    1    3    3    0  502 -0.53409103038E+03 -0.97595640281E+02  0.56800140239E+03  0.78575042531E+03  0.50400001928E-02 0. -1.
</event>
<event>
 5   0  0.2499890E-03  0.1185552E+04  0.7818609E-02  0.9125598E-01
       -2   -1    0    0    0  501  0.00000000000E+00  0.00000000000E+00  0.14367453274E+03  0.14367453276E+03  0.25500000920E-02 0. -1.
        2   -1    0    0  501    0  0.00000000000E+00  0.00000000000E+00 -0.24456882146E+04  0.24456882146E+04  0.25500000920E-02 0.  1.
    10030    2    1    2    0    0  0.00000000000E+00  0.00000000000E+00 -0.23020136819E+04  0.25893627474E+04  0.11855515366E+04 0.  0.
        5    1    3    3  502    0 -0.68634716468E+02  0.69458657079E+02  0.12594604011E+03  0.15943564333E+03  0.46999998093E+01 0. -1.
       -5    1    3    3    0  502  0.68634716468E+02 -0.69458657079E+02 -0.24279597220E+04  0.24299271041E+04  0.46999998093E+01 0.  1.
</event>
<event>
 5   0  0.2484507E-03  0.1195841E+04  0.7818609E-02  0.9116505E-01
       -2   -1    0    0    0  501  0.00000000000E+00  0.00000000000E+00  0.28623058645E+03  0.28623058646E+03  0.25500000920E-02 0. -1.
        2   -1    0    0  501    0  0.00000000000E+00  0.00000000000E+00 -0.12490244199E+04  0.12490244199E+04  0.25500000920E-02 0.  1.
    10030    2    1    2    0    0  0.00000000000E+00  0.00000000000E+00 -0.96279383346E+03  0.15352550064E+04  0.11958411136E+04 0.  0.
        2    1    3    3  502    0 -0.26539639024E+02  0.58090118799E+03 -0.66002195189E+03  0.87964738369E+03  0.25500000920E-02 0.  1.
       -2    1    3    3    0  502  0.26539639024E+02 -0.58090118799E+03 -0.30277188157E+03  0.65560762268E+03  0.25500000920E-02 0. -1.
</event>
<event>
 5   0  0.1403154E-03  0.1194559E+04  0.7818609E-02  0.9117632E-01
       -1   -1    0    0    0  501  0.00000000000E+00  0.00000000000E+00  0.40058627412E+03  0.40058627415E+03  0.50400001928E-02 0.  1.
        1   -1    0    0  501    0  0.00000000000E+00  0.00000000000E+00 -0.89055187361E+03  0.89055187362E+03  0.50400001928E-02 0. -1.
    10030    2    1    2    0    0  0.00000000000E+00  0.00000000000E+00 -0.48996559949E+03  0.12911381478E+04  0.11945590935E+04 0.  0.
        3    1    3    3  502    0  0.24436580253E+02 -0.36163327768E+03 -0.75809259589E+03  0.84028576575E+03  0.10100000352E+00 0. -1.
       -3    1    3    3    0  502 -0.24436580253E+02  0.36163327768E+03  0.26812699640E+03  0.45085238202E+03  0.10100000352E+00 0.  1.
</event>
<event>
 5   0  0.1404833E-03  0.1195016E+04  0.7818609E-02  0.9117230E-01
        1   -1    0    0  501    0  0.00000000000E+00  0.00000000000E+00  0.81711825636E+03  0.81711825638E+03  0.50400001928E-02 0. -1.
       -1   -1    0    0    0  501  0.00000000000E+00  0.00000000000E+00 -0.43692073628E+03  0.43692073631E+03  0.50400001928E-02 0.  1.
    10030    2    1    2    0    0  0.00000000000E+00  0.00000000000E+00  0.38019752009E+03  0.12540389927E+04  0.11950161676E+04 0.  0.
        1    1    3    3  502    0 -0.16760748715E+03 -0.24289408428E+03 -0.35510608036E+03  0.46172517179E+03  0.50400001928E-02 0.  1.
       -1    1    3    3    0  502  0.16760748715E+03  0.24289408428E+03  0.73530360045E+03  0.79231382090E+03  0.50400001928E-02 0. -1.
</event>
<event>
 5   0  0.2484507E-03  0.1177128E+04  0.7818609E-02  0.9133115E-01
       -2   -1    0    0    0  501  0.00000000000E+00  0.00000000000E+00  0.23863670315E+03  0.23863670316E+03  0.25500000920E-02 0.  1.
        2   -1    0    0  501    0  0.00000000000E+00  0.00000000000E+00 -0.14516111950E+04  0.14516111950E+04  0.25500000920E-02 0. -1.
    10030    2    1    2    0    0  0.00000000000E+00  0.00000000000E+00 -0.12129744918E+04  0.16902478981E+04  0.11771282170E+04 0.  0.
        2    1    3    3  502    0  0.47149247308E+03 -0.32626470154E+03 -0.79727346095E+03  0.98203807420E+03  0.25500000920E-02 0. -1.
       -2    1    3    3    0  502 -0.47149247308E+03  0.32626470154E+03 -0.41570103088E+03  0.70820982394E+03  0.25500000920E-02 0.  1.
</event>
<event>
 5   0  0.2499890E-03  0.1180575E+04  0.7818609E-02  0.9130031E-01
       -2   -1    0    0    0  501  0.00000000000E+00  0.00000000000E+00  0.15953312311E+03  0.15953312313E+03  0.25500000920E-02 0.  1.
        2   -1    0    0  501    0  0.00000000000E+00  0.00000000000E+00 -0.21841187736E+04  0.21841187736E+04  0.25500000920E-02 0. -1.
    10030    2    1    2    0    0  0.00000000000E+00  0.00000000000E+00 -0.20245856505E+04  0.23436518968E+04  0.11805749264E+04 0.  0.
        5    1    3    3  502    0 -0.24257949965E+03 -0.43802496927E+03 -0.39176493565E+03  0.63577711673E+03  0.46999998093E+01 0.  1.
       -5    1    3    3    0  502  0.24257949965E+03  0.43802496927E+03 -0.16328207149E+04  0.17078747800E+04  0.46999998093E+01 0. -1.
</event>
<event>
 5   0  0.2499890E-03  0.1200228E+04  0.7818609E-02  0.9112657E-01
       -2   -1    0    0    0  501  0.00000000000E+00  0.00000000000E+00  0.83982927676E+03  0.83982927676E+03  0.25500000920E-02 0. -1.
        2   -1    0    0  501    0  0.00000000000E+00  0.00000000000E+00 -0.42882139207E+03  0.42882139208E+03  0.25500000920E-02 0.  1.
    10030    2    1    2    0    0  0.00000000000E+00  0.00000000000E+00  0.41100788469E+03  0.12686506688E+04  0.12002279110E+04 0.  0.
        5    1    3    3  502    0 -0.41196472182E+03  0.42989294247E+03  0.28454522392E+03  0.65993253327E+03  0.46999998093E+01 0.  1.
       -5    1    3    3    0  502  0.41196472182E+03 -0.42989294247E+03  0.12646266077E+03  0.60871813557E+03  0.46999998093E+01 0. -1.
</event>
<event>
 5   0  0.1455076E-03  0.1185013E+04  0.7818609E-02  0.9126077E-01
        1   -1    0    0  501    0  0.00000000000E+00  0.00000000000E+00  0.39724453672E+03  0.39724453676E+03  0.50400001928E-02 0.  1.
       -1   -1    0    0    0  501  0.00000000000E+00  0.00000000000E+00 -0.88374789063E+03  0.88374789065E+03  0.50400001928E-02 0. -1.
    10030    2    1    2    0    0  0.00000000000E+00  0.00000000000E+00 -0.48650335391E+03  0.12809924274E+04  0.11850131163E+04 0.  0.
        4    1    3    3  502    0 -0.51893103755E+03 -0.14481495694E+03  0.23299719876E+02  0.53926364919E+03  0.12699999809E+01 0.  1.
       -4    1    3    3    0  502  0.51893103755E+03  0.14481495694E+03 -0.50980307378E+03  0.74172877821E+03  0.12699999809E+01 0. -1.
</event>
<event>
 5   0  0.1469851E-03  0.1215093E+04  0.7818609E-02  0.9099748E-01
        1   -1    0    0  501    0  0.00000000000E+00  0.00000000000E+00  0.14191131977E+04  0.14191131977E+04  0.50400001928E-02 0.  1.
       -1   -1    0    0    0  501  0.00000000000E+00  0.00000000000E+00 -0.26010081014E+03  0.26010081019E+03  0.50400001928E-02 0. -1.
    10030    2    1    2    0    0  0.00000000000E+00  0.00000000000E+00  0.11590123875E+04  0.16792140079E+04  0.12150925766E+04 0.  0.
        5    1    3    3  502    0  0.44200059996E+03 -0.13326812032E+03  0.11252777829E+04  0.12163046908E+04  0.46999998093E+01 0.  1.
       -5    1    3    3    0  502 -0.44200059996E+03  0.13326812032E+03  0.33734604642E+02  0.46290931704E+03  0.46999998093E+01 0. -1.
</event>
<event>
 5   0  0.2580244E-03  0.1204278E+04  0.7818609E-02  0.9109120E-01
       -2   -1    0    0    0  501  0.00000000000E+00  0.00000000000E+00  0.55776809114E+03  0.55776809115E+03  0.25500000920E-02 0.  1.
        2   -1    0    0  501    0  0.00000000000E+00  0.00000000000E+00 -0.65004018476E+03  0.65004018476E+03  0.25500000920E-02 0. -1.
    10030    2    1    2    0    0  0.00000000000E+00  0.00000000000E+00 -0.92272093614E+02  0.12078082759E+04  0.12042784944E+04 0.  0.
        1    1    3    3  502    0 -0.20820533730E+03 -0.44032106454E+03 -0.40120702080E+03  0.63103024961E+03  0.50400001928E-02 0. -1.
       -1    1    3    3    0  502  0.20820533730E+03  0.44032106454E+03  0.30893492719E+03  0.57677802630E+03  0.50400001928E-02 0.  1.
</event>
<event>
 5   0  0.2579442E-03  0.1200611E+04  0.7818609E-02  0.9112322E-01
       -2   -1    0    0    0  501  0.00000000000E+00  0.00000000000E+00  0.27561636764E+03  0.27561636766E+03  0.25500000920E-02 0. -1.
        2   -1    0    0  501    0  0.00000000000E+00  0.00000000000E+00 -0.13074946379E+04  0.13074946379E+04  0.25500000920E-02 0.  1.
    10030    2    1    2    0    0  0.00000000000E+00  0.00000000000E+00 -0.10318782703E+04  0.15831110056E+04  0.12006113823E+04 0.  0.
        4    1    3    3  502    0  0.59674819987E+02 -0.11100865275E+03 -0.12898514198E+04  0.12959947157E+04  0.12699999809E+01 0.  1.
       -4    1    3    3    0  502 -0.59674819987E+02  0.11100865275E+03  0.25797314952E+03  0.28711628986E+03  0.12699999809E+01 0. -1.
</event>
<event>
 5   0  0.2484507E-03  0.1204269E+04  0.7818609E-02  0.9109128E-01
       -2   -1    0    0    0  501  0.00000000000E+00  0.00000000000E+00  0.23854856741E+03  0.23854856743E+03  0.25500000920E-02 0.  1.
        2   -1    0    0  501    0  0.00000000000E+00  0.00000000000E+00 -0.15198843378E+04  0.15198843378E+04  0.25500000920E-02 0. -1.
    10030    2    1    2    0    0  0.00000000000E+00  0.00000000000E+00 -0.12813357704E+04  0.17584329052E+04  0.12042694573E+04 0.  0.
        2    1    3    3  502    0  0.14167847686E+03  0.92262419329E+02  0.20317786359E+03  0.26432250961E+03  0.25500000920E-02 0.  1.
       -2    1    3    3    0  502 -0.14167847686E+03 -0.92262419329E+02 -0.14845136340E+04  0.14941103956E+04  0.25500000920E-02 0. -1.
</event>
<event>
 5   0  0.2484507E-03  0.1164314E+04  0.7818609E-02  0.9144679E-01
       -2   -1    0    0    0  501  0.00000000000E+00  0.00000000000E+00  0.13982905025E+04  0.13982905025E+04  0.25500000920E-02 0. -1.
        2   -1    0    0  501    0  0.00000000000E+00  0.00000000000E+00 -0.24237201353E+03  0.24237201354E+03  0.25500000920E-02 0.  1.
    10030    2    1    2    0    0  0.00000000000E+00  0.00000000000E+00  0.11559184890E+04  0.16406625160E+04  0.11643135052E+04 0.  0.
        2    1    3    3  502    0 -0.15481410298E+03 -0.48577376624E+03  0.97392801747E+03  0.10993085744E+04  0.25500000920E-02 0. -1.
       -2    1    3    3    0  502  0.15481410298E+03  0.48577376624E+03  0.18199047149E+03  0.54135394167E+03  0.25500000920E-02 0.  1.
</event>
<event>
 5   0  0.9678750E-04  0.1203608E+04  0.7818609E-02  0.9109704E-01
        4   -1    0    0  501    0  0.00000000000E+00  0.00000000000E+00  0.56498195972E+03  0.56498338710E+03  0.12699999809E+01 0.  1.
       -4   -1    0    0    0  501  0.00000000000E+00  0.00000000000E+00 -0.64102279155E+03  0.64102404962E+03  0.12699999809E+01 0. -1.
    10030    2    1    2    0    0  0.00000000000E+00  0.00000000000E+00 -0.76040831837E+02  0.12060074367E+04  0.12036077971E+04 0.  0.
        3    1    3    3  502    0 -0.16786107382E+03 -0.13394529837E+03 -0.60132380983E+03  0.63852096091E+03  0.10100000352E+00 0. -1.
       -3    1    3    3    0  502  0.16786107382E+03  0.13394529837E+03  0.52528297799E+03  0.56748647581E+03  0.10100000352E+00 0.  1.
</event>
<event>
 5   0  0.1403154E-03  0.1198850E+04  0.7818609E-02  0.9113864E-01
        1   -1    0    0  501    0  0.00000000000E+00  0.00000000000E+00  0.53358504194E+03  0.53358504197E+03  0.50400001928E-02 0. -1.
       -1   -1    0    0    0  501  0.00000000000E+00  0.00000000000E+00 -0.67338907372E+03  0.67338907374E+03  0.50400001928E-02 0.  1.
    10030    2    1    2    0    0  0.00000000000E+00  0.00000000000E+00 -0.13980403178E+03  0.12069741157E+04  0.11988500109E+04 0.  0.
        3    1    3    3  502    0  0.16563434464E+02 -0.25210951088E+03 -0.61716336836E+03  0.66687644004E+03  0.10100000352E+00 0.  1.
       -3    1    3    3    0  502 -0.16563434464E+02  0.25210951088E+03  0.47735933658E+03  0.54009767567E+03  0.10100000352E+00 0. -1.
</event>
<event>
 5   0  0.2499890E-03  0.1199144E+04  0.7818609E-02  0.9113606E-01
        2   -1    0    0  501    0  0.00000000000E+00  0.00000000000E+00  0.59932022074E+03  0.59932022075E+03  0.25500000920E-02 0. -1.
       -2   -1    0    0    0  501  0.00000000000E+00  0.00000000000E+00 -0.59982399068E+03  0.59982399068E+03  0.25500000920E-02 0.  1.
    10030    2    1    2    0    0  0.00000000000E+00  0.00000000000E+00 -0.50376993414E+00  0.11991442114E+04  0.11991441056E+04 0.  0.
        5    1    3    3  502    0  0.34227719190E+03 -0.17281830112E+03 -0.46116917983E+03  0.59976574070E+03  0.46999998093E+01 0.  1.
       -5    1    3    3    0  502 -0.34227719190E+03  0.17281830112E+03  0.46066540989E+03  0.59937847073E+03  0.46999998093E+01 0. -1.
</event>
<event>
 5   0  0.2580244E-03  0.1194307E+04  0.7818609E-02  0.9117855E-01
        2   -1    0    0  501    0  0.00000000000E+00  0.00000000000E+00  0.69340070652E+03  0.69340070653E+03  0.25500000920E-02 0.  1.
       -2   -1    0    0    0  501  0.00000000000E+00  0.00000000000E+00 -0.51426541865E+03  0.51426541866E+03  0.25500000920E-02 0. -1.
    10030    2    1    2    0    0  0.00000000000E+00  0.00000000000E+00  0.17913528787E+03  0.12076661252E+04  0.11943065011E+04 0.  0.
        1    1    3    3  502    0 -0.13102632700E+03 -0.28745021739E+03 -0.42285182308E+03  0.52782496166E+03  0.50400001928E-02 0. -1.
       -1    1    3    3    0  502  0.13102632700E+03  0.28745021739E+03  0.60198711095E+03  0.67984116352E+03  0.50400001928E-02 0.  1.
</event>
<event>
 5   0  0.1455076E-03  0.1199782E+04  0.7818609E-02  0.9113047E-01
        1   -1    0    0  501    0  0.00000000000E+00  0.00000000000E+00  0.85378970956E+03  0.85378970958E+03  0.50400001928E-02 0. -1.
       -1   -1    0    0    0  501  0.00000000000E+00  0.00000000000E+00 -0.42149628043E+03  0.42149628046E+03  0.50400001928E-02 0.  1.
    10030    2    1    2    0    0  0.00000000000E+00  0.00000000000E+00  0.43229342914E+03  0.12752859900E+04  0.11997819583E+04 0.  0.
        4    1    3    3  502    0 -0.55516453298E+03 -0.12501046904E+03  0.14379201239E+02  0.56924832048E+03  0.12699999809E+01 0.  1.
       -4    1    3    3    0  502  0.55516453298E+03  0.12501046904E+03  0.41791422790E+03  0.70603766955E+03  0.12699999809E+01 0. -1.
</event>
<event>
 5   0  0.1403154E-03  0.1203249E+04  0.7818609E-02  0.9110017E-01
        1   -1    0    0  501    0  0.00000000000E+00  0.00000000000E+00  0.45389874277E+03  0.45389874279E+03  0.50400001928E-02 0.  1.
       -1   -1    0    0    0  501  0.00000000000E+00  0.00000000000E+00 -0.79742960095E+03  0.79742960096E+03  0.50400001928E-02 0. -1.
    10030    2    1    2    0    0  0.00000000000E+00  0.00000000000E+00 -0.34353085818E+03  0.12513283438E+04  0.12032494228E+04 0.  0.
        3    1    3    3  502    0  0.34709286772E+03  0.38590351056E+03 -0.48815413334E+03  0.71252329533E+03  0.10100000352E+00 0. -1.
       -3    1    3    3    0  502 -0.34709286772E+03 -0.38590351056E+03  0.14462327516E+03  0.53880504843E+03  0.10100000352E+00 0.  1.
</event>
<event>
 5   0  0.2499890E-03  0.1198867E+04  0.7818609E-02  0.9113849E-01
        2   -1    0    0  501    0  0.00000000000E+00  0.00000000000E+00  0.10086079605E+04  0.10086079605E+04  0.25500000920E-02 0.  1.
       -2   -1    0    0    0  501  0.00000000000E+00  0.00000000000E+00 -0.35625382137E+03  0.35625382138E+03  0.25500000920E-02 0. -1.
    10030    2    1    2    0    0  0.00000000000E+00  0.00000000000E+00  0.65235413914E+03  0.13648617819E+04  0.11988668654E+04 0.  0.
        5    1    3    3  502    0 -0.20546241489E+03 -0.55312469169E+03  0.20603518228E+03  0.62500745182E+03  0.46999998093E+01 0. -1.
       -5    1    3    3    0  502  0.20546241489E+03  0.55312469169E+03  0.44631895686E+03  0.73985433008E+03  0.46999998093E+01 0.  1.
</event>
<event>
 5   0  0.2499890E-03  0.1142656E+04  0.7818609E-02  0.9164586E-01
        2   -1    0    0  501    0  0.00000000000E+00  0.00000000000E+00  0.18762364963E+04  0.18762364963E+04  0.25500000920E-02 0. -1.
       -2   -1    0    0    0  501  0.00000000000E+00  0.00000000000E+00 -0.17397364177E+03  0.17397364179E+03  0.25500000920E-02 0.  1.
    10030    2    1    2    0    0  0.00000000000E+00  0.00000000000E+00  0.17022628545E+04  0.20502101381E+04  0.11426560219E+04 0.  0.
        5    1    3    3  502    0 -0.24317503811E+03 -0.18110952230E+03 -0.17661301031E+02  0.30375774851E+03  0.46999998093E+01 0.  1.
       -5    1    3    3    0  502  0.24317503811E+03  0.18110952230E+03  0.17199241555E+04  0.17464523896E+04  0.46999998093E+01 0. -1.
</event>
<event>
 5   0  0.2484507E-03  0.1186223E+04  0.7818609E-02  0.9125002E-01
       -2   -1    0    0    0  501  0.00000000000E+00  0.00000000000E+00  0.31657232858E+03  0.31657232859E+03  0.25500000920E-02 0.  1.
        2   -1    0    0  501    0  0.00000000000E+00  0.00000000000E+00 -0.11112191685E+04  0.11112191685E+04  0.25500000920E-02 0. -1.
    10030    2    1    2    0    0  0.00000000000E+00  0.00000000000E+00 -0.79464683995E+03  0.14277914971E+04  0.11862229803E+04 0.  0.
        2    1    3    3  502    0 -0.11668910799E+03 -0.30698578797E+03 -0.99178839902E+03  0.10447491806E+04  0.25500000920E-02 0. -1.
       -2    1    3    3    0  502  0.11668910799E+03  0.30698578797E+03  0.19714155906E+03  0.38304231653E+03  0.25500000920E-02 0.  1.
</event>
<event>
 5   0  0.2579442E-03  0.1236506E+04  0.7818609E-02  0.9081489E-01
        2   -1    0    0  501    0  0.00000000000E+00  0.00000000000E+00  0.92488531299E+03  0.92488531299E+03  0.25500000920E-02 0.  1.
       -2   -1    0    0    0  501  0.00000000000E+00  0.00000000000E+00 -0.41328044379E+03  0.41328044380E+03  0.25500000920E-02 0. -1.
    10030    2    1    2    0    0  0.00000000000E+00  0.00000000000E+00  0.51160486920E+03  0.13381657568E+04  0.12365063892E+04 0.  0.
        4    1    3    3  502    0 -0.22671189751E+03 -0.72352083957E+02  0.87333131536E+03  0.90517529121E+03  0.12699999809E+01 0.  1.
       -4    1    3    3    0  502  0.22671189751E+03  0.72352083957E+02 -0.36172644616E+03  0.43299046558E+03  0.12699999809E+01 0. -1.
</event>
<event>
 5   0  0.1404833E-03  0.1041545E+04  0.7818609E-02  0.9264118E-01
        1   -1    0    0  501    0  0.00000000000E+00  0.00000000000E+00  0.92136435801E+03  0.92136435803E+03  0.50400001928E-02 0. -1.
       -1   -1    0    0    0  501  0.00000000000E+00  0.00000000000E+00 -0.29435017062E+03  0.29435017067E+03  0.50400001928E-02 0.  1.
    10030    2    1    2    0    0  0.00000000000E+00  0.00000000000E+00  0.62701418739E+03  0.12157145287E+04  0.10415445377E+04 0.  0.
        1    1    3    3  502    0 -0.36078964190E+02 -0.12777577990E+03 -0.27426279455E+03  0.30471039051E+03  0.50400001928E-02 0.  1.
       -1    1    3    3    0  502  0.36078964190E+02  0.12777577990E+03  0.90127698194E+03  0.91100413818E+03  0.50400001928E-02 0. -1.
</event>
<event>
 5   0  0.1404833E-03  0.1205391E+04  0.7818609E-02  0.9108151E-01
        1   -1    0    0  501    0  0.00000000000E+00  0.00000000000E+00  0.23806500881E+04  0.23806500881E+04  0.50400001928E-02 0.  1.
       -1   -1    0    0    0  501  0.00000000000E+00  0.00000000000E+00 -0.15258096700E+03  0.15258096708E+03  0.50400001928E-02 0. -1.
    10030    2    1    2    0    0  0.00000000000E+00  0.00000000000E+00  0.22280691211E+04  0.25332310551E+04  0.12053910446E+04 0.  0.
        1    1    3    3  502    0  0.29526764632E+03 -0.43473803212E+03  0.49393625190E+03  0.72121644498E+03  0.50400001928E-02 0. -1.
       -1    1    3    3    0  502 -0.29526764632E+03  0.43473803212E+03  0.17341328692E+04  0.18120146102E+04  0.50400001928E-02 0.  1.
</event>
<event>
 5   0  0.1403154E-03  0.1193855E+04  0.7818609E-02  0.9118252E-01
       -1   -1    0    0    0  501  0.00000000000E+00  0.00000000000E+00  0.76848320294E+03  0.76848320295E+03  0.50400001928E-02 0. -1.
        1   -1    0    0  501    0  0.00000000000E+00  0.00000000000E+00 -0.46366985360E+03  0.46366985363E+03  0.50400001928E-02 0.  1.
    10030    2    1    2    0    0  0.00000000000E+00  0.00000000000E+00  0.30481334933E+03  0.12321530566E+04  0.11938550904E+04 0.  0.
        3    1    3    3  502    0 -0.42082547831E+03  0.38989009038E+03  0.32266571340E+03  0.65819566891E+03  0.10100000352E+00 0. -1.
       -3    1    3    3    0  502  0.42082547831E+03 -0.38989009038E+03 -0.17852364068E+02  0.57395738768E+03  0.10100000352E+00 0.  1.
</event>
<event>
 5   0  0.2580244E-03  0.9815150E+03  0.7818609E-02  0.9329054E-01
       -2   -1    0    0    0  501  0.00000000000E+00  0.00000000000E+00  0.75999379777E+03  0.75999379777E+03  0.25500000920E-02 0.  1.
        2   -1    0    0  501    0  0.00000000000E+00  0.00000000000E+00 -0.31690114301E+03  0.31690114302E+03  0.25500000920E-02 0. -1.
    10030    2    1    2    0    0  0.00000000000E+00  0.00000000000E+00  0.44309265475E+03  0.10768949408E+04  0.98151495802E+03 0.  0.
        1    1    3    3  502    0  0.27305931756E+02  0.39363587669E+03 -0.98611304423E+02  0.40671735482E+03  0.50400001928E-02 0. -1.
       -1    1    3    3    0  502 -0.27305931756E+02 -0.39363587669E+03  0.54170395918E+03  0.67017758597E+03  0.50400001928E-02 0.  1.
</event>
<event>
 5   0  0.9678750E-04  0.1194118E+04  0.7818609E-02  0.9118021E-01
        3   -1    0    0  501    0  0.00000000000E+00  0.00000000000E+00  0.27252070690E+03  0.27252072562E+03  0.10100000352E+00 0.  1.
       -3   -1    0    0    0  501  0.00000000000E+00  0.00000000000E+00 -0.13080822472E+04  0.13080822511E+04  0.10100000352E+00 0. -1.
    10030    2    1    2    0    0  0.00000000000E+00  0.00000000000E+00 -0.10355615403E+04  0.15806029767E+04  0.11941181123E+04 0.  0.
        4    1    3    3  502    0 -0.12611988108E+03 -0.47962068771E+03 -0.95785581699E+03  0.10786248688E+04  0.12699999809E+01 0. -1.
       -4    1    3    3    0  502  0.12611988108E+03  0.47962068771E+03 -0.77705723271E+02  0.50197810790E+03  0.12699999809E+01 0.  1.
</event>
<event>
 5   0  0.2579442E-03  0.1201371E+04  0.7818609E-02  0.9111657E-01
        2   -1    0    0  501    0  0.00000000000E+00  0.00000000000E+00  0.83550263006E+03  0.83550263006E+03  0.25500000920E-02 0. -1.
       -2   -1    0    0    0  501  0.00000000000E+00  0.00000000000E+00 -0.43186376670E+03  0.43186376670E+03  0.25500000920E-02 0.  1.
    10030    2    1    2    0    0  0.00000000000E+00  0.00000000000E+00  0.40363886336E+03  0.12673663968E+04  0.12013714045E+04 0.  0.
        4    1    3    3  502    0 -0.44131480274E+03  0.38294738098E+03  0.54830312581E+02  0.58686917435E+03  0.12699999809E+01 0. -1.
       -4    1    3    3    0  502  0.44131480274E+03 -0.38294738098E+03  0.34880855078E+03  0.68049722242E+03  0.12699999809E+01 0.  1.
</event>
<event>
 5   0  0.1455076E-03  0.1199444E+04  0.7818609E-02  0.9113343E-01
        1   -1    0    0  501    0  0.00000000000E+00  0.00000000000E+00  0.41027505529E+03  0.41027505532E+03  0.50400001928E-02 0.  1.
       -1   -1    0    0    0  501  0.00000000000E+00  0.00000000000E+00 -0.87664737846E+03  0.87664737848E+03  0.50400001928E-02 0. -1.
    10030    2    1    2    0    0  0.00000000000E+00  0.00000000000E+00 -0.46637232318E+03  0.12869224338E+04  0.11994441241E+04 0.  0.
        4    1    3    3  502    0 -0.26169022755E+03  0.76554665621E+02  0.33992701865E+03  0.43576872643E+03  0.12699999809E+01 0.  1.
       -4    1    3    3    0  502  0.26169022755E+03 -0.76554665621E+02 -0.80629934183E+03  0.85115370736E+03  0.12699999809E+01 0. -1.
</event>
<event>
 5   0  0.1469851E-03  0.1211953E+04  0.7818609E-02  0.9102458E-01
        1   -1    0    0  501    0  0.00000000000E+00  0.00000000000E+00  0.94229813919E+03  0.94229813921E+03  0.50400001928E-02 0.  1.
       -1   -1    0    0    0  501  0.00000000000E+00  0.00000000000E+00 -0.38969364659E+03  0.38969364663E+03  0.50400001928E-02 0. -1.
    10030    2    1    2    0    0  0.00000000000E+00  0.00000000000E+00  0.55260449260E+03  0.13319917858E+04  0.12119531312E+04 0.  0.
        5    1    3    3  502    0 -0.15666977888E+03  0.56257557408E+03  0.45402445507E+03  0.73972764716E+03  0.46999998093E+01 0.  1.
       -5    1    3    3    0  502  0.15666977888E+03 -0.56257557408E+03  0.98580037526E+02  0.59226413868E+03  0.46999998093E+01 0. -1.
</event>
<event>
 5   0  0.2580244E-03  0.1200011E+04  0.7818609E-02  0.9112847E-01
       -2   -1    0    0    0  501  0.00000000000E+00  0.00000000000E+00  0.57725161915E+03  0.57725161915E+03  0.25500000920E-02 0.  1.
        2   -1    0    0  501    0  0.00000000000E+00  0.00000000000E+00 -0.62365614847E+03  0.62365614848E+03  0.25500000920E-02 0. -1.
    10030    2    1    2    0    0  0.00000000000E+00  0.00000000000E+00 -0.46404529327E+02  0.12009077676E+04  0.12000108691E+04 0.  0.
        1    1    3    3  502    0  0.34337662111E+01  0.23947649935E+02  0.57676332657E+03  0.57727048737E+03  0.50400001928E-02 0.  1.
       -1    1    3    3    0  502 -0.34337662111E+01 -0.23947649935E+02 -0.62316785589E+03  0.62363728026E+03  0.50400001928E-02 0. -1.
</event>
<event>
 5   0  0.1403154E-03  0.1181412E+04  0.7818609E-02  0.9129284E-01
       -1   -1    0    0    0  501  0.00000000000E+00  0.00000000000E+00  0.10927631118E+04  0.10927631118E+04  0.50400001928E-02 0.  1.
        1   -1    0    0  501    0  0.00000000000E+00  0.00000000000E+00 -0.31931326805E+03  0.31931326809E+03  0.50400001928E-02 0. -1.
    10030    2    1    2    0    0  0.00000000000E+00  0.00000000000E+00  0.77344984377E+03  0.14120763799E+04  0.11814123082E+04 0.  0.
        3    1    3    3  502    0  0.55798703038E+03  0.19193663636E+03  0.41933892916E+03  0.72390216615E+03  0.10100000352E+00 0.  1.
       -3    1    3    3    0  502 -0.55798703038E+03 -0.19193663636E+03  0.35411091461E+03  0.68817421377E+03  0.10100000352E+00 0. -1.
</event>
<event>
 5   0  0.2484507E-03  0.1232317E+04  0.7818609E-02  0.9085031E-01
        2   -1    0    0  501    0  0.00000000000E+00  0.00000000000E+00  0.93852848624E+03  0.93852848624E+03  0.25500000920E-02 0.  1.
       -2   -1    0    0    0  501  0.00000000000E+00  0.00000000000E+00 -0.40451758866E+03  0.40451758867E+03  0.25500000920E-02 0. -1.
    10030    2    1    2    0    0  0.00000000000E+00  0.00000000000E+00  0.53401089758E+03  0.13430460749E+04  0.12323169725E+04 0.  0.
        2    1    3    3  502    0 -0.40050801992E+03 -0.31507251725E+03  0.64450105184E+03  0.82161972407E+03  0.25500000920E-02 0. -1.
       -2    1    3    3    0  502  0.40050801992E+03  0.31507251725E+03 -0.11049015426E+03  0.52142635084E+03  0.25500000920E-02 0.  1.
</event>
<event>
 5   0  0.2484507E-03  0.1197314E+04  0.7818609E-02  0.9115211E-01
       -2   -1    0    0    0  501  0.00000000000E+00  0.00000000000E+00  0.35543912253E+03  0.35543912254E+03  0.25500000920E-02 0.  1.
        2   -1    0    0  501    0  0.00000000000E+00  0.00000000000E+00 -0.10083018471E+04  0.10083018471E+04  0.25500000920E-02 0. -1.
    10030    2    1    2    0    0  0.00000000000E+00  0.00000000000E+00 -0.65286272458E+03  0.13637409697E+04  0.11973135325E+04 0.  0.
        2    1    3    3  502    0  0.19072433526E+03 -0.39506057479E+03 -0.79041346941E+03  0.90399230220E+03  0.25500000920E-02 0. -1.
       -2    1    3    3    0  502 -0.19072433526E+03  0.39506057479E+03  0.13755074483E+03  0.45974866745E+03  0.25500000920E-02 0.  1.
</event>
<event>
 5   0  0.2579442E-03  0.1273369E+04  0.7818609E-02  0.9050955E-01
       -2   -1    0    0    0  501  0.00000000000E+00  0.00000000000E+00  0.52504091251E+03  0.52504091252E+03  0.25500000920E-02 0. -1.
        2   -1    0    0  501    0  0.00000000000E+00  0.00000000000E+00 -0.77206720393E+03  0.77206720394E+03  0.25500000920E-02 0.  1.
    10030    2    1    2    0    0  0.00000000000E+00  0.00000000000E+00 -0.24702629142E+03  0.12971081165E+04  0.12733685551E+04 0.  0.
        4    1    3    3  502    0 -0.17256161387E+03  0.11476884259E+03 -0.73674633613E+03  0.76534056113E+03  0.12699999809E+01 0.  1.
       -4    1    3    3    0  502  0.17256161387E+03 -0.11476884259E+03  0.48972004471E+03  0.53176755533E+03  0.12699999809E+01 0. -1.
</event>
<event>
 5   0  0.2499890E-03  0.1192085E+04  0.7818609E-02  0.9119813E-01
       -2   -1    0    0    0  501  0.00000000000E+00  0.00000000000E+00  0.87220217774E+03  0.87220217775E+03  0.25500000920E-02 0.  1.
        2   -1    0    0  501    0  0.00000000000E+00  0.00000000000E+00 -0.40732136264E+03  0.40732136265E+03  0.25500000920E-02 0. -1.
    10030    2    1    2    0    0  0.00000000000E+00  0.00000000000E+00  0.46488081510E+03  0.12795235404E+04  0.11920848620E+04 0.  0.
        5    1    3    3  502    0  0.49865708958E+03  0.29109932221E+03  0.39108849341E+03  0.69740232869E+03  0.46999998093E+01 0. -1.
       -5    1    3    3    0  502 -0.49865708958E+03 -0.29109932221E+03  0.73792321692E+02  0.58212121171E+03  0.46999998093E+01 0.  1.
</event>
<event>
 5   0  0.2580244E-03  0.1202918E+04  0.7818609E-02  0.9110306E-01
       -2   -1    0    0    0  501  0.00000000000E+00  0.00000000000E+00  0.72073223878E+03  0.72073223878E+03  0.25500000920E-02 0.  1.
        2   -1    0    0  501    0  0.00000000000E+00  0.00000000000E+00 -0.50192444591E+03  0.50192444591E+03  0.25500000920E-02 0. -1.
    10030    2    1    2    0    0  0.00000000000E+00  0.00000000000E+00  0.21880779287E+03  0.12226566847E+04  0.12029183341E+04 0.  0.
        1    1    3    3  502    0  0.15080862022E+03  0.17729805155E+03 -0.45429100146E+03  0.51044897203E+03  0.50400001928E-02 0. -1.
       -1    1    3    3    0  502 -0.15080862022E+03 -0.17729805155E+03  0.67309879433E+03  0.71220771266E+03  0.50400001928E-02 0.  1.
</event>
<event>
 5   0  0.2499890E-03  0.1195649E+04  0.7818609E-02  0.9116673E-01
        2   -1    0    0  501    0  0.00000000000E+00  0.00000000000E+00  0.95743454556E+03  0.95743454556E+03  0.25500000920E-02 0.  1.
       -2   -1    0    0    0  501  0.00000000000E+00  0.00000000000E+00 -0.37328312175E+03  0.37328312176E+03  0.25500000920E-02 0. -1.
    10030    2    1    2    0    0  0.00000000000E+00  0.00000000000E+00  0.58415142380E+03  0.13307176673E+04  0.11956490389E+04 0.  0.
        5    1    3    3  502    0  0.53017613407E+03 -0.25595670681E+03  0.17656553762E+03  0.61465278652E+03  0.46999998093E+01 0. -1.
       -5    1    3    3    0  502 -0.53017613407E+03  0.25595670681E+03  0.40758588618E+03  0.71606488080E+03  0.46999998093E+01 0.  1.
</event>
<event>
 5   0  0.1455076E-03  0.1197355E+04  0.7818609E-02  0.9115174E-01
        1   -1    0    0  501    0  0.00000000000E+00  0.00000000000E+00  0.99233981162E+03  0.99233981163E+03  0.50400001928E-02 0. -1.
       -1   -1    0    0    0  501  0.00000000000E+00  0.00000000000E+00 -0.36118176588E+03  0.36118176591E+03  0.50400001928E-02 0.  1.
    10030    2    1    2    0    0  0.00000000000E+00  0.00000000000E+00  0.63115804574E+03  0.13535215775E+04  0.11973554953E+04 0.  0.
        4    1    3    3  502    0 -0.55601674134E+03  0.12193892186E+03  0.10594760958E+03  0.57900796729E+03  0.12699999809E+01 0.  1.
       -4    1    3    3    0  502  0.55601674134E+03 -0.12193892186E+03  0.52521043617E+03  0.77451361025E+03  0.12699999809E+01 0. -1.
</event>
<event>
 5   0  0.1469851E-03  0.1204370E+04  0.7818609E-02  0.9109040E-01
       -1   -1    0    0    0  501  0.00000000000E+00  0.00000000000E+00  0.33450028375E+03  0.33450028379E+03  0.50400001928E-02 0. -1.
        1   -1    0    0  501    0  0.00000000000E+00  0.00000000000E+00 -0.10840854942E+04  0.10840854942E+04  0.50400001928E-02 0.  1.
    10030    2    1    2    0    0  0.00000000000E+00  0.00000000000E+00 -0.74958521041E+03  0.14185857780E+04  0.12043702179E+04 0.  0.
        5    1    3    3  502    0  0.16052844763E+03 -0.28889004461E+03 -0.96769065859E+03  0.10225820950E+04  0.46999998093E+01 0.  1.
       -5    1    3    3    0  502 -0.16052844763E+03  0.28889004461E+03  0.21810544818E+03  0.39600368293E+03  0.46999998093E+01 0. -1.
</event>
<event>
 5   0  0.2579442E-03  0.1197740E+04  0.7818609E-02  0.9114837E-01
       -2   -1    0    0    0  501  0.00000000000E+00  0.00000000000E+00  0.78256986897E+03  0.78256986897E+03  0.25500000920E-02 0. -1.
        2   -1    0    0  501    0  0.00000000000E+00  0.00000000000E+00 -0.45829154693E+03  0.45829154694E+03  0.25500000920E-02 0.  1.
    10030    2    1    2    0    0  0.00000000000E+00  0.00000000000E+00  0.32427832204E+03  0.12408614159E+04  0.11977397978E+04 0.  0.
        4    1    3    3  502    0  0.53894983611E+03  0.18201617608E+02 -0.10770979496E+03  0.54991020863E+03  0.12699999809E+01 0.  1.
       -4    1    3    3    0  502 -0.53894983611E+03 -0.18201617608E+02  0.43198811699E+03  0.69095120728E+03  0.12699999809E+01 0. -1.
</event>
<event>
 5   0  0.2484507E-03  0.1209112E+04  0.7818609E-02  0.9104918E-01
        2   -1    0    0  501    0  0.00000000000E+00  0.00000000000E+00  0.15422947805E+04  0.15422947805E+04  0.25500000920E-02 0. -1.
       -2   -1    0    0    0  501  0.00000000000E+00  0.00000000000E+00 -0.23697663992E+03  0.23697663994E+03  0.25500000920E-02 0.  1.
    10030    2    1    2    0    0  0.00000000000E+00  0.00000000000E+00  0.13053181406E+04  0.17792714204E+04  0.12091117978E+04 0.  0.
        2    1    3    3  502    0  0.17298493029E+03 -0.27817770931E+03  0.14003774579E+04  0.14381806732E+04  0.25500000920E-02 0. -1.
       -2    1    3    3    0  502 -0.17298493029E+03  0.27817770931E+03 -0.95059317319E+02  0.34109074728E+03  0.25500000920E-02 0.  1.
</event>
<event>
 5   0  0.1469851E-03  0.1215841E+04  0.7818609E-02  0.9099102E-01
       -1   -1    0    0    0  501  0.00000000000E+00  0.00000000000E+00  0.20614063162E+03  0.20614063168E+03  0.50400001928E-02 0.  1.
        1   -1    0    0  501    0  0.00000000000E+00  0.00000000000E+00 -0.17927935456E+04  0.17927935456E+04  0.50400001928E-02 0. -1.
    10030    2    1    2    0    0  0.00000000000E+00  0.00000000000E+00 -0.15866529140E+04  0.19989341773E+04  0.12158414270E+04 0.  0.
        5    1    3    3  502    0  0.21608056143E+03 -0.20326117924E+03 -0.16656775145E+04  0.16918952652E+04  0.46999998093E+01 0. -1.
       -5    1    3    3    0  502 -0.21608056143E+03  0.20326117924E+03  0.79024600584E+02  0.30703891205E+03  0.46999998093E+01 0.  1.
</event>
<event>
 5   0  0.1423024E-03  0.1220055E+04  0.7818609E-02  0.9095481E-01
       -1   -1    0    0    0  501  0.00000000000E+00  0.00000000000E+00  0.42609367846E+03  0.42609367849E+03  0.50400001928E-02 0. -1.
        1   -1    0    0  501    0  0.00000000000E+00  0.00000000000E+00 -0.87336133107E+03  0.87336133108E+03  0.50400001928E-02 0.  1.
    10030    2    1    2    0    0  0.00000000000E+00  0.00000000000E+00 -0.44726765261E+03  0.12994550096E+04  0.12200553138E+04 0.  0.
        2    1    3    3  502    0 -0.39967229002E+03  0.23849782290E+03 -0.64365124210E+03  0.79429596020E+03  0.25500000920E-02 0.  1.
       -2    1    3    3    0  502  0.39967229002E+03 -0.23849782290E+03  0.19638358949E+03  0.50515904937E+03  0.25500000920E-02 0. -1.
</event>
<event>
 5   0  0.2499890E-03  0.1203221E+04  0.7818609E-02  0.9110042E-01
        2   -1    0    0  501    0  0.00000000000E+00  0.00000000000E+00  0.79563608830E+03  0.79563608831E+03  0.25500000920E-02 0. -1.
       -2   -1    0    0    0  501  0.00000000000E+00  0.00000000000E+00 -0.45490056638E+03  0.45490056639E+03  0.25500000920E-02 0.  1.
    10030    2    1    2    0    0  0.00000000000E+00  0.00000000000E+00  0.34073552192E+03  0.12505366547E+04  0.12032211887E+04 0.  0.
        5    1    3    3  502    0  0.52945936221E+03 -0.51538210427E+02 -0.12162460288E+03  0.54570874777E+03  0.46999998093E+01 0.  1.
       -5    1    3    3    0  502 -0.52945936221E+03  0.51538210427E+02  0.46236012480E+03  0.70482790692E+03  0.46999998093E+01 0. -1.
</event>
<event>
 5   0  0.1423024E-03  0.1213551E+04  0.7818609E-02  0.9101077E-01
        1   -1    0    0  501    0  0.00000000000E+00  0.00000000000E+00  0.31359500662E+03  0.31359500666E+03  0.50400001928E-02 0.  1.
       -1   -1    0    0    0  501  0.00000000000E+00  0.00000000000E+00 -0.11740512703E+04  0.11740512703E+04  0.50400001928E-02 0. -1.
    10030    2    1    2    0    0  0.00000000000E+00  0.00000000000E+00 -0.86045626371E+03  0.14876462770E+04  0.12135511789E+04 0.  0.
        2    1    3    3  502    0  0.31034728315E+03 -0.49754655338E+03 -0.62135494541E+03  0.85437110036E+03  0.25500000920E-02 0.  1.
       -2    1    3    3    0  502 -0.31034728315E+03  0.49754655338E+03 -0.23910131831E+03  0.63327517665E+03  0.25500000920E-02 0. -1.
</event>
<event>
 5   0  0.1403154E-03  0.1193098E+04  0.7818609E-02  0.9118920E-01
        1   -1    0    0  501    0  0.00000000000E+00  0.00000000000E+00  0.64663444463E+03  0.64663444465E+03  0.50400001928E-02 0.  1.
       -1   -1    0    0    0  501  0.00000000000E+00  0.00000000000E+00 -0.55034275929E+03  0.55034275931E+03  0.50400001928E-02 0. -1.
    10030    2    1    2    0    0  0.00000000000E+00  0.00000000000E+00  0.96291685343E+02  0.11969772040E+04  0.11930977907E+04 0.  0.
        3    1    3    3  502    0 -0.23202771273E+03 -0.21097300045E+02 -0.50281065866E+03  0.55416651307E+03  0.10100000352E+00 0. -1.
       -3    1    3    3    0  502  0.23202771273E+03  0.21097300045E+02  0.59910234400E+03  0.64281069090E+03  0.10100000352E+00 0.  1.
</event>
<event>
 5   0  0.1404833E-03  0.1133717E+04  0.7818609E-02  0.9172938E-01
       -1   -1    0    0    0  501  0.00000000000E+00  0.00000000000E+00  0.73230056595E+03  0.73230056596E+03  0.50400001928E-02 0.  1.
        1   -1    0    0  501    0  0.00000000000E+00  0.00000000000E+00 -0.43879297947E+03  0.43879297950E+03  0.50400001928E-02 0. -1.
    10030    2    1    2    0    0  0.00000000000E+00  0.00000000000E+00  0.29350758648E+03  0.11710935455E+04  0.11337166264E+04 0.  0.
        1    1    3    3  502    0 -0.41336324959E+03 -0.14084185067E+03 -0.22657928678E+03  0.49197944697E+03  0.50400001928E-02 0. -1.
       -1    1    3    3    0  502  0.41336324959E+03  0.14084185067E+03  0.52008687326E+03  0.67911409849E+03  0.50400001928E-02 0.  1.
</event>
<event>
 5   0  0.2580244E-03  0.1199387E+04  0.7818609E-02  0.9113393E-01
       -2   -1    0    0    0  501  0.00000000000E+00  0.00000000000E+00  0.14034096265E+03  0.14034096268E+03  0.25500000920E-02 0.  1.
        2   -1    0    0  501    0  0.00000000000E+00  0.00000000000E+00 -0.25625628813E+04  0.25625628813E+04  0.25500000920E-02 0. -1.
    10030    2    1    2    0    0  0.00000000000E+00  0.00000000000E+00 -0.24222219186E+04  0.27029038440E+04  0.11993874131E+04 0.  0.
        1    1    3    3  502    0  0.55358123055E+03  0.90449698439E+02 -0.73306067893E+03  0.92304457410E+03  0.50400001928E-02 0.  1.
       -1    1    3    3    0  502 -0.55358123055E+03 -0.90449698439E+02 -0.16891612397E+04  0.17798592699E+04  0.50400001928E-02 0. -1.
</event>
<event>
 5   0  0.9678750E-04  0.1193081E+04  0.7818609E-02  0.9118934E-01
       -3   -1    0    0    0  501  0.00000000000E+00  0.00000000000E+00  0.19755124435E+03  0.19755127017E+03  0.10100000352E+00 0. -1.
        3   -1    0    0  501    0  0.00000000000E+00  0.00000000000E+00 -0.18013584614E+04  0.18013584643E+04  0.10100000352E+00 0.  1.
    10030    2    1    2    0    0  0.00000000000E+00  0.00000000000E+00 -0.16038072171E+04  0.19989097345E+04  0.11930811108E+04 0.  0.
        1    1    3    3  502    0  0.26405093903E+03  0.15836798861E+03 -0.16579378707E+04  0.16862862454E+04  0.50400001928E-02 0.  1.
       -1    1    3    3    0  502 -0.26405093903E+03 -0.15836798861E+03  0.54130653627E+02  0.31262348905E+03  0.50400001928E-02 0. -1.
</event>
<event>
 5   0  0.2517023E-03  0.1183737E+04  0.7818609E-02  0.9127212E-01
       -2   -1    0    0    0  501  0.00000000000E+00  0.00000000000E+00  0.43286780985E+03  0.43286780985E+03  0.25500000920E-02 0. -1.
        2   -1    0    0  501    0  0.00000000000E+00  0.00000000000E+00 -0.80927359007E+03  0.80927359008E+03  0.25500000920E-02 0.  1.
    10030    2    1    2    0    0  0.00000000000E+00  0.00000000000E+00 -0.37640578023E+03  0.12421413999E+04  0.11837372791E+04 0.  0.
        3    1    3    3  502    0  0.41917482489E+03  0.34669790687E+03  0.56546244316E+02  0.54690443443E+03  0.10100000352E+00 0. -1.
       -3    1    3    3    0  502 -0.41917482489E+03 -0.34669790687E+03 -0.43295202454E+03  0.69523696550E+03  0.10100000352E+00 0.  1.
</event>
<event>
 5   0  0.2499890E-03  0.1194463E+04  0.7818609E-02  0.9117717E-01
       -2   -1    0    0    0  501  0.00000000000E+00  0.00000000000E+00  0.26399951961E+03  0.26399951962E+03  0.25500000920E-02 0.  1.
        2   -1    0    0  501    0  0.00000000000E+00  0.00000000000E+00 -0.13510832417E+04  0.13510832417E+04  0.25500000920E-02 0. -1.
    10030    2    1    2    0    0  0.00000000000E+00  0.00000000000E+00 -0.10870837221E+04  0.16150827613E+04  0.11944627692E+04 0.  0.
        5    1    3    3  502    0  0.48706339738E+03 -0.27984717372E+03 -0.26936021291E+03  0.62299454893E+03  0.46999998093E+01 0.  1.
       -5    1    3    3    0  502 -0.48706339738E+03  0.27984717372E+03 -0.81772350918E+03  0.99208821239E+03  0.46999998093E+01 0. -1.
</event>
<event>
 5   0  0.2579442E-03  0.1195194E+04  0.7818609E-02  0.9117073E-01
       -2   -1    0    0    0  501  0.00000000000E+00  0.00000000000E+00  0.12990510018E+04  0.12990510019E+04  0.25500000920E-02 0.  1.
        2   -1    0    0  501    0  0.00000000000E+00  0.00000000000E+00 -0.27491017513E+03  0.27491017514E+03  0.25500000920E-02 0. -1.
    10030    2    1    2    0    0  0.00000000000E+00  0.00000000000E+00  0.10241408267E+04  0.15739611770E+04  0.11951942745E+04 0.  0.
        4    1    3    3  502    0 -0.60053349015E+02 -0.26785095882E+03  0.12111120276E+04  0.12418311065E+04  0.12699999809E+01 0.  1.
       -4    1    3    3    0  502  0.60053349015E+02  0.26785095882E+03 -0.18697120085E+03  0.33213007048E+03  0.12699999809E+01 0. -1.
</event>
<event>
 5   0  0.2580244E-03  0.1201341E+04  0.7818609E-02  0.9111684E-01
       -2   -1    0    0    0  501  0.00000000000E+00  0.00000000000E+00  0.31198550039E+03  0.31198550040E+03  0.25500000920E-02 0. -1.
        2   -1    0    0  501    0  0.00000000000E+00  0.00000000000E+00 -0.11564797699E+04  0.11564797699E+04  0.25500000920E-02 0.  1.
    10030    2    1    2    0    0  0.00000000000E+00  0.00000000000E+00 -0.84449426953E+03  0.14684652703E+04  0.12013407838E+04 0.  0.
        1    1    3    3  502    0 -0.40449536186E+03  0.28581958348E+03 -0.68340660130E+01  0.49533426750E+03  0.50400001928E-02 0. -1.
       -1    1    3    3    0  502  0.40449536186E+03 -0.28581958348E+03 -0.83766020352E+03  0.97313100283E+03  0.50400001928E-02 0.  1.
</event>
<event>
 5   0  0.1423024E-03  0.1195896E+04  0.7818609E-02  0.9116456E-01
       -1   -1    0    0    0  501  0.00000000000E+00  0.00000000000E+00  0.40213223542E+03  0.40213223545E+03  0.50400001928E-02 0.  1.
        1   -1    0    0  501    0  0.00000000000E+00  0.00000000000E+00 -0.88911527884E+03  0.88911527885E+03  0.50400001928E-02 0. -1.
    10030    2    1    2    0    0  0.00000000000E+00  0.00000000000E+00 -0.48698304342E+03  0.12912475143E+04  0.11958961738E+04 0.  0.
        2    1    3    3  502    0 -0.13994678938E+03  0.36492182259E+03  0.24512618533E+03  0.46134573500E+03  0.25500000920E-02 0.  1.
       -2    1    3    3    0  502  0.13994678938E+03 -0.36492182259E+03 -0.73210922875E+03  0.82990177930E+03  0.25500000920E-02 0. -1.
</event>
<event>
 5   0  0.1403154E-03  0.1325449E+04  0.7818609E-02  0.9009624E-01
       -1   -1    0    0    0  501  0.00000000000E+00  0.00000000000E+00  0.37892262254E+03  0.37892262257E+03  0.50400001928E-02 0. -1.
        1   -1    0    0  501    0  0.00000000000E+00  0.00000000000E+00 -0.11590848445E+04  0.11590848445E+04  0.50400001928E-02 0.  1.
    10030    2    1    2    0    0  0.00000000000E+00  0.00000000000E+00 -0.78016222200E+03  0.15380074671E+04  0.13254485566E+04 0.  0.
        3    1    3    3  502    0 -0.59212103744E+03 -0.29089414237E+03 -0.31690676842E+03  0.73188567079E+03  0.10100000352E+00 0. -1.
       -3    1    3    3    0  502  0.59212103744E+03  0.29089414237E+03 -0.46325545358E+03  0.80612179633E+03  0.10100000352E+00 0.  1.
</event>
<event>
 5   0  0.2517023E-03  0.1213190E+04  0.7818609E-02  0.9101389E-01
       -2   -1    0    0    0  501  0.00000000000E+00  0.00000000000E+00  0.16583789271E+03  0.16583789273E+03  0.25500000920E-02 0.  1.
        2   -1    0    0  501    0  0.00000000000E+00  0.00000000000E+00 -0.22187768802E+04  0.22187768802E+04  0.25500000920E-02 0. -1.
    10030    2    1    2    0    0  0.00000000000E+00  0.00000000000E+00 -0.20529389874E+04  0.23846147729E+04  0.12131896508E+04 0.  0.
        3    1    3    3  502    0  0.51275276212E+03  0.17760878692E+03 -0.49359574365E+03  0.73355098296E+03  0.10100000352E+00 0.  1.
       -3    1    3    3    0  502 -0.51275276212E+03 -0.17760878692E+03 -0.15593432438E+04  0.16510637899E+04  0.10100000352E+00 0. -1.
</event>
<event>
 5   0  0.2517023E-03  0.1206432E+04  0.7818609E-02  0.9107245E-01
       -2   -1    0    0    0  501  0.00000000000E+00  0.00000000000E+00  0.34571951298E+03  0.34571951299E+03  0.25500000920E-02 0.  1.
        2   -1    0    0  501    0  0.00000000000E+00  0.00000000000E+00 -0.10524991528E+04  0.10524991528E+04  0.25500000920E-02 0. -1.
    10030    2    1    2    0    0  0.00000000000E+00  0.00000000000E+00 -0.70677963979E+03  0.13982186658E+04  0.12064319202E+04 0.  0.
        3    1    3    3  502    0 -0.16372888285E+03 -0.45074824023E+03  0.70686174365E+02  0.48474495211E+03  0.10100000352E+00 0.  1.
       -3    1    3    3    0  502  0.16372888285E+03  0.45074824023E+03 -0.77746581416E+03  0.91347371365E+03  0.10100000352E+00 0. -1.
</event>
<event>
 5   0  0.1423024E-03  0.1202708E+04  0.7818609E-02  0.9110489E-01
       -1   -1    0    0    0  501  0.00000000000E+00  0.00000000000E+00  0.40254116331E+03  0.40254116334E+03  0.50400001928E-02 0.  1.
        1   -1    0    0  501    0  0.00000000000E+00  0.00000000000E+00 -0.89835981290E+03  0.89835981292E+03  0.50400001928E-02 0. -1.
    10030    2    1    2    0    0  0.00000000000E+00  0.00000000000E+00 -0.49581864959E+03  0.13009009763E+04  0.12027082841E+04 0.  0.
        2    1    3    3  502    0  0.20765745743E+03  0.29549803000E+03 -0.76798290902E+03  0.84866863611E+03  0.25500000920E-02 0. -1.
       -2    1    3    3    0  502 -0.20765745743E+03 -0.29549803000E+03  0.27216425943E+03  0.45223234015E+03  0.25500000920E-02 0.  1.
</event>
<event>
 5   0  0.1404833E-03  0.1187866E+04  0.7818609E-02  0.9123544E-01
        1   -1    0    0  501    0  0.00000000000E+00  0.00000000000E+00  0.18558003615E+04  0.18558003615E+04  0.50400001928E-02 0. -1.
       -1   -1    0    0    0  501  0.00000000000E+00  0.00000000000E+00 -0.19008330978E+03  0.19008330985E+03  0.50400001928E-02 0.  1.
    10030    2    1    2    0    0  0.00000000000E+00  0.00000000000E+00  0.16657170517E+04  0.20458836713E+04  0.11878664488E+04 0.  0.
        1    1    3    3  502    0 -0.11529368538E+02 -0.79263119690E+02 -0.18073852986E+03  0.19769164040E+03  0.50400001928E-02 0.  1.
       -1    1    3    3    0  502  0.11529368538E+02  0.79263119690E+02  0.18464555816E+04  0.18481920309E+04  0.50400001928E-02 0. -1.
</event>
<event>
 5   0  0.2499890E-03  0.1198095E+04  0.7818609E-02  0.9114526E-01
        2   -1    0    0  501    0  0.00000000000E+00  0.00000000000E+00  0.10754842380E+04  0.10754842380E+04  0.25500000920E-02 0. -1.
       -2   -1    0    0    0  501  0.00000000000E+00  0.00000000000E+00 -0.33367083567E+03  0.33367083568E+03  0.25500000920E-02 0.  1.
    10030    2    1    2    0    0  0.00000000000E+00  0.00000000000E+00  0.74181340237E+03  0.14091550737E+04  0.11980946949E+04 0.  0.
        5    1    3    3  502    0 -0.40198103495E+03  0.27130431686E+03  0.78447632609E+03  0.92229061634E+03  0.46999998093E+01 0. -1.
       -5    1    3    3    0  502  0.40198103495E+03 -0.27130431686E+03 -0.42662923719E+02  0.48686445738E+03  0.46999998093E+01 0.  1.
</event>
<event>
 5   0  0.1455076E-03  0.1193531E+04  0.7818609E-02  0.9118538E-01
       -1   -1    0    0    0  501  0.00000000000E+00  0.00000000000E+00  0.98801020136E+03  0.98801020137E+03  0.50400001928E-02 0. -1.
        1   -1    0    0  501    0  0.00000000000E+00  0.00000000000E+00 -0.36045095528E+03  0.36045095531E+03  0.50400001928E-02 0.  1.
    10030    2    1    2    0    0  0.00000000000E+00  0.00000000000E+00  0.62755924608E+03  0.13484611567E+04  0.11935312663E+04 0.  0.
        4    1    3    3  502    0 -0.15280464823E+03 -0.39553129004E+03 -0.16065007265E+03  0.45343612633E+03  0.12699999809E+01 0.  1.
       -4    1    3    3    0  502  0.15280464823E+03  0.39553129004E+03  0.78820931873E+03  0.89502503035E+03  0.12699999809E+01 0. -1.
</event>
<event>
 5   0  0.1404833E-03  0.1212486E+04  0.7818609E-02  0.9101997E-01
       -1   -1    0    0    0  501  0.00000000000E+00  0.00000000000E+00  0.82556175167E+03  0.82556175169E+03  0.50400001928E-02 0. -1.
        1   -1    0    0  501    0  0.00000000000E+00  0.00000000000E+00 -0.44518826458E+03  0.44518826460E+03  0.50400001928E-02 0.  1.
    10030    2    1    2    0    0  0.00000000000E+00  0.00000000000E+00  0.38037348710E+03  0.12707500163E+04  0.12124857171E+04 0.  0.
        1    1    3    3  502    0 -0.56907020053E+03 -0.15506505684E+03  0.43293372479E+02  0.59140542871E+03  0.50400001928E-02 0.  1.
       -1    1    3    3    0  502  0.56907020053E+03  0.15506505684E+03  0.33708011462E+03  0.67934458758E+03  0.50400001928E-02 0. -1.
</event>
<event>
 5   0  0.2579442E-03  0.1187809E+04  0.7818609E-02  0.9123595E-01
        2   -1    0    0  501    0  0.00000000000E+00  0.00000000000E+00  0.90150314557E+03  0.90150314557E+03  0.25500000920E-02 0. -1.
       -2   -1    0    0    0  501  0.00000000000E+00  0.00000000000E+00 -0.39126039584E+03  0.39126039585E+03  0.25500000920E-02 0.  1.
    10030    2    1    2    0    0  0.00000000000E+00  0.00000000000E+00  0.51024274973E+03  0.12927635414E+04  0.11878088695E+04 0.  0.
        4    1    3    3  502    0  0.67278119798E+01  0.43197446760E+03 -0.18840853372E+03  0.47132429663E+03  0.12699999809E+01 0.  1.
       -4    1    3    3    0  502 -0.67278119798E+01 -0.43197446760E+03  0.69865128345E+03  0.82143924479E+03  0.12699999809E+01 0. -1.
</event>
<event>
 5   0  0.1404833E-03  0.1052012E+04  0.7818609E-02  0.9253269E-01
       -1   -1    0    0    0  501  0.00000000000E+00  0.00000000000E+00  0.32890006523E+03  0.32890006527E+03  0.50400001928E-02 0.  1.
        1   -1    0    0  501    0  0.00000000000E+00  0.00000000000E+00 -0.84123517172E+03  0.84123517173E+03  0.50400001928E-02 0. -1.
    10030    2    1    2    0    0  0.00000000000E+00  0.00000000000E+00 -0.51233510648E+03  0.11701352370E+04  0.10520119826E+04 0.  0.
        1    1    3    3  502    0 -0.20876233014E+03  0.51407844831E+02  0.27779536928E+03  0.35127588049E+03  0.50400001928E-02 0.  1.
       -1    1    3    3    0  502  0.20876233014E+03 -0.51407844831E+02 -0.79013047577E+03  0.81885935652E+03  0.50400001928E-02 0. -1.
</event>
<event>
 5   0  0.1404833E-03  0.1198949E+04  0.7818609E-02  0.9113777E-01
       -1   -1    0    0    0  501  0.00000000000E+00  0.00000000000E+00  0.61280234061E+03  0.61280234063E+03  0.50400001928E-02 0.  1.
        1   -1    0    0  501    0  0.00000000000E+00  0.00000000000E+00 -0.58643617596E+03  0.58643617598E+03  0.50400001928E-02 0. -1.
    10030    2    1    2    0    0  0.00000000000E+00  0.00000000000E+00  0.26366164651E+02  0.11992385166E+04  0.11989486416E+04 0.  0.
        1    1    3    3  502    0 -0.44891187574E+03 -0.17469769365E+03  0.37010027411E+03  0.60746635237E+03  0.50400001928E-02 0.  1.
       -1    1    3    3    0  502  0.44891187574E+03  0.17469769365E+03 -0.34373410946E+03  0.59177216424E+03  0.50400001928E-02 0. -1.
</event>
<event>
 5   0  0.1404833E-03  0.1221940E+04  0.7818609E-02  0.9093866E-01
        1   -1    0    0  501    0  0.00000000000E+00  0.00000000000E+00  0.53300277133E+03  0.53300277136E+03  0.50400001928E-02 0. -1.
       -1   -1    0    0    0  501  0.00000000000E+00  0.00000000000E+00 -0.70034212514E+03  0.70034212516E+03  0.50400001928E-02 0.  1.
    10030    2    1    2    0    0  0.00000000000E+00  0.00000000000E+00 -0.16733935381E+03  0.12333448965E+04  0.12219399226E+04 0.  0.
        1    1    3    3  502    0  0.41287990000E+03 -0.41136483376E+03 -0.26866554352E+03  0.64177255518E+03  0.50400001928E-02 0. -1.
       -1    1    3    3    0  502 -0.41287990000E+03  0.41136483376E+03  0.10132618971E+03  0.59157234133E+03  0.50400001928E-02 0.  1.
</event>
<event>
 5   0  0.1469851E-03  0.1209613E+04  0.7818609E-02  0.9104484E-01
        1   -1    0    0  501    0  0.00000000000E+00  0.00000000000E+00  0.74239387986E+03  0.74239387988E+03  0.50400001928E-02 0. -1.
       -1   -1    0    0    0  501  0.00000000000E+00  0.00000000000E+00 -0.49271783737E+03  0.49271783740E+03  0.50400001928E-02 0.  1.
    10030    2    1    2    0    0  0.00000000000E+00  0.00000000000E+00  0.24967604249E+03  0.12351117173E+04  0.12096126768E+04 0.  0.
        5    1    3    3  502    0  0.29769481235E+03  0.27183589024E+03 -0.33550012827E+03  0.52449916930E+03  0.46999998093E+01 0.  1.
       -5    1    3    3    0  502 -0.29769481235E+03 -0.27183589024E+03  0.58517617076E+03  0.71061254798E+03  0.46999998093E+01 0. -1.
</event>
<event>
 5   0  0.1469851E-03  0.1179026E+04  0.7818609E-02  0.9131416E-01
        1   -1    0    0  501    0  0.00000000000E+00  0.00000000000E+00  0.10602665399E+04  0.10602665399E+04  0.50400001928E-02 0.  1.
       -1   -1    0    0    0  501  0.00000000000E+00  0.00000000000E+00 -0.32777200832E+03  0.32777200836E+03  0.50400001928E-02 0. -1.
    10030    2    1    2    0    0  0.00000000000E+00  0.00000000000E+00  0.73249453155E+03  0.13880385482E+04  0.11790261968E+04 0.  0.
        5    1    3    3  502    0 -0.55532345901E+02  0.21530252239E+03 -0.27648967583E+03  0.35483467760E+03  0.46999998093E+01 0. -1.
       -5    1    3    3    0  502  0.55532345901E+02 -0.21530252239E+03  0.10089842074E+04  0.10332038706E+04  0.46999998093E+01 0.  1.
</event>
<event>
 5   0  0.1423024E-03  0.1146988E+04  0.7818609E-02  0.9160567E-01
       -1   -1    0    0    0  501  0.00000000000E+00  0.00000000000E+00  0.24877787743E+03  0.24877787748E+03  0.50400001928E-02 0. -1.
        1   -1    0    0  501    0  0.00000000000E+00  0.00000000000E+00 -0.13220432450E+04  0.13220432450E+04  0.50400001928E-02 0.  1.
    10030    2    1    2    0    0  0.00000000000E+00  0.00000000000E+00 -0.10732653675E+04  0.15708211225E+04  0.11469875543E+04 0.  0.
        2    1    3    3  502    0  0.45678625627E+03 -0.31391299336E+03 -0.33488966964E+03  0.64756941107E+03  0.25500000920E-02 0. -1.
       -2    1    3    3    0  502 -0.45678625627E+03  0.31391299336E+03 -0.73837569791E+03  0.92325171139E+03  0.25500000920E-02 0.  1.
</event>
<event>
 5   0  0.1423024E-03  0.1195607E+04  0.7818609E-02  0.9116710E-01
        1   -1    0    0  501    0  0.00000000000E+00  0.00000000000E+00  0.10774191845E+04  0.10774191846E+04  0.50400001928E-02 0.  1.
       -1   -1    0    0    0  501  0.00000000000E+00  0.00000000000E+00 -0.33168988907E+03  0.33168988911E+03  0.50400001928E-02 0. -1.
    10030    2    1    2    0    0  0.00000000000E+00  0.00000000000E+00  0.74572929548E+03  0.14091090737E+04  0.11956070422E+04 0.  0.
        2    1    3    3  502    0 -0.17047329608E+03 -0.49207509511E+03  0.26898019917E+02  0.52146193283E+03  0.25500000920E-02 0. -1.
       -2    1    3    3    0  502  0.17047329608E+03  0.49207509511E+03  0.71883127556E+03  0.88764714084E+03  0.25500000920E-02 0.  1.
</event>
<event>
 5   0  0.1423024E-03  0.1206524E+04  0.7818609E-02  0.9107165E-01
        1   -1    0    0  501    0  0.00000000000E+00  0.00000000000E+00  0.12429526047E+04  0.12429526047E+04  0.50400001928E-02 0.  1.
       -1   -1    0    0    0  501  0.00000000000E+00  0.00000000000E+00 -0.29279066180E+03  0.29279066184E+03  0.50400001928E-02 0. -1.
    10030    2    1    2    0    0  0.00000000000E+00  0.00000000000E+00  0.95016194289E+03  0.15357432665E+04  0.12065237930E+04 0.  0.
        2    1    3    3  502    0 -0.31541910911E+03 -0.51340596818E+03  0.43797057774E+03  0.74491149107E+03  0.25500000920E-02 0. -1.
       -2    1    3    3    0  502  0.31541910911E+03  0.51340596818E+03  0.51219136515E+03  0.79083177546E+03  0.25500000920E-02 0.  1.
</event>
<event>
 5   0  0.2499890E-03  0.1290417E+04  0.7818609E-02  0.9037199E-01
        2   -1    0    0  501    0  0.00000000000E+00  0.00000000000E+00  0.80533779682E+03  0.80533779683E+03  0.25500000920E-02 0. -1.
       -2   -1    0    0    0  501  0.00000000000E+00  0.00000000000E+00 -0.51691867850E+03  0.51691867851E+03  0.25500000920E-02 0.  1.
    10030    2    1    2    0    0  0.00000000000E+00  0.00000000000E+00  0.28841911832E+03  0.13222564753E+04  0.12904172189E+04 0.  0.
        5    1    3    3  502    0 -0.27470268044E+03 -0.19106271908E+03 -0.42104032044E+03  0.53783228491E+03  0.46999998093E+01 0.  1.
       -5    1    3    3    0  502  0.27470268044E+03  0.19106271908E+03  0.70945943876E+03  0.78442419042E+03  0.46999998093E+01 0. -1.
</event>
<event>
 5   0  0.1404833E-03  0.1204930E+04  0.7818609E-02  0.9108552E-01
        1   -1    0    0  501    0  0.00000000000E+00  0.00000000000E+00  0.54317586369E+03  0.54317586371E+03  0.50400001928E-02 0. -1.
       -1   -1    0    0    0  501  0.00000000000E+00  0.00000000000E+00 -0.66822601690E+03  0.66822601692E+03  0.50400001928E-02 0.  1.
    10030    2    1    2    0    0  0.00000000000E+00  0.00000000000E+00 -0.12505015321E+03  0.12114018806E+04  0.12049302783E+04 0.  0.
        1    1    3    3  502    0  0.46602188964E+03 -0.31424688363E+02 -0.44509524614E+03  0.64519275478E+03  0.50400001928E-02 0.  1.
       -1    1    3    3    0  502 -0.46602188964E+03  0.31424688363E+02  0.32004509292E+03  0.56620912585E+03  0.50400001928E-02 0. -1.
</event>
<event>
 5   0  0.9678750E-04  0.1185082E+04  0.7818609E-02  0.9126015E-01
        3   -1    0    0  501    0  0.00000000000E+00  0.00000000000E+00  0.20771240888E+04  0.20771240912E+04  0.10100000352E+00 0.  1.
       -3   -1    0    0    0  501  0.00000000000E+00  0.00000000000E+00 -0.16903423103E+03  0.16903426121E+03  0.10100000352E+00 0. -1.
    10030    2    1    2    0    0  0.00000000000E+00  0.00000000000E+00  0.19080898577E+04  0.22461583524E+04  0.11850824608E+04 0.  0.
        2    1    3    3  502    0 -0.42063968657E+03  0.26722140909E+03  0.15616257012E+04  0.16392131826E+04  0.25500000920E-02 0.  1.
       -2    1    3    3    0  502  0.42063968657E+03 -0.26722140909E+03  0.34646415651E+03  0.60694516980E+03  0.25500000920E-02 0. -1.
</event>
<event>
 5   0  0.2517023E-03  0.1197409E+04  0.7818609E-02  0.9115127E-01
        2   -1    0    0  501    0  0.00000000000E+00  0.00000000000E+00  0.15339314611E+04  0.15339314611E+04  0.25500000920E-02 0.  1.
       -2   -1    0    0    0  501  0.00000000000E+00  0.00000000000E+00 -0.23367877714E+03  0.23367877716E+03  0.25500000920E-02 0. -1.
    10030    2    1    2    0    0  0.00000000000E+00  0.00000000000E+00  0.13002526840E+04  0.17676102383E+04  0.11974092501E+04 0.  0.
        3    1    3    3  502    0  0.23936606853E+03 -0.20396325385E+03  0.14021898134E+04  0.14370224099E+04  0.10100000352E+00 0.  1.
       -3    1    3    3    0  502 -0.23936606853E+03  0.20396325385E+03 -0.10193712942E+03  0.33058782833E+03  0.10100000352E+00 0. -1.
</event>
<event>
 5   0  0.1455076E-03  0.1236333E+04  0.7818609E-02  0.9081636E-01
        1   -1    0    0  501    0  0.00000000000E+00  0.00000000000E+00  0.32484833412E+03  0.32484833416E+03  0.50400001928E-02 0. -1.
       -1   -1    0    0    0  501  0.00000000000E+00  0.00000000000E+00 -0.11763323859E+04  0.11763323859E+04  0.50400001928E-02 0.  1.
    10030    2    1    2    0    0  0.00000000000E+00  0.00000000000E+00 -0.85148405179E+03  0.15011807201E+04  0.12363326672E+04 0.  0.
        4    1    3    3  502    0 -0.48020846897E+03  0.43078181513E+01  0.46883571501E+02  0.48251260413E+03  0.12699999809E+01 0. -1.
       -4    1    3    3    0  502  0.48020846897E+03 -0.43078181513E+01 -0.89836762329E+03  0.10186681159E+04  0.12699999809E+01 0.  1.
</event>
<event>
 5   0  0.2579442E-03  0.1177429E+04  0.7818609E-02  0.9132846E-01
        2   -1    0    0  501    0  0.00000000000E+00  0.00000000000E+00  0.91567605677E+03  0.91567605678E+03  0.25500000920E-02 0. -1.
       -2   -1    0    0    0  501  0.00000000000E+00  0.00000000000E+00 -0.37850126451E+03  0.37850126452E+03  0.25500000920E-02 0.  1.
    10030    2    1    2    0    0  0.00000000000E+00  0.00000000000E+00  0.53717479226E+03  0.12941773213E+04  0.11774286312E+04 0.  0.
        4    1    3    3  502    0  0.71279653176E+02 -0.58021978572E+03  0.34511218572E+03  0.67885184122E+03  0.12699999809E+01 0.  1.
       -4    1    3    3    0  502 -0.71279653176E+02  0.58021978572E+03  0.19206260654E+03  0.61532548008E+03  0.12699999809E+01 0. -1.
</event>
<event>
 5   0  0.2580244E-03  0.1197937E+04  0.7818609E-02  0.9114664E-01
        2   -1    0    0  501    0  0.00000000000E+00  0.00000000000E+00  0.91951787340E+03  0.91951787341E+03  0.25500000920E-02 0. -1.
       -2   -1    0    0    0  501  0.00000000000E+00  0.00000000000E+00 -0.39016431311E+03  0.39016431312E+03  0.25500000920E-02 0.  1.
    10030    2    1    2    0    0  0.00000000000E+00  0.00000000000E+00  0.52935356029E+03  0.13096821865E+04  0.11979366586E+04 0.  0.
        1    1    3    3  502    0 -0.35136268278E+03 -0.64843858983E+02  0.79025151490E+03  0.86727038329E+03  0.50400001928E-02 0. -1.
       -1    1    3    3    0  502  0.35136268278E+03  0.64843858983E+02 -0.26089795461E+03  0.44241180323E+03  0.50400001928E-02 0.  1.
</event>
<event>
 5   0  0.1403154E-03  0.1214358E+04  0.7818609E-02  0.9100381E-01
       -1   -1    0    0    0  501  0.00000000000E+00  0.00000000000E+00  0.68372776201E+03  0.68372776202E+03  0.50400001928E-02 0. -1.
        1   -1    0    0  501    0  0.00000000000E+00  0.00000000000E+00 -0.53920067295E+03  0.53920067297E+03  0.50400001928E-02 0.  1.
    10030    2    1    2    0    0  0.00000000000E+00  0.00000000000E+00  0.14452708906E+03  0.12229284350E+04  0.12143582164E+04 0.  0.
        3    1    3    3  502    0  0.41330153988E+02 -0.17173688606E+03 -0.51275335995E+03  0.54232624684E+03  0.10100000352E+00 0.  1.
       -3    1    3    3    0  502 -0.41330153988E+02  0.17173688606E+03  0.65728044901E+03  0.68060218816E+03  0.10100000352E+00 0. -1.
</event>
<event>
 5   0  0.2517023E-03  0.1197341E+04  0.7818609E-02  0.9115187E-01
       -2   -1    0    0    0  501  0.00000000000E+00  0.00000000000E+00  0.18150165363E+03  0.18150165365E+03  0.25500000920E-02 0. -1.
        2   -1    0    0  501    0  0.00000000000E+00  0.00000000000E+00 -0.19746735844E+04  0.19746735844E+04  0.25500000920E-02 0.  1.
    10030    2    1    2    0    0  0.00000000000E+00  0.00000000000E+00 -0.17931719307E+04  0.21561752380E+04  0.11973412562E+04 0.  0.
        3    1    3    3  502    0  0.39898499542E+03  0.37611088350E+03 -0.13293712736E+04  0.14380112713E+04  0.10100000352E+00 0.  1.
       -3    1    3    3    0  502 -0.39898499542E+03 -0.37611088350E+03 -0.46380065715E+03  0.71816396667E+03  0.10100000352E+00 0. -1.
</event>
<event>
 5   0  0.1455076E-03  0.1196044E+04  0.7818609E-02  0.9116326E-01
        1   -1    0    0  501    0  0.00000000000E+00  0.00000000000E+00  0.17308016972E+04  0.17308016972E+04  0.50400001928E-02 0. -1.
       -1   -1    0    0    0  501  0.00000000000E+00  0.00000000000E+00 -0.20662697749E+03  0.20662697755E+03  0.50400001928E-02 0.  1.
    10030    2    1    2    0    0  0.00000000000E+00  0.00000000000E+00  0.15241747197E+04  0.19374286748E+04  0.11960440182E+04 0.  0.
        4    1    3    3  502    0 -0.30137326184E+03 -0.17996998912E+03 -0.22190630760E+02  0.35172301166E+03  0.12699999809E+01 0.  1.
       -4    1    3    3    0  502  0.30137326184E+03  0.17996998912E+03  0.15463653505E+04  0.15857056631E+04  0.12699999809E+01 0. -1.
</event>
<event>
 5   0  0.2484507E-03  0.1207781E+04  0.7818609E-02  0.9106073E-01
        2   -1    0    0  501    0  0.00000000000E+00  0.00000000000E+00  0.54246857701E+03  0.54246857701E+03  0.25500000920E-02 0.  1.
       -2   -1    0    0    0  501  0.00000000000E+00  0.00000000000E+00 -0.67226657909E+03  0.67226657910E+03  0.25500000920E-02 0. -1.
    10030    2    1    2    0    0  0.00000000000E+00  0.00000000000E+00 -0.12979800208E+03  0.12147351561E+04  0.12077806002E+04 0.  0.
        2    1    3    3  502    0  0.44611098177E+02  0.40514838227E+03  0.38325415046E+03  0.55948110387E+03  0.25500000920E-02 0.  1.
       -2    1    3    3    0  502 -0.44611098177E+02 -0.40514838227E+03 -0.51305215255E+03  0.65525405224E+03  0.25500000920E-02 0. -1.
</event>
<event>
 5   0  0.1455076E-03  0.1197489E+04  0.7818609E-02  0.9115058E-01
        1   -1    0    0  501    0  0.00000000000E+00  0.00000000000E+00  0.83119967856E+03  0.83119967857E+03  0.50400001928E-02 0. -1.
       -1   -1    0    0    0  501  0.00000000000E+00  0.00000000000E+00 -0.43129799041E+03  0.43129799044E+03  0.50400001928E-02 0.  1.
    10030    2    1    2    0    0  0.00000000000E+00  0.00000000000E+00  0.39990168815E+03  0.12624976690E+04  0.11974886238E+04 0.  0.
        4    1    3    3  502    0 -0.45731698690E+03 -0.11827045365E+03  0.58784625942E+03  0.75411641298E+03  0.12699999809E+01 0. -1.
       -4    1    3    3    0  502  0.45731698690E+03  0.11827045365E+03 -0.18794457127E+03  0.50838125603E+03  0.12699999809E+01 0.  1.
</event>
<event>
 5   0  0.1455076E-03  0.1200767E+04  0.7818609E-02  0.9112185E-01
       -1   -1    0    0    0  501  0.00000000000E+00  0.00000000000E+00  0.19478388020E+03  0.19478388027E+03  0.50400001928E-02 0. -1.
        1   -1    0    0  501    0  0.00000000000E+00  0.00000000000E+00 -0.18505655646E+04  0.18505655646E+04  0.50400001928E-02 0.  1.
    10030    2    1    2    0    0  0.00000000000E+00  0.00000000000E+00 -0.16557816844E+04  0.20453494448E+04  0.12007669904E+04 0.  0.
        4    1    3    3  502    0  0.52021471484E+02 -0.16820245558E+03 -0.18056016286E+04  0.18141656908E+04  0.12699999809E+01 0.  1.
       -4    1    3    3    0  502 -0.52021471484E+02  0.16820245558E+03  0.14981994422E+03  0.23118375406E+03  0.12699999809E+01 0. -1.
</event>
<event>
 5   0  0.1423024E-03  0.1194121E+04  0.7818609E-02  0.9118018E-01
       -1   -1    0    0    0  501  0.00000000000E+00  0.00000000000E+00  0.13191902978E+04  0.13191902978E+04  0.50400001928E-02 0.  1.
        1   -1    0    0  501    0  0.00000000000E+00  0.00000000000E+00 -0.27022745505E+03  0.27022745510E+03  0.50400001928E-02 0. -1.
    10030    2    1    2    0    0  0.00000000000E+00  0.00000000000E+00  0.10489628428E+04  0.15894177529E+04  0.11941213288E+04 0.  0.
        2    1    3    3  502    0  0.45993923469E+03  0.11934633053E+03  0.10056719621E+04  0.11122786259E+04  0.25500000920E-02 0.  1.
       -2    1    3    3    0  502 -0.45993923469E+03 -0.11934633053E+03  0.43290880668E+02  0.47713912706E+03  0.25500000920E-02 0. -1.
</event>
<event>
 5   0  0.2484507E-03  0.1206253E+04  0.7818609E-02  0.9107401E-01
       -2   -1    0    0    0  501  0.00000000000E+00  0.00000000000E+00  0.20970825578E+03  0.20970825579E+03  0.25500000920E-02 0. -1.
        2   -1    0    0  501    0  0.00000000000E+00  0.00000000000E+00 -0.17346081798E+04  0.17346081798E+04  0.25500000920E-02 0.  1.
    10030    2    1    2    0    0  0.00000000000E+00  0.00000000000E+00 -0.15248999241E+04  0.19443164356E+04  0.12062531341E+04 0.  0.
        2    1    3    3  502    0 -0.26852926129E+02  0.36563842196E+03 -0.15343783850E+04  0.15775707792E+04  0.25500000920E-02 0.  1.
       -2    1    3    3    0  502  0.26852926129E+02 -0.36563842196E+03  0.94784609064E+01  0.36674565639E+03  0.25500000920E-02 0. -1.
</event>
<event>
 5   0  0.2580244E-03  0.1198342E+04  0.7818609E-02  0.9114309E-01
        2   -1    0    0  501    0  0.00000000000E+00  0.00000000000E+00  0.26039805807E+04  0.26039805807E+04  0.25500000920E-02 0.  1.
       -2   -1    0    0    0  501  0.00000000000E+00  0.00000000000E+00 -0.13786800899E+03  0.13786800902E+03  0.25500000920E-02 0. -1.
    10030    2    1    2    0    0  0.00000000000E+00  0.00000000000E+00  0.24661125717E+04  0.27418485897E+04  0.11983415509E+04 0.  0.
        1    1    3    3  502    0 -0.27207716979E+03 -0.22516542411E+03  0.23405228155E+04  0.23670176393E+04  0.50400001928E-02 0.  1.
       -1    1    3    3    0  502  0.27207716979E+03  0.22516542411E+03  0.12558975617E+03  0.37483095045E+03  0.50400001928E-02 0. -1.
</event>
<event>
 5   0  0.9678750E-04  0.1200075E+04  0.7818609E-02  0.9112791E-01
        4   -1    0    0  501    0  0.00000000000E+00  0.00000000000E+00  0.79275724476E+03  0.79275826203E+03  0.12699999809E+01 0.  1.
       -4   -1    0    0    0  501  0.00000000000E+00  0.00000000000E+00 -0.45416573052E+03  0.45416750619E+03  0.12699999809E+01 0. -1.
    10030    2    1    2    0    0  0.00000000000E+00  0.00000000000E+00  0.33859151424E+03  0.12469257682E+04  0.12000748551E+04 0.  0.
        2    1    3    3  502    0  0.56695705640E+03  0.13260296816E+03  0.18649062938E+02  0.58255612479E+03  0.25500000920E-02 0. -1.
       -2    1    3    3    0  502 -0.56695705640E+03 -0.13260296816E+03  0.31994245130E+03  0.66436964344E+03  0.25500000920E-02 0.  1.
</event>
<event>
 5   0  0.2580244E-03  0.1187349E+04  0.7818609E-02  0.9124002E-01
        2   -1    0    0  501    0  0.00000000000E+00  0.00000000000E+00  0.20488369488E+04  0.20488369488E+04  0.25500000920E-02 0.  1.
       -2   -1    0    0    0  501  0.00000000000E+00  0.00000000000E+00 -0.17202424853E+03  0.17202424855E+03  0.25500000920E-02 0. -1.
    10030    2    1    2    0    0  0.00000000000E+00  0.00000000000E+00  0.18768127003E+04  0.22208611974E+04  0.11873493782E+04 0.  0.
        1    1    3    3  502    0 -0.43032645866E+03 -0.33749000123E+03  0.13705105989E+04  0.14755946814E+04  0.50400001928E-02 0.  1.
       -1    1    3    3    0  502  0.43032645866E+03  0.33749000123E+03  0.50630210137E+03  0.74526651598E+03  0.50400001928E-02 0. -1.
</event>
<event>
 5   0  0.1404833E-03  0.1210788E+04  0.7818609E-02  0.9103466E-01
       -1   -1    0    0    0  501  0.00000000000E+00  0.00000000000E+00  0.17831037076E+03  0.17831037083E+03  0.50400001928E-02 0. -1.
        1   -1    0    0  501    0  0.00000000000E+00  0.00000000000E+00 -0.20554157029E+04  0.20554157029E+04  0.50400001928E-02 0.  1.
    10030    2    1    2    0    0  0.00000000000E+00  0.00000000000E+00 -0.18771053321E+04  0.22337260737E+04  0.12107880675E+04 0.  0.
        1    1    3    3  502    0  0.59309916317E+03  0.11599638304E+03 -0.10045602059E+04  0.11723322846E+04  0.50400001928E-02 0. -1.
       -1    1    3    3    0  502 -0.59309916317E+03 -0.11599638304E+03 -0.87254512625E+03  0.10613937891E+04  0.50400001928E-02 0.  1.
</event>
<event>
 5   0  0.2499890E-03  0.1222619E+04  0.7818609E-02  0.9093285E-01
        2   -1    0    0  501    0  0.00000000000E+00  0.00000000000E+00  0.66279700058E+03  0.66279700059E+03  0.25500000920E-02 0. -1.
       -2   -1    0    0    0  501  0.00000000000E+00  0.00000000000E+00 -0.56382197946E+03  0.56382197946E+03  0.25500000920E-02 0.  1.
    10030    2    1    2    0    0  0.00000000000E+00  0.00000000000E+00  0.98975021125E+02  0.12266189800E+04  0.12226193469E+04 0.  0.
        5    1    3    3  502    0  0.51950293921E+03 -0.30372629693E+03  0.15728414950E+03  0.62200752486E+03  0.46999998093E+01 0. -1.
       -5    1    3    3    0  502 -0.51950293921E+03  0.30372629693E+03 -0.58309128379E+02  0.60461145519E+03  0.46999998093E+01 0.  1.
</event>
<event>
 5   0  0.9678750E-04  0.1120159E+04  0.7818609E-02  0.9185764E-01
       -3   -1    0    0    0  501  0.00000000000E+00  0.00000000000E+00  0.44134330064E+03  0.44134331219E+03  0.10100000352E+00 0. -1.
        3   -1    0    0  501    0  0.00000000000E+00  0.00000000000E+00 -0.71075929323E+03  0.71075930041E+03  0.10100000352E+00 0.  1.
    10030    2    1    2    0    0  0.00000000000E+00  0.00000000000E+00 -0.26941599260E+03  0.11521026126E+04  0.11201586731E+04 0.  0.
        4    1    3    3  502    0  0.53872546080E+03  0.62697179384E+02  0.90314571600E+01  0.54243823477E+03  0.12699999809E+01 0.  1.
       -4    1    3    3    0  502 -0.53872546080E+03 -0.62697179384E+02 -0.27844744976E+03  0.60966437783E+03  0.12699999809E+01 0. -1.
</event>
<event>
 5   0  0.2579442E-03  0.1138336E+04  0.7818609E-02  0.9168612E-01
       -2   -1    0    0    0  501  0.00000000000E+00  0.00000000000E+00  0.88754134975E+03  0.88754134976E+03  0.25500000920E-02 0.  1.
        2   -1    0    0  501    0  0.00000000000E+00  0.00000000000E+00 -0.36499939826E+03  0.36499939827E+03  0.25500000920E-02 0. -1.
    10030    2    1    2    0    0  0.00000000000E+00  0.00000000000E+00  0.52254195149E+03  0.12525407480E+04  0.11383357301E+04 0.  0.
        4    1    3    3  502    0 -0.40220560543E+03  0.35997392060E+02 -0.18007549388E+03  0.44214698650E+03  0.12699999809E+01 0. -1.
       -4    1    3    3    0  502  0.40220560543E+03 -0.35997392060E+02  0.70261744537E+03  0.81039376152E+03  0.12699999809E+01 0.  1.
</event>
<event>
 5   0  0.2579442E-03  0.1212689E+04  0.7818609E-02  0.9101822E-01
       -2   -1    0    0    0  501  0.00000000000E+00  0.00000000000E+00  0.35991616105E+03  0.35991616106E+03  0.25500000920E-02 0. -1.
        2   -1    0    0  501    0  0.00000000000E+00  0.00000000000E+00 -0.10214982445E+04  0.10214982445E+04  0.25500000920E-02 0.  1.
    10030    2    1    2    0    0  0.00000000000E+00  0.00000000000E+00 -0.66158208341E+03  0.13814144055E+04  0.12126891220E+04 0.  0.
        4    1    3    3  502    0 -0.31879348239E+03 -0.50065140761E+03 -0.47202057483E+03  0.75834434944E+03  0.12699999809E+01 0. -1.
       -4    1    3    3    0  502  0.31879348239E+03  0.50065140761E+03 -0.18956150858E+03  0.62307005609E+03  0.12699999809E+01 0.  1.
</event>
<event>
 5   0  0.1423024E-03  0.1212359E+04  0.7818609E-02  0.9102107E-01
        1   -1    0    0  501    0  0.00000000000E+00  0.00000000000E+00  0.10084667726E+04  0.10084667726E+04  0.50400001928E-02 0. -1.
       -1   -1    0    0    0  501  0.00000000000E+00  0.00000000000E+00 -0.36436880846E+03  0.36436880850E+03  0.50400001928E-02 0.  1.
    10030    2    1    2    0    0  0.00000000000E+00  0.00000000000E+00  0.64409796412E+03  0.13728355811E+04  0.12123594126E+04 0.  0.
        2    1    3    3  502    0  0.26978912084E+03  0.53575292438E+03  0.42100301091E+03  0.73284439065E+03  0.25500000920E-02 0.  1.
       -2    1    3    3    0  502 -0.26978912084E+03 -0.53575292438E+03  0.22309495321E+03  0.63999119045E+03  0.25500000920E-02 0. -1.
</event>
<event>
 5   0  0.1404833E-03  0.1187156E+04  0.7818609E-02  0.9124174E-01
        1   -1    0    0  501    0  0.00000000000E+00  0.00000000000E+00  0.58023995004E+03  0.58023995007E+03  0.50400001928E-02 0.  1.
       -1   -1    0    0    0  501  0.00000000000E+00  0.00000000000E+00 -0.60722268862E+03  0.60722268864E+03  0.50400001928E-02 0. -1.
    10030    2    1    2    0    0  0.00000000000E+00  0.00000000000E+00 -0.26982738577E+02  0.11874626387E+04  0.11871560345E+04 0.  0.
        1    1    3    3  502    0 -0.24981719438E+03  0.38719583146E+03 -0.38776125486E+03  0.60223586185E+03  0.50400001928E-02 0. -1.
       -1    1    3    3    0  502  0.24981719438E+03 -0.38719583146E+03  0.36077851628E+03  0.58522677685E+03  0.50400001928E-02 0.  1.
</event>
<event>
 5   0  0.1469851E-03  0.1212150E+04  0.7818609E-02  0.9102287E-01
        1   -1    0    0  501    0  0.00000000000E+00  0.00000000000E+00  0.18133319538E+04  0.18133319538E+04  0.50400001928E-02 0.  1.
       -1   -1    0    0    0  501  0.00000000000E+00  0.00000000000E+00 -0.20257022902E+03  0.20257022908E+03  0.50400001928E-02 0. -1.
    10030    2    1    2    0    0  0.00000000000E+00  0.00000000000E+00  0.16107617247E+04  0.20159021828E+04  0.12121502699E+04 0.  0.
        5    1    3    3  502    0  0.31034557086E+03  0.48365117604E+03  0.48516941414E+03  0.75209326805E+03  0.46999998093E+01 0. -1.
       -5    1    3    3    0  502 -0.31034557086E+03 -0.48365117604E+03  0.11255923106E+04  0.12638089148E+04  0.46999998093E+01 0.  1.
</event>
<event>
 5   0  0.2579442E-03  0.1214049E+04  0.7818609E-02  0.9100647E-01
        2   -1    0    0  501    0  0.00000000000E+00  0.00000000000E+00  0.95409170044E+03  0.95409170044E+03  0.25500000920E-02 0.  1.
       -2   -1    0    0    0  501  0.00000000000E+00  0.00000000000E+00 -0.38620924634E+03  0.38620924635E+03  0.25500000920E-02 0. -1.
    10030    2    1    2    0    0  0.00000000000E+00  0.00000000000E+00  0.56788245410E+03  0.13403009468E+04  0.12140494826E+04 0.  0.
        4    1    3    3  502    0  0.17433918083E+03 -0.53507992715E+03  0.32743021167E+02  0.56371836651E+03  0.12699999809E+01 0. -1.
       -4    1    3    3    0  502 -0.17433918083E+03  0.53507992715E+03  0.53513943294E+03  0.77658258028E+03  0.12699999809E+01 0.  1.
</event>
<event>
 5   0  0.2499890E-03  0.1201585E+04  0.7818609E-02  0.9111470E-01
       -2   -1    0    0    0  501  0.00000000000E+00  0.00000000000E+00  0.23206881818E+03  0.23206881820E+03  0.25500000920E-02 0. -1.
        2   -1    0    0  501    0  0.00000000000E+00  0.00000000000E+00 -0.15553645830E+04  0.15553645830E+04  0.25500000920E-02 0.  1.
    10030    2    1    2    0    0  0.00000000000E+00  0.00000000000E+00 -0.13232957648E+04  0.17874334012E+04  0.12015849877E+04 0.  0.
        5    1    3    3  502    0 -0.36740867803E+03  0.22244686406E+02  0.44663534605E+02  0.37081111646E+03  0.46999998093E+01 0. -1.
       -5    1    3    3    0  502  0.36740867803E+03 -0.22244686406E+02 -0.13679592994E+04  0.14166222848E+04  0.46999998093E+01 0.  1.
</event>
<event>
 5   0  0.2580244E-03  0.1193554E+04  0.7818609E-02  0.9118518E-01
        2   -1    0    0  501    0  0.00000000000E+00  0.00000000000E+00  0.15581923130E+04  0.15581923130E+04  0.25500000920E-02 0.  1.
       -2   -1    0    0    0  501  0.00000000000E+00  0.00000000000E+00 -0.22856133182E+03  0.22856133184E+03  0.25500000920E-02 0. -1.
    10030    2    1    2    0    0  0.00000000000E+00  0.00000000000E+00  0.13296309812E+04  0.17867536449E+04  0.11935535351E+04 0.  0.
        1    1    3    3  502    0 -0.47191583216E+03 -0.24378460461E+03  0.10720637569E+04  0.11964347809E+04  0.50400001928E-02 0.  1.
       -1    1    3    3    0  502  0.47191583216E+03  0.24378460461E+03  0.25756722432E+03  0.59031886397E+03  0.50400001928E-02 0. -1.
</event>
<event>
 5   0  0.2580244E-03  0.1189904E+04  0.7818609E-02  0.9121739E-01
       -2   -1    0    0    0  501  0.00000000000E+00  0.00000000000E+00  0.39785760693E+03  0.39785760694E+03  0.25500000920E-02 0.  1.
        2   -1    0    0  501    0  0.00000000000E+00  0.00000000000E+00 -0.88968540806E+03  0.88968540806E+03  0.25500000920E-02 0. -1.
    10030    2    1    2    0    0  0.00000000000E+00  0.00000000000E+00 -0.49182780113E+03  0.12875430150E+04  0.11899043783E+04 0.  0.
        1    1    3    3  502    0 -0.10912020051E+03  0.38539355033E+03  0.23010792220E+03  0.46193621062E+03  0.50400001928E-02 0.  1.
       -1    1    3    3    0  502  0.10912020051E+03 -0.38539355033E+03 -0.72193572332E+03  0.82560680438E+03  0.50400001928E-02 0. -1.
</event>
<event>
 5   0  0.1469851E-03  0.1197386E+04  0.7818609E-02  0.9115147E-01
       -1   -1    0    0    0  501  0.00000000000E+00  0.00000000000E+00  0.30968187935E+03  0.30968187940E+03  0.50400001928E-02 0.  1.
        1   -1    0    0  501    0  0.00000000000E+00  0.00000000000E+00 -0.11574251882E+04  0.11574251882E+04  0.50400001928E-02 0. -1.
    10030    2    1    2    0    0  0.00000000000E+00  0.00000000000E+00 -0.84774330880E+03  0.14671070676E+04  0.11973864999E+04 0.  0.
        5    1    3    3  502    0  0.47115168574E+02  0.49122743902E+03 -0.83917308642E+03  0.97352852805E+03  0.46999998093E+01 0. -1.
       -5    1    3    3    0  502 -0.47115168574E+02 -0.49122743902E+03 -0.85702223783E+01  0.49357853951E+03  0.46999998093E+01 0.  1.
</event>
<event>
 5   0  0.1469851E-03  0.1202276E+04  0.7818609E-02  0.9110867E-01
        1   -1    0    0  501    0  0.00000000000E+00  0.00000000000E+00  0.37009356478E+03  0.37009356482E+03  0.50400001928E-02 0. -1.
       -1   -1    0    0    0  501  0.00000000000E+00  0.00000000000E+00 -0.97641991843E+03  0.97641991844E+03  0.50400001928E-02 0.  1.
    10030    2    1    2    0    0  0.00000000000E+00  0.00000000000E+00 -0.60632635365E+03  0.13465134833E+04  0.12022757227E+04 0.  0.
        5    1    3    3  502    0  0.13892606558E+03  0.42455881823E+03  0.14732959840E+03  0.47040274489E+03  0.46999998093E+01 0. -1.
       -5    1    3    3    0  502 -0.13892606558E+03 -0.42455881823E+03 -0.75365595205E+03  0.87611073837E+03  0.46999998093E+01 0.  1.
</event>
<event>
 5   0  0.2579442E-03  0.1259230E+04  0.7818609E-02  0.9062536E-01
        2   -1    0    0  501    0  0.00000000000E+00  0.00000000000E+00  0.60495615833E+03  0.60495615833E+03  0.25500000920E-02 0. -1.
       -2   -1    0    0    0  501  0.00000000000E+00  0.00000000000E+00 -0.65527854329E+03  0.65527854330E+03  0.25500000920E-02 0.  1.
    10030    2    1    2    0    0  0.00000000000E+00  0.00000000000E+00 -0.50322384967E+02  0.12602347016E+04  0.12592295902E+04 0.  0.
        4    1    3    3  502    0 -0.28690417668E+03  0.19084861440E+03  0.50220910764E+03  0.60905894699E+03  0.12699999809E+01 0. -1.
       -4    1    3    3    0  502  0.28690417668E+03 -0.19084861440E+03 -0.55253149260E+03  0.65117575464E+03  0.12699999809E+01 0.  1.
</event>
<event>
 5   0  0.1455076E-03  0.9834866E+03  0.7818609E-02  0.9326844E-01
        1   -1    0    0  501    0  0.00000000000E+00  0.00000000000E+00  0.95238571833E+03  0.95238571834E+03  0.50400001928E-02 0. -1.
       -1   -1    0    0    0  501  0.00000000000E+00  0.00000000000E+00 -0.25390075460E+03  0.25390075465E+03  0.50400001928E-02 0.  1.
    10030    2    1    2    0    0  0.00000000000E+00  0.00000000000E+00  0.69848496373E+03  0.12062864730E+04  0.98348655832E+03 0.  0.
        4    1    3    3  502    0 -0.25005154085E+03 -0.34591424695E+03  0.49736868178E+02  0.42971828945E+03  0.12699999809E+01 0.  1.
       -4    1    3    3    0  502  0.25005154085E+03  0.34591424695E+03  0.64874809555E+03  0.77656818355E+03  0.12699999809E+01 0. -1.
</event>
<event>
 5   0  0.2579442E-03  0.1206787E+04  0.7818609E-02  0.9106936E-01
       -2   -1    0    0    0  501  0.00000000000E+00  0.00000000000E+00  0.51807767117E+03  0.51807767117E+03  0.25500000920E-02 0. -1.
        2   -1    0    0  501    0  0.00000000000E+00  0.00000000000E+00 -0.70275923732E+03  0.70275923732E+03  0.25500000920E-02 0.  1.
    10030    2    1    2    0    0  0.00000000000E+00  0.00000000000E+00 -0.18468156615E+03  0.12208369085E+04  0.12067872539E+04 0.  0.
        4    1    3    3  502    0  0.56136282430E+03 -0.21353421733E+03 -0.15095646763E+03  0.61928551614E+03  0.12699999809E+01 0. -1.
       -4    1    3    3    0  502 -0.56136282430E+03  0.21353421733E+03 -0.33725098527E+02  0.60155139236E+03  0.12699999809E+01 0.  1.
</event>
<event>
 5   0  0.1403154E-03  0.1202178E+04  0.7818609E-02  0.9110952E-01
       -1   -1    0    0    0  501  0.00000000000E+00  0.00000000000E+00  0.51696134109E+03  0.51696134112E+03  0.50400001928E-02 0. -1.
        1   -1    0    0  501    0  0.00000000000E+00  0.00000000000E+00 -0.69890741838E+03  0.69890741840E+03  0.50400001928E-02 0.  1.
    10030    2    1    2    0    0  0.00000000000E+00  0.00000000000E+00 -0.18194607729E+03  0.12158687595E+04  0.12021782170E+04 0.  0.
        3    1    3    3  502    0  0.42334757498E+03 -0.24321179099E+03  0.26363780981E+03  0.55486939858E+03  0.10100000352E+00 0. -1.
       -3    1    3    3    0  502 -0.42334757498E+03  0.24321179099E+03 -0.44558388710E+03  0.66099936094E+03  0.10100000352E+00 0.  1.
</event>
<event>
 5   0  0.1455076E-03  0.1187167E+04  0.7818609E-02  0.9124164E-01
       -1   -1    0    0    0  501  0.00000000000E+00  0.00000000000E+00  0.52924314583E+03  0.52924314586E+03  0.50400001928E-02 0. -1.
        1   -1    0    0  501    0  0.00000000000E+00  0.00000000000E+00 -0.66574628788E+03  0.66574628790E+03  0.50400001928E-02 0.  1.
    10030    2    1    2    0    0  0.00000000000E+00  0.00000000000E+00 -0.13650314205E+03  0.11949894338E+04  0.11871674857E+04 0.  0.
        4    1    3    3  502    0  0.22926942751E+03 -0.43618537022E+03 -0.40136690454E+03  0.63554634178E+03  0.12699999809E+01 0.  1.
       -4    1    3    3    0  502 -0.22926942751E+03  0.43618537022E+03  0.26486376249E+03  0.55944309198E+03  0.12699999809E+01 0. -1.
</event>
<event>
 5   0  0.1423024E-03  0.1195546E+04  0.7818609E-02  0.9116764E-01
       -1   -1    0    0    0  501  0.00000000000E+00  0.00000000000E+00  0.85477321697E+03  0.85477321698E+03  0.50400001928E-02 0.  1.
        1   -1    0    0  501    0  0.00000000000E+00  0.00000000000E+00 -0.41804369344E+03  0.41804369347E+03  0.50400001928E-02 0. -1.
    10030    2    1    2    0    0  0.00000000000E+00  0.00000000000E+00  0.43672952353E+03  0.12728169105E+04  0.11955459886E+04 0.  0.
        2    1    3    3  502    0  0.26013506402E+03 -0.16421422244E+03  0.76403010580E+03  0.82363739896E+03  0.25500000920E-02 0.  1.
       -2    1    3    3    0  502 -0.26013506402E+03  0.16421422244E+03 -0.32730058228E+03  0.44917951150E+03  0.25500000920E-02 0. -1.
</event>
<event>
 5   0  0.2580244E-03  0.1212540E+04  0.7818609E-02  0.9101950E-01
       -2   -1    0    0    0  501  0.00000000000E+00  0.00000000000E+00  0.28741684861E+03  0.28741684862E+03  0.25500000920E-02 0. -1.
        2   -1    0    0  501    0  0.00000000000E+00  0.00000000000E+00 -0.12788517377E+04  0.12788517377E+04  0.25500000920E-02 0.  1.
    10030    2    1    2    0    0  0.00000000000E+00  0.00000000000E+00 -0.99143488906E+03  0.15662685863E+04  0.12125403685E+04 0.  0.
        1    1    3    3  502    0 -0.36521249154E+03 -0.45543783818E+03 -0.28441182853E+03  0.64937960906E+03  0.50400001928E-02 0. -1.
       -1    1    3    3    0  502  0.36521249154E+03  0.45543783818E+03 -0.70702306053E+03  0.91688897723E+03  0.50400001928E-02 0.  1.
</event>
<event>
 5   0  0.1404833E-03  0.1193838E+04  0.7818609E-02  0.9118268E-01
       -1   -1    0    0    0  501  0.00000000000E+00  0.00000000000E+00  0.35339665819E+03  0.35339665823E+03  0.50400001928E-02 0.  1.
        1   -1    0    0  501    0  0.00000000000E+00  0.00000000000E+00 -0.10082494951E+04  0.10082494951E+04  0.50400001928E-02 0. -1.
    10030    2    1    2    0    0  0.00000000000E+00  0.00000000000E+00 -0.65485283690E+03  0.13616461533E+04  0.11938375136E+04 0.  0.
        1    1    3    3  502    0 -0.55032662602E+03 -0.17875778214E+03 -0.16019390393E+03  0.60039639145E+03  0.50400001928E-02 0.  1.
       -1    1    3    3    0  502  0.55032662602E+03  0.17875778214E+03 -0.49465893297E+03  0.76124976189E+03  0.50400001928E-02 0. -1.
</event>
<event>
 5   0  0.2580244E-03  0.1195130E+04  0.7818609E-02  0.9117130E-01
        2   -1    0    0  501    0  0.00000000000E+00  0.00000000000E+00  0.21517301401E+04  0.21517301401E+04  0.25500000920E-02 0.  1.
       -2   -1    0    0    0  501  0.00000000000E+00  0.00000000000E+00 -0.16595188015E+03  0.16595188017E+03  0.25500000920E-02 0. -1.
    10030    2    1    2    0    0  0.00000000000E+00  0.00000000000E+00  0.19857782599E+04  0.23176820202E+04  0.11951295534E+04 0.  0.
        1    1    3    3  502    0  0.19720389056E+03  0.53038669001E+03  0.13653317098E+04  0.14779479331E+04  0.50400001928E-02 0.  1.
       -1    1    3    3    0  502 -0.19720389056E+03 -0.53038669001E+03  0.62044655016E+03  0.83973408709E+03  0.50400001928E-02 0. -1.
</event>
<event>
 5   0  0.2484507E-03  0.1203818E+04  0.7818609E-02  0.9109521E-01
       -2   -1    0    0    0  501  0.00000000000E+00  0.00000000000E+00  0.82246153501E+03  0.82246153501E+03  0.25500000920E-02 0.  1.
        2   -1    0    0  501    0  0.00000000000E+00  0.00000000000E+00 -0.44049999713E+03  0.44049999714E+03  0.25500000920E-02 0. -1.
    10030    2    1    2    0    0  0.00000000000E+00  0.00000000000E+00  0.38196153787E+03  0.12629615322E+04  0.12038177666E+04 0.  0.
        2    1    3    3  502    0 -0.43831084285E+03  0.23470159403E+03 -0.16494051769E+03  0.52383834108E+03  0.25500000920E-02 0. -1.
       -2    1    3    3    0  502  0.43831084285E+03 -0.23470159403E+03  0.54690205556E+03  0.73912319108E+03  0.25500000920E-02 0.  1.
</event>
<event>
 5   0  0.2579442E-03  0.1143767E+04  0.7818609E-02  0.9163553E-01
       -2   -1    0    0    0  501  0.00000000000E+00  0.00000000000E+00  0.12194076960E+03  0.12194076962E+03  0.25500000920E-02 0. -1.
        2   -1    0    0  501    0  0.00000000000E+00  0.00000000000E+00 -0.26820464508E+04  0.26820464508E+04  0.25500000920E-02 0.  1.
    10030    2    1    2    0    0  0.00000000000E+00  0.00000000000E+00 -0.25601056812E+04  0.28039872204E+04  0.11437671238E+04 0.  0.
        4    1    3    3  502    0 -0.52207477883E+03 -0.22854011448E+03 -0.11635974400E+04  0.12956671154E+04  0.12699999809E+01 0.  1.
       -4    1    3    3    0  502  0.52207477883E+03  0.22854011448E+03 -0.13965082412E+04  0.15083201050E+04  0.12699999809E+01 0. -1.
</event>
<event>
 5   0  0.1423024E-03  0.1199468E+04  0.7818609E-02  0.9113322E-01
        1   -1    0    0  501    0  0.00000000000E+00  0.00000000000E+00  0.11080590428E+04  0.11080590428E+04  0.50400001928E-02 0. -1.
       -1   -1    0    0    0  501  0.00000000000E+00  0.00000000000E+00 -0.32460455217E+03  0.32460455221E+03  0.50400001928E-02 0.  1.
    10030    2    1    2    0    0  0.00000000000E+00  0.00000000000E+00  0.78345449064E+03  0.14326635950E+04  0.11994682312E+04 0.  0.
        2    1    3    3  502    0  0.46941482139E+03 -0.35407932289E+03  0.25061135893E+03  0.63916233828E+03  0.25500000920E-02 0. -1.
       -2    1    3    3    0  502 -0.46941482139E+03  0.35407932289E+03  0.53284313172E+03  0.79350125675E+03  0.25500000920E-02 0.  1.
</event>
<event>
 5   0  0.1404833E-03  0.1204726E+04  0.7818609E-02  0.9108730E-01
        1   -1    0    0  501    0  0.00000000000E+00  0.00000000000E+00  0.27140743025E+03  0.27140743030E+03  0.50400001928E-02 0. -1.
       -1   -1    0    0    0  501  0.00000000000E+00  0.00000000000E+00 -0.13368869584E+04  0.13368869584E+04  0.50400001928E-02 0.  1.
    10030    2    1    2    0    0  0.00000000000E+00  0.00000000000E+00 -0.10654795281E+04  0.16082943887E+04  0.12047257845E+04 0.  0.
        1    1    3    3  502    0  0.52269495239E+02  0.33396634801E+03  0.13284970623E+03  0.36320058673E+03  0.50400001928E-02 0. -1.
       -1    1    3    3    0  502 -0.52269495239E+02 -0.33396634801E+03 -0.11983292343E+04  0.12450938019E+04  0.50400001928E-02 0.  1.
</event>
<event>
 5   0  0.2579442E-03  0.1187013E+04  0.7818609E-02  0.9124301E-01
       -2   -1    0    0    0  501  0.00000000000E+00  0.00000000000E+00  0.35188487958E+03  0.35188487959E+03  0.25500000920E-02 0. -1.
        2   -1    0    0  501    0  0.00000000000E+00  0.00000000000E+00 -0.10010371015E+04  0.10010371015E+04  0.25500000920E-02 0.  1.
    10030    2    1    2    0    0  0.00000000000E+00  0.00000000000E+00 -0.64915222189E+03  0.13529219811E+04  0.11870127546E+04 0.  0.
        4    1    3    3  502    0 -0.46528852904E+03  0.28555907016E+03 -0.59200924454E+02  0.54913000297E+03  0.12699999809E+01 0. -1.
       -4    1    3    3    0  502  0.46528852904E+03 -0.28555907016E+03 -0.58995129743E+03  0.80379197810E+03  0.12699999809E+01 0.  1.
</event>
<event>
 5   0  0.2499890E-03  0.1185605E+04  0.7818609E-02  0.9125550E-01
        2   -1    0    0  501    0  0.00000000000E+00  0.00000000000E+00  0.12468623162E+04  0.12468623162E+04  0.25500000920E-02 0.  1.
       -2   -1    0    0    0  501  0.00000000000E+00  0.00000000000E+00 -0.28183951971E+03  0.28183951972E+03  0.25500000920E-02 0. -1.
    10030    2    1    2    0    0  0.00000000000E+00  0.00000000000E+00  0.96502279650E+03  0.15287018359E+04  0.11856054594E+04 0.  0.
        5    1    3    3  502    0 -0.22438349738E+02 -0.53839150621E+03  0.80102887220E+03  0.96542127467E+03  0.46999998093E+01 0.  1.
       -5    1    3    3    0  502  0.22438349738E+02  0.53839150621E+03  0.16399392430E+03  0.56328056127E+03  0.46999998093E+01 0. -1.
</event>
<event>
 5   0  0.1423024E-03  0.1201021E+04  0.7818609E-02  0.9111963E-01
        1   -1    0    0  501    0  0.00000000000E+00  0.00000000000E+00  0.23408920917E+03  0.23408920922E+03  0.50400001928E-02 0. -1.
       -1   -1    0    0    0  501  0.00000000000E+00  0.00000000000E+00 -0.15404932565E+04  0.15404932565E+04  0.50400001928E-02 0.  1.
    10030    2    1    2    0    0  0.00000000000E+00  0.00000000000E+00 -0.13064040473E+04  0.17745824657E+04  0.12010209793E+04 0.  0.
        2    1    3    3  502    0  0.90923131588E+01  0.57050015738E+03 -0.37653971910E+03  0.68361923598E+03  0.25500000920E-02 0. -1.
       -2    1    3    3    0  502 -0.90923131588E+01 -0.57050015738E+03 -0.92986432819E+03  0.10909632297E+04  0.25500000920E-02 0.  1.
</event>
<event>
 5   0  0.9678750E-04  0.1195537E+04  0.7818609E-02  0.9116772E-01
       -3   -1    0    0    0  501  0.00000000000E+00  0.00000000000E+00  0.10666902591E+04  0.10666902639E+04  0.10100000352E+00 0.  1.
        3   -1    0    0  501    0  0.00000000000E+00  0.00000000000E+00 -0.33498678315E+03  0.33498679838E+03  0.10100000352E+00 0. -1.
    10030    2    1    2    0    0  0.00000000000E+00  0.00000000000E+00  0.73170347594E+03  0.14016770623E+04  0.11955369547E+04 0.  0.
        3    1    3    3  502    0  0.16405542388E+03 -0.55215448172E+03  0.17848965475E+03  0.60303177432E+03  0.10100000352E+00 0. -1.
       -3    1    3    3    0  502 -0.16405542388E+03  0.55215448172E+03  0.55321382118E+03  0.79864528793E+03  0.10100000352E+00 0.  1.
</event>
<event>
 5   0  0.1403154E-03  0.1192514E+04  0.7818609E-02  0.9119434E-01
       -1   -1    0    0    0  501  0.00000000000E+00  0.00000000000E+00  0.37349376744E+03  0.37349376748E+03  0.50400001928E-02 0.  1.
        1   -1    0    0  501    0  0.00000000000E+00  0.00000000000E+00 -0.95188368486E+03  0.95188368487E+03  0.50400001928E-02 0. -1.
    10030    2    1    2    0    0  0.00000000000E+00  0.00000000000E+00 -0.57838991742E+03  0.13253774524E+04  0.11925143582E+04 0.  0.
        3    1    3    3  502    0 -0.12698988376E+03 -0.58207667897E+03 -0.31602871297E+03  0.67439887930E+03  0.10100000352E+00 0.  1.
       -3    1    3    3    0  502  0.12698988376E+03  0.58207667897E+03 -0.26236120445E+03  0.65097857305E+03  0.10100000352E+00 0. -1.
</event>
<event>
 5   0  0.2484507E-03  0.1193496E+04  0.7818609E-02  0.9118569E-01
        2   -1    0    0  501    0  0.00000000000E+00  0.00000000000E+00  0.10610075996E+04  0.10610075996E+04  0.25500000920E-02 0. -1.
       -2   -1    0    0    0  501  0.00000000000E+00  0.00000000000E+00 -0.33563194059E+03  0.33563194060E+03  0.25500000920E-02 0.  1.
    10030    2    1    2    0    0  0.00000000000E+00  0.00000000000E+00  0.72537565903E+03  0.13966395402E+04  0.11934957723E+04 0.  0.
        2    1    3    3  502    0 -0.23359935468E+03  0.41440146797E+03 -0.58929903615E+02  0.47934326814E+03  0.25500000920E-02 0.  1.
       -2    1    3    3    0  502  0.23359935468E+03 -0.41440146797E+03  0.78430556264E+03  0.91729627207E+03  0.25500000920E-02 0. -1.
</event>
<event>
 5   0  0.2579442E-03  0.1159651E+04  0.7818609E-02  0.9148926E-01
        2   -1    0    0  501    0  0.00000000000E+00  0.00000000000E+00  0.65425723339E+03  0.65425723340E+03  0.25500000920E-02 0. -1.
       -2   -1    0    0    0  501  0.00000000000E+00  0.00000000000E+00 -0.51386149337E+03  0.51386149338E+03  0.25500000920E-02 0.  1.
    10030    2    1    2    0    0  0.00000000000E+00  0.00000000000E+00  0.14039574002E+03  0.11681187268E+04  0.11596509803E+04 0.  0.
        4    1    3    3  502    0  0.49232821415E+03 -0.15900403063E+03  0.33388527525E+03  0.61575185110E+03  0.12699999809E+01 0. -1.
       -4    1    3    3    0  502 -0.49232821415E+03  0.15900403063E+03 -0.19348953523E+03  0.55236687568E+03  0.12699999809E+01 0.  1.
</event>
<event>
 5   0  0.1404833E-03  0.1169903E+04  0.7818609E-02  0.9139616E-01
       -1   -1    0    0    0  501  0.00000000000E+00  0.00000000000E+00  0.46507194758E+03  0.46507194760E+03  0.50400001928E-02 0. -1.
        1   -1    0    0  501    0  0.00000000000E+00  0.00000000000E+00 -0.73573194721E+03  0.73573194722E+03  0.50400001928E-02 0.  1.
    10030    2    1    2    0    0  0.00000000000E+00  0.00000000000E+00 -0.27065999963E+03  0.12008038948E+04  0.11699030551E+04 0.  0.
        1    1    3    3  502    0  0.25511512297E+03 -0.51789428429E+03 -0.23199868958E+03  0.62219097362E+03  0.50400001928E-02 0.  1.
       -1    1    3    3    0  502 -0.25511512297E+03  0.51789428429E+03 -0.38661310051E+02  0.57861292121E+03  0.50400001928E-02 0. -1.
</event>
<event>
 5   0  0.1404833E-03  0.1178314E+04  0.7818609E-02  0.9132053E-01
        1   -1    0    0  501    0  0.00000000000E+00  0.00000000000E+00  0.81712565049E+03  0.81712565051E+03  0.50400001928E-02 0. -1.
       -1   -1    0    0    0  501  0.00000000000E+00  0.00000000000E+00 -0.42478928087E+03  0.42478928090E+03  0.50400001928E-02 0.  1.
    10030    2    1    2    0    0  0.00000000000E+00  0.00000000000E+00  0.39233636962E+03  0.12419149314E+04  0.11783144190E+04 0.  0.
        1    1    3    3  502    0  0.70174691292E+02  0.22836328917E+03 -0.37144642989E+03  0.44164095082E+03  0.50400001928E-02 0.  1.
       -1    1    3    3    0  502 -0.70174691292E+02 -0.22836328917E+03  0.76378279951E+03  0.80027398058E+03  0.50400001928E-02 0. -1.
</event>
<event>
 5   0  0.2517023E-03  0.1155647E+04  0.7818609E-02  0.9152590E-01
        2   -1    0    0  501    0  0.00000000000E+00  0.00000000000E+00  0.11129465081E+04  0.11129465081E+04  0.25500000920E-02 0.  1.
       -2   -1    0    0    0  501  0.00000000000E+00  0.00000000000E+00 -0.29999645807E+03  0.29999645809E+03  0.25500000920E-02 0. -1.
    10030    2    1    2    0    0  0.00000000000E+00  0.00000000000E+00  0.81295005001E+03  0.14129429662E+04  0.11556470230E+04 0.  0.
        3    1    3    3  502    0 -0.24175677345E+03  0.17164008172E+03  0.10128530450E+04  0.10553567909E+04  0.10100000352E+00 0.  1.
       -3    1    3    3    0  502  0.24175677345E+03 -0.17164008172E+03 -0.19990299496E+03  0.35758617529E+03  0.10100000352E+00 0. -1.
</event>
<event>
 5   0  0.1455076E-03  0.1187432E+04  0.7818609E-02  0.9123929E-01
        1   -1    0    0  501    0  0.00000000000E+00  0.00000000000E+00  0.69065006418E+03  0.69065006420E+03  0.50400001928E-02 0. -1.
       -1   -1    0    0    0  501  0.00000000000E+00  0.00000000000E+00 -0.51038650991E+03  0.51038650993E+03  0.50400001928E-02 0.  1.
    10030    2    1    2    0    0  0.00000000000E+00  0.00000000000E+00  0.18026355428E+03  0.12010365741E+04  0.11874316416E+04 0.  0.
        4    1    3    3  502    0  0.30056268936E+03 -0.86436703511E+02  0.60057981715E+03  0.67713142271E+03  0.12699999809E+01 0. -1.
       -4    1    3    3    0  502 -0.30056268936E+03  0.86436703511E+02 -0.42031626287E+03  0.52390515142E+03  0.12699999809E+01 0.  1.
</event>
<event>
 5   0  0.1404833E-03  0.1180786E+04  0.7818609E-02  0.9129843E-01
        1   -1    0    0  501    0  0.00000000000E+00  0.00000000000E+00  0.10846268566E+04  0.10846268566E+04  0.50400001928E-02 0.  1.
       -1   -1    0    0    0  501  0.00000000000E+00  0.00000000000E+00 -0.32136768748E+03  0.32136768752E+03  0.50400001928E-02 0. -1.
    10030    2    1    2    0    0  0.00000000000E+00  0.00000000000E+00  0.76325916908E+03  0.14059945441E+04  0.11807862206E+04 0.  0.
        1    1    3    3  502    0 -0.27468096654E+03  0.37017755454E+03  0.82088209028E+03  0.94145019063E+03  0.50400001928E-02 0.  1.
       -1    1    3    3    0  502  0.27468096654E+03 -0.37017755454E+03 -0.57622921200E+02  0.46454435347E+03  0.50400001928E-02 0. -1.
</event>
<event>
 5   0  0.9678750E-04  0.1197697E+04  0.7818609E-02  0.9114875E-01
       -3   -1    0    0    0  501  0.00000000000E+00  0.00000000000E+00  0.10275870499E+04  0.10275870548E+04  0.10100000352E+00 0. -1.
        3   -1    0    0  501    0  0.00000000000E+00  0.00000000000E+00 -0.34899175330E+03  0.34899176791E+03  0.10100000352E+00 0.  1.
    10030    2    1    2    0    0  0.00000000000E+00  0.00000000000E+00  0.67859529658E+03  0.13765788228E+04  0.11976968225E+04 0.  0.
        5    1    3    3  502    0 -0.45977949286E+03  0.35041620744E+03  0.15973091516E+03  0.59977058593E+03  0.46999998093E+01 0. -1.
       -5    1    3    3    0  502  0.45977949286E+03 -0.35041620744E+03  0.51886438142E+03  0.77680823682E+03  0.46999998093E+01 0.  1.
</event>
<event>
 5   0  0.1404833E-03  0.1200813E+04  0.7818609E-02  0.9112145E-01
       -1   -1    0    0    0  501  0.00000000000E+00  0.00000000000E+00  0.64093177983E+03  0.64093177985E+03  0.50400001928E-02 0. -1.
        1   -1    0    0  501    0  0.00000000000E+00  0.00000000000E+00 -0.56244380570E+03  0.56244380573E+03  0.50400001928E-02 0.  1.
    10030    2    1    2    0    0  0.00000000000E+00  0.00000000000E+00  0.78487974130E+02  0.12033755856E+04  0.12008132402E+04 0.  0.
        1    1    3    3  502    0 -0.43858044110E+03 -0.32008511260E+03 -0.21758558845E+03  0.58493655293E+03  0.50400001928E-02 0.  1.
       -1    1    3    3    0  502  0.43858044110E+03  0.32008511260E+03  0.29607356258E+03  0.61843903265E+03  0.50400001928E-02 0. -1.
</event>
<event>
 5   0  0.1403154E-03  0.1161019E+04  0.7818609E-02  0.9147678E-01
       -1   -1    0    0    0  501  0.00000000000E+00  0.00000000000E+00  0.19508772422E+03  0.19508772428E+03  0.50400001928E-02 0.  1.
        1   -1    0    0  501    0  0.00000000000E+00  0.00000000000E+00 -0.17273825779E+04  0.17273825779E+04  0.50400001928E-02 0. -1.
    10030    2    1    2    0    0  0.00000000000E+00  0.00000000000E+00 -0.15322948536E+04  0.19224703021E+04  0.11610187527E+04 0.  0.
        3    1    3    3  502    0  0.74997869563E+02 -0.33897940868E+03 -0.15365338780E+04  0.15752676243E+04  0.10100000352E+00 0. -1.
       -3    1    3    3    0  502 -0.74997869563E+02  0.33897940868E+03  0.42390243252E+01  0.34720267781E+03  0.10100000352E+00 0.  1.
</event>
<event>
 5   0  0.2499890E-03  0.1153635E+04  0.7818609E-02  0.9154437E-01
        2   -1    0    0  501    0  0.00000000000E+00  0.00000000000E+00  0.15087207128E+04  0.15087207128E+04  0.25500000920E-02 0.  1.
       -2   -1    0    0    0  501  0.00000000000E+00  0.00000000000E+00 -0.22053008625E+03  0.22053008626E+03  0.25500000920E-02 0. -1.
    10030    2    1    2    0    0  0.00000000000E+00  0.00000000000E+00  0.12881906265E+04  0.17292507990E+04  0.11536347930E+04 0.  0.
        5    1    3    3  502    0 -0.70146249735E+02 -0.62532157882E+02  0.14971403304E+04  0.15000940058E+04  0.46999998093E+01 0.  1.
       -5    1    3    3    0  502  0.70146249735E+02  0.62532157882E+02 -0.20894970393E+03  0.22915679325E+03  0.46999998093E+01 0. -1.
</event>
<event>
 5   0  0.1455076E-03  0.1194851E+04  0.7818609E-02  0.9117376E-01
       -1   -1    0    0    0  501  0.00000000000E+00  0.00000000000E+00  0.22890094815E+03  0.22890094820E+03  0.50400001928E-02 0. -1.
        1   -1    0    0  501    0  0.00000000000E+00  0.00000000000E+00 -0.15592641635E+04  0.15592641635E+04  0.50400001928E-02 0.  1.
    10030    2    1    2    0    0  0.00000000000E+00  0.00000000000E+00 -0.13303632154E+04  0.17881651118E+04  0.11948506944E+04 0.  0.
        4    1    3    3  502    0  0.27312405219E+02  0.76468165800E+02  0.22060219640E+03  0.23507507272E+03  0.12699999809E+01 0. -1.
       -4    1    3    3    0  502 -0.27312405219E+02 -0.76468165800E+02 -0.15509654118E+04  0.15530900390E+04  0.12699999809E+01 0.  1.
</event>
<event>
 5   0  0.1404833E-03  0.1200278E+04  0.7818609E-02  0.9112613E-01
       -1   -1    0    0    0  501  0.00000000000E+00  0.00000000000E+00  0.52161475134E+03  0.52161475137E+03  0.50400001928E-02 0. -1.
        1   -1    0    0  501    0  0.00000000000E+00  0.00000000000E+00 -0.69048449246E+03  0.69048449248E+03  0.50400001928E-02 0.  1.
    10030    2    1    2    0    0  0.00000000000E+00  0.00000000000E+00 -0.16886974112E+03  0.12120992439E+04  0.12002781292E+04 0.  0.
        1    1    3    3  502    0 -0.43799026695E+03  0.27967847612E+03  0.21870711495E+03  0.56381586188E+03  0.50400001928E-02 0. -1.
       -1    1    3    3    0  502  0.43799026695E+03 -0.27967847612E+03 -0.38757685607E+03  0.64828338197E+03  0.50400001928E-02 0.  1.
</event>
<event>
 5   0  0.1404833E-03  0.1213368E+04  0.7818609E-02  0.9101236E-01
       -1   -1    0    0    0  501  0.00000000000E+00  0.00000000000E+00  0.92549014906E+03  0.92549014908E+03  0.50400001928E-02 0. -1.
        1   -1    0    0  501    0  0.00000000000E+00  0.00000000000E+00 -0.39769759154E+03  0.39769759157E+03  0.50400001928E-02 0.  1.
    10030    2    1    2    0    0  0.00000000000E+00  0.00000000000E+00  0.52779255752E+03  0.13231877406E+04  0.12133675508E+04 0.  0.
        1    1    3    3  502    0  0.29298554510E+03 -0.47179763189E+03  0.53019407445E+03  0.76781462066E+03  0.50400001928E-02 0. -1.
       -1    1    3    3    0  502 -0.29298554510E+03  0.47179763189E+03 -0.24015169269E+01  0.55537311999E+03  0.50400001928E-02 0.  1.
</event>
<event>
 5   0  0.2499890E-03  0.1198027E+04  0.7818609E-02  0.9114586E-01
       -2   -1    0    0    0  501  0.00000000000E+00  0.00000000000E+00  0.34498689828E+03  0.34498689829E+03  0.25500000920E-02 0.  1.
        2   -1    0    0  501    0  0.00000000000E+00  0.00000000000E+00 -0.10400884141E+04  0.10400884141E+04  0.25500000920E-02 0. -1.
    10030    2    1    2    0    0  0.00000000000E+00  0.00000000000E+00 -0.69510151579E+03  0.13850753124E+04  0.11980265037E+04 0.  0.
        5    1    3    3  502    0  0.46543324241E+03  0.34045322342E+03 -0.53489491161E+03  0.78655651859E+03  0.46999998093E+01 0. -1.
       -5    1    3    3    0  502 -0.46543324241E+03 -0.34045322342E+03 -0.16020660418E+03  0.59851879377E+03  0.46999998093E+01 0.  1.
</event>
<event>
 5   0  0.2579442E-03  0.1211259E+04  0.7818609E-02  0.9103058E-01
       -2   -1    0    0    0  501  0.00000000000E+00  0.00000000000E+00  0.48994909792E+03  0.48994909792E+03  0.25500000920E-02 0. -1.
        2   -1    0    0  501    0  0.00000000000E+00  0.00000000000E+00 -0.74862338418E+03  0.74862338418E+03  0.25500000920E-02 0.  1.
    10030    2    1    2    0    0  0.00000000000E+00  0.00000000000E+00 -0.25867428626E+03  0.12385724821E+04  0.12112594301E+04 0.  0.
        4    1    3    3  502    0  0.33924665779E+03 -0.22041709493E+03  0.33150683408E+03  0.52303956304E+03  0.12699999809E+01 0. -1.
       -4    1    3    3    0  502 -0.33924665779E+03  0.22041709493E+03 -0.59018112035E+03  0.71553291907E+03  0.12699999809E+01 0.  1.
</event>
<event>
 5   0  0.1469851E-03  0.1209125E+04  0.7818609E-02  0.9104907E-01
       -1   -1    0    0    0  501  0.00000000000E+00  0.00000000000E+00  0.46007892739E+03  0.46007892742E+03  0.50400001928E-02 0.  1.
        1   -1    0    0  501    0  0.00000000000E+00  0.00000000000E+00 -0.79441944019E+03  0.79441944021E+03  0.50400001928E-02 0. -1.
    10030    2    1    2    0    0  0.00000000000E+00  0.00000000000E+00 -0.33434051280E+03  0.12544983676E+04  0.12091247148E+04 0.  0.
        5    1    3    3  502    0  0.29558363006E+03 -0.11410725012E+03 -0.70135351637E+03  0.76961613277E+03  0.46999998093E+01 0. -1.
       -5    1    3    3    0  502 -0.29558363006E+03  0.11410725012E+03  0.36701300357E+03  0.48488223485E+03  0.46999998093E+01 0.  1.
</event>
<event>
 5   0  0.2579442E-03  0.1203888E+04  0.7818609E-02  0.9109460E-01
       -2   -1    0    0    0  501  0.00000000000E+00  0.00000000000E+00  0.54484871016E+03  0.54484871016E+03  0.25500000920E-02 0.  1.
        2   -1    0    0  501    0  0.00000000000E+00  0.00000000000E+00 -0.66502267363E+03  0.66502267363E+03  0.25500000920E-02 0. -1.
    10030    2    1    2    0    0  0.00000000000E+00  0.00000000000E+00 -0.12017396347E+03  0.12098713838E+04  0.12038882771E+04 0.  0.
        4    1    3    3  502    0 -0.42115497962E+03 -0.24682610922E+03  0.29385717942E+03  0.56977916761E+03  0.12699999809E+01 0.  1.
       -4    1    3    3    0  502  0.42115497962E+03  0.24682610922E+03 -0.41403114288E+03  0.64009221619E+03  0.12699999809E+01 0. -1.
</event>
<event>
 5   0  0.1403154E-03  0.1204970E+04  0.7818609E-02  0.9108517E-01
        1   -1    0    0  501    0  0.00000000000E+00  0.00000000000E+00  0.11678748437E+04  0.11678748437E+04  0.50400001928E-02 0. -1.
       -1   -1    0    0    0  501  0.00000000000E+00  0.00000000000E+00 -0.31081109004E+03  0.31081109008E+03  0.50400001928E-02 0.  1.
    10030    2    1    2    0    0  0.00000000000E+00  0.00000000000E+00  0.85706375365E+03  0.14786859338E+04  0.12049704614E+04 0.  0.
        3    1    3    3  502    0 -0.55026925125E+03  0.17139154293E+03  0.64395665697E+03  0.86420570243E+03  0.10100000352E+00 0. -1.
       -3    1    3    3    0  502  0.55026925125E+03 -0.17139154293E+03  0.21310709669E+03  0.61448023135E+03  0.10100000352E+00 0.  1.
</event>
<event>
 5   0  0.2484507E-03  0.1182525E+04  0.7818609E-02  0.9128292E-01
       -2   -1    0    0    0  501  0.00000000000E+00  0.00000000000E+00  0.28456813992E+03  0.28456813993E+03  0.25500000920E-02 0. -1.
        2   -1    0    0  501    0  0.00000000000E+00  0.00000000000E+00 -0.12284968700E+04  0.12284968700E+04  0.25500000920E-02 0.  1.
    10030    2    1    2    0    0  0.00000000000E+00  0.00000000000E+00 -0.94392873004E+03  0.15130650099E+04  0.11825245354E+04 0.  0.
        2    1    3    3  502    0 -0.63117020623E+02 -0.18153973837E+03 -0.11874107356E+04  0.12028652002E+04  0.25500000920E-02 0.  1.
       -2    1    3    3    0  502  0.63117020623E+02  0.18153973837E+03  0.24348200553E+03  0.31019980968E+03  0.25500000920E-02 0. -1.
</event>
<event>
 5   0  0.2580244E-03  0.1206250E+04  0.7818609E-02  0.9107403E-01
       -2   -1    0    0    0  501  0.00000000000E+00  0.00000000000E+00  0.65393530038E+03  0.65393530038E+03  0.25500000920E-02 0.  1.
        2   -1    0    0  501    0  0.00000000000E+00  0.00000000000E+00 -0.55626299662E+03  0.55626299662E+03  0.25500000920E-02 0. -1.
    10030    2    1    2    0    0  0.00000000000E+00  0.00000000000E+00  0.97672303763E+02  0.12101982970E+04  0.12062504048E+04 0.  0.
        1    1    3    3  502    0  0.29624210397E+03 -0.49417874080E+03 -0.13003926218E+03  0.59066252781E+03  0.50400001928E-02 0. -1.
       -1    1    3    3    0  502 -0.29624210397E+03  0.49417874080E+03  0.22771156594E+03  0.61953576920E+03  0.50400001928E-02 0.  1.
</event>
<event>
 5   0  0.1455076E-03  0.1185875E+04  0.7818609E-02  0.9125310E-01
        1   -1    0    0  501    0  0.00000000000E+00  0.00000000000E+00  0.54234014212E+03  0.54234014214E+03  0.50400001928E-02 0. -1.
       -1   -1    0    0    0  501  0.00000000000E+00  0.00000000000E+00 -0.64825563846E+03  0.64825563848E+03  0.50400001928E-02 0.  1.
    10030    2    1    2    0    0  0.00000000000E+00  0.00000000000E+00 -0.10591549634E+03  0.11905957806E+04  0.11858752972E+04 0.  0.
        4    1    3    3  502    0 -0.99735305010E+02  0.40305977740E+03  0.37201091379E+03  0.55749264399E+03  0.12699999809E+01 0. -1.
       -4    1    3    3    0  502  0.99735305010E+02 -0.40305977740E+03 -0.47792641013E+03  0.63310313664E+03  0.12699999809E+01 0.  1.
</event>
<event>
 5   0  0.2580244E-03  0.1223278E+04  0.7818609E-02  0.9092722E-01
       -2   -1    0    0    0  501  0.00000000000E+00  0.00000000000E+00  0.14391270734E+03  0.14391270737E+03  0.25500000920E-02 0. -1.
        2   -1    0    0  501    0  0.00000000000E+00  0.00000000000E+00 -0.25995079650E+04  0.25995079650E+04  0.25500000920E-02 0.  1.
    10030    2    1    2    0    0  0.00000000000E+00  0.00000000000E+00 -0.24555952577E+04  0.27434206724E+04  0.12232779390E+04 0.  0.
        1    1    3    3  502    0 -0.14836635054E+03  0.36453446390E+03 -0.17779163624E+03  0.43186550601E+03  0.50400001928E-02 0. -1.
       -1    1    3    3    0  502  0.14836635054E+03 -0.36453446390E+03 -0.22778036214E+04  0.23115551664E+04  0.50400001928E-02 0.  1.
</event>
<event>
 5   0  0.9678750E-04  0.1207508E+04  0.7818609E-02  0.9106310E-01
        4   -1    0    0  501    0  0.00000000000E+00  0.00000000000E+00  0.62848026356E+03  0.62848154673E+03  0.12699999809E+01 0.  1.
       -4   -1    0    0    0  501  0.00000000000E+00  0.00000000000E+00 -0.57999792205E+03  0.57999931249E+03  0.12699999809E+01 0. -1.
    10030    2    1    2    0    0  0.00000000000E+00  0.00000000000E+00  0.48482341506E+02  0.12084808592E+04  0.12075079501E+04 0.  0.
        5    1    3    3  502    0 -0.14894158336E+03 -0.52854157576E+03  0.27535563008E+03  0.61431474471E+03  0.46999998093E+01 0.  1.
       -5    1    3    3    0  502  0.14894158336E+03  0.52854157576E+03 -0.22687328857E+03  0.59416611450E+03  0.46999998093E+01 0. -1.
</event>
<event>
 5   0  0.2579442E-03  0.1228071E+04  0.7818609E-02  0.9088635E-01
        2   -1    0    0  501    0  0.00000000000E+00  0.00000000000E+00  0.71436526002E+03  0.71436526002E+03  0.25500000920E-02 0. -1.
       -2   -1    0    0    0  501  0.00000000000E+00  0.00000000000E+00 -0.52779631293E+03  0.52779631294E+03  0.25500000920E-02 0.  1.
    10030    2    1    2    0    0  0.00000000000E+00  0.00000000000E+00  0.18656894709E+03  0.12421615730E+04  0.12280706011E+04 0.  0.
        4    1    3    3  502    0 -0.52943871943E+03  0.25786877291E+03 -0.82595935717E+02  0.59466407590E+03  0.12699999809E+01 0.  1.
       -4    1    3    3    0  502  0.52943871943E+03 -0.25786877291E+03  0.26916488280E+03  0.64749749706E+03  0.12699999809E+01 0. -1.
</event>
<event>
 5   0  0.2517023E-03  0.1196512E+04  0.7818609E-02  0.9115915E-01
        2   -1    0    0  501    0  0.00000000000E+00  0.00000000000E+00  0.10854859005E+04  0.10854859005E+04  0.25500000920E-02 0.  1.
       -2   -1    0    0    0  501  0.00000000000E+00  0.00000000000E+00 -0.32972326925E+03  0.32972326926E+03  0.25500000920E-02 0. -1.
    10030    2    1    2    0    0  0.00000000000E+00  0.00000000000E+00  0.75576263124E+03  0.14152091697E+04  0.11965115291E+04 0.  0.
        3    1    3    3  502    0  0.55798184676E+03  0.12503862991E+03  0.58590107197E+03  0.81869315168E+03  0.10100000352E+00 0.  1.
       -3    1    3    3    0  502 -0.55798184676E+03 -0.12503862991E+03  0.16986155927E+03  0.59651601806E+03  0.10100000352E+00 0. -1.
</event>
<event>
 5   0  0.1423024E-03  0.1180845E+04  0.7818609E-02  0.9129790E-01
        1   -1    0    0  501    0  0.00000000000E+00  0.00000000000E+00  0.69293546347E+03  0.69293546349E+03  0.50400001928E-02 0.  1.
       -1   -1    0    0    0  501  0.00000000000E+00  0.00000000000E+00 -0.50307512338E+03  0.50307512341E+03  0.50400001928E-02 0. -1.
    10030    2    1    2    0    0  0.00000000000E+00  0.00000000000E+00  0.18986034009E+03  0.11960105869E+04  0.11808447719E+04 0.  0.
        2    1    3    3  502    0  0.25249418402E+02 -0.55962252693E+03 -0.93968989865E+02  0.56801855325E+03  0.25500000920E-02 0.  1.
       -2    1    3    3    0  502 -0.25249418402E+02  0.55962252693E+03  0.28382932995E+03  0.62799203365E+03  0.25500000920E-02 0. -1.
</event>
<event>
 5   0  0.1455076E-03  0.1209339E+04  0.7818609E-02  0.9104721E-01
       -1   -1    0    0    0  501  0.00000000000E+00  0.00000000000E+00  0.94521872915E+03  0.94521872917E+03  0.50400001928E-02 0.  1.
        1   -1    0    0  501    0  0.00000000000E+00  0.00000000000E+00 -0.38681541646E+03  0.38681541649E+03  0.50400001928E-02 0. -1.
    10030    2    1    2    0    0  0.00000000000E+00  0.00000000000E+00  0.55840331270E+03  0.13320341457E+04  0.12093389540E+04 0.  0.
        4    1    3    3  502    0  0.67634772303E+02 -0.47481965068E+03 -0.12639073056E+03  0.49598829902E+03  0.12699999809E+01 0. -1.
       -4    1    3    3    0  502 -0.67634772303E+02  0.47481965068E+03  0.68479404326E+03  0.83604584664E+03  0.12699999809E+01 0.  1.
</event>
<event>
 5   0  0.1403154E-03  0.1203999E+04  0.7818609E-02  0.9109364E-01
        1   -1    0    0  501    0  0.00000000000E+00  0.00000000000E+00  0.71580507833E+03  0.71580507835E+03  0.50400001928E-02 0. -1.
       -1   -1    0    0    0  501  0.00000000000E+00  0.00000000000E+00 -0.50628757590E+03  0.50628757593E+03  0.50400001928E-02 0.  1.
    10030    2    1    2    0    0  0.00000000000E+00  0.00000000000E+00  0.20951750243E+03  0.12220926543E+04  0.12039987009E+04 0.  0.
        3    1    3    3  502    0 -0.45125139278E+03 -0.29338393537E+03  0.37844253686E+03  0.65796710931E+03  0.10100000352E+00 0. -1.
       -3    1    3    3    0  502  0.45125139278E+03  0.29338393537E+03 -0.16892503443E+03  0.56412554497E+03  0.10100000352E+00 0.  1.
</event>
<event>
 5   0  0.1403154E-03  0.1182266E+04  0.7818609E-02  0.9128522E-01
       -1   -1    0    0    0  501  0.00000000000E+00  0.00000000000E+00  0.23754514300E+03  0.23754514305E+03  0.50400001928E-02 0. -1.
        1   -1    0    0  501    0  0.00000000000E+00  0.00000000000E+00 -0.14710391654E+04  0.14710391654E+04  0.50400001928E-02 0.  1.
    10030    2    1    2    0    0  0.00000000000E+00  0.00000000000E+00 -0.12334940224E+04  0.17085843085E+04  0.11822659751E+04 0.  0.
        3    1    3    3  502    0  0.95409607030E+02  0.55059621766E+03 -0.89540412689E+03  0.10554656549E+04  0.10100000352E+00 0.  1.
       -3    1    3    3    0  502 -0.95409607030E+02 -0.55059621766E+03 -0.33808989554E+03  0.65311865360E+03  0.10100000352E+00 0. -1.
</event>
<event>
 5   0  0.2517023E-03  0.1244932E+04  0.7818609E-02  0.9074412E-01
       -2   -1    0    0    0  501  0.00000000000E+00  0.00000000000E+00  0.27836988081E+03  0.27836988082E+03  0.25500000920E-02 0.  1.
        2   -1    0    0  501    0  0.00000000000E+00  0.00000000000E+00 -0.13919027295E+04  0.13919027295E+04  0.25500000920E-02 0. -1.
    10030    2    1    2    0    0  0.00000000000E+00  0.00000000000E+00 -0.11135328487E+04  0.16702726103E+04  0.12449318004E+04 0.  0.
        3    1    3    3  502    0  0.16172243493E+03  0.41401419469E+03  0.27897691212E+02  0.44535400609E+03  0.10100000352E+00 0.  1.
       -3    1    3    3    0  502 -0.16172243493E+03 -0.41401419469E+03 -0.11414305399E+04  0.12249186042E+04  0.10100000352E+00 0. -1.
</event>
<event>
 5   0  0.2499890E-03  0.1201255E+04  0.7818609E-02  0.9111759E-01
        2   -1    0    0  501    0  0.00000000000E+00  0.00000000000E+00  0.11569083012E+04  0.11569083012E+04  0.25500000920E-02 0.  1.
       -2   -1    0    0    0  501  0.00000000000E+00  0.00000000000E+00 -0.31182519605E+03  0.31182519606E+03  0.25500000920E-02 0. -1.
    10030    2    1    2    0    0  0.00000000000E+00  0.00000000000E+00  0.84508310520E+03  0.14687334973E+04  0.12012546072E+04 0.  0.
        5    1    3    3  502    0 -0.44318654403E+03  0.29084521197E+03  0.77312429827E+02  0.53572805783E+03  0.46999998093E+01 0.  1.
       -5    1    3    3    0  502  0.44318654403E+03 -0.29084521197E+03  0.76777067537E+03  0.93300543948E+03  0.46999998093E+01 0. -1.
</event>
<event>
 5   0  0.2484507E-03  0.1199799E+04  0.7818609E-02  0.9113033E-01
        2   -1    0    0  501    0  0.00000000000E+00  0.00000000000E+00  0.11707173344E+04  0.11707173344E+04  0.25500000920E-02 0. -1.
       -2   -1    0    0    0  501  0.00000000000E+00  0.00000000000E+00 -0.30740061650E+03  0.30740061651E+03  0.25500000920E-02 0.  1.
    10030    2    1    2    0    0  0.00000000000E+00  0.00000000000E+00  0.86331671791E+03  0.14781179509E+04  0.11997987004E+04 0.  0.
        2    1    3    3  502    0  0.21226857485E+03 -0.54678979746E+03  0.27659526394E+03  0.64849207437E+03  0.25500000920E-02 0. -1.
       -2    1    3    3    0  502 -0.21226857485E+03  0.54678979746E+03  0.58672145397E+03  0.82962587655E+03  0.25500000920E-02 0.  1.
</event>
<event>
 5   0  0.1404833E-03  0.1179908E+04  0.7818609E-02  0.9130627E-01
       -1   -1    0    0    0  501  0.00000000000E+00  0.00000000000E+00  0.80920758233E+03  0.80920758234E+03  0.50400001928E-02 0.  1.
        1   -1    0    0  501    0  0.00000000000E+00  0.00000000000E+00 -0.43010652420E+03  0.43010652423E+03  0.50400001928E-02 0. -1.
    10030    2    1    2    0    0  0.00000000000E+00  0.00000000000E+00  0.37910105813E+03  0.12393141066E+04  0.11799075568E+04 0.  0.
        1    1    3    3  502    0 -0.50503018137E+03 -0.24556136808E+03  0.37945629630E+03  0.67774844184E+03  0.50400001928E-02 0.  1.
       -1    1    3    3    0  502  0.50503018137E+03  0.24556136808E+03 -0.35523817431E+00  0.56156566473E+03  0.50400001928E-02 0. -1.
</event>
<event>
 5   0  0.2484507E-03  0.1149877E+04  0.7818609E-02  0.9157897E-01
       -2   -1    0    0    0  501  0.00000000000E+00  0.00000000000E+00  0.54204481499E+03  0.54204481499E+03  0.25500000920E-02 0.  1.
        2   -1    0    0  501    0  0.00000000000E+00  0.00000000000E+00 -0.60982865089E+03  0.60982865089E+03  0.25500000920E-02 0. -1.
    10030    2    1    2    0    0  0.00000000000E+00  0.00000000000E+00 -0.67783835901E+02  0.11518734659E+04  0.11498773122E+04 0.  0.
        2    1    3    3  502    0 -0.25309098387E+03 -0.51364057159E+03 -0.85680556848E+02  0.57898431821E+03  0.25500000920E-02 0. -1.
       -2    1    3    3    0  502  0.25309098387E+03  0.51364057159E+03  0.17896720946E+02  0.57288914768E+03  0.25500000920E-02 0.  1.
</event>
<event>
 5   0  0.1404833E-03  0.1241244E+04  0.7818609E-02  0.9077502E-01
       -1   -1    0    0    0  501  0.00000000000E+00  0.00000000000E+00  0.64895737021E+03  0.64895737023E+03  0.50400001928E-02 0.  1.
        1   -1    0    0  501    0  0.00000000000E+00  0.00000000000E+00 -0.59352394504E+03  0.59352394506E+03  0.50400001928E-02 0. -1.
    10030    2    1    2    0    0  0.00000000000E+00  0.00000000000E+00  0.55433425172E+02  0.12424813153E+04  0.12412441155E+04 0.  0.
        1    1    3    3  502    0  0.14050629990E+03  0.95611578266E+02  0.62521043876E+03  0.64789789856E+03  0.50400001928E-02 0.  1.
       -1    1    3    3    0  502 -0.14050629990E+03 -0.95611578266E+02 -0.56977701358E+03  0.59458341672E+03  0.50400001928E-02 0. -1.
</event>
<event>
 5   0  0.1469851E-03  0.1186920E+04  0.7818609E-02  0.9124383E-01
       -1   -1    0    0    0  501  0.00000000000E+00  0.00000000000E+00  0.23687246490E+03  0.23687246495E+03  0.50400001928E-02 0. -1.
        1   -1    0    0  501    0  0.00000000000E+00  0.00000000000E+00 -0.14868550343E+04  0.14868550343E+04  0.50400001928E-02 0.  1.
    10030    2    1    2    0    0  0.00000000000E+00  0.00000000000E+00 -0.12499825694E+04  0.17237274992E+04  0.11869204134E+04 0.  0.
        5    1    3    3  502    0 -0.50874727822E+03 -0.20976651620E+03 -0.30238114301E+03  0.62791896775E+03  0.46999998093E+01 0.  1.
       -5    1    3    3    0  502  0.50874727822E+03  0.20976651620E+03 -0.94760142635E+03  0.10958085315E+04  0.46999998093E+01 0. -1.
</event>
<event>
 5   0  0.2579442E-03  0.1211497E+04  0.7818609E-02  0.9102853E-01
        2   -1    0    0  501    0  0.00000000000E+00  0.00000000000E+00  0.63346489607E+03  0.63346489607E+03  0.25500000920E-02 0. -1.
       -2   -1    0    0    0  501  0.00000000000E+00  0.00000000000E+00 -0.57924439544E+03  0.57924439545E+03  0.25500000920E-02 0.  1.
    10030    2    1    2    0    0  0.00000000000E+00  0.00000000000E+00  0.54220500625E+02  0.12127092915E+04  0.12114965799E+04 0.  0.
        4    1    3    3  502    0 -0.30453599348E+03 -0.22746323019E+03 -0.44500546635E+03  0.58524624766E+03  0.12699999809E+01 0.  1.
       -4    1    3    3    0  502  0.30453599348E+03  0.22746323019E+03  0.49922596698E+03  0.62746304387E+03  0.12699999809E+01 0. -1.
</event>
<event>
 5   0  0.1404833E-03  0.1198214E+04  0.7818609E-02  0.9114421E-01
        1   -1    0    0  501    0  0.00000000000E+00  0.00000000000E+00  0.11862975218E+04  0.11862975218E+04  0.50400001928E-02 0.  1.
       -1   -1    0    0    0  501  0.00000000000E+00  0.00000000000E+00 -0.30256273910E+03  0.30256273914E+03  0.50400001928E-02 0. -1.
    10030    2    1    2    0    0  0.00000000000E+00  0.00000000000E+00  0.88373478274E+03  0.14888602610E+04  0.11982143842E+04 0.  0.
        1    1    3    3  502    0 -0.46494228471E+03 -0.27112433613E+03  0.76885277379E+03  0.93851708645E+03  0.50400001928E-02 0.  1.
       -1    1    3    3    0  502  0.46494228471E+03  0.27112433613E+03  0.11488200895E+03  0.55034317454E+03  0.50400001928E-02 0. -1.
</event>
<event>
 5   0  0.9678750E-04  0.1183327E+04  0.7818609E-02  0.9127577E-01
       -3   -1    0    0    0  501  0.00000000000E+00  0.00000000000E+00  0.89797615411E+03  0.89797615979E+03  0.10100000352E+00 0.  1.
        3   -1    0    0  501    0  0.00000000000E+00  0.00000000000E+00 -0.38983852925E+03  0.38983854233E+03  0.10100000352E+00 0. -1.
    10030    2    1    2    0    0  0.00000000000E+00  0.00000000000E+00  0.50813762486E+03  0.12878147021E+04  0.11833270305E+04 0.  0.
        2    1    3    3  502    0  0.38336796082E+02 -0.83961666265E+02  0.89009277418E+03  0.89486558655E+03  0.25500000920E-02 0.  1.
       -2    1    3    3    0  502 -0.38336796082E+02  0.83961666265E+02 -0.38195514931E+03  0.39294911557E+03  0.25500000920E-02 0. -1.
</event>
<event>
 5   0  0.1404833E-03  0.1169666E+04  0.7818609E-02  0.9139830E-01
       -1   -1    0    0    0  501  0.00000000000E+00  0.00000000000E+00  0.42730637325E+03  0.42730637328E+03  0.50400001928E-02 0. -1.
        1   -1    0    0  501    0  0.00000000000E+00  0.00000000000E+00 -0.80043160853E+03  0.80043160854E+03  0.50400001928E-02 0.  1.
    10030    2    1    2    0    0  0.00000000000E+00  0.00000000000E+00 -0.37312523527E+03  0.12277379818E+04  0.11696658116E+04 0.  0.
        1    1    3    3  502    0 -0.22214808073E+03 -0.10028824757E+03  0.37145369851E+03  0.44428071367E+03  0.50400001928E-02 0. -1.
       -1    1    3    3    0  502  0.22214808073E+03  0.10028824757E+03 -0.74457893378E+03  0.78345726816E+03  0.50400001928E-02 0.  1.
</event>
<event>
 5   0  0.1423024E-03  0.1192078E+04  0.7818609E-02  0.9119819E-01
       -1   -1    0    0    0  501  0.00000000000E+00  0.00000000000E+00  0.10515453680E+04  0.10515453680E+04  0.50400001928E-02 0. -1.
        1   -1    0    0  501    0  0.00000000000E+00  0.00000000000E+00 -0.33784783892E+03  0.33784783896E+03  0.50400001928E-02 0.  1.
    10030    2    1    2    0    0  0.00000000000E+00  0.00000000000E+00  0.71369752903E+03  0.13893932069E+04  0.11920777326E+04 0.  0.
        2    1    3    3  502    0 -0.49414013817E+03 -0.15445921841E+03  0.12614545947E+02  0.51787185006E+03  0.25500000920E-02 0.  1.
       -2    1    3    3    0  502  0.49414013817E+03  0.15445921841E+03  0.70108298308E+03  0.87152135687E+03  0.25500000920E-02 0. -1.
</event>
<event>
 5   0  0.1455076E-03  0.1153253E+04  0.7818609E-02  0.9154788E-01
        1   -1    0    0  501    0  0.00000000000E+00  0.00000000000E+00  0.39365351817E+03  0.39365351820E+03  0.50400001928E-02 0.  1.
       -1   -1    0    0    0  501  0.00000000000E+00  0.00000000000E+00 -0.84464617662E+03  0.84464617663E+03  0.50400001928E-02 0. -1.
    10030    2    1    2    0    0  0.00000000000E+00  0.00000000000E+00 -0.45099265845E+03  0.12382996948E+04  0.11532526853E+04 0.  0.
        4    1    3    3  502    0 -0.24923990191E+03  0.49886624000E+03 -0.68024072344E+02  0.56179795429E+03  0.12699999809E+01 0.  1.
       -4    1    3    3    0  502  0.24923990191E+03 -0.49886624000E+03 -0.38296858610E+03  0.67650174055E+03  0.12699999809E+01 0. -1.
</event>
<event>
 5   0  0.1469851E-03  0.1202391E+04  0.7818609E-02  0.9110767E-01
       -1   -1    0    0    0  501  0.00000000000E+00  0.00000000000E+00  0.55379955481E+03  0.55379955484E+03  0.50400001928E-02 0. -1.
        1   -1    0    0  501    0  0.00000000000E+00  0.00000000000E+00 -0.65264725752E+03  0.65264725754E+03  0.50400001928E-02 0.  1.
    10030    2    1    2    0    0  0.00000000000E+00  0.00000000000E+00 -0.98847702708E+02  0.12064468124E+04  0.12023905533E+04 0.  0.
        5    1    3    3  502    0  0.53323833225E+03  0.19808682384E+03  0.14573722503E+03  0.58723329054E+03  0.46999998093E+01 0. -1.
       -5    1    3    3    0  502 -0.53323833225E+03 -0.19808682384E+03 -0.24458492773E+03  0.61921352184E+03  0.46999998093E+01 0.  1.
</event>
<event>
 5   0  0.2580244E-03  0.1203878E+04  0.7818609E-02  0.9109468E-01
       -2   -1    0    0    0  501  0.00000000000E+00  0.00000000000E+00  0.19622990281E+03  0.19622990282E+03  0.25500000920E-02 0. -1.
        2   -1    0    0  501    0  0.00000000000E+00  0.00000000000E+00 -0.18464608299E+04  0.18464608299E+04  0.25500000920E-02 0.  1.
    10030    2    1    2    0    0  0.00000000000E+00  0.00000000000E+00 -0.16502309271E+04  0.20426907327E+04  0.12038784477E+04 0.  0.
        1    1    3    3  502    0 -0.59052990835E+03 -0.46933265552E+02 -0.64393119067E+03  0.87497181807E+03  0.50400001928E-02 0. -1.
       -1    1    3    3    0  502  0.59052990835E+03  0.46933265552E+02 -0.10062997364E+04  0.11677189146E+04  0.50400001928E-02 0.  1.
</event>
<event>
 5   0  0.1423024E-03  0.1137407E+04  0.7818609E-02  0.9169480E-01
       -1   -1    0    0    0  501  0.00000000000E+00  0.00000000000E+00  0.43770989319E+03  0.43770989322E+03  0.50400001928E-02 0. -1.
        1   -1    0    0  501    0  0.00000000000E+00  0.00000000000E+00 -0.73889945252E+03  0.73889945253E+03  0.50400001928E-02 0.  1.
    10030    2    1    2    0    0  0.00000000000E+00  0.00000000000E+00 -0.30118955932E+03  0.11766093458E+04  0.11374068761E+04 0.  0.
        2    1    3    3  502    0 -0.51423905901E+03 -0.10930095900E+02  0.10038292633E+03  0.52405916527E+03  0.25500000920E-02 0. -1.
       -2    1    3    3    0  502  0.51423905901E+03  0.10930095900E+02 -0.40157248566E+03  0.65255018048E+03  0.25500000920E-02 0.  1.
</event>
<event>
 5   0  0.2517023E-03  0.1178135E+04  0.7818609E-02  0.9132213E-01
        2   -1    0    0  501    0  0.00000000000E+00  0.00000000000E+00  0.49285677998E+03  0.49285677999E+03  0.25500000920E-02 0. -1.
       -2   -1    0    0    0  501  0.00000000000E+00  0.00000000000E+00 -0.70405998297E+03  0.70405998298E+03  0.25500000920E-02 0.  1.
    10030    2    1    2    0    0  0.00000000000E+00  0.00000000000E+00 -0.21120320299E+03  0.11969167630E+04  0.11781353677E+04 0.  0.
        3    1    3    3  502    0 -0.55861409850E+03  0.13649199284E+03 -0.23539167640E+03  0.62136062530E+03  0.10100000352E+00 0.  1.
       -3    1    3    3    0  502  0.55861409850E+03 -0.13649199284E+03  0.24188473415E+02  0.57555613766E+03  0.10100000352E+00 0. -1.
</event>
<event>
 5   0  0.1455076E-03  0.1187494E+04  0.7818609E-02  0.9123874E-01
        1   -1    0    0  501    0  0.00000000000E+00  0.00000000000E+00  0.14470140863E+04  0.14470140863E+04  0.50400001928E-02 0.  1.
       -1   -1    0    0    0  501  0.00000000000E+00  0.00000000000E+00 -0.24362963620E+03  0.24362963625E+03  0.50400001928E-02 0. -1.
    10030    2    1    2    0    0  0.00000000000E+00  0.00000000000E+00  0.12033844501E+04  0.16906437225E+04  0.11874940260E+04 0.  0.
        4    1    3    3  502    0  0.17106710810E+03  0.18927040768E+03  0.13649993145E+04  0.13886367358E+04  0.12699999809E+01 0.  1.
       -4    1    3    3    0  502 -0.17106710810E+03 -0.18927040768E+03 -0.16161486442E+03  0.30200698667E+03  0.12699999809E+01 0. -1.
</event>
<event>
 5   0  0.2580244E-03  0.1206134E+04  0.7818609E-02  0.9107504E-01
        2   -1    0    0  501    0  0.00000000000E+00  0.00000000000E+00  0.20585088045E+04  0.20585088045E+04  0.25500000920E-02 0. -1.
       -2   -1    0    0    0  501  0.00000000000E+00  0.00000000000E+00 -0.17667647608E+03  0.17667647610E+03  0.25500000920E-02 0.  1.
    10030    2    1    2    0    0  0.00000000000E+00  0.00000000000E+00  0.18818323284E+04  0.22351852806E+04  0.12061344561E+04 0.  0.
        1    1    3    3  502    0 -0.28257478922E+03  0.53019964218E+03  0.10377421501E+04  0.11991117305E+04  0.50400001928E-02 0. -1.
       -1    1    3    3    0  502  0.28257478922E+03 -0.53019964218E+03  0.84409017832E+03  0.10360735501E+04  0.50400001928E-02 0.  1.
</event>
<event>
 5   0  0.1403154E-03  0.1215398E+04  0.7818609E-02  0.9099485E-01
       -1   -1    0    0    0  501  0.00000000000E+00  0.00000000000E+00  0.78044880150E+03  0.78044880152E+03  0.50400001928E-02 0.  1.
        1   -1    0    0  501    0  0.00000000000E+00  0.00000000000E+00 -0.47318641938E+03  0.47318641940E+03  0.50400001928E-02 0. -1.
    10030    2    1    2    0    0  0.00000000000E+00  0.00000000000E+00  0.30726238213E+03  0.12536352209E+04  0.12153975052E+04 0.  0.
        3    1    3    3  502    0  0.21042674896E+03  0.54366476414E+03  0.33063114810E+03  0.67019979017E+03  0.10100000352E+00 0.  1.
       -3    1    3    3    0  502 -0.21042674896E+03 -0.54366476414E+03 -0.23368765977E+02  0.58343543076E+03  0.10100000352E+00 0. -1.
</event>
<event>
 5   0  0.2579442E-03  0.1186509E+04  0.7818609E-02  0.9124748E-01
       -2   -1    0    0    0  501  0.00000000000E+00  0.00000000000E+00  0.24114419491E+03  0.24114419492E+03  0.25500000920E-02 0.  1.
        2   -1    0    0  501    0  0.00000000000E+00  0.00000000000E+00 -0.14595040608E+04  0.14595040608E+04  0.25500000920E-02 0. -1.
    10030    2    1    2    0    0  0.00000000000E+00  0.00000000000E+00 -0.12183598659E+04  0.17006482557E+04  0.11865090505E+04 0.  0.
        4    1    3    3  502    0 -0.27313623585E+03 -0.26920242434E+02  0.14467223091E+03  0.31025758667E+03  0.12699999809E+01 0.  1.
       -4    1    3    3    0  502  0.27313623585E+03  0.26920242434E+02 -0.13630320968E+04  0.13903906691E+04  0.12699999809E+01 0. -1.
</event>
<event>
 5   0  0.9678750E-04  0.1194376E+04  0.7818609E-02  0.9117793E-01
       -3   -1    0    0    0  501  0.00000000000E+00  0.00000000000E+00  0.45282298218E+03  0.45282299345E+03  0.10100000352E+00 0.  1.
        3   -1    0    0  501    0  0.00000000000E+00  0.00000000000E+00 -0.78757831408E+03  0.78757832055E+03  0.10100000352E+00 0. -1.
    10030    2    1    2    0    0  0.00000000000E+00  0.00000000000E+00 -0.33475533189E+03  0.12404013140E+04  0.11943761081E+04 0.  0.
        1    1    3    3  502    0 -0.29970497146E+03  0.44146686898E+03  0.11113081082E+03  0.54503772665E+03  0.50400001928E-02 0.  1.
       -1    1    3    3    0  502  0.29970497146E+03 -0.44146686898E+03 -0.44588614271E+03  0.69536358735E+03  0.50400001928E-02 0. -1.
</event>
<event>
 5   0  0.2579442E-03  0.1232158E+04  0.7818609E-02  0.9085165E-01
        2   -1    0    0  501    0  0.00000000000E+00  0.00000000000E+00  0.15067241298E+04  0.15067241298E+04  0.25500000920E-02 0. -1.
       -2   -1    0    0    0  501  0.00000000000E+00  0.00000000000E+00 -0.25190621555E+03  0.25190621556E+03  0.25500000920E-02 0.  1.
    10030    2    1    2    0    0  0.00000000000E+00  0.00000000000E+00  0.12548179142E+04  0.17586303453E+04  0.12321577390E+04 0.  0.
        4    1    3    3  502    0  0.41326599193E+03  0.44589572185E+03  0.76970629112E+03  0.98084716564E+03  0.12699999809E+01 0.  1.
       -4    1    3    3    0  502 -0.41326599193E+03 -0.44589572185E+03  0.48511162310E+03  0.77778317970E+03  0.12699999809E+01 0. -1.
</event>
<event>
 5   0  0.2499890E-03  0.1186441E+04  0.7818609E-02  0.9124808E-01
       -2   -1    0    0    0  501  0.00000000000E+00  0.00000000000E+00  0.36699393873E+03  0.36699393874E+03  0.25500000920E-02 0.  1.
        2   -1    0    0  501    0  0.00000000000E+00  0.00000000000E+00 -0.95890000182E+03  0.95890000183E+03  0.25500000920E-02 0. -1.
    10030    2    1    2    0    0  0.00000000000E+00  0.00000000000E+00 -0.59190606309E+03  0.13258939406E+04  0.11864408768E+04 0.  0.
        5    1    3    3  502    0 -0.85402167489E+02  0.27646424037E+03 -0.87466387540E+03  0.92129527913E+03  0.46999998093E+01 0. -1.
       -5    1    3    3    0  502  0.85402167489E+02 -0.27646424037E+03  0.28275781231E+03  0.40459866144E+03  0.46999998093E+01 0.  1.
</event>
<event>
 5   0  0.2484507E-03  0.1205070E+04  0.7818609E-02  0.9108430E-01
        2   -1    0    0  501    0  0.00000000000E+00  0.00000000000E+00  0.98015567117E+03  0.98015567117E+03  0.25500000920E-02 0. -1.
       -2   -1    0    0    0  501  0.00000000000E+00  0.00000000000E+00 -0.37039865920E+03  0.37039865921E+03  0.25500000920E-02 0.  1.
    10030    2    1    2    0    0  0.00000000000E+00  0.00000000000E+00  0.60975701197E+03  0.13505543304E+04  0.12050698675E+04 0.  0.
        2    1    3    3  502    0  0.15895347466E+03  0.14946353281E+02  0.95601871547E+03  0.96925816216E+03  0.25500000920E-02 0. -1.
       -2    1    3    3    0  502 -0.15895347466E+03 -0.14946353281E+02 -0.34626170350E+03  0.38129616822E+03  0.25500000920E-02 0.  1.
</event>
<event>
 5   0  0.2517023E-03  0.1195033E+04  0.7818609E-02  0.9117215E-01
        2   -1    0    0  501    0  0.00000000000E+00  0.00000000000E+00  0.16823931561E+04  0.16823931561E+04  0.25500000920E-02 0.  1.
       -2   -1    0    0    0  501  0.00000000000E+00  0.00000000000E+00 -0.21221311112E+03  0.21221311114E+03  0.25500000920E-02 0. -1.
    10030    2    1    2    0    0  0.00000000000E+00  0.00000000000E+00  0.14701800449E+04  0.18946062672E+04  0.11950328628E+04 0.  0.
        3    1    3    3  502    0 -0.45807461759E+03  0.25728574690E+03  0.11862962676E+04  0.12974309830E+04  0.10100000352E+00 0.  1.
       -3    1    3    3    0  502  0.45807461759E+03 -0.25728574690E+03  0.28388377730E+03  0.59717528420E+03  0.10100000352E+00 0. -1.
</event>
<event>
 5   0  0.2517023E-03  0.1193948E+04  0.7818609E-02  0.9118170E-01
        2   -1    0    0  501    0  0.00000000000E+00  0.00000000000E+00  0.58684263801E+03  0.58684263801E+03  0.25500000920E-02 0.  1.
       -2   -1    0    0    0  501  0.00000000000E+00  0.00000000000E+00 -0.60728029023E+03  0.60728029024E+03  0.25500000920E-02 0. -1.
    10030    2    1    2    0    0  0.00000000000E+00  0.00000000000E+00 -0.20437652225E+02  0.11941229283E+04  0.11939480182E+04 0.  0.
        3    1    3    3  502    0  0.60226597368E+02 -0.35771479888E+03 -0.48440940410E+03  0.60517733050E+03  0.10100000352E+00 0. -1.
       -3    1    3    3    0  502 -0.60226597368E+02  0.35771479888E+03  0.46397175188E+03  0.58894559775E+03  0.10100000352E+00 0.  1.
</event>
<event>
 5   0  0.2484507E-03  0.1189273E+04  0.7818609E-02  0.9122298E-01
       -2   -1    0    0    0  501  0.00000000000E+00  0.00000000000E+00  0.24504700900E+03  0.24504700901E+03  0.25500000920E-02 0. -1.
        2   -1    0    0  501    0  0.00000000000E+00  0.00000000000E+00 -0.14429577987E+04  0.14429577987E+04  0.25500000920E-02 0.  1.
    10030    2    1    2    0    0  0.00000000000E+00  0.00000000000E+00 -0.11979107897E+04  0.16880048077E+04  0.11892728748E+04 0.  0.
        2    1    3    3  502    0 -0.52597411309E+03  0.27547945095E+03 -0.55285797245E+03  0.81128887164E+03  0.25500000920E-02 0. -1.
       -2    1    3    3    0  502  0.52597411309E+03 -0.27547945095E+03 -0.64505281727E+03  0.87671593609E+03  0.25500000920E-02 0.  1.
</event>
<event>
 5   0  0.9678750E-04  0.1215384E+04  0.7818609E-02  0.9099497E-01
       -3   -1    0    0    0  501  0.00000000000E+00  0.00000000000E+00  0.22930827225E+03  0.22930829449E+03  0.10100000352E+00 0. -1.
        3   -1    0    0  501    0  0.00000000000E+00  0.00000000000E+00 -0.16104499343E+04  0.16104499375E+04  0.10100000352E+00 0.  1.
    10030    2    1    2    0    0  0.00000000000E+00  0.00000000000E+00 -0.13811416621E+04  0.18397582320E+04  0.12153839153E+04 0.  0.
        4    1    3    3  502    0  0.29463626515E+03  0.12899910678E+03  0.89896377222E+02  0.33396746822E+03  0.12699999809E+01 0. -1.
       -4    1    3    3    0  502 -0.29463626515E+03 -0.12899910678E+03 -0.14710380393E+04  0.15057907638E+04  0.12699999809E+01 0.  1.
</event>
<event>
 5   0  0.9678750E-04  0.1182250E+04  0.7818609E-02  0.9128536E-01
       -4   -1    0    0    0  501  0.00000000000E+00  0.00000000000E+00  0.74636171268E+03  0.74636279319E+03  0.12699999809E+01 0. -1.
        4   -1    0    0  501    0  0.00000000000E+00  0.00000000000E+00 -0.46817421899E+03  0.46817594153E+03  0.12699999809E+01 0.  1.
    10030    2    1    2    0    0  0.00000000000E+00  0.00000000000E+00  0.27818749369E+03  0.12145387347E+04  0.11822504204E+04 0.  0.
        2    1    3    3  502    0 -0.50819594306E+03  0.10819749908E+03  0.42867736080E+03  0.67359787338E+03  0.25500000920E-02 0. -1.
       -2    1    3    3    0  502  0.50819594306E+03 -0.10819749908E+03 -0.15048986712E+03  0.54094086134E+03  0.25500000920E-02 0.  1.
</event>
<event>
 5   0  0.2517023E-03  0.1157478E+04  0.7818609E-02  0.9150912E-01
       -2   -1    0    0    0  501  0.00000000000E+00  0.00000000000E+00  0.25636697438E+03  0.25636697440E+03  0.25500000920E-02 0. -1.
        2   -1    0    0  501    0  0.00000000000E+00  0.00000000000E+00 -0.13064826367E+04  0.13064826367E+04  0.25500000920E-02 0.  1.
    10030    2    1    2    0    0  0.00000000000E+00  0.00000000000E+00 -0.10501156624E+04  0.15628496111E+04  0.11574782947E+04 0.  0.
        3    1    3    3  502    0 -0.54506738393E+03  0.17076635473E+03 -0.65084864407E+03  0.86594663151E+03  0.10100000352E+00 0.  1.
       -3    1    3    3    0  502  0.54506738393E+03 -0.17076635473E+03 -0.39926701828E+03  0.69690297963E+03  0.10100000352E+00 0. -1.
</event>
<event>
 5   0  0.1455076E-03  0.1190087E+04  0.7818609E-02  0.9121578E-01
       -1   -1    0    0    0  501  0.00000000000E+00  0.00000000000E+00  0.15414335595E+03  0.15414335603E+03  0.50400001928E-02 0.  1.
        1   -1    0    0  501    0  0.00000000000E+00  0.00000000000E+00 -0.22970630821E+04  0.22970630821E+04  0.50400001928E-02 0. -1.
    10030    2    1    2    0    0  0.00000000000E+00  0.00000000000E+00 -0.21429197261E+04  0.24512064381E+04  0.11900874126E+04 0.  0.
        4    1    3    3  502    0  0.28536428000E+03 -0.25878858743E+03 -0.13737215695E+03  0.40899514384E+03  0.12699999809E+01 0.  1.
       -4    1    3    3    0  502 -0.28536428000E+03  0.25878858743E+03 -0.20055475692E+04  0.20422112943E+04  0.12699999809E+01 0. -1.
</event>
<event>
 5   0  0.2580244E-03  0.1203131E+04  0.7818609E-02  0.9110121E-01
       -2   -1    0    0    0  501  0.00000000000E+00  0.00000000000E+00  0.31476772970E+03  0.31476772971E+03  0.25500000920E-02 0. -1.
        2   -1    0    0  501    0  0.00000000000E+00  0.00000000000E+00 -0.11496760640E+04  0.11496760640E+04  0.25500000920E-02 0.  1.
    10030    2    1    2    0    0  0.00000000000E+00  0.00000000000E+00 -0.83490833428E+03  0.14644437937E+04  0.12031307902E+04 0.  0.
        1    1    3    3  502    0  0.46154750867E+03 -0.31764598576E+03 -0.68400537871E+03  0.88418800781E+03  0.50400001928E-02 0. -1.
       -1    1    3    3    0  502 -0.46154750867E+03  0.31764598576E+03 -0.15090295557E+03  0.58025578589E+03  0.50400001928E-02 0.  1.
</event>
<event>
 5   0  0.2484507E-03  0.1201876E+04  0.7818609E-02  0.9111216E-01
       -2   -1    0    0    0  501  0.00000000000E+00  0.00000000000E+00  0.49509659975E+03  0.49509659976E+03  0.25500000920E-02 0. -1.
        2   -1    0    0  501    0  0.00000000000E+00  0.00000000000E+00 -0.72940631463E+03  0.72940631463E+03  0.25500000920E-02 0.  1.
    10030    2    1    2    0    0  0.00000000000E+00  0.00000000000E+00 -0.23430971487E+03  0.12245029144E+04  0.12018761770E+04 0.  0.
        2    1    3    3  502    0 -0.26804371227E+03  0.69496574166E+02  0.42622382014E+03  0.50827546701E+03  0.25500000920E-02 0. -1.
       -2    1    3    3    0  502  0.26804371227E+03 -0.69496574166E+02 -0.66053353501E+03  0.71622744739E+03  0.25500000920E-02 0.  1.
</event>
<event>
 5   0  0.1423024E-03  0.1205461E+04  0.7818609E-02  0.9108090E-01
        1   -1    0    0  501    0  0.00000000000E+00  0.00000000000E+00  0.98640547958E+03  0.98640547959E+03  0.50400001928E-02 0.  1.
       -1   -1    0    0    0  501  0.00000000000E+00  0.00000000000E+00 -0.36829079468E+03  0.36829079471E+03  0.50400001928E-02 0. -1.
    10030    2    1    2    0    0  0.00000000000E+00  0.00000000000E+00  0.61811468490E+03  0.13546962743E+04  0.12054610039E+04 0.  0.
        2    1    3    3  502    0 -0.31153011652E+03 -0.10919991622E+03 -0.25766344490E+03  0.41876734119E+03  0.25500000920E-02 0. -1.
       -2    1    3    3    0  502  0.31153011652E+03  0.10919991622E+03  0.87577812980E+03  0.93592893312E+03  0.25500000920E-02 0.  1.
</event>
<event>
 5   0  0.2499890E-03  0.1187062E+04  0.7818609E-02  0.9124258E-01
        2   -1    0    0  501    0  0.00000000000E+00  0.00000000000E+00  0.28829208984E+03  0.28829208985E+03  0.25500000920E-02 0. -1.
       -2   -1    0    0    0  501  0.00000000000E+00  0.00000000000E+00 -0.12219508168E+04  0.12219508168E+04  0.25500000920E-02 0.  1.
    10030    2    1    2    0    0  0.00000000000E+00  0.00000000000E+00 -0.93365872692E+03  0.15102429066E+04  0.11870615058E+04 0.  0.
        5    1    3    3  502    0  0.36648021454E+03  0.87923801941E+02 -0.10501520474E+04  0.11157417960E+04  0.46999998093E+01 0.  1.
       -5    1    3    3    0  502 -0.36648021454E+03 -0.87923801941E+02  0.11649332048E+03  0.39450111066E+03  0.46999998093E+01 0. -1.
</event>
<event>
 5   0  0.1403154E-03  0.1172177E+04  0.7818609E-02  0.9137565E-01
        1   -1    0    0  501    0  0.00000000000E+00  0.00000000000E+00  0.53781887679E+03  0.53781887681E+03  0.50400001928E-02 0. -1.
       -1   -1    0    0    0  501  0.00000000000E+00  0.00000000000E+00 -0.63869016197E+03  0.63869016199E+03  0.50400001928E-02 0.  1.
    10030    2    1    2    0    0  0.00000000000E+00  0.00000000000E+00 -0.10087128519E+03  0.11765090388E+04  0.11721768221E+04 0.  0.
        3    1    3    3  502    0  0.12619296464E+02 -0.51529820486E+03  0.22953637302E+03  0.56425033745E+03  0.10100000352E+00 0. -1.
       -3    1    3    3    0  502 -0.12619296464E+02  0.51529820486E+03 -0.33040765821E+03  0.61225870135E+03  0.10100000352E+00 0.  1.
</event>
<event>
 5   0  0.1403154E-03  0.1206393E+04  0.7818609E-02  0.9107279E-01
       -1   -1    0    0    0  501  0.00000000000E+00  0.00000000000E+00  0.43673640010E+03  0.43673640013E+03  0.50400001928E-02 0.  1.
        1   -1    0    0  501    0  0.00000000000E+00  0.00000000000E+00 -0.83310236247E+03  0.83310236249E+03  0.50400001928E-02 0. -1.
    10030    2    1    2    0    0  0.00000000000E+00  0.00000000000E+00 -0.39636596237E+03  0.12698387626E+04  0.12063931809E+04 0.  0.
        3    1    3    3  502    0 -0.38355302297E+02 -0.35965693775E+03 -0.70629334366E+03  0.79352034605E+03  0.10100000352E+00 0. -1.
       -3    1    3    3    0  502  0.38355302297E+02  0.35965693775E+03  0.30992738129E+03  0.47631841657E+03  0.10100000352E+00 0.  1.
</event>
<event>
 5   0  0.1455076E-03  0.1203126E+04  0.7818609E-02  0.9110125E-01
       -1   -1    0    0    0  501  0.00000000000E+00  0.00000000000E+00  0.10465304097E+04  0.10465304097E+04  0.50400001928E-02 0.  1.
        1   -1    0    0  501    0  0.00000000000E+00  0.00000000000E+00 -0.34578844099E+03  0.34578844103E+03  0.50400001928E-02 0. -1.
    10030    2    1    2    0    0  0.00000000000E+00  0.00000000000E+00  0.70074196875E+03  0.13923188508E+04  0.12031261262E+04 0.  0.
        4    1    3    3  502    0  0.19333266910E+03  0.46405050587E+03  0.73271260496E+03  0.88858863784E+03  0.12699999809E+01 0.  1.
       -4    1    3    3    0  502 -0.19333266910E+03 -0.46405050587E+03 -0.31970636211E+02  0.50373021293E+03  0.12699999809E+01 0. -1.
</event>
<event>
 5   0  0.2579442E-03  0.1219389E+04  0.7818609E-02  0.9096053E-01
        2   -1    0    0  501    0  0.00000000000E+00  0.00000000000E+00  0.47582109065E+03  0.47582109066E+03  0.25500000920E-02 0. -1.
       -2   -1    0    0    0  501  0.00000000000E+00  0.00000000000E+00 -0.78123343402E+03  0.78123343402E+03  0.25500000920E-02 0.  1.
    10030    2    1    2    0    0  0.00000000000E+00  0.00000000000E+00 -0.30541234336E+03  0.12570545247E+04  0.12193889365E+04 0.  0.
        4    1    3    3  502    0 -0.49505168519E+03  0.10873261355E+03 -0.50203421996E+03  0.71339955366E+03  0.12699999809E+01 0.  1.
       -4    1    3    3    0  502  0.49505168519E+03 -0.10873261355E+03  0.19662187659E+03  0.54365497102E+03  0.12699999809E+01 0. -1.
</event>
<event>
 5   0  0.2484507E-03  0.1207615E+04  0.7818609E-02  0.9106217E-01
        2   -1    0    0  501    0  0.00000000000E+00  0.00000000000E+00  0.12335774615E+04  0.12335774615E+04  0.25500000920E-02 0.  1.
       -2   -1    0    0    0  501  0.00000000000E+00  0.00000000000E+00 -0.29554982937E+03  0.29554982938E+03  0.25500000920E-02 0. -1.
    10030    2    1    2    0    0  0.00000000000E+00  0.00000000000E+00  0.93802763214E+03  0.15291272909E+04  0.12076151842E+04 0.  0.
        2    1    3    3  502    0  0.56997836899E+02  0.16051460501E+02 -0.29186433025E+03  0.29781066145E+03  0.25500000920E-02 0. -1.
       -2    1    3    3    0  502 -0.56997836899E+02 -0.16051460501E+02  0.12298919624E+04  0.12313166295E+04  0.25500000920E-02 0.  1.
</event>
<event>
 5   0  0.2579442E-03  0.1185879E+04  0.7818609E-02  0.9125308E-01
       -2   -1    0    0    0  501  0.00000000000E+00  0.00000000000E+00  0.27115117992E+03  0.27115117993E+03  0.25500000920E-02 0.  1.
        2   -1    0    0  501    0  0.00000000000E+00  0.00000000000E+00 -0.12966087173E+04  0.12966087173E+04  0.25500000920E-02 0. -1.
    10030    2    1    2    0    0  0.00000000000E+00  0.00000000000E+00 -0.10254575374E+04  0.15677598972E+04  0.11858785496E+04 0.  0.
        4    1    3    3  502    0  0.53015900507E+02 -0.56617152811E+03 -0.29066617550E+03  0.63863081936E+03  0.12699999809E+01 0.  1.
       -4    1    3    3    0  502 -0.53015900507E+02  0.56617152811E+03 -0.73479136186E+03  0.92912907786E+03  0.12699999809E+01 0. -1.
</event>
<event>
 5   0  0.2580244E-03  0.1192519E+04  0.7818609E-02  0.9119430E-01
        2   -1    0    0  501    0  0.00000000000E+00  0.00000000000E+00  0.14888666317E+04  0.14888666317E+04  0.25500000920E-02 0. -1.
       -2   -1    0    0    0  501  0.00000000000E+00  0.00000000000E+00 -0.23878929032E+03  0.23878929033E+03  0.25500000920E-02 0.  1.
    10030    2    1    2    0    0  0.00000000000E+00  0.00000000000E+00  0.12500773414E+04  0.17276559220E+04  0.11925190252E+04 0.  0.
        1    1    3    3  502    0 -0.10578700272E+03  0.35471676284E+03  0.13022560994E+04  0.13538411356E+04  0.50400001928E-02 0. -1.
       -1    1    3    3    0  502  0.10578700272E+03 -0.35471676284E+03 -0.52178758039E+02  0.37381478649E+03  0.50400001928E-02 0.  1.
</event>
<event>
 5   0  0.2517023E-03  0.1195328E+04  0.7818609E-02  0.9116956E-01
        2   -1    0    0  501    0  0.00000000000E+00  0.00000000000E+00  0.67991277591E+03  0.67991277592E+03  0.25500000920E-02 0. -1.
       -2   -1    0    0    0  501  0.00000000000E+00  0.00000000000E+00 -0.52536480919E+03  0.52536480920E+03  0.25500000920E-02 0.  1.
    10030    2    1    2    0    0  0.00000000000E+00  0.00000000000E+00  0.15454796672E+03  0.12052775851E+04  0.11953279814E+04 0.  0.
        3    1    3    3  502    0  0.22904326118E+03  0.38837970431E+03 -0.31829570769E+03  0.55191645921E+03  0.10100000352E+00 0.  1.
       -3    1    3    3    0  502 -0.22904326118E+03 -0.38837970431E+03  0.47284367441E+03  0.65336112590E+03  0.10100000352E+00 0. -1.
</event>
<event>
 5   0  0.1404833E-03  0.1200635E+04  0.7818609E-02  0.9112301E-01
        1   -1    0    0  501    0  0.00000000000E+00  0.00000000000E+00  0.10249299601E+04  0.10249299601E+04  0.50400001928E-02 0. -1.
       -1   -1    0    0    0  501  0.00000000000E+00  0.00000000000E+00 -0.35161552146E+03  0.35161552149E+03  0.50400001928E-02 0.  1.
    10030    2    1    2    0    0  0.00000000000E+00  0.00000000000E+00  0.67331443866E+03  0.13765454816E+04  0.12006353025E+04 0.  0.
        1    1    3    3  502    0 -0.44073456053E+03 -0.20384856962E+03  0.74132979807E+03  0.88621163483E+03  0.50400001928E-02 0. -1.
       -1    1    3    3    0  502  0.44073456053E+03  0.20384856962E+03 -0.68015359403E+02  0.49033384680E+03  0.50400001928E-02 0.  1.
</event>
<event>
 5   0  0.2484507E-03  0.1196642E+04  0.7818609E-02  0.9115801E-01
       -2   -1    0    0    0  501  0.00000000000E+00  0.00000000000E+00  0.36837490621E+03  0.36837490622E+03  0.25500000920E-02 0. -1.
        2   -1    0    0  501    0  0.00000000000E+00  0.00000000000E+00 -0.97180307709E+03  0.97180307709E+03  0.25500000920E-02 0.  1.
    10030    2    1    2    0    0  0.00000000000E+00  0.00000000000E+00 -0.60342817087E+03  0.13401779833E+04  0.11966417465E+04 0.  0.
        2    1    3    3  502    0 -0.42671839125E+03 -0.99084541025E+02  0.15469996473E+03  0.46458412672E+03  0.25500000920E-02 0. -1.
       -2    1    3    3    0  502  0.42671839125E+03  0.99084541025E+02 -0.75812813561E+03  0.87559385659E+03  0.25500000920E-02 0.  1.
</event>
<event>
 5   0  0.1423024E-03  0.1185393E+04  0.7818609E-02  0.9125739E-01
       -1   -1    0    0    0  501  0.00000000000E+00  0.00000000000E+00  0.38234706441E+03  0.38234706444E+03  0.50400001928E-02 0.  1.
        1   -1    0    0  501    0  0.00000000000E+00  0.00000000000E+00 -0.91876986264E+03  0.91876986266E+03  0.50400001928E-02 0. -1.
    10030    2    1    2    0    0  0.00000000000E+00  0.00000000000E+00 -0.53642279824E+03  0.13011169271E+04  0.11853926942E+04 0.  0.
        2    1    3    3  502    0 -0.54540227001E+03  0.87069448864E+02 -0.32172880939E+02  0.55324480958E+03  0.25500000920E-02 0.  1.
       -2    1    3    3    0  502  0.54540227001E+03 -0.87069448864E+02 -0.50424991730E+03  0.74787211752E+03  0.25500000920E-02 0. -1.
</event>
<event>
 5   0  0.2484507E-03  0.1202431E+04  0.7818609E-02  0.9110731E-01
       -2   -1    0    0    0  501  0.00000000000E+00  0.00000000000E+00  0.18058780654E+03  0.18058780656E+03  0.25500000920E-02 0.  1.
        2   -1    0    0  501    0  0.00000000000E+00  0.00000000000E+00 -0.20015760508E+04  0.20015760508E+04  0.25500000920E-02 0. -1.
    10030    2    1    2    0    0  0.00000000000E+00  0.00000000000E+00 -0.18209882443E+04  0.21821638574E+04  0.12024312515E+04 0.  0.
        2    1    3    3  502    0  0.18073483364E+02  0.31424452879E+03  0.19105073806E+02  0.31534311238E+03  0.25500000920E-02 0.  1.
       -2    1    3    3    0  502 -0.18073483364E+02 -0.31424452879E+03 -0.18400933181E+04  0.18668207450E+04  0.25500000920E-02 0. -1.
</event>
<event>
 5   0  0.2579442E-03  0.1216266E+04  0.7818609E-02  0.9098737E-01
        2   -1    0    0  501    0  0.00000000000E+00  0.00000000000E+00  0.21907269245E+04  0.21907269245E+04  0.25500000920E-02 0. -1.
       -2   -1    0    0    0  501  0.00000000000E+00  0.00000000000E+00 -0.16881419649E+03  0.16881419651E+03  0.25500000920E-02 0.  1.
    10030    2    1    2    0    0  0.00000000000E+00  0.00000000000E+00  0.20219127280E+04  0.23595411210E+04  0.12162660984E+04 0.  0.
        4    1    3    3  502    0 -0.25514965320E+03  0.46512671771E+03  0.15876908315E+04  0.16739796888E+04  0.12699999809E+01 0. -1.
       -4    1    3    3    0  502  0.25514965320E+03 -0.46512671771E+03  0.43422189646E+03  0.68556143220E+03  0.12699999809E+01 0.  1.
</event>
<event>
 5   0  0.1404833E-03  0.1193058E+04  0.7818609E-02  0.9118955E-01
       -1   -1    0    0    0  501  0.00000000000E+00  0.00000000000E+00  0.56986147457E+03  0.56986147459E+03  0.50400001928E-02 0.  1.
        1   -1    0    0  501    0  0.00000000000E+00  0.00000000000E+00 -0.62444454920E+03  0.62444454922E+03  0.50400001928E-02 0. -1.
    10030    2    1    2    0    0  0.00000000000E+00  0.00000000000E+00 -0.54583074632E+02  0.11943060238E+04  0.11930580734E+04 0.  0.
        1    1    3    3  502    0  0.56603968905E+03  0.15298216310E+03 -0.13714428398E+03  0.60217358499E+03  0.50400001928E-02 0. -1.
       -1    1    3    3    0  502 -0.56603968905E+03 -0.15298216310E+03  0.82561209352E+02  0.59213243883E+03  0.50400001928E-02 0.  1.
</event>
<event>
 5   0  0.1403154E-03  0.1197810E+04  0.7818609E-02  0.9114776E-01
       -1   -1    0    0    0  501  0.00000000000E+00  0.00000000000E+00  0.56075191187E+03  0.56075191189E+03  0.50400001928E-02 0.  1.
        1   -1    0    0  501    0  0.00000000000E+00  0.00000000000E+00 -0.63965345908E+03  0.63965345910E+03  0.50400001928E-02 0. -1.
    10030    2    1    2    0    0  0.00000000000E+00  0.00000000000E+00 -0.78901547213E+02  0.12004053710E+04  0.11978095009E+04 0.  0.
        3    1    3    3  502    0 -0.15543825461E+02  0.17829013793E+03 -0.61222934688E+03  0.63785089729E+03  0.10100000352E+00 0. -1.
       -3    1    3    3    0  502  0.15543825461E+02 -0.17829013793E+03  0.53332779966E+03  0.56255447371E+03  0.10100000352E+00 0.  1.
</event>
<event>
 5   0  0.2517023E-03  0.1191056E+04  0.7818609E-02  0.9120721E-01
       -2   -1    0    0    0  501  0.00000000000E+00  0.00000000000E+00  0.34135426109E+03  0.34135426109E+03  0.25500000920E-02 0.  1.
        2   -1    0    0  501    0  0.00000000000E+00  0.00000000000E+00 -0.10389604263E+04  0.10389604263E+04  0.25500000920E-02 0. -1.
    10030    2    1    2    0    0  0.00000000000E+00  0.00000000000E+00 -0.69760616519E+03  0.13803146874E+04  0.11910559493E+04 0.  0.
        3    1    3    3  502    0 -0.43602711681E+02  0.56173825690E+03 -0.12527506505E+03  0.57718707353E+03  0.10100000352E+00 0.  1.
       -3    1    3    3    0  502  0.43602711681E+02 -0.56173825690E+03 -0.57233110014E+03  0.80312761384E+03  0.10100000352E+00 0. -1.
</event>
<event>
 5   0  0.1469851E-03  0.1209541E+04  0.7818609E-02  0.9104546E-01
       -1   -1    0    0    0  501  0.00000000000E+00  0.00000000000E+00  0.23078693623E+03  0.23078693629E+03  0.50400001928E-02 0.  1.
        1   -1    0    0  501    0  0.00000000000E+00  0.00000000000E+00 -0.15847845676E+04  0.15847845676E+04  0.50400001928E-02 0. -1.
    10030    2    1    2    0    0  0.00000000000E+00  0.00000000000E+00 -0.13539976313E+04  0.18155715039E+04  0.12095413593E+04 0.  0.
        5    1    3    3  502    0 -0.11085205718E+03 -0.40561084132E+03 -0.13294204128E+04  0.13943418007E+04  0.46999998093E+01 0. -1.
       -5    1    3    3    0  502  0.11085205718E+03  0.40561084132E+03 -0.24577218546E+02  0.42122970318E+03  0.46999998093E+01 0.  1.
</event>
<event>
 5   0  0.1455076E-03  0.1197776E+04  0.7818609E-02  0.9114805E-01
        1   -1    0    0  501    0  0.00000000000E+00  0.00000000000E+00  0.63932300363E+03  0.63932300365E+03  0.50400001928E-02 0.  1.
       -1   -1    0    0    0  501  0.00000000000E+00  0.00000000000E+00 -0.56101058227E+03  0.56101058230E+03  0.50400001928E-02 0. -1.
    10030    2    1    2    0    0  0.00000000000E+00  0.00000000000E+00  0.78312421360E+02  0.12003335859E+04  0.11977762238E+04 0.  0.
        4    1    3    3  502    0 -0.39265878880E+03 -0.55156829867E+02  0.48893756939E+03  0.62951152489E+03  0.12699999809E+01 0.  1.
       -4    1    3    3    0  502  0.39265878880E+03  0.55156829867E+02 -0.41062514803E+03  0.57082206106E+03  0.12699999809E+01 0. -1.
</event>
<event>
 5   0  0.2579442E-03  0.1203180E+04  0.7818609E-02  0.9110078E-01
       -2   -1    0    0    0  501  0.00000000000E+00  0.00000000000E+00  0.20265235289E+03  0.20265235291E+03  0.25500000920E-02 0. -1.
        2   -1    0    0  501    0  0.00000000000E+00  0.00000000000E+00 -0.17858679969E+04  0.17858679969E+04  0.25500000920E-02 0.  1.
    10030    2    1    2    0    0  0.00000000000E+00  0.00000000000E+00 -0.15832156440E+04  0.19885203498E+04  0.12031797065E+04 0.  0.
        4    1    3    3  502    0  0.79894393808E+02  0.34075818503E+03 -0.16002757452E+04  0.16381035768E+04  0.12699999809E+01 0.  1.
       -4    1    3    3    0  502 -0.79894393808E+02 -0.34075818503E+03  0.17060101199E+02  0.35041677297E+03  0.12699999809E+01 0. -1.
</event>
<event>
 5   0  0.2580244E-03  0.1223169E+04  0.7818609E-02  0.9092815E-01
        2   -1    0    0  501    0  0.00000000000E+00  0.00000000000E+00  0.77541232192E+03  0.77541232193E+03  0.25500000920E-02 0.  1.
       -2   -1    0    0    0  501  0.00000000000E+00  0.00000000000E+00 -0.48236984817E+03  0.48236984817E+03  0.25500000920E-02 0. -1.
    10030    2    1    2    0    0  0.00000000000E+00  0.00000000000E+00  0.29304247375E+03  0.12577821701E+04  0.12231688747E+04 0.  0.
        1    1    3    3  502    0 -0.36623077795E+03  0.11521132626E+03 -0.34301440278E+03  0.51483736554E+03  0.50400001928E-02 0. -1.
       -1    1    3    3    0  502  0.36623077795E+03 -0.11521132626E+03  0.63605687654E+03  0.74294480456E+03  0.50400001928E-02 0.  1.
</event>
<event>
 5   0  0.1423024E-03  0.1222117E+04  0.7818609E-02  0.9093715E-01
        1   -1    0    0  501    0  0.00000000000E+00  0.00000000000E+00  0.18806688228E+04  0.18806688228E+04  0.50400001928E-02 0. -1.
       -1   -1    0    0    0  501  0.00000000000E+00  0.00000000000E+00 -0.19854243119E+03  0.19854243126E+03  0.50400001928E-02 0.  1.
    10030    2    1    2    0    0  0.00000000000E+00  0.00000000000E+00  0.16821263916E+04  0.20792112540E+04  0.12221171146E+04 0.  0.
        2    1    3    3  502    0 -0.43273740845E+03 -0.11162397906E+03  0.13205799245E+03  0.46600524756E+03  0.25500000920E-02 0.  1.
       -2    1    3    3    0  502  0.43273740845E+03  0.11162397906E+03  0.15500683991E+04  0.16132060065E+04  0.25500000920E-02 0. -1.
</event>
<event>
 5   0  0.2484507E-03  0.1161649E+04  0.7818609E-02  0.9147104E-01
       -2   -1    0    0    0  501  0.00000000000E+00  0.00000000000E+00  0.22013280673E+03  0.22013280675E+03  0.25500000920E-02 0. -1.
        2   -1    0    0  501    0  0.00000000000E+00  0.00000000000E+00 -0.15325151875E+04  0.15325151875E+04  0.25500000920E-02 0.  1.
    10030    2    1    2    0    0  0.00000000000E+00  0.00000000000E+00 -0.13123823808E+04  0.17526479943E+04  0.11616486037E+04 0.  0.
        2    1    3    3  502    0  0.12494096802E+03  0.44561093566E+03 -0.11857151921E+04  0.12728314375E+04  0.25500000920E-02 0.  1.
       -2    1    3    3    0  502 -0.12494096802E+03 -0.44561093566E+03 -0.12666718869E+03  0.47981655679E+03  0.25500000920E-02 0. -1.
</event>
<event>
 5   0  0.2580244E-03  0.1197953E+04  0.7818609E-02  0.9114650E-01
       -2   -1    0    0    0  501  0.00000000000E+00  0.00000000000E+00  0.13076960803E+03  0.13076960805E+03  0.25500000920E-02 0.  1.
        2   -1    0    0  501    0  0.00000000000E+00  0.00000000000E+00 -0.27435492313E+04  0.27435492313E+04  0.25500000920E-02 0. -1.
    10030    2    1    2    0    0  0.00000000000E+00  0.00000000000E+00 -0.26127796233E+04  0.28743188393E+04  0.11979530168E+04 0.  0.
        1    1    3    3  502    0 -0.48921790394E+03 -0.32505836221E+03 -0.10247766431E+04  0.11811707178E+04  0.50400001928E-02 0.  1.
       -1    1    3    3    0  502  0.48921790394E+03  0.32505836221E+03 -0.15880029802E+04  0.16931481215E+04  0.50400001928E-02 0. -1.
</event>
<event>
 5   0  0.2517023E-03  0.1193288E+04  0.7818609E-02  0.9118752E-01
        2   -1    0    0  501    0  0.00000000000E+00  0.00000000000E+00  0.13905212897E+04  0.13905212897E+04  0.25500000920E-02 0.  1.
       -2   -1    0    0    0  501  0.00000000000E+00  0.00000000000E+00 -0.25600774191E+03  0.25600774193E+03  0.25500000920E-02 0. -1.
    10030    2    1    2    0    0  0.00000000000E+00  0.00000000000E+00  0.11345135478E+04  0.16465290316E+04  0.11932882560E+04 0.  0.
        3    1    3    3  502    0 -0.29170505825E+03 -0.39517571654E+03  0.10346255736E+04  0.11452972434E+04  0.10100000352E+00 0.  1.
       -3    1    3    3    0  502  0.29170505825E+03  0.39517571654E+03  0.99887974186E+02  0.50123178824E+03  0.10100000352E+00 0. -1.
</event>
<event>
 5   0  0.2484507E-03  0.1208874E+04  0.7818609E-02  0.9105125E-01
        2   -1    0    0  501    0  0.00000000000E+00  0.00000000000E+00  0.55635021558E+03  0.55635021559E+03  0.25500000920E-02 0.  1.
       -2   -1    0    0    0  501  0.00000000000E+00  0.00000000000E+00 -0.65667983603E+03  0.65667983603E+03  0.25500000920E-02 0. -1.
    10030    2    1    2    0    0  0.00000000000E+00  0.00000000000E+00 -0.10032962045E+03  0.12130300516E+04  0.12088738037E+04 0.  0.
        2    1    3    3  502    0 -0.28697062748E+03  0.10257514751E+03  0.47361658983E+03  0.56319310728E+03  0.25500000920E-02 0.  1.
       -2    1    3    3    0  502  0.28697062748E+03 -0.10257514751E+03 -0.57394621028E+03  0.64983694433E+03  0.25500000920E-02 0. -1.
</event>
<event>
 5   0  0.1469851E-03  0.1196189E+04  0.7818609E-02  0.9116199E-01
       -1   -1    0    0    0  501  0.00000000000E+00  0.00000000000E+00  0.55145663640E+03  0.55145663642E+03  0.50400001928E-02 0.  1.
        1   -1    0    0  501    0  0.00000000000E+00  0.00000000000E+00 -0.64867656248E+03  0.64867656250E+03  0.50400001928E-02 0. -1.
    10030    2    1    2    0    0  0.00000000000E+00  0.00000000000E+00 -0.97219926079E+02  0.12001331989E+04  0.11961889404E+04 0.  0.
        5    1    3    3  502    0 -0.21686264639E+03  0.19219932254E+03 -0.57352236559E+03  0.64258850038E+03  0.46999998093E+01 0. -1.
       -5    1    3    3    0  502  0.21686264639E+03 -0.19219932254E+03  0.47630243951E+03  0.55754469854E+03  0.46999998093E+01 0.  1.
</event>
<event>
 5   0  0.2579442E-03  0.1229254E+04  0.7818609E-02  0.9087629E-01
        2   -1    0    0  501    0  0.00000000000E+00  0.00000000000E+00  0.10008392215E+04  0.10008392215E+04  0.25500000920E-02 0. -1.
       -2   -1    0    0    0  501  0.00000000000E+00  0.00000000000E+00 -0.37744971986E+03  0.37744971986E+03  0.25500000920E-02 0.  1.
    10030    2    1    2    0    0  0.00000000000E+00  0.00000000000E+00  0.62338950166E+03  0.13782889414E+04  0.12292542191E+04 0.  0.
        4    1    3    3  502    0  0.14400829162E+03  0.49759201680E+03  0.68260097375E+03  0.85690250642E+03  0.12699999809E+01 0. -1.
       -4    1    3    3    0  502 -0.14400829162E+03 -0.49759201680E+03 -0.59211472087E+02  0.52138643497E+03  0.12699999809E+01 0.  1.
</event>
<event>
 5   0  0.1403154E-03  0.1203955E+04  0.7818609E-02  0.9109401E-01
       -1   -1    0    0    0  501  0.00000000000E+00  0.00000000000E+00  0.64178046471E+03  0.64178046473E+03  0.50400001928E-02 0. -1.
        1   -1    0    0  501    0  0.00000000000E+00  0.00000000000E+00 -0.56464353630E+03  0.56464353632E+03  0.50400001928E-02 0.  1.
    10030    2    1    2    0    0  0.00000000000E+00  0.00000000000E+00  0.77136928415E+02  0.12064240011E+04  0.12039554662E+04 0.  0.
        3    1    3    3  502    0  0.39413202429E+03  0.43165028967E+03 -0.10565424444E+03  0.59399061837E+03  0.10100000352E+00 0.  1.
       -3    1    3    3    0  502 -0.39413202429E+03 -0.43165028967E+03  0.18279117286E+03  0.61243338268E+03  0.10100000352E+00 0. -1.
</event>
<event>
 5   0  0.1404833E-03  0.1184940E+04  0.7818609E-02  0.9126141E-01
       -1   -1    0    0    0  501  0.00000000000E+00  0.00000000000E+00  0.30678297673E+03  0.30678297677E+03  0.50400001928E-02 0.  1.
        1   -1    0    0  501    0  0.00000000000E+00  0.00000000000E+00 -0.11441995863E+04  0.11441995863E+04  0.50400001928E-02 0. -1.
    10030    2    1    2    0    0  0.00000000000E+00  0.00000000000E+00 -0.83741660959E+03  0.14509825631E+04  0.11849404290E+04 0.  0.
        1    1    3    3  502    0 -0.27352576165E+03 -0.21575193441E+03 -0.10055274916E+04  0.10641667049E+04  0.50400001928E-02 0. -1.
       -1    1    3    3    0  502  0.27352576165E+03  0.21575193441E+03  0.16811088198E+03  0.38681585820E+03  0.50400001928E-02 0.  1.
</event>
<event>
 5   0  0.2517023E-03  0.1182187E+04  0.7818609E-02  0.9128593E-01
        2   -1    0    0  501    0  0.00000000000E+00  0.00000000000E+00  0.88501500518E+03  0.88501500519E+03  0.25500000920E-02 0. -1.
       -2   -1    0    0    0  501  0.00000000000E+00  0.00000000000E+00 -0.39478582859E+03  0.39478582860E+03  0.25500000920E-02 0.  1.
    10030    2    1    2    0    0  0.00000000000E+00  0.00000000000E+00  0.49022917659E+03  0.12798008338E+04  0.11821867571E+04 0.  0.
        3    1    3    3  502    0 -0.88625213126E+02  0.57770198455E+03  0.14952070411E+03  0.60328306997E+03  0.10100000352E+00 0.  1.
       -3    1    3    3    0  502  0.88625213126E+02 -0.57770198455E+03  0.34070847248E+03  0.67651776383E+03  0.10100000352E+00 0. -1.
</event>
<event>
 5   0  0.9678750E-04  0.1196283E+04  0.7818609E-02  0.9116117E-01
        3   -1    0    0  501    0  0.00000000000E+00  0.00000000000E+00  0.20700520390E+03  0.20700522854E+03  0.10100000352E+00 0. -1.
       -3   -1    0    0    0  501  0.00000000000E+00  0.00000000000E+00 -0.17283286341E+04  0.17283286370E+04  0.10100000352E+00 0.  1.
    10030    2    1    2    0    0  0.00000000000E+00  0.00000000000E+00 -0.15213234302E+04  0.19353338656E+04  0.11962826556E+04 0.  0.
        2    1    3    3  502    0 -0.19686631672E+03  0.77689181460E+02 -0.16657295715E+04  0.16791208893E+04  0.25500000920E-02 0.  1.
       -2    1    3    3    0  502  0.19686631672E+03 -0.77689181460E+02  0.14440614127E+03  0.25621297629E+03  0.25500000920E-02 0. -1.
</event>
<event>
 5   0  0.1403154E-03  0.1207399E+04  0.7818609E-02  0.9106405E-01
       -1   -1    0    0    0  501  0.00000000000E+00  0.00000000000E+00  0.46209798542E+03  0.46209798545E+03  0.50400001928E-02 0.  1.
        1   -1    0    0  501    0  0.00000000000E+00  0.00000000000E+00 -0.78869171116E+03  0.78869171117E+03  0.50400001928E-02 0. -1.
    10030    2    1    2    0    0  0.00000000000E+00  0.00000000000E+00 -0.32659372574E+03  0.12507896966E+04  0.12073986100E+04 0.  0.
        3    1    3    3  502    0  0.51313544545E+03  0.18034326852E+03  0.10807364891E+03  0.55453728790E+03  0.10100000352E+00 0.  1.
       -3    1    3    3    0  502 -0.51313544545E+03 -0.18034326852E+03 -0.43466737464E+03  0.69625240873E+03  0.10100000352E+00 0. -1.
</event>
<event>
 5   0  0.1455076E-03  0.1201356E+04  0.7818609E-02  0.9111671E-01
        1   -1    0    0  501    0  0.00000000000E+00  0.00000000000E+00  0.89588095042E+03  0.89588095044E+03  0.50400001928E-02 0. -1.
       -1   -1    0    0    0  501  0.00000000000E+00  0.00000000000E+00 -0.40274759628E+03  0.40274759632E+03  0.50400001928E-02 0.  1.
    10030    2    1    2    0    0  0.00000000000E+00  0.00000000000E+00  0.49313335414E+03  0.12986285468E+04  0.12013557331E+04 0.  0.
        4    1    3    3  502    0 -0.35514317822E+02 -0.59962224668E+03  0.24877698357E+03  0.65015360180E+03  0.12699999809E+01 0.  1.
       -4    1    3    3    0  502  0.35514317822E+02  0.59962224668E+03  0.24435637057E+03  0.64847494495E+03  0.12699999809E+01 0. -1.
</event>
<event>
 5   0  0.1469851E-03  0.1214430E+04  0.7818609E-02  0.9100319E-01
       -1   -1    0    0    0  501  0.00000000000E+00  0.00000000000E+00  0.59858899996E+03  0.59858899998E+03  0.50400001928E-02 0. -1.
        1   -1    0    0  501    0  0.00000000000E+00  0.00000000000E+00 -0.61596499738E+03  0.61596499740E+03  0.50400001928E-02 0.  1.
    10030    2    1    2    0    0  0.00000000000E+00  0.00000000000E+00 -0.17375997419E+02  0.12145539974E+04  0.12144296963E+04 0.  0.
        5    1    3    3  502    0 -0.31175920235E+03 -0.31296530760E+03 -0.42532000160E+03  0.61323753781E+03  0.46999998093E+01 0.  1.
       -5    1    3    3    0  502  0.31175920235E+03  0.31296530760E+03  0.40794400419E+03  0.60131645958E+03  0.46999998093E+01 0. -1.
</event>
<event>
 5   0  0.1455076E-03  0.1204003E+04  0.7818609E-02  0.9109360E-01
       -1   -1    0    0    0  501  0.00000000000E+00  0.00000000000E+00  0.22030017317E+03  0.22030017323E+03  0.50400001928E-02 0. -1.
        1   -1    0    0  501    0  0.00000000000E+00  0.00000000000E+00 -0.16450540198E+04  0.16450540198E+04  0.50400001928E-02 0.  1.
    10030    2    1    2    0    0  0.00000000000E+00  0.00000000000E+00 -0.14247538466E+04  0.18653541930E+04  0.12040027998E+04 0.  0.
        4    1    3    3  502    0 -0.74120343067E+02  0.51239538335E+03 -0.11882932249E+04  0.12961810272E+04  0.12699999809E+01 0.  1.
       -4    1    3    3    0  502  0.74120343067E+02 -0.51239538335E+03 -0.23646062174E+03  0.56917316580E+03  0.12699999809E+01 0. -1.
</event>
<event>
 5   0  0.2517023E-03  0.1218688E+04  0.7818609E-02  0.9096655E-01
       -2   -1    0    0    0  501  0.00000000000E+00  0.00000000000E+00  0.54626761258E+03  0.54626761258E+03  0.25500000920E-02 0.  1.
        2   -1    0    0  501    0  0.00000000000E+00  0.00000000000E+00 -0.67970317958E+03  0.67970317958E+03  0.25500000920E-02 0. -1.
    10030    2    1    2    0    0  0.00000000000E+00  0.00000000000E+00 -0.13343556700E+03  0.12259707922E+04  0.12186875452E+04 0.  0.
        3    1    3    3  502    0 -0.11793832020E+03  0.35116503209E+03 -0.55342061348E+03  0.66595849177E+03  0.10100000352E+00 0. -1.
       -3    1    3    3    0  502  0.11793832020E+03 -0.35116503209E+03  0.41998504648E+03  0.56001230040E+03  0.10100000352E+00 0.  1.
</event>
<event>
 5   0  0.1455076E-03  0.1191437E+04  0.7818609E-02  0.9120385E-01
        1   -1    0    0  501    0  0.00000000000E+00  0.00000000000E+00  0.12489077457E+04  0.12489077457E+04  0.50400001928E-02 0. -1.
       -1   -1    0    0    0  501  0.00000000000E+00  0.00000000000E+00 -0.28415249500E+03  0.28415249505E+03  0.50400001928E-02 0.  1.
    10030    2    1    2    0    0  0.00000000000E+00  0.00000000000E+00  0.96475525070E+03  0.15330602408E+04  0.11914365313E+04 0.  0.
        4    1    3    3  502    0 -0.19475687695E+03  0.43594217160E+03  0.23999433970E+02  0.47807259263E+03  0.12699999809E+01 0.  1.
       -4    1    3    3    0  502  0.19475687695E+03 -0.43594217160E+03  0.94075581673E+03  0.10549876481E+04  0.12699999809E+01 0. -1.
</event>
<event>
 5   0  0.2517023E-03  0.1188753E+04  0.7818609E-02  0.9122758E-01
       -2   -1    0    0    0  501  0.00000000000E+00  0.00000000000E+00  0.80010265047E+03  0.80010265047E+03  0.25500000920E-02 0. -1.
        2   -1    0    0  501    0  0.00000000000E+00  0.00000000000E+00 -0.44154769502E+03  0.44154769503E+03  0.25500000920E-02 0.  1.
    10030    2    1    2    0    0  0.00000000000E+00  0.00000000000E+00  0.35855495545E+03  0.12416503455E+04  0.11887530965E+04 0.  0.
        3    1    3    3  502    0  0.45466366975E+03 -0.22189693429E+03  0.50513103511E+03  0.71492284539E+03  0.10100000352E+00 0. -1.
       -3    1    3    3    0  502 -0.45466366975E+03  0.22189693429E+03 -0.14657607966E+03  0.52672750010E+03  0.10100000352E+00 0.  1.
</event>
<event>
 5   0  0.2579442E-03  0.1209809E+04  0.7818609E-02  0.9104314E-01
        2   -1    0    0  501    0  0.00000000000E+00  0.00000000000E+00  0.11375615018E+04  0.11375615018E+04  0.25500000920E-02 0. -1.
       -2   -1    0    0    0  501  0.00000000000E+00  0.00000000000E+00 -0.32166114215E+03  0.32166114216E+03  0.25500000920E-02 0.  1.
    10030    2    1    2    0    0  0.00000000000E+00  0.00000000000E+00  0.81590035960E+03  0.14592226439E+04  0.12098087980E+04 0.  0.
        4    1    3    3  502    0 -0.25474985965E+03 -0.45891386249E+03  0.45282410532E+02  0.52683159908E+03  0.12699999809E+01 0.  1.
       -4    1    3    3    0  502  0.25474985965E+03  0.45891386249E+03  0.77061794907E+03  0.93239104485E+03  0.12699999809E+01 0. -1.
</event>
<event>
 5   0  0.1455076E-03  0.1189584E+04  0.7818609E-02  0.9122023E-01
       -1   -1    0    0    0  501  0.00000000000E+00  0.00000000000E+00  0.66358026013E+03  0.66358026015E+03  0.50400001928E-02 0. -1.
        1   -1    0    0  501    0  0.00000000000E+00  0.00000000000E+00 -0.53313435359E+03  0.53313435361E+03  0.50400001928E-02 0.  1.
    10030    2    1    2    0    0  0.00000000000E+00  0.00000000000E+00  0.13044590654E+03  0.11967146138E+04  0.11895838483E+04 0.  0.
        4    1    3    3  502    0 -0.44515401313E+03  0.76839612373E+02  0.45446528782E+03  0.64078602682E+03  0.12699999809E+01 0. -1.
       -4    1    3    3    0  502  0.44515401313E+03 -0.76839612373E+02 -0.32401938127E+03  0.55592858694E+03  0.12699999809E+01 0.  1.
</event>
<event>
 5   0  0.1404833E-03  0.1209001E+04  0.7818609E-02  0.9105015E-01
       -1   -1    0    0    0  501  0.00000000000E+00  0.00000000000E+00  0.28796638474E+03  0.28796638479E+03  0.50400001928E-02 0. -1.
        1   -1    0    0  501    0  0.00000000000E+00  0.00000000000E+00 -0.12689696610E+04  0.12689696611E+04  0.50400001928E-02 0.  1.
    10030    2    1    2    0    0  0.00000000000E+00  0.00000000000E+00 -0.98100327630E+03  0.15569360458E+04  0.12090005884E+04 0.  0.
        1    1    3    3  502    0  0.96670895046E+02 -0.47431525315E+03 -0.95678105396E+03  0.10722640564E+04  0.50400001928E-02 0.  1.
       -1    1    3    3    0  502 -0.96670895046E+02  0.47431525315E+03 -0.24222222348E+02  0.48467198949E+03  0.50400001928E-02 0. -1.
</event>
<event>
 5   0  0.2484507E-03  0.1192495E+04  0.7818609E-02  0.9119451E-01
        2   -1    0    0  501    0  0.00000000000E+00  0.00000000000E+00  0.45444542086E+03  0.45444542086E+03  0.25500000920E-02 0. -1.
       -2   -1    0    0    0  501  0.00000000000E+00  0.00000000000E+00 -0.78229618485E+03  0.78229618485E+03  0.25500000920E-02 0.  1.
    10030    2    1    2    0    0  0.00000000000E+00  0.00000000000E+00 -0.32785076399E+03  0.12367416057E+04  0.11924947278E+04 0.  0.
        2    1    3    3  502    0  0.53448273703E+03  0.17514252475E+02 -0.43739937483E+03  0.69086667190E+03  0.25500000920E-02 0.  1.
       -2    1    3    3    0  502 -0.53448273703E+03 -0.17514252475E+02  0.10954861084E+03  0.54587493382E+03  0.25500000920E-02 0. -1.
</event>
<event>
 5   0  0.2517023E-03  0.1194216E+04  0.7818609E-02  0.9117934E-01
       -2   -1    0    0    0  501  0.00000000000E+00  0.00000000000E+00  0.12167173238E+04  0.12167173238E+04  0.25500000920E-02 0. -1.
        2   -1    0    0  501    0  0.00000000000E+00  0.00000000000E+00 -0.29303293642E+03  0.29303293644E+03  0.25500000920E-02 0.  1.
    10030    2    1    2    0    0  0.00000000000E+00  0.00000000000E+00  0.92368438734E+03  0.15097502602E+04  0.11942164799E+04 0.  0.
        3    1    3    3  502    0 -0.38026261477E+03 -0.44991507270E+03  0.58516025938E+03  0.83032268919E+03  0.10100000352E+00 0. -1.
       -3    1    3    3    0  502  0.38026261477E+03  0.44991507270E+03  0.33852412796E+03  0.67942757101E+03  0.10100000352E+00 0.  1.
</event>
<event>
 5   0  0.1455076E-03  0.1194950E+04  0.7818609E-02  0.9117288E-01
        1   -1    0    0  501    0  0.00000000000E+00  0.00000000000E+00  0.93868970603E+03  0.93868970604E+03  0.50400001928E-02 0. -1.
       -1   -1    0    0    0  501  0.00000000000E+00  0.00000000000E+00 -0.38029251919E+03  0.38029251923E+03  0.50400001928E-02 0.  1.
    10030    2    1    2    0    0  0.00000000000E+00  0.00000000000E+00  0.55839718684E+03  0.13189822253E+04  0.11949504979E+04 0.  0.
        4    1    3    3  502    0 -0.45684009119E+03 -0.14413090008E+03 -0.11493324894E+03  0.49263358583E+03  0.12699999809E+01 0.  1.
       -4    1    3    3    0  502  0.45684009119E+03  0.14413090008E+03  0.67333043577E+03  0.82634863944E+03  0.12699999809E+01 0. -1.
</event>
<event>
 5   0  0.1423024E-03  0.1198993E+04  0.7818609E-02  0.9113739E-01
        1   -1    0    0  501    0  0.00000000000E+00  0.00000000000E+00  0.33047431382E+03  0.33047431385E+03  0.50400001928E-02 0.  1.
       -1   -1    0    0    0  501  0.00000000000E+00  0.00000000000E+00 -0.10875154233E+04  0.10875154233E+04  0.50400001928E-02 0. -1.
    10030    2    1    2    0    0  0.00000000000E+00  0.00000000000E+00 -0.75704110948E+03  0.14179897372E+04  0.11989927661E+04 0.  0.
        2    1    3    3  502    0 -0.15143993204E+02  0.52243720039E+03 -0.31243967740E+02  0.52358968134E+03  0.25500000920E-02 0.  1.
       -2    1    3    3    0  502  0.15143993204E+02 -0.52243720039E+03 -0.72579714175E+03  0.89440005582E+03  0.25500000920E-02 0. -1.
</event>
<event>
 5   0  0.1404833E-03  0.1195669E+04  0.7818609E-02  0.9116656E-01
        1   -1    0    0  501    0  0.00000000000E+00  0.00000000000E+00  0.98939297397E+03  0.98939297399E+03  0.50400001928E-02 0.  1.
       -1   -1    0    0    0  501  0.00000000000E+00  0.00000000000E+00 -0.36123790712E+03  0.36123790716E+03  0.50400001928E-02 0. -1.
    10030    2    1    2    0    0  0.00000000000E+00  0.00000000000E+00  0.62815506685E+03  0.13506308811E+04  0.11956692641E+04 0.  0.
        1    1    3    3  502    0  0.50308831889E+03 -0.80650012656E+02 -0.39190095269E+02  0.51101677539E+03  0.50400001928E-02 0. -1.
       -1    1    3    3    0  502 -0.50308831889E+03  0.80650012656E+02  0.66734516212E+03  0.83961410575E+03  0.50400001928E-02 0.  1.
</event>
<event>
 5   0  0.2484507E-03  0.1204996E+04  0.7818609E-02  0.9108495E-01
        2   -1    0    0  501    0  0.00000000000E+00  0.00000000000E+00  0.18488959903E+04  0.18488959903E+04  0.25500000920E-02 0. -1.
       -2   -1    0    0    0  501  0.00000000000E+00  0.00000000000E+00 -0.19633552557E+03  0.19633552559E+03  0.25500000920E-02 0.  1.
    10030    2    1    2    0    0  0.00000000000E+00  0.00000000000E+00  0.16525604648E+04  0.20452315159E+04  0.12049962091E+04 0.  0.
        2    1    3    3  502    0  0.50622195574E+03  0.22727072251E+03  0.42789945938E+03  0.70072148328E+03  0.25500000920E-02 0.  1.
       -2    1    3    3    0  502 -0.50622195574E+03 -0.22727072251E+03  0.12246610054E+04  0.13445100326E+04  0.25500000920E-02 0. -1.
</event>
<event>
 5   0  0.1469851E-03  0.1227452E+04  0.7818609E-02  0.9089162E-01
       -1   -1    0    0    0  501  0.00000000000E+00  0.00000000000E+00  0.48289771885E+03  0.48289771888E+03  0.50400001928E-02 0.  1.
        1   -1    0    0  501    0  0.00000000000E+00  0.00000000000E+00 -0.77999817104E+03  0.77999817106E+03  0.50400001928E-02 0. -1.
    10030    2    1    2    0    0  0.00000000000E+00  0.00000000000E+00 -0.29710045219E+03  0.12628958899E+04  0.12274515673E+04 0.  0.
        5    1    3    3  502    0 -0.36480761685E+03 -0.19431946349E+03 -0.61529348933E+03  0.74125084770E+03  0.46999998093E+01 0. -1.
       -5    1    3    3    0  502  0.36480761685E+03  0.19431946349E+03  0.31819303713E+03  0.52164504223E+03  0.46999998093E+01 0.  1.
</event>
<event>
 5   0  0.1403154E-03  0.1199413E+04  0.7818609E-02  0.9113370E-01
        1   -1    0    0  501    0  0.00000000000E+00  0.00000000000E+00  0.52888414746E+03  0.52888414748E+03  0.50400001928E-02 0.  1.
       -1   -1    0    0    0  501  0.00000000000E+00  0.00000000000E+00 -0.68001304573E+03  0.68001304575E+03  0.50400001928E-02 0. -1.
    10030    2    1    2    0    0  0.00000000000E+00  0.00000000000E+00 -0.15112889827E+03  0.12088971932E+04  0.11994133899E+04 0.  0.
        3    1    3    3  502    0  0.17092573816E+03 -0.16348145385E+03 -0.63101754069E+03  0.67388792879E+03  0.10100000352E+00 0. -1.
       -3    1    3    3    0  502 -0.17092573816E+03  0.16348145385E+03  0.47988864241E+03  0.53500926444E+03  0.10100000352E+00 0.  1.
</event>
<event>
 5   0  0.2517023E-03  0.1270256E+04  0.7818609E-02  0.9053491E-01
       -2   -1    0    0    0  501  0.00000000000E+00  0.00000000000E+00  0.27275290854E+03  0.27275290856E+03  0.25500000920E-02 0.  1.
        2   -1    0    0  501    0  0.00000000000E+00  0.00000000000E+00 -0.14789490704E+04  0.14789490704E+04  0.25500000920E-02 0. -1.
    10030    2    1    2    0    0  0.00000000000E+00  0.00000000000E+00 -0.12061961619E+04  0.17517019790E+04  0.12702561325E+04 0.  0.
        3    1    3    3  502    0 -0.37033167505E+03  0.33028458212E+03 -0.56419686328E+02  0.49941630524E+03  0.10100000352E+00 0.  1.
       -3    1    3    3    0  502  0.37033167505E+03 -0.33028458212E+03 -0.11497764755E+04  0.12522856737E+04  0.10100000352E+00 0. -1.
</event>
<event>
 5   0  0.2517023E-03  0.1216587E+04  0.7818609E-02  0.9098460E-01
        2   -1    0    0  501    0  0.00000000000E+00  0.00000000000E+00  0.60510715785E+03  0.60510715786E+03  0.25500000920E-02 0. -1.
       -2   -1    0    0    0  501  0.00000000000E+00  0.00000000000E+00 -0.61149694186E+03  0.61149694187E+03  0.25500000920E-02 0.  1.
    10030    2    1    2    0    0  0.00000000000E+00  0.00000000000E+00 -0.63897840072E+01  0.12166040997E+04  0.12165873196E+04 0.  0.
        3    1    3    3  502    0  0.24436056833E+03  0.46206422331E+03  0.30794559552E+03  0.60666789417E+03  0.10100000352E+00 0. -1.
       -3    1    3    3    0  502 -0.24436056833E+03 -0.46206422331E+03 -0.31433537953E+03  0.60993620555E+03  0.10100000352E+00 0.  1.
</event>
<event>
 5   0  0.1404833E-03  0.1201526E+04  0.7818609E-02  0.9111522E-01
        1   -1    0    0  501    0  0.00000000000E+00  0.00000000000E+00  0.13234553081E+04  0.13234553081E+04  0.50400001928E-02 0. -1.
       -1   -1    0    0    0  501  0.00000000000E+00  0.00000000000E+00 -0.27270749251E+03  0.27270749256E+03  0.50400001928E-02 0.  1.
    10030    2    1    2    0    0  0.00000000000E+00  0.00000000000E+00  0.10507478156E+04  0.15961628007E+04  0.12015259940E+04 0.  0.
        1    1    3    3  502    0 -0.47975345625E+03  0.10405158901E+03  0.65328384285E+02  0.49523520652E+03  0.50400001928E-02 0.  1.
       -1    1    3    3    0  502  0.47975345625E+03 -0.10405158901E+03  0.98541943132E+03  0.11009275942E+04  0.50400001928E-02 0. -1.
</event>
<event>
 5   0  0.2580244E-03  0.1198296E+04  0.7818609E-02  0.9114349E-01
       -2   -1    0    0    0  501  0.00000000000E+00  0.00000000000E+00  0.43380811717E+03  0.43380811718E+03  0.25500000920E-02 0. -1.
        2   -1    0    0  501    0  0.00000000000E+00  0.00000000000E+00 -0.82750478714E+03  0.82750478715E+03  0.25500000920E-02 0.  1.
    10030    2    1    2    0    0  0.00000000000E+00  0.00000000000E+00 -0.39369666997E+03  0.12613129043E+04  0.11982959462E+04 0.  0.
        1    1    3    3  502    0  0.22310977356E+03  0.84914788368E+02 -0.77528376601E+03  0.81120491258E+03  0.50400001928E-02 0.  1.
       -1    1    3    3    0  502 -0.22310977356E+03 -0.84914788368E+02  0.38158709604E+03  0.45010799174E+03  0.50400001928E-02 0. -1.
</event>
<event>
 5   0  0.1423024E-03  0.1196047E+04  0.7818609E-02  0.9116324E-01
       -1   -1    0    0    0  501  0.00000000000E+00  0.00000000000E+00  0.24108230862E+03  0.24108230867E+03  0.50400001928E-02 0. -1.
        1   -1    0    0  501    0  0.00000000000E+00  0.00000000000E+00 -0.14834436035E+04  0.14834436035E+04  0.50400001928E-02 0.  1.
    10030    2    1    2    0    0  0.00000000000E+00  0.00000000000E+00 -0.12423612949E+04  0.17245259122E+04  0.11960468364E+04 0.  0.
        2    1    3    3  502    0  0.99299853716E+02  0.45074138966E+03 -0.11694718929E+04  0.12572560477E+04  0.25500000920E-02 0.  1.
       -2    1    3    3    0  502 -0.99299853716E+02 -0.45074138966E+03 -0.72889402004E+02  0.46726986446E+03  0.25500000920E-02 0. -1.
</event>
<event>
 5   0  0.1404833E-03  0.1204214E+04  0.7818609E-02  0.9109176E-01
       -1   -1    0    0    0  501  0.00000000000E+00  0.00000000000E+00  0.39488203610E+03  0.39488203613E+03  0.50400001928E-02 0.  1.
        1   -1    0    0  501    0  0.00000000000E+00  0.00000000000E+00 -0.91807909081E+03  0.91807909083E+03  0.50400001928E-02 0. -1.
    10030    2    1    2    0    0  0.00000000000E+00  0.00000000000E+00 -0.52319705471E+03  0.13129611270E+04  0.12042141682E+04 0.  0.
        1    1    3    3  502    0  0.22965961650E+03 -0.55218882160E+03 -0.33773983858E+03  0.68682183479E+03  0.50400001928E-02 0. -1.
       -1    1    3    3    0  502 -0.22965961650E+03  0.55218882160E+03 -0.18545721613E+03  0.62613929217E+03  0.50400001928E-02 0.  1.
</event>
<event>
 5   0  0.9678750E-04  0.1216349E+04  0.7818609E-02  0.9098665E-01
        4   -1    0    0  501    0  0.00000000000E+00  0.00000000000E+00  0.16724862122E+04  0.16724866944E+04  0.12699999809E+01 0. -1.
       -4   -1    0    0    0  501  0.00000000000E+00  0.00000000000E+00 -0.22115120288E+03  0.22115484945E+03  0.12699999809E+01 0.  1.
    10030    2    1    2    0    0  0.00000000000E+00  0.00000000000E+00  0.14513350093E+04  0.18936415438E+04  0.12163490400E+04 0.  0.
        4    1    3    3  502    0  0.93863440021E+02 -0.20481280984E+03  0.16051229594E+04  0.16208577852E+04  0.12699999809E+01 0. -1.
       -4    1    3    3    0  502 -0.93863440021E+02  0.20481280984E+03 -0.15378795006E+03  0.27278375856E+03  0.12699999809E+01 0.  1.
</event>
<event>
 5   0  0.2580244E-03  0.9997084E+03  0.7818609E-02  0.9308865E-01
       -2   -1    0    0    0  501  0.00000000000E+00  0.00000000000E+00  0.33146567336E+03  0.33146567337E+03  0.25500000920E-02 0. -1.
        2   -1    0    0  501    0  0.00000000000E+00  0.00000000000E+00 -0.75378618174E+03  0.75378618175E+03  0.25500000920E-02 0.  1.
    10030    2    1    2    0    0  0.00000000000E+00  0.00000000000E+00 -0.42232050838E+03  0.10852518551E+04  0.99970844612E+03 0.  0.
        1    1    3    3  502    0 -0.37442920594E+03 -0.22621760617E+02 -0.56980100521E+03  0.68218924052E+03  0.50400001928E-02 0.  1.
       -1    1    3    3    0  502  0.37442920594E+03  0.22621760617E+02  0.14748049683E+03  0.40306261460E+03  0.50400001928E-02 0. -1.
</event>
<event>
 5   0  0.1423024E-03  0.1202201E+04  0.7818609E-02  0.9110932E-01
       -1   -1    0    0    0  501  0.00000000000E+00  0.00000000000E+00  0.20810593782E+03  0.20810593788E+03  0.50400001928E-02 0. -1.
        1   -1    0    0  501    0  0.00000000000E+00  0.00000000000E+00 -0.17362396617E+04  0.17362396617E+04  0.50400001928E-02 0.  1.
    10030    2    1    2    0    0  0.00000000000E+00  0.00000000000E+00 -0.15281337238E+04  0.19443455995E+04  0.12022009535E+04 0.  0.
        2    1    3    3  502    0  0.54257887433E+03 -0.80946414743E+02 -0.11614728536E+04  0.12845089904E+04  0.25500000920E-02 0.  1.
       -2    1    3    3    0  502 -0.54257887433E+03  0.80946414743E+02 -0.36666087028E+03  0.65983660911E+03  0.25500000920E-02 0. -1.
</event>
<event>
 5   0  0.1423024E-03  0.1196186E+04  0.7818609E-02  0.9116201E-01
       -1   -1    0    0    0  501  0.00000000000E+00  0.00000000000E+00  0.58245790670E+03  0.58245790672E+03  0.50400001928E-02 0. -1.
        1   -1    0    0  501    0  0.00000000000E+00  0.00000000000E+00 -0.61414802101E+03  0.61414802103E+03  0.50400001928E-02 0.  1.
    10030    2    1    2    0    0  0.00000000000E+00  0.00000000000E+00 -0.31690114311E+02  0.11966059277E+04  0.11961862242E+04 0.  0.
        2    1    3    3  502    0  0.94253619656E+00  0.54371224017E+03 -0.26511411205E+03  0.60490443948E+03  0.25500000920E-02 0.  1.
       -2    1    3    3    0  502 -0.94253619656E+00 -0.54371224017E+03  0.23342399774E+03  0.59170148827E+03  0.25500000920E-02 0. -1.
</event>
<event>
 5   0  0.2484507E-03  0.1209311E+04  0.7818609E-02  0.9104746E-01
       -2   -1    0    0    0  501  0.00000000000E+00  0.00000000000E+00  0.24762898326E+03  0.24762898327E+03  0.25500000920E-02 0. -1.
        2   -1    0    0  501    0  0.00000000000E+00  0.00000000000E+00 -0.14764351689E+04  0.14764351689E+04  0.25500000920E-02 0.  1.
    10030    2    1    2    0    0  0.00000000000E+00  0.00000000000E+00 -0.12288061856E+04  0.17240641521E+04  0.12093107785E+04 0.  0.
        2    1    3    3  502    0  0.38984291899E+03 -0.34299304729E+03 -0.10560959411E+04  0.11768433918E+04  0.25500000920E-02 0.  1.
       -2    1    3    3    0  502 -0.38984291899E+03  0.34299304729E+03 -0.17271024448E+03  0.54722076033E+03  0.25500000920E-02 0. -1.
</event>
<event>
 5   0  0.9678750E-04  0.1251549E+04  0.7818609E-02  0.9068895E-01
       -3   -1    0    0    0  501  0.00000000000E+00  0.00000000000E+00  0.86831506662E+03  0.86831507249E+03  0.10100000352E+00 0.  1.
        3   -1    0    0  501    0  0.00000000000E+00  0.00000000000E+00 -0.45098117681E+03  0.45098118812E+03  0.10100000352E+00 0. -1.
    10030    2    1    2    0    0  0.00000000000E+00  0.00000000000E+00  0.41733388981E+03  0.13192962606E+04  0.12515490592E+04 0.  0.
        3    1    3    3  502    0 -0.29509558227E+03 -0.16230284567E+03 -0.34730093832E+03  0.48377842898E+03  0.10100000352E+00 0. -1.
       -3    1    3    3    0  502  0.29509558227E+03  0.16230284567E+03  0.76463482813E+03  0.83551783163E+03  0.10100000352E+00 0.  1.
</event>
<event>
 5   0  0.1403154E-03  0.1202978E+04  0.7818609E-02  0.9110254E-01
        1   -1    0    0  501    0  0.00000000000E+00  0.00000000000E+00  0.52994297373E+03  0.52994297375E+03  0.50400001928E-02 0. -1.
       -1   -1    0    0    0  501  0.00000000000E+00  0.00000000000E+00 -0.68269370980E+03  0.68269370982E+03  0.50400001928E-02 0.  1.
    10030    2    1    2    0    0  0.00000000000E+00  0.00000000000E+00 -0.15275073607E+03  0.12126366836E+04  0.12029775305E+04 0.  0.
        3    1    3    3  502    0  0.87130440004E+02 -0.13659940966E+03 -0.66028251532E+03  0.67987066603E+03  0.10100000352E+00 0.  1.
       -3    1    3    3    0  502 -0.87130440004E+02  0.13659940966E+03  0.50753177925E+03  0.53276601754E+03  0.10100000352E+00 0. -1.
</event>
<event>
 5   0  0.2499890E-03  0.1220726E+04  0.7818609E-02  0.9094907E-01
        2   -1    0    0  501    0  0.00000000000E+00  0.00000000000E+00  0.36458557927E+03  0.36458557928E+03  0.25500000920E-02 0.  1.
       -2   -1    0    0    0  501  0.00000000000E+00  0.00000000000E+00 -0.10218250870E+04  0.10218250870E+04  0.25500000920E-02 0. -1.
    10030    2    1    2    0    0  0.00000000000E+00  0.00000000000E+00 -0.65723950775E+03  0.13864106663E+04  0.12207255077E+04 0.  0.
        5    1    3    3  502    0  0.13178856891E+03 -0.54359092304E+03 -0.51210997819E+02  0.56169740501E+03  0.46999998093E+01 0.  1.
       -5    1    3    3    0  502 -0.13178856891E+03  0.54359092304E+03 -0.60602850993E+03  0.82471326129E+03  0.46999998093E+01 0. -1.
</event>
<event>
 5   0  0.1403154E-03  0.1203399E+04  0.7818609E-02  0.9109887E-01
       -1   -1    0    0    0  501  0.00000000000E+00  0.00000000000E+00  0.68793562912E+03  0.68793562914E+03  0.50400001928E-02 0. -1.
        1   -1    0    0  501    0  0.00000000000E+00  0.00000000000E+00 -0.52627323976E+03  0.52627323978E+03  0.50400001928E-02 0.  1.
    10030    2    1    2    0    0  0.00000000000E+00  0.00000000000E+00  0.16166238936E+03  0.12142088689E+04  0.12033987075E+04 0.  0.
        3    1    3    3  502    0  0.52911674377E+03  0.27744721679E+03  0.87710463370E+01  0.59751019079E+03  0.10100000352E+00 0.  1.
       -3    1    3    3    0  502 -0.52911674377E+03 -0.27744721679E+03  0.15289134303E+03  0.61669867813E+03  0.10100000352E+00 0. -1.
</event>
<event>
 5   0  0.2484507E-03  0.1210050E+04  0.7818609E-02  0.9104105E-01
        2   -1    0    0  501    0  0.00000000000E+00  0.00000000000E+00  0.93746496703E+03  0.93746496703E+03  0.25500000920E-02 0.  1.
       -2   -1    0    0    0  501  0.00000000000E+00  0.00000000000E+00 -0.39047352505E+03  0.39047352506E+03  0.25500000920E-02 0. -1.
    10030    2    1    2    0    0  0.00000000000E+00  0.00000000000E+00  0.54699144197E+03  0.13279384921E+04  0.12100499995E+04 0.  0.
        2    1    3    3  502    0  0.54637954511E+03  0.15332017182E+03  0.50373937302E+03  0.75880896037E+03  0.25500000920E-02 0.  1.
       -2    1    3    3    0  502 -0.54637954511E+03 -0.15332017182E+03  0.43252068950E+02  0.56912953172E+03  0.25500000920E-02 0. -1.
</event>
<event>
 5   0  0.2484507E-03  0.1236511E+04  0.7818609E-02  0.9081485E-01
        2   -1    0    0  501    0  0.00000000000E+00  0.00000000000E+00  0.32225639501E+03  0.32225639502E+03  0.25500000920E-02 0. -1.
       -2   -1    0    0    0  501  0.00000000000E+00  0.00000000000E+00 -0.11861360995E+04  0.11861360995E+04  0.25500000920E-02 0.  1.
    10030    2    1    2    0    0  0.00000000000E+00  0.00000000000E+00 -0.86387970449E+03  0.15083924945E+04  0.12365111296E+04 0.  0.
        2    1    3    3  502    0  0.88223551470E+02 -0.14454672329E+03 -0.11572931855E+04  0.11696173167E+04  0.25500000920E-02 0.  1.
       -2    1    3    3    0  502 -0.88223551470E+02  0.14454672329E+03  0.29341348104E+03  0.33877517782E+03  0.25500000920E-02 0. -1.
</event>
<event>
 5   0  0.1404833E-03  0.1189478E+04  0.7818609E-02  0.9122117E-01
        1   -1    0    0  501    0  0.00000000000E+00  0.00000000000E+00  0.42406053239E+03  0.42406053242E+03  0.50400001928E-02 0.  1.
       -1   -1    0    0    0  501  0.00000000000E+00  0.00000000000E+00 -0.83411270754E+03  0.83411270756E+03  0.50400001928E-02 0. -1.
    10030    2    1    2    0    0  0.00000000000E+00  0.00000000000E+00 -0.41005217516E+03  0.12581732400E+04  0.11894776650E+04 0.  0.
        1    1    3    3  502    0  0.10578329218E+03 -0.35907252776E+03 -0.69387620311E+03  0.78840812424E+03  0.50400001928E-02 0. -1.
       -1    1    3    3    0  502 -0.10578329218E+03  0.35907252776E+03  0.28382402796E+03  0.46976511574E+03  0.50400001928E-02 0.  1.
</event>
<event>
 5   0  0.2517023E-03  0.1204519E+04  0.7818609E-02  0.9108910E-01
        2   -1    0    0  501    0  0.00000000000E+00  0.00000000000E+00  0.72334909404E+03  0.72334909404E+03  0.25500000920E-02 0.  1.
       -2   -1    0    0    0  501  0.00000000000E+00  0.00000000000E+00 -0.50144031419E+03  0.50144031420E+03  0.25500000920E-02 0. -1.
    10030    2    1    2    0    0  0.00000000000E+00  0.00000000000E+00  0.22190877985E+03  0.12247894082E+04  0.12045188201E+04 0.  0.
        3    1    3    3  502    0 -0.25454662535E+02 -0.29943059255E+03  0.64166670990E+03  0.70854978399E+03  0.10100000352E+00 0.  1.
       -3    1    3    3    0  502  0.25454662535E+02  0.29943059255E+03 -0.41975793005E+03  0.51623962425E+03  0.10100000352E+00 0. -1.
</event>
<event>
 5   0  0.2484507E-03  0.1200940E+04  0.7818609E-02  0.9112034E-01
        2   -1    0    0  501    0  0.00000000000E+00  0.00000000000E+00  0.78230169958E+03  0.78230169959E+03  0.25500000920E-02 0.  1.
       -2   -1    0    0    0  501  0.00000000000E+00  0.00000000000E+00 -0.46090173604E+03  0.46090173605E+03  0.25500000920E-02 0. -1.
    10030    2    1    2    0    0  0.00000000000E+00  0.00000000000E+00  0.32139996354E+03  0.12432034356E+04  0.12009399843E+04 0.  0.
        2    1    3    3  502    0  0.26220482758E+03  0.15602987793E+03 -0.37467296293E+03  0.48319408478E+03  0.25500000920E-02 0. -1.
       -2    1    3    3    0  502 -0.26220482758E+03 -0.15602987793E+03  0.69607292647E+03  0.76000935085E+03  0.25500000920E-02 0.  1.
</event>
<event>
 5   0  0.1403154E-03  0.1195015E+04  0.7818609E-02  0.9117231E-01
       -1   -1    0    0    0  501  0.00000000000E+00  0.00000000000E+00  0.50609103918E+03  0.50609103920E+03  0.50400001928E-02 0.  1.
        1   -1    0    0  501    0  0.00000000000E+00  0.00000000000E+00 -0.70543694798E+03  0.70543694800E+03  0.50400001928E-02 0. -1.
    10030    2    1    2    0    0  0.00000000000E+00  0.00000000000E+00 -0.19934590880E+03  0.12115279872E+04  0.11950151766E+04 0.  0.
        3    1    3    3  502    0  0.84835763062E+02 -0.12489583357E+03  0.48643248068E+03  0.50932567617E+03  0.10100000352E+00 0.  1.
       -3    1    3    3    0  502 -0.84835763062E+02  0.12489583357E+03 -0.68577838948E+03  0.70220231103E+03  0.10100000352E+00 0. -1.
</event>
<event>
 5   0  0.1403154E-03  0.1238644E+04  0.7818609E-02  0.9079688E-01
       -1   -1    0    0    0  501  0.00000000000E+00  0.00000000000E+00  0.39833659164E+03  0.39833659167E+03  0.50400001928E-02 0.  1.
        1   -1    0    0  501    0  0.00000000000E+00  0.00000000000E+00 -0.96290436916E+03  0.96290436917E+03  0.50400001928E-02 0. -1.
    10030    2    1    2    0    0  0.00000000000E+00  0.00000000000E+00 -0.56456777752E+03  0.13612409608E+04  0.12386444922E+04 0.  0.
        3    1    3    3  502    0 -0.34793821602E+03  0.50041201817E+03 -0.16146222956E+03  0.63051031068E+03  0.10100000352E+00 0.  1.
       -3    1    3    3    0  502  0.34793821602E+03 -0.50041201817E+03 -0.40310554796E+03  0.73073065017E+03  0.10100000352E+00 0. -1.
</event>
<event>
 5   0  0.1455076E-03  0.1206423E+04  0.7818609E-02  0.9107253E-01
       -1   -1    0    0    0  501  0.00000000000E+00  0.00000000000E+00  0.50835423329E+03  0.50835423332E+03  0.50400001928E-02 0.  1.
        1   -1    0    0  501    0  0.00000000000E+00  0.00000000000E+00 -0.71576846977E+03  0.71576846979E+03  0.50400001928E-02 0. -1.
    10030    2    1    2    0    0  0.00000000000E+00  0.00000000000E+00 -0.20741423648E+03  0.12241227031E+04  0.12064226982E+04 0.  0.
        4    1    3    3  502    0  0.74128156332E+02 -0.59613177944E+03 -0.15922955564E+03  0.62146902280E+03  0.12699999809E+01 0. -1.
       -4    1    3    3    0  502 -0.74128156332E+02  0.59613177944E+03 -0.48184680835E+02  0.60265368030E+03  0.12699999809E+01 0.  1.
</event>
<event>
 5   0  0.2517023E-03  0.1203780E+04  0.7818609E-02  0.9109554E-01
       -2   -1    0    0    0  501  0.00000000000E+00  0.00000000000E+00  0.35238285016E+03  0.35238285017E+03  0.25500000920E-02 0.  1.
        2   -1    0    0  501    0  0.00000000000E+00  0.00000000000E+00 -0.10280624624E+04  0.10280624624E+04  0.25500000920E-02 0. -1.
    10030    2    1    2    0    0  0.00000000000E+00  0.00000000000E+00 -0.67567961225E+03  0.13804453126E+04  0.12037800142E+04 0.  0.
        3    1    3    3  502    0  0.18838450609E+03 -0.25178446541E+03 -0.92637115514E+03  0.97828813058E+03  0.10100000352E+00 0. -1.
       -3    1    3    3    0  502 -0.18838450609E+03  0.25178446541E+03  0.25069154289E+03  0.40215718200E+03  0.10100000352E+00 0.  1.
</event>
<event>
 5   0  0.2484507E-03  0.1229510E+04  0.7818609E-02  0.9087412E-01
       -2   -1    0    0    0  501  0.00000000000E+00  0.00000000000E+00  0.20428016574E+03  0.20428016576E+03  0.25500000920E-02 0.  1.
        2   -1    0    0  501    0  0.00000000000E+00  0.00000000000E+00 -0.18500251699E+04  0.18500251699E+04  0.25500000920E-02 0. -1.
    10030    2    1    2    0    0  0.00000000000E+00  0.00000000000E+00 -0.16457450041E+04  0.20543053356E+04  0.12295095743E+04 0.  0.
        2    1    3    3  502    0  0.46205141236E+03 -0.14376833361E+03 -0.14563862572E+04  0.15346731807E+04  0.25500000920E-02 0. -1.
       -2    1    3    3    0  502 -0.46205141236E+03  0.14376833361E+03 -0.18935874697E+03  0.51963215496E+03  0.25500000920E-02 0.  1.
</event>
<event>
 5   0  0.2579442E-03  0.1202593E+04  0.7818609E-02  0.9110590E-01
       -2   -1    0    0    0  501  0.00000000000E+00  0.00000000000E+00  0.33342555256E+03  0.33342555257E+03  0.25500000920E-02 0. -1.
        2   -1    0    0  501    0  0.00000000000E+00  0.00000000000E+00 -0.10843716926E+04  0.10843716926E+04  0.25500000920E-02 0.  1.
    10030    2    1    2    0    0  0.00000000000E+00  0.00000000000E+00 -0.75094614006E+03  0.14177972452E+04  0.12025925841E+04 0.  0.
        4    1    3    3  502    0  0.23591010391E+03  0.53506999068E+03 -0.21041095145E+03  0.62147232717E+03  0.12699999809E+01 0. -1.
       -4    1    3    3    0  502 -0.23591010391E+03 -0.53506999068E+03 -0.54053518862E+03  0.79632491803E+03  0.12699999809E+01 0.  1.
</event>
<event>
 5   0  0.1423024E-03  0.1198760E+04  0.7818609E-02  0.9113943E-01
       -1   -1    0    0    0  501  0.00000000000E+00  0.00000000000E+00  0.84472058400E+03  0.84472058402E+03  0.50400001928E-02 0.  1.
        1   -1    0    0  501    0  0.00000000000E+00  0.00000000000E+00 -0.42529597355E+03  0.42529597358E+03  0.50400001928E-02 0. -1.
    10030    2    1    2    0    0  0.00000000000E+00  0.00000000000E+00  0.41942461045E+03  0.12700165576E+04  0.11987597978E+04 0.  0.
        2    1    3    3  502    0  0.15579819924E+02  0.31445638955E+02  0.84363122021E+03  0.84436082021E+03  0.25500000920E-02 0.  1.
       -2    1    3    3    0  502 -0.15579819924E+02 -0.31445638955E+02 -0.42420660976E+03  0.42565573739E+03  0.25500000920E-02 0. -1.
</event>
<event>
 5   0  0.9678750E-04  0.1202311E+04  0.7818609E-02  0.9110837E-01
       -3   -1    0    0    0  501  0.00000000000E+00  0.00000000000E+00  0.51266845561E+03  0.51266846556E+03  0.10100000352E+00 0.  1.
        3   -1    0    0  501    0  0.00000000000E+00  0.00000000000E+00 -0.70491491756E+03  0.70491492480E+03  0.10100000352E+00 0. -1.
    10030    2    1    2    0    0  0.00000000000E+00  0.00000000000E+00 -0.19224646195E+03  0.12175833904E+04  0.12023105299E+04 0.  0.
        4    1    3    3  502    0 -0.18936755674E+03  0.27966328577E+03 -0.59974764992E+03  0.68830987312E+03  0.12699999809E+01 0. -1.
       -4    1    3    3    0  502  0.18936755674E+03 -0.27966328577E+03  0.40750118797E+03  0.52927351724E+03  0.12699999809E+01 0.  1.
</event>
<event>
 5   0  0.2517023E-03  0.1204310E+04  0.7818609E-02  0.9109092E-01
        2   -1    0    0  501    0  0.00000000000E+00  0.00000000000E+00  0.12472139231E+04  0.12472139231E+04  0.25500000920E-02 0. -1.
       -2   -1    0    0    0  501  0.00000000000E+00  0.00000000000E+00 -0.29072054238E+03  0.29072054239E+03  0.25500000920E-02 0.  1.
    10030    2    1    2    0    0  0.00000000000E+00  0.00000000000E+00  0.95649338072E+03  0.15379344655E+04  0.12043101066E+04 0.  0.
        3    1    3    3  502    0 -0.52498475562E+03  0.23246903157E+03  0.71001835066E+03  0.91311385530E+03  0.10100000352E+00 0. -1.
       -3    1    3    3    0  502  0.52498475562E+03 -0.23246903157E+03  0.24647503006E+03  0.62482061019E+03  0.10100000352E+00 0.  1.
</event>
<event>
 5   0  0.2484507E-03  0.1196207E+04  0.7818609E-02  0.9116183E-01
        2   -1    0    0  501    0  0.00000000000E+00  0.00000000000E+00  0.20370605214E+03  0.20370605215E+03  0.25500000920E-02 0. -1.
       -2   -1    0    0    0  501  0.00000000000E+00  0.00000000000E+00 -0.17560986175E+04  0.17560986175E+04  0.25500000920E-02 0.  1.
    10030    2    1    2    0    0  0.00000000000E+00  0.00000000000E+00 -0.15523925654E+04  0.19598046697E+04  0.11962072004E+04 0.  0.
        2    1    3    3  502    0  0.24229656680E+03 -0.53914346142E+03 -0.62653494823E+03  0.86135320261E+03  0.25500000920E-02 0.  1.
       -2    1    3    3    0  502 -0.24229656680E+03  0.53914346142E+03 -0.92585761716E+03  0.10984514671E+04  0.25500000920E-02 0. -1.
</event>
<event>
 5   0  0.1404833E-03  0.1184824E+04  0.7818609E-02  0.9126244E-01
        1   -1    0    0  501    0  0.00000000000E+00  0.00000000000E+00  0.82997864377E+03  0.82997864378E+03  0.50400001928E-02 0. -1.
       -1   -1    0    0    0  501  0.00000000000E+00  0.00000000000E+00 -0.42284477539E+03  0.42284477542E+03  0.50400001928E-02 0.  1.
    10030    2    1    2    0    0  0.00000000000E+00  0.00000000000E+00  0.40713386838E+03  0.12528234192E+04  0.11848242625E+04 0.  0.
        1    1    3    3  502    0 -0.26683240166E+03 -0.23340290667E+03  0.70543907033E+03  0.78950663670E+03  0.50400001928E-02 0. -1.
       -1    1    3    3    0  502  0.26683240166E+03  0.23340290667E+03 -0.29830520195E+03  0.46331678251E+03  0.50400001928E-02 0.  1.
</event>
<event>
 5   0  0.1403154E-03  0.1191042E+04  0.7818609E-02  0.9120734E-01
       -1   -1    0    0    0  501  0.00000000000E+00  0.00000000000E+00  0.17879601703E+04  0.17879601703E+04  0.50400001928E-02 0. -1.
        1   -1    0    0  501    0  0.00000000000E+00  0.00000000000E+00 -0.19835181650E+03  0.19835181656E+03  0.50400001928E-02 0.  1.
    10030    2    1    2    0    0  0.00000000000E+00  0.00000000000E+00  0.15896083538E+04  0.19863119869E+04  0.11910418090E+04 0.  0.
        3    1    3    3  502    0 -0.12071530335E+02 -0.35298066879E+03  0.15944428320E+04  0.16330918618E+04  0.10100000352E+00 0. -1.
       -3    1    3    3    0  502  0.12071530335E+02  0.35298066879E+03 -0.48344781734E+01  0.35322012509E+03  0.10100000352E+00 0.  1.
</event>
<event>
 5   0  0.1455076E-03  0.1208668E+04  0.7818609E-02  0.9105303E-01
       -1   -1    0    0    0  501  0.00000000000E+00  0.00000000000E+00  0.78897880086E+03  0.78897880087E+03  0.50400001928E-02 0. -1.
        1   -1    0    0  501    0  0.00000000000E+00  0.00000000000E+00 -0.46290166765E+03  0.46290166767E+03  0.50400001928E-02 0.  1.
    10030    2    1    2    0    0  0.00000000000E+00  0.00000000000E+00  0.32607713321E+03  0.12518804685E+04  0.12086680316E+04 0.  0.
        4    1    3    3  502    0  0.43351421239E+03  0.29641854727E+03  0.47276042410E+03  0.70661344384E+03  0.12699999809E+01 0. -1.
       -4    1    3    3    0  502 -0.43351421239E+03 -0.29641854727E+03 -0.14668329089E+03  0.54526702471E+03  0.12699999809E+01 0.  1.
</event>
<event>
 5   0  0.9678750E-04  0.1204074E+04  0.7818609E-02  0.9109298E-01
       -3   -1    0    0    0  501  0.00000000000E+00  0.00000000000E+00  0.45674944396E+03  0.45674945513E+03  0.10100000352E+00 0. -1.
        3   -1    0    0  501    0  0.00000000000E+00  0.00000000000E+00 -0.79353872399E+03  0.79353873041E+03  0.10100000352E+00 0.  1.
    10030    2    1    2    0    0  0.00000000000E+00  0.00000000000E+00 -0.33678928002E+03  0.12502881855E+04  0.12040737219E+04 0.  0.
        3    1    3    3  502    0 -0.33240996751E+03  0.12800241253E+02  0.35264970056E+03  0.48479073236E+03  0.10100000352E+00 0. -1.
       -3    1    3    3    0  502  0.33240996751E+03 -0.12800241253E+02 -0.68943898058E+03  0.76549745318E+03  0.10100000352E+00 0.  1.
</event>
<event>
 5   0  0.1404833E-03  0.1159786E+04  0.7818609E-02  0.9148803E-01
        1   -1    0    0  501    0  0.00000000000E+00  0.00000000000E+00  0.11505617104E+04  0.11505617104E+04  0.50400001928E-02 0.  1.
       -1   -1    0    0    0  501  0.00000000000E+00  0.00000000000E+00 -0.29227107387E+03  0.29227107392E+03  0.50400001928E-02 0. -1.
    10030    2    1    2    0    0  0.00000000000E+00  0.00000000000E+00  0.85829063652E+03  0.14428327843E+04  0.11597860263E+04 0.  0.
        1    1    3    3  502    0  0.20905066675E+02 -0.17027117977E+03 -0.25998093450E+03  0.31147934571E+03  0.50400001928E-02 0. -1.
       -1    1    3    3    0  502 -0.20905066675E+02  0.17027117977E+03  0.11182715710E+04  0.11313534386E+04  0.50400001928E-02 0.  1.
</event>
<event>
 5   0  0.2517023E-03  0.1152239E+04  0.7818609E-02  0.9155720E-01
       -2   -1    0    0    0  501  0.00000000000E+00  0.00000000000E+00  0.75380808251E+03  0.75380808251E+03  0.25500000920E-02 0. -1.
        2   -1    0    0  501    0  0.00000000000E+00  0.00000000000E+00 -0.44031586806E+03  0.44031586807E+03  0.25500000920E-02 0.  1.
    10030    2    1    2    0    0  0.00000000000E+00  0.00000000000E+00  0.31349221445E+03  0.11941239506E+04  0.11522389686E+04 0.  0.
        3    1    3    3  502    0 -0.18286827880E+03  0.34456836563E+03  0.59612161480E+03  0.71241080552E+03  0.10100000352E+00 0. -1.
       -3    1    3    3    0  502  0.18286827880E+03 -0.34456836563E+03 -0.28262940036E+03  0.48171314507E+03  0.10100000352E+00 0.  1.
</event>
<event>
 5   0  0.1423024E-03  0.1216817E+04  0.7818609E-02  0.9098262E-01
       -1   -1    0    0    0  501  0.00000000000E+00  0.00000000000E+00  0.51879432169E+03  0.51879432172E+03  0.50400001928E-02 0. -1.
        1   -1    0    0  501    0  0.00000000000E+00  0.00000000000E+00 -0.71350264431E+03  0.71350264433E+03  0.50400001928E-02 0.  1.
    10030    2    1    2    0    0  0.00000000000E+00  0.00000000000E+00 -0.19470832262E+03  0.12322969660E+04  0.12168173575E+04 0.  0.
        2    1    3    3  502    0 -0.28143498765E+02 -0.59232555466E+03  0.40463420487E+02  0.59437270095E+03  0.25500000920E-02 0. -1.
       -2    1    3    3    0  502  0.28143498765E+02  0.59232555466E+03 -0.23517174310E+03  0.63792426509E+03  0.25500000920E-02 0.  1.
</event>
<event>
 5   0  0.2580244E-03  0.1211474E+04  0.7818609E-02  0.9102872E-01
        2   -1    0    0  501    0  0.00000000000E+00  0.00000000000E+00  0.17880004930E+03  0.17880004931E+03  0.25500000920E-02 0. -1.
       -2   -1    0    0    0  501  0.00000000000E+00  0.00000000000E+00 -0.20521109054E+04  0.20521109054E+04  0.25500000920E-02 0.  1.
    10030    2    1    2    0    0  0.00000000000E+00  0.00000000000E+00 -0.18733108561E+04  0.22309109547E+04  0.12114743597E+04 0.  0.
        1    1    3    3  502    0  0.28599246689E+03  0.49025985237E+03 -0.13262985141E+04  0.14426413839E+04  0.50400001928E-02 0. -1.
       -1    1    3    3    0  502 -0.28599246689E+03 -0.49025985237E+03 -0.54701234199E+03  0.78826957082E+03  0.50400001928E-02 0.  1.
</event>
<event>
 5   0  0.1423024E-03  0.1211828E+04  0.7818609E-02  0.9102566E-01
       -1   -1    0    0    0  501  0.00000000000E+00  0.00000000000E+00  0.29245923523E+03  0.29245923528E+03  0.50400001928E-02 0. -1.
        1   -1    0    0  501    0  0.00000000000E+00  0.00000000000E+00 -0.12553253283E+04  0.12553253283E+04  0.50400001928E-02 0.  1.
    10030    2    1    2    0    0  0.00000000000E+00  0.00000000000E+00 -0.96286609303E+03  0.15477845636E+04  0.12118275216E+04 0.  0.
        2    1    3    3  502    0 -0.22636933221E+03 -0.56187915655E+03 -0.46428650762E+03  0.76322553829E+03  0.25500000920E-02 0.  1.
       -2    1    3    3    0  502  0.22636933221E+03  0.56187915655E+03 -0.49857958541E+03  0.78455902526E+03  0.25500000920E-02 0. -1.
</event>
<event>
 5   0  0.1403154E-03  0.1204455E+04  0.7818609E-02  0.9108966E-01
        1   -1    0    0  501    0  0.00000000000E+00  0.00000000000E+00  0.10825856137E+04  0.10825856138E+04  0.50400001928E-02 0.  1.
       -1   -1    0    0    0  501  0.00000000000E+00  0.00000000000E+00 -0.33501075032E+03  0.33501075036E+03  0.50400001928E-02 0. -1.
    10030    2    1    2    0    0  0.00000000000E+00  0.00000000000E+00  0.74757486342E+03  0.14175963641E+04  0.12044547626E+04 0.  0.
        3    1    3    3  502    0  0.45956324425E+03  0.18046568757E+03  0.77964546981E+03  0.92282897042E+03  0.10100000352E+00 0.  1.
       -3    1    3    3    0  502 -0.45956324425E+03 -0.18046568757E+03 -0.32070606391E+02  0.49476739368E+03  0.10100000352E+00 0. -1.
</event>
<event>
 5   0  0.2579442E-03  0.1204300E+04  0.7818609E-02  0.9109101E-01
       -2   -1    0    0    0  501  0.00000000000E+00  0.00000000000E+00  0.49248093466E+03  0.49248093467E+03  0.25500000920E-02 0. -1.
        2   -1    0    0  501    0  0.00000000000E+00  0.00000000000E+00 -0.73624122813E+03  0.73624122814E+03  0.25500000920E-02 0.  1.
    10030    2    1    2    0    0  0.00000000000E+00  0.00000000000E+00 -0.24376029347E+03  0.12287221628E+04  0.12043002419E+04 0.  0.
        4    1    3    3  502    0 -0.44657443087E+03  0.24494565250E+03 -0.44957248847E+03  0.67937039255E+03  0.12699999809E+01 0.  1.
       -4    1    3    3    0  502  0.44657443087E+03 -0.24494565250E+03  0.20581219500E+03  0.54935177026E+03  0.12699999809E+01 0. -1.
</event>
<event>
 5   0  0.1455076E-03  0.1222071E+04  0.7818609E-02  0.9093754E-01
       -1   -1    0    0    0  501  0.00000000000E+00  0.00000000000E+00  0.21642297974E+03  0.21642297980E+03  0.50400001928E-02 0.  1.
        1   -1    0    0  501    0  0.00000000000E+00  0.00000000000E+00 -0.17251597273E+04  0.17251597273E+04  0.50400001928E-02 0. -1.
    10030    2    1    2    0    0  0.00000000000E+00  0.00000000000E+00 -0.15087367475E+04  0.19415827071E+04  0.12220707161E+04 0.  0.
        4    1    3    3  502    0  0.96655283913E+02  0.17522379517E+03 -0.16716195403E+04  0.16835555004E+04  0.12699999809E+01 0. -1.
       -4    1    3    3    0  502 -0.96655283913E+02 -0.17522379517E+03  0.16288279282E+03  0.25802720670E+03  0.12699999809E+01 0.  1.
</event>
<event>
 5   0  0.2484507E-03  0.1200382E+04  0.7818609E-02  0.9112522E-01
        2   -1    0    0  501    0  0.00000000000E+00  0.00000000000E+00  0.64743349626E+03  0.64743349626E+03  0.25500000920E-02 0.  1.
       -2   -1    0    0    0  501  0.00000000000E+00  0.00000000000E+00 -0.55639599765E+03  0.55639599766E+03  0.25500000920E-02 0. -1.
    10030    2    1    2    0    0  0.00000000000E+00  0.00000000000E+00  0.91037498606E+02  0.12038294939E+04  0.12003822826E+04 0.  0.
        2    1    3    3  502    0 -0.77488357444E+02  0.30549860180E+03  0.55776495573E+03  0.64065246982E+03  0.25500000920E-02 0.  1.
       -2    1    3    3    0  502  0.77488357444E+02 -0.30549860180E+03 -0.46672745712E+03  0.56317702410E+03  0.25500000920E-02 0. -1.
</event>
<event>
 5   0  0.1403154E-03  0.1204181E+04  0.7818609E-02  0.9109205E-01
       -1   -1    0    0    0  501  0.00000000000E+00  0.00000000000E+00  0.49725819762E+03  0.49725819765E+03  0.50400001928E-02 0.  1.
        1   -1    0    0  501    0  0.00000000000E+00  0.00000000000E+00 -0.72902328701E+03  0.72902328703E+03  0.50400001928E-02 0. -1.
    10030    2    1    2    0    0  0.00000000000E+00  0.00000000000E+00 -0.23176508939E+03  0.12262814847E+04  0.12041807269E+04 0.  0.
        3    1    3    3  502    0 -0.55902219931E+03 -0.21872856597E+03 -0.16326378785E+03  0.62209571572E+03  0.10100000352E+00 0.  1.
       -3    1    3    3    0  502  0.55902219931E+03  0.21872856597E+03 -0.68501301541E+02  0.60418576895E+03  0.10100000352E+00 0. -1.
</event>
<event>
 5   0  0.2517023E-03  0.1200666E+04  0.7818609E-02  0.9112274E-01
        2   -1    0    0  501    0  0.00000000000E+00  0.00000000000E+00  0.13216603612E+04  0.13216603612E+04  0.25500000920E-02 0.  1.
       -2   -1    0    0    0  501  0.00000000000E+00  0.00000000000E+00 -0.27268713126E+03  0.27268713128E+03  0.25500000920E-02 0. -1.
    10030    2    1    2    0    0  0.00000000000E+00  0.00000000000E+00  0.10489732299E+04  0.15943474925E+04  0.12006661025E+04 0.  0.
        3    1    3    3  502    0  0.27937354302E+03 -0.52393737365E+03  0.40691198585E+03  0.71981756194E+03  0.10100000352E+00 0. -1.
       -3    1    3    3    0  502 -0.27937354302E+03  0.52393737365E+03  0.64206124410E+03  0.87452993055E+03  0.10100000352E+00 0.  1.
</event>
<event>
 5   0  0.1423024E-03  0.1215813E+04  0.7818609E-02  0.9099127E-01
       -1   -1    0    0    0  501  0.00000000000E+00  0.00000000000E+00  0.48147973777E+03  0.48147973779E+03  0.50400001928E-02 0.  1.
        1   -1    0    0  501    0  0.00000000000E+00  0.00000000000E+00 -0.76753088550E+03  0.76753088552E+03  0.50400001928E-02 0. -1.
    10030    2    1    2    0    0  0.00000000000E+00  0.00000000000E+00 -0.28605114773E+03  0.12490106233E+04  0.12158134224E+04 0.  0.
        2    1    3    3  502    0 -0.12050685043E+03  0.51298076745E+03 -0.45441816517E+03  0.69582112473E+03  0.25500000920E-02 0. -1.
       -2    1    3    3    0  502  0.12050685043E+03 -0.51298076745E+03  0.16836701744E+03  0.55318949858E+03  0.25500000920E-02 0.  1.
</event>
<event>
 5   0  0.2484507E-03  0.1200233E+04  0.7818609E-02  0.9112652E-01
        2   -1    0    0  501    0  0.00000000000E+00  0.00000000000E+00  0.14055172671E+04  0.14055172671E+04  0.25500000920E-02 0.  1.
       -2   -1    0    0    0  501  0.00000000000E+00  0.00000000000E+00 -0.25623303868E+03  0.25623303870E+03  0.25500000920E-02 0. -1.
    10030    2    1    2    0    0  0.00000000000E+00  0.00000000000E+00  0.11492842284E+04  0.16617503058E+04  0.12002332445E+04 0.  0.
        2    1    3    3  502    0 -0.36665099097E+03 -0.12216897714E+03 -0.61005791824E+02  0.39125428406E+03  0.25500000920E-02 0. -1.
       -2    1    3    3    0  502  0.36665099097E+03  0.12216897714E+03  0.12102900202E+04  0.12704960217E+04  0.25500000920E-02 0.  1.
</event>
<event>
 5   0  0.2580244E-03  0.1154833E+04  0.7818609E-02  0.9153336E-01
       -2   -1    0    0    0  501  0.00000000000E+00  0.00000000000E+00  0.18732446158E+03  0.18732446160E+03  0.25500000920E-02 0. -1.
        2   -1    0    0  501    0  0.00000000000E+00  0.00000000000E+00 -0.17798518157E+04  0.17798518157E+04  0.25500000920E-02 0.  1.
    10030    2    1    2    0    0  0.00000000000E+00  0.00000000000E+00 -0.15925273541E+04  0.19671762773E+04  0.11548329456E+04 0.  0.
        1    1    3    3  502    0 -0.24187336947E+03  0.33234222434E+03 -0.10546963781E+03  0.42435589481E+03  0.50400001928E-02 0. -1.
       -1    1    3    3    0  502  0.24187336947E+03 -0.33234222434E+03 -0.14870577163E+04  0.15428203825E+04  0.50400001928E-02 0.  1.
</event>
<event>
 5   0  0.1403154E-03  0.1068512E+04  0.7818609E-02  0.9236437E-01
       -1   -1    0    0    0  501  0.00000000000E+00  0.00000000000E+00  0.62408570843E+03  0.62408570845E+03  0.50400001928E-02 0.  1.
        1   -1    0    0  501    0  0.00000000000E+00  0.00000000000E+00 -0.45735659357E+03  0.45735659360E+03  0.50400001928E-02 0. -1.
    10030    2    1    2    0    0  0.00000000000E+00  0.00000000000E+00  0.16672911486E+03  0.10814423020E+04  0.10685124496E+04 0.  0.
        3    1    3    3  502    0 -0.32585669386E+03  0.20795231272E+03 -0.28988382821E+03  0.48317635844E+03  0.10100000352E+00 0. -1.
       -3    1    3    3    0  502  0.32585669386E+03 -0.20795231272E+03  0.45661294307E+03  0.59826594360E+03  0.10100000352E+00 0.  1.
</event>
<event>
 5   0  0.1423024E-03  0.1194826E+04  0.7818609E-02  0.9117397E-01
       -1   -1    0    0    0  501  0.00000000000E+00  0.00000000000E+00  0.50725216928E+03  0.50725216930E+03  0.50400001928E-02 0.  1.
        1   -1    0    0  501    0  0.00000000000E+00  0.00000000000E+00 -0.70359963332E+03  0.70359963334E+03  0.50400001928E-02 0. -1.
    10030    2    1    2    0    0  0.00000000000E+00  0.00000000000E+00 -0.19634746404E+03  0.12108518026E+04  0.11948262473E+04 0.  0.
        2    1    3    3  502    0  0.17058259456E+02 -0.52781502781E+02  0.50463681900E+03  0.50767626530E+03  0.25500000920E-02 0.  1.
       -2    1    3    3    0  502 -0.17058259456E+02  0.52781502781E+02 -0.70098428304E+03  0.70317553735E+03  0.25500000920E-02 0. -1.
</event>
<event>
 5   0  0.2484507E-03  0.1241373E+04  0.7818609E-02  0.9077394E-01
        2   -1    0    0  501    0  0.00000000000E+00  0.00000000000E+00  0.15923407185E+04  0.15923407186E+04  0.25500000920E-02 0. -1.
       -2   -1    0    0    0  501  0.00000000000E+00  0.00000000000E+00 -0.24194058173E+03  0.24194058174E+03  0.25500000920E-02 0.  1.
    10030    2    1    2    0    0  0.00000000000E+00  0.00000000000E+00  0.13504001368E+04  0.18342813003E+04  0.12413731748E+04 0.  0.
        2    1    3    3  502    0 -0.38186875840E+03  0.38165750843E+03  0.22273460277E+03  0.58403502092E+03  0.25500000920E-02 0.  1.
       -2    1    3    3    0  502  0.38186875840E+03 -0.38165750843E+03  0.11276655341E+04  0.12502462794E+04  0.25500000920E-02 0. -1.
</event>
<event>
 5   0  0.2579442E-03  0.1177339E+04  0.7818609E-02  0.9132926E-01
       -2   -1    0    0    0  501  0.00000000000E+00  0.00000000000E+00  0.20724049571E+03  0.20724049573E+03  0.25500000920E-02 0.  1.
        2   -1    0    0  501    0  0.00000000000E+00  0.00000000000E+00 -0.16721229691E+04  0.16721229691E+04  0.25500000920E-02 0. -1.
    10030    2    1    2    0    0  0.00000000000E+00  0.00000000000E+00 -0.14648824734E+04  0.18793634648E+04  0.11773386820E+04 0.  0.
        4    1    3    3  502    0 -0.35634573409E+03 -0.46487317658E+03 -0.63880839546E+03  0.86669898553E+03  0.12699999809E+01 0. -1.
       -4    1    3    3    0  502  0.35634573409E+03  0.46487317658E+03 -0.82607407794E+03  0.10126644793E+04  0.12699999809E+01 0.  1.
</event>
<event>
 5   0  0.2517023E-03  0.1172581E+04  0.7818609E-02  0.9137201E-01
        2   -1    0    0  501    0  0.00000000000E+00  0.00000000000E+00  0.98123518569E+03  0.98123518569E+03  0.25500000920E-02 0.  1.
       -2   -1    0    0    0  501  0.00000000000E+00  0.00000000000E+00 -0.35030975547E+03  0.35030975548E+03  0.25500000920E-02 0. -1.
    10030    2    1    2    0    0  0.00000000000E+00  0.00000000000E+00  0.63092543022E+03  0.13315449412E+04  0.11725805012E+04 0.  0.
        3    1    3    3  502    0  0.58430386820E+03  0.34441789884E+02  0.27713833723E+03  0.64761324527E+03  0.10100000352E+00 0. -1.
       -3    1    3    3    0  502 -0.58430386820E+03 -0.34441789884E+02  0.35378709299E+03  0.68393169590E+03  0.10100000352E+00 0.  1.
</event>
<event>
 5   0  0.2499890E-03  0.1180317E+04  0.7818609E-02  0.9130262E-01
       -2   -1    0    0    0  501  0.00000000000E+00  0.00000000000E+00  0.49441469481E+03  0.49441469482E+03  0.25500000920E-02 0. -1.
        2   -1    0    0  501    0  0.00000000000E+00  0.00000000000E+00 -0.70444270598E+03  0.70444270598E+03  0.25500000920E-02 0.  1.
    10030    2    1    2    0    0  0.00000000000E+00  0.00000000000E+00 -0.21002801117E+03  0.11988574008E+04  0.11803166109E+04 0.  0.
        5    1    3    3  502    0  0.13171916051E+03  0.37834978860E+03  0.33511273883E+03  0.52232282882E+03  0.46999998093E+01 0. -1.
       -5    1    3    3    0  502 -0.13171916051E+03 -0.37834978860E+03 -0.54514075000E+03  0.67653457198E+03  0.46999998093E+01 0.  1.
</event>
<event>
 5   0  0.1455076E-03  0.1201604E+04  0.7818609E-02  0.9111454E-01
       -1   -1    0    0    0  501  0.00000000000E+00  0.00000000000E+00  0.34541850233E+03  0.34541850237E+03  0.50400001928E-02 0.  1.
        1   -1    0    0  501    0  0.00000000000E+00  0.00000000000E+00 -0.10450011821E+04  0.10450011821E+04  0.50400001928E-02 0. -1.
    10030    2    1    2    0    0  0.00000000000E+00  0.00000000000E+00 -0.69958267978E+03  0.13904196845E+04  0.12016035008E+04 0.  0.
        4    1    3    3  502    0  0.15685155214E+03  0.56292893330E+03 -0.51125127198E+03  0.77644759602E+03  0.12699999809E+01 0. -1.
       -4    1    3    3    0  502 -0.15685155214E+03 -0.56292893330E+03 -0.18833140780E+03  0.61397208847E+03  0.12699999809E+01 0.  1.
</event>
<event>
 5   0  0.1403154E-03  0.1200053E+04  0.7818609E-02  0.9112810E-01
       -1   -1    0    0    0  501  0.00000000000E+00  0.00000000000E+00  0.31140046678E+03  0.31140046682E+03  0.50400001928E-02 0. -1.
        1   -1    0    0  501    0  0.00000000000E+00  0.00000000000E+00 -0.11561697073E+04  0.11561697074E+04  0.50400001928E-02 0.  1.
    10030    2    1    2    0    0  0.00000000000E+00  0.00000000000E+00 -0.84476924056E+03  0.14675701742E+04  0.12000529765E+04 0.  0.
        3    1    3    3  502    0 -0.57205849491E+03 -0.84766951165E+02 -0.22673474376E+03  0.62116423903E+03  0.10100000352E+00 0. -1.
       -3    1    3    3    0  502  0.57205849491E+03  0.84766951165E+02 -0.61803449680E+03  0.84640593515E+03  0.10100000352E+00 0.  1.
</event>
<event>
 5   0  0.1404833E-03  0.1201489E+04  0.7818609E-02  0.9111554E-01
        1   -1    0    0  501    0  0.00000000000E+00  0.00000000000E+00  0.16371722104E+04  0.16371722104E+04  0.50400001928E-02 0.  1.
       -1   -1    0    0    0  501  0.00000000000E+00  0.00000000000E+00 -0.22043752913E+03  0.22043752919E+03  0.50400001928E-02 0. -1.
    10030    2    1    2    0    0  0.00000000000E+00  0.00000000000E+00  0.14167346812E+04  0.18576097396E+04  0.12014894038E+04 0.  0.
        1    1    3    3  502    0  0.26789410369E+03  0.53636558141E+03  0.64971960891E+03  0.88407627383E+03  0.50400001928E-02 0. -1.
       -1    1    3    3    0  502 -0.26789410369E+03 -0.53636558141E+03  0.76701507230E+03  0.97353346572E+03  0.50400001928E-02 0.  1.
</event>
<event>
 5   0  0.2579442E-03  0.1206705E+04  0.7818609E-02  0.9107008E-01
       -2   -1    0    0    0  501  0.00000000000E+00  0.00000000000E+00  0.10699381163E+04  0.10699381163E+04  0.25500000920E-02 0. -1.
        2   -1    0    0  501    0  0.00000000000E+00  0.00000000000E+00 -0.34023836140E+03  0.34023836141E+03  0.25500000920E-02 0.  1.
    10030    2    1    2    0    0  0.00000000000E+00  0.00000000000E+00  0.72969975492E+03  0.14101764777E+04  0.12067045894E+04 0.  0.
        4    1    3    3  502    0  0.39074778237E+03 -0.92007692594E+02  0.89122514344E+03  0.97746258963E+03  0.12699999809E+01 0. -1.
       -4    1    3    3    0  502 -0.39074778237E+03  0.92007692594E+02 -0.16152538851E+03  0.43271388810E+03  0.12699999809E+01 0.  1.
</event>
<event>
 5   0  0.2579442E-03  0.1186681E+04  0.7818609E-02  0.9124595E-01
        2   -1    0    0  501    0  0.00000000000E+00  0.00000000000E+00  0.16039451270E+04  0.16039451270E+04  0.25500000920E-02 0.  1.
       -2   -1    0    0    0  501  0.00000000000E+00  0.00000000000E+00 -0.21949188637E+03  0.21949188639E+03  0.25500000920E-02 0. -1.
    10030    2    1    2    0    0  0.00000000000E+00  0.00000000000E+00  0.13844532406E+04  0.18234370134E+04  0.11866809876E+04 0.  0.
        4    1    3    3  502    0  0.39641170225E+03  0.36321209373E+03  0.10778639115E+04  0.12045154575E+04  0.12699999809E+01 0.  1.
       -4    1    3    3    0  502 -0.39641170225E+03 -0.36321209373E+03  0.30658932911E+03  0.61892155588E+03  0.12699999809E+01 0. -1.
</event>
<event>
 5   0  0.1469851E-03  0.1207643E+04  0.7818609E-02  0.9106193E-01
        1   -1    0    0  501    0  0.00000000000E+00  0.00000000000E+00  0.44070245724E+03  0.44070245727E+03  0.50400001928E-02 0. -1.
       -1   -1    0    0    0  501  0.00000000000E+00  0.00000000000E+00 -0.82731592964E+03  0.82731592966E+03  0.50400001928E-02 0.  1.
    10030    2    1    2    0    0  0.00000000000E+00  0.00000000000E+00 -0.38661347240E+03  0.12680183869E+04  0.12076426013E+04 0.  0.
        5    1    3    3  502    0 -0.37553477506E+03  0.23046259658E+03  0.24017542440E+03  0.50184230609E+03  0.46999998093E+01 0. -1.
       -5    1    3    3    0  502  0.37553477506E+03 -0.23046259658E+03 -0.62678889680E+03  0.76617608084E+03  0.46999998093E+01 0.  1.
</event>
<event>
 5   0  0.2484507E-03  0.1202598E+04  0.7818609E-02  0.9110585E-01
        2   -1    0    0  501    0  0.00000000000E+00  0.00000000000E+00  0.75914685895E+03  0.75914685895E+03  0.25500000920E-02 0. -1.
       -2   -1    0    0    0  501  0.00000000000E+00  0.00000000000E+00 -0.47627220459E+03  0.47627220460E+03  0.25500000920E-02 0.  1.
    10030    2    1    2    0    0  0.00000000000E+00  0.00000000000E+00  0.28287465436E+03  0.12354190636E+04  0.12025981010E+04 0.  0.
        2    1    3    3  502    0 -0.47659530773E+03 -0.12324675739E+02 -0.23498563131E+03  0.53151973803E+03  0.25500000920E-02 0.  1.
       -2    1    3    3    0  502  0.47659530773E+03  0.12324675739E+02  0.51786028567E+03  0.70389932552E+03  0.25500000920E-02 0. -1.
</event>
<event>
 5   0  0.1423024E-03  0.1198610E+04  0.7818609E-02  0.9114074E-01
       -1   -1    0    0    0  501  0.00000000000E+00  0.00000000000E+00  0.50111011574E+03  0.50111011577E+03  0.50400001928E-02 0. -1.
        1   -1    0    0  501    0  0.00000000000E+00  0.00000000000E+00 -0.71674207421E+03  0.71674207422E+03  0.50400001928E-02 0.  1.
    10030    2    1    2    0    0  0.00000000000E+00  0.00000000000E+00 -0.21563195846E+03  0.12178521900E+04  0.11986103684E+04 0.  0.
        2    1    3    3  502    0 -0.11347557984E+03  0.19292074730E+03  0.45705087128E+03  0.50891121121E+03  0.25500000920E-02 0. -1.
       -2    1    3    3    0  502  0.11347557984E+03 -0.19292074730E+03 -0.67268282974E+03  0.70894097878E+03  0.25500000920E-02 0.  1.
</event>
<event>
 5   0  0.1403154E-03  0.1272879E+04  0.7818609E-02  0.9051354E-01
        1   -1    0    0  501    0  0.00000000000E+00  0.00000000000E+00  0.21604160548E+03  0.21604160554E+03  0.50400001928E-02 0. -1.
       -1   -1    0    0    0  501  0.00000000000E+00  0.00000000000E+00 -0.18748931265E+04  0.18748931265E+04  0.50400001928E-02 0.  1.
    10030    2    1    2    0    0  0.00000000000E+00  0.00000000000E+00 -0.16588515210E+04  0.20909347320E+04  0.12728785036E+04 0.  0.
        3    1    3    3  502    0 -0.37154849506E+03  0.32094613307E+03 -0.16418979359E+03  0.51769972285E+03  0.10100000352E+00 0. -1.
       -3    1    3    3    0  502  0.37154849506E+03 -0.32094613307E+03 -0.14946617274E+04  0.15732350092E+04  0.10100000352E+00 0.  1.
</event>
<event>
 5   0  0.2499890E-03  0.1076300E+04  0.7818609E-02  0.9228605E-01
        2   -1    0    0  501    0  0.00000000000E+00  0.00000000000E+00  0.61764726981E+03  0.61764726982E+03  0.25500000920E-02 0. -1.
       -2   -1    0    0    0  501  0.00000000000E+00  0.00000000000E+00 -0.46888441618E+03  0.46888441619E+03  0.25500000920E-02 0.  1.
    10030    2    1    2    0    0  0.00000000000E+00  0.00000000000E+00  0.14876285363E+03  0.10865316860E+04  0.10762995485E+04 0.  0.
        5    1    3    3  502    0  0.41363145239E+03  0.34400599669E+03  0.86826862483E+02  0.54496981404E+03  0.46999998093E+01 0. -1.
       -5    1    3    3    0  502 -0.41363145239E+03 -0.34400599669E+03  0.61935991146E+02  0.54156187196E+03  0.46999998093E+01 0.  1.
</event>
<event>
 5   0  0.2580244E-03  0.1181600E+04  0.7818609E-02  0.9129116E-01
        2   -1    0    0  501    0  0.00000000000E+00  0.00000000000E+00  0.59263056144E+03  0.59263056145E+03  0.25500000920E-02 0. -1.
       -2   -1    0    0    0  501  0.00000000000E+00  0.00000000000E+00 -0.58897532832E+03  0.58897532833E+03  0.25500000920E-02 0.  1.
    10030    2    1    2    0    0  0.00000000000E+00  0.00000000000E+00  0.36552331198E+01  0.11816058898E+04  0.11816002361E+04 0.  0.
        1    1    3    3  502    0  0.76388386978E+02 -0.44925031262E+02  0.58594626924E+03  0.59260988396E+03  0.50400001928E-02 0. -1.
       -1    1    3    3    0  502 -0.76388386978E+02  0.44925031262E+02 -0.58229103612E+03  0.58899600582E+03  0.50400001928E-02 0.  1.
</event>
<event>
 5   0  0.1455076E-03  0.1210600E+04  0.7818609E-02  0.9103629E-01
       -1   -1    0    0    0  501  0.00000000000E+00  0.00000000000E+00  0.55768712669E+03  0.55768712671E+03  0.50400001928E-02 0. -1.
        1   -1    0    0  501    0  0.00000000000E+00  0.00000000000E+00 -0.65697802225E+03  0.65697802227E+03  0.50400001928E-02 0.  1.
    10030    2    1    2    0    0  0.00000000000E+00  0.00000000000E+00 -0.99290895560E+02  0.12146651490E+04  0.12106001579E+04 0.  0.
        4    1    3    3  502    0 -0.22139760033E+03  0.22012217850E+03  0.47066684523E+03  0.56480046300E+03  0.12699999809E+01 0. -1.
       -4    1    3    3    0  502  0.22139760033E+03 -0.22012217850E+03 -0.56995774079E+03  0.64986468599E+03  0.12699999809E+01 0.  1.
</event>
<event>
 5   0  0.1455076E-03  0.1199117E+04  0.7818609E-02  0.9113630E-01
       -1   -1    0    0    0  501  0.00000000000E+00  0.00000000000E+00  0.24091454480E+03  0.24091454485E+03  0.50400001928E-02 0. -1.
        1   -1    0    0  501    0  0.00000000000E+00  0.00000000000E+00 -0.14921077264E+04  0.14921077264E+04  0.50400001928E-02 0.  1.
    10030    2    1    2    0    0  0.00000000000E+00  0.00000000000E+00 -0.12511931816E+04  0.17330222712E+04  0.11991170981E+04 0.  0.
        4    1    3    3  502    0  0.72047485785E+02  0.16981233742E+03 -0.14500748258E+04  0.14617611581E+04  0.12699999809E+01 0.  1.
       -4    1    3    3    0  502 -0.72047485785E+02 -0.16981233742E+03  0.19888164424E+03  0.27126111307E+03  0.12699999809E+01 0. -1.
</event>
<event>
 5   0  0.1403154E-03  0.1204248E+04  0.7818609E-02  0.9109146E-01
       -1   -1    0    0    0  501  0.00000000000E+00  0.00000000000E+00  0.22335103563E+03  0.22335103569E+03  0.50400001928E-02 0.  1.
        1   -1    0    0  501    0  0.00000000000E+00  0.00000000000E+00 -0.16232457165E+04  0.16232457165E+04  0.50400001928E-02 0. -1.
    10030    2    1    2    0    0  0.00000000000E+00  0.00000000000E+00 -0.13998946809E+04  0.18465967522E+04  0.12042484991E+04 0.  0.
        3    1    3    3  502    0 -0.16336017341E+03 -0.56894102379E+03 -0.86913073788E+03  0.10515553645E+04  0.10100000352E+00 0. -1.
       -3    1    3    3    0  502  0.16336017341E+03  0.56894102379E+03 -0.53076394298E+03  0.79504138771E+03  0.10100000352E+00 0.  1.
</event>
<event>
 5   0  0.2579442E-03  0.1198293E+04  0.7818609E-02  0.9114352E-01
        2   -1    0    0  501    0  0.00000000000E+00  0.00000000000E+00  0.17630436342E+04  0.17630436342E+04  0.25500000920E-02 0. -1.
       -2   -1    0    0    0  501  0.00000000000E+00  0.00000000000E+00 -0.20361170679E+03  0.20361170681E+03  0.25500000920E-02 0.  1.
    10030    2    1    2    0    0  0.00000000000E+00  0.00000000000E+00  0.15594319274E+04  0.19666553410E+04  0.11982926580E+04 0.  0.
        4    1    3    3  502    0 -0.15035092240E+03 -0.25984416084E+03  0.16306984824E+04  0.16581023917E+04  0.12699999809E+01 0. -1.
       -4    1    3    3    0  502  0.15035092240E+03  0.25984416084E+03 -0.71266554998E+02  0.30855294935E+03  0.12699999809E+01 0.  1.
</event>
<event>
 5   0  0.1469851E-03  0.1199761E+04  0.7818609E-02  0.9113066E-01
       -1   -1    0    0    0  501  0.00000000000E+00  0.00000000000E+00  0.31670301560E+03  0.31670301565E+03  0.50400001928E-02 0. -1.
        1   -1    0    0  501    0  0.00000000000E+00  0.00000000000E+00 -0.11362580348E+04  0.11362580348E+04  0.50400001928E-02 0.  1.
    10030    2    1    2    0    0  0.00000000000E+00  0.00000000000E+00 -0.81955501917E+03  0.14529610504E+04  0.11997605530E+04 0.  0.
        5    1    3    3  502    0  0.12792432866E+03  0.57989074068E+03 -0.51251183358E+03  0.78442869309E+03  0.46999998093E+01 0. -1.
       -5    1    3    3    0  502 -0.12792432866E+03 -0.57989074068E+03 -0.30704318559E+03  0.66853235734E+03  0.46999998093E+01 0.  1.
</event>
<event>
 5   0  0.2517023E-03  0.1187399E+04  0.7818609E-02  0.9123958E-01
       -2   -1    0    0    0  501  0.00000000000E+00  0.00000000000E+00  0.10509757827E+04  0.10509757827E+04  0.25500000920E-02 0. -1.
        2   -1    0    0  501    0  0.00000000000E+00  0.00000000000E+00 -0.33538286855E+03  0.33538286856E+03  0.25500000920E-02 0.  1.
    10030    2    1    2    0    0  0.00000000000E+00  0.00000000000E+00  0.71559291410E+03  0.13863586512E+04  0.11873992972E+04 0.  0.
        3    1    3    3  502    0  0.46862298749E+03  0.22256211249E+03  0.69485085052E+03  0.86715576051E+03  0.10100000352E+00 0. -1.
       -3    1    3    3    0  502 -0.46862298749E+03 -0.22256211249E+03  0.20742063585E+02  0.51920289071E+03  0.10100000352E+00 0.  1.
</event>
<event>
 5   0  0.2517023E-03  0.1194978E+04  0.7818609E-02  0.9117264E-01
        2   -1    0    0  501    0  0.00000000000E+00  0.00000000000E+00  0.45974369200E+03  0.45974369201E+03  0.25500000920E-02 0.  1.
       -2   -1    0    0    0  501  0.00000000000E+00  0.00000000000E+00 -0.77650474494E+03  0.77650474494E+03  0.25500000920E-02 0. -1.
    10030    2    1    2    0    0  0.00000000000E+00  0.00000000000E+00 -0.31676105294E+03  0.12362484369E+04  0.11949780890E+04 0.  0.
        3    1    3    3  502    0  0.13700901357E+02  0.41431882898E+03  0.28676519932E+03  0.50406556764E+03  0.10100000352E+00 0.  1.
       -3    1    3    3    0  502 -0.13700901357E+02 -0.41431882898E+03 -0.60352625226E+03  0.73218286931E+03  0.10100000352E+00 0. -1.
</event>
<event>
 5   0  0.9678750E-04  0.1189553E+04  0.7818609E-02  0.9122050E-01
       -3   -1    0    0    0  501  0.00000000000E+00  0.00000000000E+00  0.71060642218E+03  0.71060642936E+03  0.10100000352E+00 0. -1.
        3   -1    0    0  501    0  0.00000000000E+00  0.00000000000E+00 -0.49782699180E+03  0.49782700205E+03  0.10100000352E+00 0.  1.
    10030    2    1    2    0    0  0.00000000000E+00  0.00000000000E+00  0.21277943038E+03  0.12084334314E+04  0.11895529716E+04 0.  0.
        2    1    3    3  502    0  0.32393956604E+03  0.37769243500E+03 -0.22462033774E+03  0.54593288419E+03  0.25500000920E-02 0.  1.
       -2    1    3    3    0  502 -0.32393956604E+03 -0.37769243500E+03  0.43739976812E+03  0.66250054722E+03  0.25500000920E-02 0. -1.
</event>
<event>
 5   0  0.1469851E-03  0.1202382E+04  0.7818609E-02  0.9110774E-01
       -1   -1    0    0    0  501  0.00000000000E+00  0.00000000000E+00  0.15059145685E+04  0.15059145685E+04  0.50400001928E-02 0. -1.
        1   -1    0    0  501    0  0.00000000000E+00  0.00000000000E+00 -0.24000725183E+03  0.24000725188E+03  0.50400001928E-02 0.  1.
    10030    2    1    2    0    0  0.00000000000E+00  0.00000000000E+00  0.12659073167E+04  0.17459218204E+04  0.12023816651E+04 0.  0.
        5    1    3    3  502    0  0.25079035728E+03  0.54388357386E+03  0.55745832893E+03  0.81822186705E+03  0.46999998093E+01 0.  1.
       -5    1    3    3    0  502 -0.25079035728E+03 -0.54388357386E+03  0.70844898776E+03  0.92769995337E+03  0.46999998093E+01 0. -1.
</event>
<event>
 5   0  0.2517023E-03  0.1199624E+04  0.7818609E-02  0.9113186E-01
       -2   -1    0    0    0  501  0.00000000000E+00  0.00000000000E+00  0.26820332318E+03  0.26820332319E+03  0.25500000920E-02 0.  1.
        2   -1    0    0  501    0  0.00000000000E+00  0.00000000000E+00 -0.13414231234E+04  0.13414231234E+04  0.25500000920E-02 0. -1.
    10030    2    1    2    0    0  0.00000000000E+00  0.00000000000E+00 -0.10732198002E+04  0.16096264466E+04  0.11996235068E+04 0.  0.
        3    1    3    3  502    0 -0.22044040080E+03 -0.18684731009E+03 -0.12418639903E+04  0.12750419869E+04  0.10100000352E+00 0. -1.
       -3    1    3    3    0  502  0.22044040080E+03  0.18684731009E+03  0.16864419015E+03  0.33458445969E+03  0.10100000352E+00 0.  1.
</event>
<event>
 5   0  0.9678750E-04  0.1198743E+04  0.7818609E-02  0.9113957E-01
       -3   -1    0    0    0  501  0.00000000000E+00  0.00000000000E+00  0.63430822376E+03  0.63430823180E+03  0.10100000352E+00 0.  1.
        3   -1    0    0  501    0  0.00000000000E+00  0.00000000000E+00 -0.56635926682E+03  0.56635927582E+03  0.10100000352E+00 0. -1.
    10030    2    1    2    0    0  0.00000000000E+00  0.00000000000E+00  0.67948956939E+02  0.12006675076E+04  0.11987432599E+04 0.  0.
        4    1    3    3  502    0 -0.20111372444E+01 -0.45910202244E+03 -0.35195692773E+03  0.57849287252E+03  0.12699999809E+01 0. -1.
       -4    1    3    3    0  502  0.20111372444E+01  0.45910202244E+03  0.41990588467E+03  0.62217463510E+03  0.12699999809E+01 0.  1.
</event>
<event>
 5   0  0.2484507E-03  0.1170585E+04  0.7818609E-02  0.9139000E-01
        2   -1    0    0  501    0  0.00000000000E+00  0.00000000000E+00  0.14732600543E+04  0.14732600543E+04  0.25500000920E-02 0. -1.
       -2   -1    0    0    0  501  0.00000000000E+00  0.00000000000E+00 -0.23252339623E+03  0.23252339624E+03  0.25500000920E-02 0.  1.
    10030    2    1    2    0    0  0.00000000000E+00  0.00000000000E+00  0.12407366581E+04  0.17057834505E+04  0.11705852064E+04 0.  0.
        2    1    3    3  502    0  0.16935520777E+01 -0.22356040567E+03  0.14085877345E+04  0.14262193130E+04  0.25500000920E-02 0. -1.
       -2    1    3    3    0  502 -0.16935520777E+01  0.22356040567E+03 -0.16785107644E+03  0.27956413749E+03  0.25500000920E-02 0.  1.
</event>
<event>
 5   0  0.2580244E-03  0.1203039E+04  0.7818609E-02  0.9110201E-01
        2   -1    0    0  501    0  0.00000000000E+00  0.00000000000E+00  0.14517474770E+04  0.14517474770E+04  0.25500000920E-02 0. -1.
       -2   -1    0    0    0  501  0.00000000000E+00  0.00000000000E+00 -0.24923444517E+03  0.24923444518E+03  0.25500000920E-02 0.  1.
    10030    2    1    2    0    0  0.00000000000E+00  0.00000000000E+00  0.12025130318E+04  0.17009819221E+04  0.12030386144E+04 0.  0.
        1    1    3    3  502    0 -0.51329925393E+03  0.76806852456E+02  0.17135029455E+03  0.54656778183E+03  0.50400001928E-02 0.  1.
       -1    1    3    3    0  502  0.51329925393E+03 -0.76806852456E+02  0.10311627372E+04  0.11544141403E+04  0.50400001928E-02 0. -1.
</event>
<event>
 5   0  0.1404833E-03  0.1201085E+04  0.7818609E-02  0.9111908E-01
        1   -1    0    0  501    0  0.00000000000E+00  0.00000000000E+00  0.47953143781E+03  0.47953143783E+03  0.50400001928E-02 0.  1.
       -1   -1    0    0    0  501  0.00000000000E+00  0.00000000000E+00 -0.75209064748E+03  0.75209064750E+03  0.50400001928E-02 0. -1.
    10030    2    1    2    0    0  0.00000000000E+00  0.00000000000E+00 -0.27255920967E+03  0.12316220853E+04  0.12010846924E+04 0.  0.
        1    1    3    3  502    0  0.10652231720E+03  0.25242593433E+03  0.41170924902E+03  0.49454055662E+03  0.50400001928E-02 0.  1.
       -1    1    3    3    0  502 -0.10652231720E+03 -0.25242593433E+03 -0.68426845870E+03  0.73708152872E+03  0.50400001928E-02 0. -1.
</event>
<event>
 5   0  0.2579442E-03  0.1195756E+04  0.7818609E-02  0.9116580E-01
       -2   -1    0    0    0  501  0.00000000000E+00  0.00000000000E+00  0.26848920054E+03  0.26848920055E+03  0.25500000920E-02 0.  1.
        2   -1    0    0  501    0  0.00000000000E+00  0.00000000000E+00 -0.13313684057E+04  0.13313684057E+04  0.25500000920E-02 0. -1.
    10030    2    1    2    0    0  0.00000000000E+00  0.00000000000E+00 -0.10628792052E+04  0.15998576063E+04  0.11957558930E+04 0.  0.
        4    1    3    3  502    0 -0.27992958079E+03 -0.68636665636E+01 -0.12382107925E+04  0.12694783416E+04  0.12699999809E+01 0. -1.
       -4    1    3    3    0  502  0.27992958079E+03  0.68636665636E+01  0.17533158734E+03  0.33037926469E+03  0.12699999809E+01 0.  1.
</event>
<event>
 5   0  0.2579442E-03  0.1134451E+04  0.7818609E-02  0.9172249E-01
        2   -1    0    0  501    0  0.00000000000E+00  0.00000000000E+00  0.60841647255E+03  0.60841647256E+03  0.25500000920E-02 0.  1.
       -2   -1    0    0    0  501  0.00000000000E+00  0.00000000000E+00 -0.52882320751E+03  0.52882320752E+03  0.25500000920E-02 0. -1.
    10030    2    1    2    0    0  0.00000000000E+00  0.00000000000E+00  0.79593265043E+02  0.11372396801E+04  0.11344509695E+04 0.  0.
        4    1    3    3  502    0 -0.19460982739E+03 -0.50184785378E+03 -0.13958144771E+03  0.55606550577E+03  0.12699999809E+01 0. -1.
       -4    1    3    3    0  502  0.19460982739E+03  0.50184785378E+03  0.21917471275E+03  0.58117417430E+03  0.12699999809E+01 0.  1.
</event>
<event>
 5   0  0.2499890E-03  0.1199371E+04  0.7818609E-02  0.9113407E-01
        2   -1    0    0  501    0  0.00000000000E+00  0.00000000000E+00  0.65908565652E+03  0.65908565652E+03  0.25500000920E-02 0. -1.
       -2   -1    0    0    0  501  0.00000000000E+00  0.00000000000E+00 -0.54563903649E+03  0.54563903650E+03  0.25500000920E-02 0.  1.
    10030    2    1    2    0    0  0.00000000000E+00  0.00000000000E+00  0.11344662003E+03  0.12047246930E+04  0.11993712730E+04 0.  0.
        5    1    3    3  502    0  0.45164282412E+03 -0.21549643057E+02  0.45237885827E+03  0.63962047271E+03  0.46999998093E+01 0. -1.
       -5    1    3    3    0  502 -0.45164282412E+03  0.21549643057E+02 -0.33893223825E+03  0.56510422031E+03  0.46999998093E+01 0.  1.
</event>
<event>
 5   0  0.1455076E-03  0.1193696E+04  0.7818609E-02  0.9118392E-01
       -1   -1    0    0    0  501  0.00000000000E+00  0.00000000000E+00  0.21786382858E+03  0.21786382864E+03  0.50400001928E-02 0. -1.
        1   -1    0    0  501    0  0.00000000000E+00  0.00000000000E+00 -0.16350926210E+04  0.16350926210E+04  0.50400001928E-02 0.  1.
    10030    2    1    2    0    0  0.00000000000E+00  0.00000000000E+00 -0.14172287924E+04  0.18529564496E+04  0.11936960058E+04 0.  0.
        4    1    3    3  502    0 -0.12866489704E+02  0.16633823618E+03  0.18093022124E+03  0.24611239959E+03  0.12699999809E+01 0. -1.
       -4    1    3    3    0  502  0.12866489704E+02 -0.16633823618E+03 -0.15981590137E+04  0.16068440501E+04  0.12699999809E+01 0.  1.
</event>
<event>
 5   0  0.1423024E-03  0.1201062E+04  0.7818609E-02  0.9111928E-01
        1   -1    0    0  501    0  0.00000000000E+00  0.00000000000E+00  0.14688398519E+04  0.14688398519E+04  0.50400001928E-02 0.  1.
       -1   -1    0    0    0  501  0.00000000000E+00  0.00000000000E+00 -0.24552536992E+03  0.24552536998E+03  0.50400001928E-02 0. -1.
    10030    2    1    2    0    0  0.00000000000E+00  0.00000000000E+00  0.12233144819E+04  0.17143652218E+04  0.12010619435E+04 0.  0.
        2    1    3    3  502    0 -0.47033328545E+03 -0.30491512404E+03  0.91929144065E+03  0.10767002299E+04  0.25500000920E-02 0.  1.
       -2    1    3    3    0  502  0.47033328545E+03  0.30491512404E+03  0.30402304128E+03  0.63766499191E+03  0.25500000920E-02 0. -1.
</event>
<event>
 5   0  0.2517023E-03  0.1173446E+04  0.7818609E-02  0.9136422E-01
        2   -1    0    0  501    0  0.00000000000E+00  0.00000000000E+00  0.68670734120E+03  0.68670734120E+03  0.25500000920E-02 0.  1.
       -2   -1    0    0    0  501  0.00000000000E+00  0.00000000000E+00 -0.50129634627E+03  0.50129634628E+03  0.25500000920E-02 0. -1.
    10030    2    1    2    0    0  0.00000000000E+00  0.00000000000E+00  0.18541099493E+03  0.11880036875E+04  0.11734460041E+04 0.  0.
        3    1    3    3  502    0  0.35957780171E+03 -0.37332369767E+03 -0.18561793227E+03  0.55056407956E+03  0.10100000352E+00 0. -1.
       -3    1    3    3    0  502 -0.35957780171E+03  0.37332369767E+03  0.37102892719E+03  0.63743960792E+03  0.10100000352E+00 0.  1.
</event>
<event>
 5   0  0.2579442E-03  0.1038260E+04  0.7818609E-02  0.9267550E-01
        2   -1    0    0  501    0  0.00000000000E+00  0.00000000000E+00  0.60852798808E+03  0.60852798809E+03  0.25500000920E-02 0.  1.
       -2   -1    0    0    0  501  0.00000000000E+00  0.00000000000E+00 -0.44286496817E+03  0.44286496817E+03  0.25500000920E-02 0. -1.
    10030    2    1    2    0    0  0.00000000000E+00  0.00000000000E+00  0.16566301991E+03  0.10513929563E+04  0.10382595592E+04 0.  0.
        4    1    3    3  502    0 -0.34570359169E+03  0.23325634963E+03  0.39589354824E+03  0.57502418417E+03  0.12699999809E+01 0.  1.
       -4    1    3    3    0  502  0.34570359169E+03 -0.23325634963E+03 -0.23023052832E+03  0.47636877209E+03  0.12699999809E+01 0. -1.
</event>
<event>
 5   0  0.2579442E-03  0.1203241E+04  0.7818609E-02  0.9110025E-01
        2   -1    0    0  501    0  0.00000000000E+00  0.00000000000E+00  0.54675191000E+03  0.54675191001E+03  0.25500000920E-02 0.  1.
       -2   -1    0    0    0  501  0.00000000000E+00  0.00000000000E+00 -0.66199503741E+03  0.66199503741E+03  0.25500000920E-02 0. -1.
    10030    2    1    2    0    0  0.00000000000E+00  0.00000000000E+00 -0.11524312741E+03  0.12087469474E+04  0.12032407093E+04 0.  0.
        4    1    3    3  502    0 -0.65233606646E+02 -0.36367075980E+03  0.41934967292E+03  0.55889856508E+03  0.12699999809E+01 0.  1.
       -4    1    3    3    0  502  0.65233606646E+02  0.36367075980E+03 -0.53459280032E+03  0.64984838234E+03  0.12699999809E+01 0. -1.
</event>
<event>
 5   0  0.1403154E-03  0.1182874E+04  0.7818609E-02  0.9127980E-01
       -1   -1    0    0    0  501  0.00000000000E+00  0.00000000000E+00  0.90455669284E+03  0.90455669285E+03  0.50400001928E-02 0.  1.
        1   -1    0    0  501    0  0.00000000000E+00  0.00000000000E+00 -0.38670648407E+03  0.38670648410E+03  0.50400001928E-02 0. -1.
    10030    2    1    2    0    0  0.00000000000E+00  0.00000000000E+00  0.51785020877E+03  0.12912631770E+04  0.11828743608E+04 0.  0.
        3    1    3    3  502    0 -0.13110054278E+03  0.15614999095E+03 -0.34712987022E+03  0.40257835136E+03  0.10100000352E+00 0. -1.
       -3    1    3    3    0  502  0.13110054278E+03 -0.15614999095E+03  0.86498007899E+03  0.88868482559E+03  0.10100000352E+00 0.  1.
</event>
<event>
 5   0  0.1404833E-03  0.1193680E+04  0.7818609E-02  0.9118407E-01
        1   -1    0    0  501    0  0.00000000000E+00  0.00000000000E+00  0.32836949547E+03  0.32836949551E+03  0.50400001928E-02 0.  1.
       -1   -1    0    0    0  501  0.00000000000E+00  0.00000000000E+00 -0.10848078742E+04  0.10848078742E+04  0.50400001928E-02 0. -1.
    10030    2    1    2    0    0  0.00000000000E+00  0.00000000000E+00 -0.75643837869E+03  0.14131773697E+04  0.11936797131E+04 0.  0.
        1    1    3    3  502    0  0.25141499472E+03 -0.49999682119E+03 -0.62374724400E+03  0.83801369034E+03  0.50400001928E-02 0. -1.
       -1    1    3    3    0  502 -0.25141499472E+03  0.49999682119E+03 -0.13269113469E+03  0.57516367933E+03  0.50400001928E-02 0.  1.
</event>
<event>
 5   0  0.1423024E-03  0.1219832E+04  0.7818609E-02  0.9095673E-01
        1   -1    0    0  501    0  0.00000000000E+00  0.00000000000E+00  0.46521524245E+03  0.46521524247E+03  0.50400001928E-02 0. -1.
       -1   -1    0    0    0  501  0.00000000000E+00  0.00000000000E+00 -0.79962410125E+03  0.79962410127E+03  0.50400001928E-02 0.  1.
    10030    2    1    2    0    0  0.00000000000E+00  0.00000000000E+00 -0.33440885881E+03  0.12648393437E+04  0.12198316608E+04 0.  0.
        2    1    3    3  502    0 -0.52302119468E+03  0.10296148575E+03  0.14011795386E+03  0.55116719662E+03  0.25500000920E-02 0. -1.
       -2    1    3    3    0  502  0.52302119468E+03 -0.10296148575E+03 -0.47452681266E+03  0.71367214712E+03  0.25500000920E-02 0.  1.
</event>
<event>
 5   0  0.2580244E-03  0.1204338E+04  0.7818609E-02  0.9109068E-01
        2   -1    0    0  501    0  0.00000000000E+00  0.00000000000E+00  0.29412349259E+03  0.29412349260E+03  0.25500000920E-02 0. -1.
       -2   -1    0    0    0  501  0.00000000000E+00  0.00000000000E+00 -0.12328408606E+04  0.12328408606E+04  0.25500000920E-02 0.  1.
    10030    2    1    2    0    0  0.00000000000E+00  0.00000000000E+00 -0.93871736806E+03  0.15269643532E+04  0.12043379256E+04 0.  0.
        1    1    3    3  502    0  0.18170134695E+03 -0.17540268693E+03 -0.11624488077E+04  0.11895666070E+04  0.50400001928E-02 0.  1.
       -1    1    3    3    0  502 -0.18170134695E+03  0.17540268693E+03  0.22373143960E+03  0.33739774623E+03  0.50400001928E-02 0. -1.
</event>
<event>
 5   0  0.2579442E-03  0.1213594E+04  0.7818609E-02  0.9101040E-01
       -2   -1    0    0    0  501  0.00000000000E+00  0.00000000000E+00  0.14873333706E+03  0.14873333708E+03  0.25500000920E-02 0.  1.
        2   -1    0    0  501    0  0.00000000000E+00  0.00000000000E+00 -0.24755894430E+04  0.24755894430E+04  0.25500000920E-02 0. -1.
    10030    2    1    2    0    0  0.00000000000E+00  0.00000000000E+00 -0.23268561059E+04  0.26243227801E+04  0.12135941316E+04 0.  0.
        4    1    3    3  502    0 -0.37653441792E+03  0.43764451448E+02 -0.21880396762E+04  0.22206334080E+04  0.12699999809E+01 0. -1.
       -4    1    3    3    0  502  0.37653441792E+03 -0.43764451448E+02 -0.13881642974E+03  0.40368937211E+03  0.12699999809E+01 0.  1.
</event>
<event>
 5   0  0.1469851E-03  0.1195521E+04  0.7818609E-02  0.9116786E-01
       -1   -1    0    0    0  501  0.00000000000E+00  0.00000000000E+00  0.63173140857E+03  0.63173140859E+03  0.50400001928E-02 0. -1.
        1   -1    0    0  501    0  0.00000000000E+00  0.00000000000E+00 -0.56561617171E+03  0.56561617174E+03  0.50400001928E-02 0.  1.
    10030    2    1    2    0    0  0.00000000000E+00  0.00000000000E+00  0.66115236859E+02  0.11973475803E+04  0.11955208085E+04 0.  0.
        5    1    3    3  502    0  0.42232591621E+03  0.34845533849E+03  0.27324714874E+03  0.61193659534E+03  0.46999998093E+01 0.  1.
       -5    1    3    3    0  502 -0.42232591621E+03 -0.34845533849E+03 -0.20713191188E+03  0.58541098499E+03  0.46999998093E+01 0. -1.
</event>
<event>
 5   0  0.2580244E-03  0.1181473E+04  0.7818609E-02  0.9129230E-01
        2   -1    0    0  501    0  0.00000000000E+00  0.00000000000E+00  0.10323326239E+04  0.10323326239E+04  0.25500000920E-02 0. -1.
       -2   -1    0    0    0  501  0.00000000000E+00  0.00000000000E+00 -0.33803970840E+03  0.33803970841E+03  0.25500000920E-02 0.  1.
    10030    2    1    2    0    0  0.00000000000E+00  0.00000000000E+00  0.69429291548E+03  0.13703723323E+04  0.11814726728E+04 0.  0.
        1    1    3    3  502    0  0.26215042316E+03  0.23436915390E+03  0.89771644173E+03  0.96412994686E+03  0.50400001928E-02 0. -1.
       -1    1    3    3    0  502 -0.26215042316E+03 -0.23436915390E+03 -0.20342352625E+03  0.40624238543E+03  0.50400001928E-02 0.  1.
</event>
<event>
 5   0  0.1403154E-03  0.1192221E+04  0.7818609E-02  0.9119693E-01
       -1   -1    0    0    0  501  0.00000000000E+00  0.00000000000E+00  0.28419786584E+03  0.28419786588E+03  0.50400001928E-02 0.  1.
        1   -1    0    0  501    0  0.00000000000E+00  0.00000000000E+00 -0.12503531755E+04  0.12503531755E+04  0.50400001928E-02 0. -1.
    10030    2    1    2    0    0  0.00000000000E+00  0.00000000000E+00 -0.96615530963E+03  0.15345510414E+04  0.11922209595E+04 0.  0.
        3    1    3    3  502    0  0.32799038584E+03  0.46258578391E+02 -0.11209964787E+04  0.11689100328E+04  0.10100000352E+00 0. -1.
       -3    1    3    3    0  502 -0.32799038584E+03 -0.46258578391E+02  0.15484116910E+03  0.36564100854E+03  0.10100000352E+00 0.  1.
</event>
<event>
 5   0  0.1469851E-03  0.1183999E+04  0.7818609E-02  0.9126978E-01
       -1   -1    0    0    0  501  0.00000000000E+00  0.00000000000E+00  0.21721638096E+03  0.21721638102E+03  0.50400001928E-02 0. -1.
        1   -1    0    0  501    0  0.00000000000E+00  0.00000000000E+00 -0.16134305621E+04  0.16134305621E+04  0.50400001928E-02 0.  1.
    10030    2    1    2    0    0  0.00000000000E+00  0.00000000000E+00 -0.13962141811E+04  0.18306469431E+04  0.11839992359E+04 0.  0.
        5    1    3    3  502    0  0.15444448193E+03 -0.45596449184E+03 -0.16544643729E+03  0.50906908120E+03  0.46999998093E+01 0. -1.
       -5    1    3    3    0  502 -0.15444448193E+03  0.45596449184E+03 -0.12307677438E+04  0.13215778619E+04  0.46999998093E+01 0.  1.
</event>
<event>
 5   0  0.1469851E-03  0.1202096E+04  0.7818609E-02  0.9111024E-01
        1   -1    0    0  501    0  0.00000000000E+00  0.00000000000E+00  0.57564894611E+03  0.57564894613E+03  0.50400001928E-02 0. -1.
       -1   -1    0    0    0  501  0.00000000000E+00  0.00000000000E+00 -0.62756801603E+03  0.62756801605E+03  0.50400001928E-02 0.  1.
    10030    2    1    2    0    0  0.00000000000E+00  0.00000000000E+00 -0.51919069919E+02  0.12032169622E+04  0.12020962808E+04 0.  0.
        5    1    3    3  502    0  0.94759306595E+02 -0.66444146400E+02 -0.61629121876E+03  0.62708141983E+03  0.46999998093E+01 0.  1.
       -5    1    3    3    0  502 -0.94759306595E+02  0.66444146400E+02  0.56437214884E+03  0.57613554235E+03  0.46999998093E+01 0. -1.
</event>
<event>
 5   0  0.9678750E-04  0.1216197E+04  0.7818609E-02  0.9098797E-01
        4   -1    0    0  501    0  0.00000000000E+00  0.00000000000E+00  0.11745455288E+04  0.11745462154E+04  0.12699999809E+01 0.  1.
       -4   -1    0    0    0  501  0.00000000000E+00  0.00000000000E+00 -0.31482918291E+03  0.31483174445E+03  0.12699999809E+01 0. -1.
    10030    2    1    2    0    0  0.00000000000E+00  0.00000000000E+00  0.85971634584E+03  0.14893779598E+04  0.12161967406E+04 0.  0.
        2    1    3    3  502    0  0.11101170949E+03 -0.74940162467E+02  0.11562587198E+04  0.11639904874E+04  0.25500000920E-02 0.  1.
       -2    1    3    3    0  502 -0.11101170949E+03  0.74940162467E+02 -0.29654237401E+03  0.32538747238E+03  0.25500000920E-02 0. -1.
</event>
<event>
 5   0  0.2499890E-03  0.1200381E+04  0.7818609E-02  0.9112523E-01
       -2   -1    0    0    0  501  0.00000000000E+00  0.00000000000E+00  0.47702379314E+03  0.47702379315E+03  0.25500000920E-02 0.  1.
        2   -1    0    0  501    0  0.00000000000E+00  0.00000000000E+00 -0.75515875523E+03  0.75515875523E+03  0.25500000920E-02 0. -1.
    10030    2    1    2    0    0  0.00000000000E+00  0.00000000000E+00 -0.27813496209E+03  0.12321825484E+04  0.12003810959E+04 0.  0.
        5    1    3    3  502    0 -0.40097269112E+03  0.40449588950E+03  0.55182768290E+02  0.57224404895E+03  0.46999998093E+01 0.  1.
       -5    1    3    3    0  502  0.40097269112E+03 -0.40449588950E+03 -0.33331773038E+03  0.65993849943E+03  0.46999998093E+01 0. -1.
</event>
<event>
 5   0  0.2484507E-03  0.1198121E+04  0.7818609E-02  0.9114503E-01
       -2   -1    0    0    0  501  0.00000000000E+00  0.00000000000E+00  0.38287308313E+03  0.38287308314E+03  0.25500000920E-02 0. -1.
        2   -1    0    0  501    0  0.00000000000E+00  0.00000000000E+00 -0.93731642292E+03  0.93731642292E+03  0.25500000920E-02 0.  1.
    10030    2    1    2    0    0  0.00000000000E+00  0.00000000000E+00 -0.55444333979E+03  0.13201895061E+04  0.11981205761E+04 0.  0.
        2    1    3    3  502    0 -0.40344018822E+03 -0.22030469419E+03 -0.70051582391E+03  0.83786667395E+03  0.25500000920E-02 0.  1.
       -2    1    3    3    0  502  0.40344018822E+03  0.22030469419E+03  0.14607248412E+03  0.48232283211E+03  0.25500000920E-02 0. -1.
</event>
<event>
 5   0  0.1404833E-03  0.1172473E+04  0.7818609E-02  0.9137298E-01
       -1   -1    0    0    0  501  0.00000000000E+00  0.00000000000E+00  0.80847512835E+03  0.80847512837E+03  0.50400001928E-02 0. -1.
        1   -1    0    0  501    0  0.00000000000E+00  0.00000000000E+00 -0.42508836571E+03  0.42508836574E+03  0.50400001928E-02 0.  1.
    10030    2    1    2    0    0  0.00000000000E+00  0.00000000000E+00  0.38338676264E+03  0.12335634941E+04  0.11724732339E+04 0.  0.
        1    1    3    3  502    0  0.50089086799E+03 -0.12816943391E+03  0.48241366738E+03  0.70713648748E+03  0.50400001928E-02 0. -1.
       -1    1    3    3    0  502 -0.50089086799E+03  0.12816943391E+03 -0.99026904734E+02  0.52642700663E+03  0.50400001928E-02 0.  1.
</event>
<event>
 5   0  0.2499890E-03  0.1239160E+04  0.7818609E-02  0.9079254E-01
        2   -1    0    0  501    0  0.00000000000E+00  0.00000000000E+00  0.49846170105E+03  0.49846170106E+03  0.25500000920E-02 0.  1.
       -2   -1    0    0    0  501  0.00000000000E+00  0.00000000000E+00 -0.77012764486E+03  0.77012764486E+03  0.25500000920E-02 0. -1.
    10030    2    1    2    0    0  0.00000000000E+00  0.00000000000E+00 -0.27166594381E+03  0.12685893459E+04  0.12391596118E+04 0.  0.
        5    1    3    3  502    0 -0.26437999345E+03  0.55245483595E+03 -0.23161743657E+03  0.65480672998E+03  0.46999998093E+01 0.  1.
       -5    1    3    3    0  502  0.26437999345E+03 -0.55245483595E+03 -0.40048507234E+02  0.61378261594E+03  0.46999998093E+01 0. -1.
</event>
<event>
 5   0  0.1469851E-03  0.1248346E+04  0.7818609E-02  0.9071561E-01
        1   -1    0    0  501    0  0.00000000000E+00  0.00000000000E+00  0.11137281856E+04  0.11137281856E+04  0.50400001928E-02 0. -1.
       -1   -1    0    0    0  501  0.00000000000E+00  0.00000000000E+00 -0.34980870757E+03  0.34980870761E+03  0.50400001928E-02 0.  1.
    10030    2    1    2    0    0  0.00000000000E+00  0.00000000000E+00  0.76391947800E+03  0.14635368932E+04  0.12483458130E+04 0.  0.
        5    1    3    3  502    0  0.48132609950E+03 -0.96583120737E+02 -0.69926772739E+02  0.49589813149E+03  0.46999998093E+01 0.  1.
       -5    1    3    3    0  502 -0.48132609950E+03  0.96583120737E+02  0.83384625074E+03  0.96763876170E+03  0.46999998093E+01 0. -1.
</event>
<event>
 5   0  0.2517023E-03  0.1198503E+04  0.7818609E-02  0.9114168E-01
        2   -1    0    0  501    0  0.00000000000E+00  0.00000000000E+00  0.60728015700E+03  0.60728015700E+03  0.25500000920E-02 0.  1.
       -2   -1    0    0    0  501  0.00000000000E+00  0.00000000000E+00 -0.59132891221E+03  0.59132891221E+03  0.25500000920E-02 0. -1.
    10030    2    1    2    0    0  0.00000000000E+00  0.00000000000E+00  0.15951244787E+02  0.11986090692E+04  0.11985029239E+04 0.  0.
        3    1    3    3  502    0 -0.22613487591E+02 -0.48405086197E+03 -0.34459736769E+03  0.59461244758E+03  0.10100000352E+00 0. -1.
       -3    1    3    3    0  502  0.22613487591E+02  0.48405086197E+03  0.36054861248E+03  0.60399662164E+03  0.10100000352E+00 0.  1.
</event>
<event>
 5   0  0.2499890E-03  0.1198625E+04  0.7818609E-02  0.9114061E-01
        2   -1    0    0  501    0  0.00000000000E+00  0.00000000000E+00  0.38895530221E+03  0.38895530222E+03  0.25500000920E-02 0. -1.
       -2   -1    0    0    0  501  0.00000000000E+00  0.00000000000E+00 -0.92343623057E+03  0.92343623057E+03  0.25500000920E-02 0.  1.
    10030    2    1    2    0    0  0.00000000000E+00  0.00000000000E+00 -0.53448092836E+03  0.13123915328E+04  0.11986249090E+04 0.  0.
        5    1    3    3  502    0 -0.48355764803E+03  0.83367031734E+02  0.10947253556E+03  0.50277667705E+03  0.46999998093E+01 0. -1.
       -5    1    3    3    0  502  0.48355764803E+03 -0.83367031734E+02 -0.64395346392E+03  0.80961485574E+03  0.46999998093E+01 0.  1.
</event>
<event>
 5   0  0.1455076E-03  0.1198212E+04  0.7818609E-02  0.9114423E-01
        1   -1    0    0  501    0  0.00000000000E+00  0.00000000000E+00  0.71511943560E+03  0.71511943562E+03  0.50400001928E-02 0.  1.
       -1   -1    0    0    0  501  0.00000000000E+00  0.00000000000E+00 -0.50191362320E+03  0.50191362323E+03  0.50400001928E-02 0. -1.
    10030    2    1    2    0    0  0.00000000000E+00  0.00000000000E+00  0.21320581240E+03  0.12170330588E+04  0.11982123134E+04 0.  0.
        4    1    3    3  502    0  0.34877509372E+03 -0.43092248843E+02 -0.38622513298E+03  0.52218049960E+03  0.12699999809E+01 0. -1.
       -4    1    3    3    0  502 -0.34877509372E+03  0.43092248843E+02  0.59943094538E+03  0.69485255925E+03  0.12699999809E+01 0.  1.
</event>
<event>
 5   0  0.2517023E-03  0.1213462E+04  0.7818609E-02  0.9101154E-01
       -2   -1    0    0    0  501  0.00000000000E+00  0.00000000000E+00  0.10273473506E+04  0.10273473506E+04  0.25500000920E-02 0. -1.
        2   -1    0    0  501    0  0.00000000000E+00  0.00000000000E+00 -0.35832318847E+03  0.35832318847E+03  0.25500000920E-02 0.  1.
    10030    2    1    2    0    0  0.00000000000E+00  0.00000000000E+00  0.66902416215E+03  0.13856705391E+04  0.12134617890E+04 0.  0.
        3    1    3    3  502    0 -0.54460492699E+03 -0.84037100325E+01  0.63976296779E+03  0.84021533787E+03  0.10100000352E+00 0. -1.
       -3    1    3    3    0  502  0.54460492699E+03  0.84037100325E+01  0.29261194359E+02  0.54545520122E+03  0.10100000352E+00 0.  1.
</event>
<event>
 5   0  0.2484507E-03  0.1186717E+04  0.7818609E-02  0.9124563E-01
        2   -1    0    0  501    0  0.00000000000E+00  0.00000000000E+00  0.21215116722E+04  0.21215116722E+04  0.25500000920E-02 0. -1.
       -2   -1    0    0    0  501  0.00000000000E+00  0.00000000000E+00 -0.16595438138E+03  0.16595438140E+03  0.25500000920E-02 0.  1.
    10030    2    1    2    0    0  0.00000000000E+00  0.00000000000E+00  0.19555572908E+04  0.22874660536E+04  0.11867167432E+04 0.  0.
        2    1    3    3  502    0 -0.24085308869E+03  0.10052695004E+03  0.20049309757E+04  0.20218467042E+04  0.25500000920E-02 0. -1.
       -2    1    3    3    0  502  0.24085308869E+03 -0.10052695004E+03 -0.49373684858E+02  0.26561934940E+03  0.25500000920E-02 0.  1.
</event>
<event>
 5   0  0.2579442E-03  0.1202743E+04  0.7818609E-02  0.9110459E-01
        2   -1    0    0  501    0  0.00000000000E+00  0.00000000000E+00  0.85124944572E+03  0.85124944572E+03  0.25500000920E-02 0. -1.
       -2   -1    0    0    0  501  0.00000000000E+00  0.00000000000E+00 -0.42484328338E+03  0.42484328339E+03  0.25500000920E-02 0.  1.
    10030    2    1    2    0    0  0.00000000000E+00  0.00000000000E+00  0.42640616234E+03  0.12760927291E+04  0.12027428811E+04 0.  0.
        4    1    3    3  502    0 -0.56701034758E+03  0.66580617611E+02  0.41370486951E+03  0.70504400208E+03  0.12699999809E+01 0. -1.
       -4    1    3    3    0  502  0.56701034758E+03 -0.66580617611E+02  0.12701292830E+02  0.57104872703E+03  0.12699999809E+01 0.  1.
</event>
<event>
 5   0  0.2499890E-03  0.1201447E+04  0.7818609E-02  0.9111591E-01
        2   -1    0    0  501    0  0.00000000000E+00  0.00000000000E+00  0.35720632433E+03  0.35720632434E+03  0.25500000920E-02 0. -1.
       -2   -1    0    0    0  501  0.00000000000E+00  0.00000000000E+00 -0.10102533778E+04  0.10102533778E+04  0.25500000920E-02 0.  1.
    10030    2    1    2    0    0  0.00000000000E+00  0.00000000000E+00 -0.65304705349E+03  0.13674597022E+04  0.12014472868E+04 0.  0.
        5    1    3    3  502    0 -0.13387296604E+03 -0.56335838934E+03 -0.14458543976E+03  0.59684309937E+03  0.46999998093E+01 0. -1.
       -5    1    3    3    0  502  0.13387296604E+03  0.56335838934E+03 -0.50846161373E+03  0.77061660280E+03  0.46999998093E+01 0.  1.
</event>
<event>
 5   0  0.2580244E-03  0.1202671E+04  0.7818609E-02  0.9110522E-01
       -2   -1    0    0    0  501  0.00000000000E+00  0.00000000000E+00  0.55228006332E+03  0.55228006333E+03  0.25500000920E-02 0.  1.
        2   -1    0    0  501    0  0.00000000000E+00  0.00000000000E+00 -0.65474782597E+03  0.65474782598E+03  0.25500000920E-02 0. -1.
    10030    2    1    2    0    0  0.00000000000E+00  0.00000000000E+00 -0.10246776265E+03  0.12070278893E+04  0.12026706462E+04 0.  0.
        1    1    3    3  502    0  0.77180420406E+02 -0.31619918098E+03 -0.55869947140E+03  0.64659402929E+03  0.50400001928E-02 0. -1.
       -1    1    3    3    0  502 -0.77180420406E+02  0.31619918098E+03  0.45623170876E+03  0.56043386001E+03  0.50400001928E-02 0.  1.
</event>
<event>
 5   0  0.2580244E-03  0.1203463E+04  0.7818609E-02  0.9109831E-01
        2   -1    0    0  501    0  0.00000000000E+00  0.00000000000E+00  0.19495922418E+04  0.19495922418E+04  0.25500000920E-02 0. -1.
       -2   -1    0    0    0  501  0.00000000000E+00  0.00000000000E+00 -0.18572120557E+03  0.18572120559E+03  0.25500000920E-02 0.  1.
    10030    2    1    2    0    0  0.00000000000E+00  0.00000000000E+00  0.17638710362E+04  0.21353134473E+04  0.12034627066E+04 0.  0.
        1    1    3    3  502    0 -0.44278522132E+03  0.40715000623E+03  0.91003137608E+03  0.10908652462E+04  0.50400001928E-02 0.  1.
       -1    1    3    3    0  502  0.44278522132E+03 -0.40715000623E+03  0.85383966009E+03  0.10444482012E+04  0.50400001928E-02 0. -1.
</event>
<event>
 5   0  0.1404833E-03  0.1221203E+04  0.7818609E-02  0.9094497E-01
        1   -1    0    0  501    0  0.00000000000E+00  0.00000000000E+00  0.86809963008E+03  0.86809963010E+03  0.50400001928E-02 0. -1.
       -1   -1    0    0    0  501  0.00000000000E+00  0.00000000000E+00 -0.42948350276E+03  0.42948350279E+03  0.50400001928E-02 0.  1.
    10030    2    1    2    0    0  0.00000000000E+00  0.00000000000E+00  0.43861612732E+03  0.12975831329E+04  0.12212034555E+04 0.  0.
        1    1    3    3  502    0  0.33906571343E+03  0.25300935254E+03  0.68713569772E+03  0.80692921474E+03  0.50400001928E-02 0. -1.
       -1    1    3    3    0  502 -0.33906571343E+03 -0.25300935254E+03 -0.24851957041E+03  0.49065391815E+03  0.50400001928E-02 0.  1.
</event>
<event>
 5   0  0.1423024E-03  0.1185918E+04  0.7818609E-02  0.9125273E-01
       -1   -1    0    0    0  501  0.00000000000E+00  0.00000000000E+00  0.68320935349E+03  0.68320935351E+03  0.50400001928E-02 0. -1.
        1   -1    0    0  501    0  0.00000000000E+00  0.00000000000E+00 -0.51463020159E+03  0.51463020162E+03  0.50400001928E-02 0.  1.
    10030    2    1    2    0    0  0.00000000000E+00  0.00000000000E+00  0.16857915190E+03  0.11978395551E+04  0.11859176486E+04 0.  0.
        2    1    3    3  502    0  0.30065571922E+03 -0.47349587859E+03  0.27859802441E+03  0.62626597206E+03  0.25500000920E-02 0. -1.
       -2    1    3    3    0  502 -0.30065571922E+03  0.47349587859E+03 -0.11001887252E+03  0.57157358307E+03  0.25500000920E-02 0.  1.
</event>
<event>
 5   0  0.2580244E-03  0.1224962E+04  0.7818609E-02  0.9091283E-01
       -2   -1    0    0    0  501  0.00000000000E+00  0.00000000000E+00  0.25598725860E+03  0.25598725861E+03  0.25500000920E-02 0.  1.
        2   -1    0    0  501    0  0.00000000000E+00  0.00000000000E+00 -0.14654367775E+04  0.14654367775E+04  0.25500000920E-02 0. -1.
    10030    2    1    2    0    0  0.00000000000E+00  0.00000000000E+00 -0.12094495189E+04  0.17214240362E+04  0.12249622743E+04 0.  0.
        1    1    3    3  502    0 -0.31332807674E+03 -0.26834074112E+03 -0.12409210463E+04  0.13076950257E+04  0.50400001928E-02 0. -1.
       -1    1    3    3    0  502  0.31332807674E+03  0.26834074112E+03  0.31471527385E+02  0.41372901044E+03  0.50400001928E-02 0.  1.
</event>
<event>
 5   0  0.1403154E-03  0.1166970E+04  0.7818609E-02  0.9142269E-01
       -1   -1    0    0    0  501  0.00000000000E+00  0.00000000000E+00  0.46878478880E+03  0.46878478882E+03  0.50400001928E-02 0. -1.
        1   -1    0    0  501    0  0.00000000000E+00  0.00000000000E+00 -0.72625002601E+03  0.72625002603E+03  0.50400001928E-02 0.  1.
    10030    2    1    2    0    0  0.00000000000E+00  0.00000000000E+00 -0.25746523721E+03  0.11950348148E+04  0.11669703768E+04 0.  0.
        3    1    3    3  502    0  0.12741882414E+03  0.11391836166E+03 -0.70003999067E+03  0.72060318387E+03  0.10100000352E+00 0.  1.
       -3    1    3    3    0  502 -0.12741882414E+03 -0.11391836166E+03  0.44257475346E+03  0.47443163098E+03  0.10100000352E+00 0. -1.
</event>
<event>
 5   0  0.2499890E-03  0.1202584E+04  0.7818609E-02  0.9110598E-01
       -2   -1    0    0    0  501  0.00000000000E+00  0.00000000000E+00  0.62818525917E+03  0.62818525918E+03  0.25500000920E-02 0.  1.
        2   -1    0    0  501    0  0.00000000000E+00  0.00000000000E+00 -0.57554998142E+03  0.57554998143E+03  0.25500000920E-02 0. -1.
    10030    2    1    2    0    0  0.00000000000E+00  0.00000000000E+00  0.52635277754E+02  0.12037352406E+04  0.12025839085E+04 0.  0.
        5    1    3    3  502    0 -0.17249242836E+03  0.32458358752E+03  0.50261117536E+03  0.62269432849E+03  0.46999998093E+01 0.  1.
       -5    1    3    3    0  502  0.17249242836E+03 -0.32458358752E+03 -0.44997589761E+03  0.58104091212E+03  0.46999998093E+01 0. -1.
</event>
<event>
 5   0  0.1403154E-03  0.9953898E+03  0.7818609E-02  0.9313616E-01
        1   -1    0    0  501    0  0.00000000000E+00  0.00000000000E+00  0.52406833672E+03  0.52406833674E+03  0.50400001928E-02 0.  1.
       -1   -1    0    0    0  501  0.00000000000E+00  0.00000000000E+00 -0.47264865451E+03  0.47264865454E+03  0.50400001928E-02 0. -1.
    10030    2    1    2    0    0  0.00000000000E+00  0.00000000000E+00  0.51419682208E+02  0.99671699128E+03  0.99538976135E+03 0.  0.
        3    1    3    3  502    0  0.13883284135E+03  0.16894134026E+03  0.47339036094E+03  0.52145390814E+03  0.10100000352E+00 0.  1.
       -3    1    3    3    0  502 -0.13883284135E+03 -0.16894134026E+03 -0.42197067873E+03  0.47526308314E+03  0.10100000352E+00 0. -1.
</event>
<event>
 5   0  0.2484507E-03  0.1198904E+04  0.7818609E-02  0.9113816E-01
       -2   -1    0    0    0  501  0.00000000000E+00  0.00000000000E+00  0.25050638564E+03  0.25050638565E+03  0.25500000920E-02 0.  1.
        2   -1    0    0  501    0  0.00000000000E+00  0.00000000000E+00 -0.14344651095E+04  0.14344651095E+04  0.25500000920E-02 0. -1.
    10030    2    1    2    0    0  0.00000000000E+00  0.00000000000E+00 -0.11839587238E+04  0.16849714951E+04  0.11989039493E+04 0.  0.
        2    1    3    3  502    0 -0.16024265633E+02 -0.70544164118E+02  0.24434915134E+03  0.25483281568E+03  0.25500000920E-02 0.  1.
       -2    1    3    3    0  502  0.16024265633E+02  0.70544164118E+02 -0.14283078752E+04  0.14301386794E+04  0.25500000920E-02 0. -1.
</event>
<event>
 5   0  0.1455076E-03  0.1197621E+04  0.7818609E-02  0.9114941E-01
        1   -1    0    0  501    0  0.00000000000E+00  0.00000000000E+00  0.77678611481E+03  0.77678611483E+03  0.50400001928E-02 0. -1.
       -1   -1    0    0    0  501  0.00000000000E+00  0.00000000000E+00 -0.46161248399E+03  0.46161248401E+03  0.50400001928E-02 0.  1.
    10030    2    1    2    0    0  0.00000000000E+00  0.00000000000E+00  0.31517363082E+03  0.12383985988E+04  0.11976212557E+04 0.  0.
        4    1    3    3  502    0  0.29288197289E+03 -0.44682469074E+03  0.43723990682E+03  0.69037127933E+03  0.12699999809E+01 0. -1.
       -4    1    3    3    0  502 -0.29288197289E+03  0.44682469074E+03 -0.12206627600E+03  0.54802731952E+03  0.12699999809E+01 0.  1.
</event>
<event>
 5   0  0.1469851E-03  0.1201567E+04  0.7818609E-02  0.9111486E-01
       -1   -1    0    0    0  501  0.00000000000E+00  0.00000000000E+00  0.32342736975E+03  0.32342736979E+03  0.50400001928E-02 0.  1.
        1   -1    0    0  501    0  0.00000000000E+00  0.00000000000E+00 -0.11159873800E+04  0.11159873800E+04  0.50400001928E-02 0. -1.
    10030    2    1    2    0    0  0.00000000000E+00  0.00000000000E+00 -0.79256001028E+03  0.14394147498E+04  0.12015670818E+04 0.  0.
        5    1    3    3  502    0  0.38423942263E+03  0.37116979688E+03 -0.72546906878E+03  0.90096304684E+03  0.46999998093E+01 0. -1.
       -5    1    3    3    0  502 -0.38423942263E+03 -0.37116979688E+03 -0.67090941499E+02  0.53845170298E+03  0.46999998093E+01 0.  1.
</event>
<event>
 5   0  0.1404833E-03  0.1201941E+04  0.7818609E-02  0.9111159E-01
       -1   -1    0    0    0  501  0.00000000000E+00  0.00000000000E+00  0.52836708173E+03  0.52836708175E+03  0.50400001928E-02 0. -1.
        1   -1    0    0  501    0  0.00000000000E+00  0.00000000000E+00 -0.68355032907E+03  0.68355032908E+03  0.50400001928E-02 0.  1.
    10030    2    1    2    0    0  0.00000000000E+00  0.00000000000E+00 -0.15518324734E+03  0.12119174108E+04  0.12019409180E+04 0.  0.
        1    1    3    3  502    0  0.25618516795E+03  0.52320985025E+03  0.71234681455E+02  0.58690183808E+03  0.50400001928E-02 0. -1.
       -1    1    3    3    0  502 -0.25618516795E+03 -0.52320985025E+03 -0.22641792879E+03  0.62501557275E+03  0.50400001928E-02 0.  1.
</event>
<event>
 5   0  0.1423024E-03  0.1165110E+04  0.7818609E-02  0.9143956E-01
        1   -1    0    0  501    0  0.00000000000E+00  0.00000000000E+00  0.96356336566E+03  0.96356336567E+03  0.50400001928E-02 0.  1.
       -1   -1    0    0    0  501  0.00000000000E+00  0.00000000000E+00 -0.35220345480E+03  0.35220345484E+03  0.50400001928E-02 0. -1.
    10030    2    1    2    0    0  0.00000000000E+00  0.00000000000E+00  0.61135991085E+03  0.13157668205E+04  0.11651100314E+04 0.  0.
        2    1    3    3  502    0  0.14224930413E+03 -0.51463026680E+03  0.42546183715E+02  0.53562053152E+03  0.25500000920E-02 0. -1.
       -2    1    3    3    0  502 -0.14224930413E+03  0.51463026680E+03  0.56881372714E+03  0.78014628899E+03  0.25500000920E-02 0.  1.
</event>
<event>
 5   0  0.2517023E-03  0.1203837E+04  0.7818609E-02  0.9109505E-01
       -2   -1    0    0    0  501  0.00000000000E+00  0.00000000000E+00  0.78169417021E+03  0.78169417021E+03  0.25500000920E-02 0.  1.
        2   -1    0    0  501    0  0.00000000000E+00  0.00000000000E+00 -0.46348800493E+03  0.46348800494E+03  0.25500000920E-02 0. -1.
    10030    2    1    2    0    0  0.00000000000E+00  0.00000000000E+00  0.31820616527E+03  0.12451821752E+04  0.12038369847E+04 0.  0.
        3    1    3    3  502    0  0.55793027732E+03  0.13019220945E+03  0.35002205333E+03  0.67138040913E+03  0.10100000352E+00 0. -1.
       -3    1    3    3    0  502 -0.55793027732E+03 -0.13019220945E+03 -0.31815888057E+02  0.57380176602E+03  0.10100000352E+00 0.  1.
</event>
<event>
 5   0  0.2580244E-03  0.1198146E+04  0.7818609E-02  0.9114481E-01
       -2   -1    0    0    0  501  0.00000000000E+00  0.00000000000E+00  0.49742807851E+03  0.49742807851E+03  0.25500000920E-02 0.  1.
        2   -1    0    0  501    0  0.00000000000E+00  0.00000000000E+00 -0.72148787540E+03  0.72148787540E+03  0.25500000920E-02 0. -1.
    10030    2    1    2    0    0  0.00000000000E+00  0.00000000000E+00 -0.22405979689E+03  0.12189159539E+04  0.11981457800E+04 0.  0.
        1    1    3    3  502    0  0.15844052882E+03 -0.48856632637E+03 -0.42573866918E+03  0.66712357993E+03  0.50400001928E-02 0.  1.
       -1    1    3    3    0  502 -0.15844052882E+03  0.48856632637E+03  0.20167887229E+03  0.55179237399E+03  0.50400001928E-02 0. -1.
</event>
<event>
 5   0  0.1423024E-03  0.1170746E+04  0.7818609E-02  0.9138855E-01
        1   -1    0    0  501    0  0.00000000000E+00  0.00000000000E+00  0.26722966256E+03  0.26722966261E+03  0.50400001928E-02 0.  1.
       -1   -1    0    0    0  501  0.00000000000E+00  0.00000000000E+00 -0.12822740413E+04  0.12822740413E+04  0.50400001928E-02 0. -1.
    10030    2    1    2    0    0  0.00000000000E+00  0.00000000000E+00 -0.10150443787E+04  0.15495037039E+04  0.11707461884E+04 0.  0.
        2    1    3    3  502    0 -0.29204467579E+03 -0.33857516889E+03 -0.10075570829E+04  0.11023132554E+04  0.25500000920E-02 0. -1.
       -2    1    3    3    0  502  0.29204467579E+03  0.33857516889E+03 -0.74872958107E+01  0.44719044852E+03  0.25500000920E-02 0.  1.
</event>
<event>
 5   0  0.1455076E-03  0.1200692E+04  0.7818609E-02  0.9112251E-01
        1   -1    0    0  501    0  0.00000000000E+00  0.00000000000E+00  0.10080555486E+04  0.10080555487E+04  0.50400001928E-02 0. -1.
       -1   -1    0    0    0  501  0.00000000000E+00  0.00000000000E+00 -0.35753539006E+03  0.35753539009E+03  0.50400001928E-02 0.  1.
    10030    2    1    2    0    0  0.00000000000E+00  0.00000000000E+00  0.65052015858E+03  0.13655909388E+04  0.12006923566E+04 0.  0.
        4    1    3    3  502    0 -0.11789735694E+02  0.58470321815E+03  0.47952358893E+03  0.75628125484E+03  0.12699999809E+01 0.  1.
       -4    1    3    3    0  502  0.11789735694E+02 -0.58470321815E+03  0.17099656966E+03  0.60930968392E+03  0.12699999809E+01 0. -1.
</event>
<event>
 5   0  0.1403154E-03  0.1195589E+04  0.7818609E-02  0.9116726E-01
        1   -1    0    0  501    0  0.00000000000E+00  0.00000000000E+00  0.66921434052E+03  0.66921434054E+03  0.50400001928E-02 0.  1.
       -1   -1    0    0    0  501  0.00000000000E+00  0.00000000000E+00 -0.53399682657E+03  0.53399682659E+03  0.50400001928E-02 0. -1.
    10030    2    1    2    0    0  0.00000000000E+00  0.00000000000E+00  0.13521751395E+03  0.12032111671E+04  0.11955891170E+04 0.  0.
        3    1    3    3  502    0  0.45225182434E+03  0.37548140389E+02  0.45921252219E+03  0.64561422397E+03  0.10100000352E+00 0. -1.
       -3    1    3    3    0  502 -0.45225182434E+03 -0.37548140389E+02 -0.32399500823E+03  0.55759694316E+03  0.10100000352E+00 0.  1.
</event>
<event>
 5   0  0.1455076E-03  0.1016753E+04  0.7818609E-02  0.9290359E-01
       -1   -1    0    0    0  501  0.00000000000E+00  0.00000000000E+00  0.30378390756E+03  0.30378390760E+03  0.50400001928E-02 0. -1.
        1   -1    0    0  501    0  0.00000000000E+00  0.00000000000E+00 -0.85075763121E+03  0.85075763122E+03  0.50400001928E-02 0.  1.
    10030    2    1    2    0    0  0.00000000000E+00  0.00000000000E+00 -0.54697372365E+03  0.11545415388E+04  0.10167526299E+04 0.  0.
        4    1    3    3  502    0 -0.24672982118E+03  0.43940324432E+03 -0.19736434168E+03  0.54120708795E+03  0.12699999809E+01 0.  1.
       -4    1    3    3    0  502  0.24672982118E+03 -0.43940324432E+03 -0.34960938196E+03  0.61333445088E+03  0.12699999809E+01 0. -1.
</event>
<event>
 5   0  0.2484507E-03  0.1177151E+04  0.7818609E-02  0.9133095E-01
       -2   -1    0    0    0  501  0.00000000000E+00  0.00000000000E+00  0.29981801937E+03  0.29981801938E+03  0.25500000920E-02 0.  1.
        2   -1    0    0  501    0  0.00000000000E+00  0.00000000000E+00 -0.11554380667E+04  0.11554380667E+04  0.25500000920E-02 0. -1.
    10030    2    1    2    0    0  0.00000000000E+00  0.00000000000E+00 -0.85562004735E+03  0.14552560861E+04  0.11771510569E+04 0.  0.
        2    1    3    3  502    0 -0.55961099849E+02 -0.43419805441E+03  0.58528613272E+02  0.44168449569E+03  0.25500000920E-02 0.  1.
       -2    1    3    3    0  502  0.55961099849E+02  0.43419805441E+03 -0.91414866062E+03  0.10135715904E+04  0.25500000920E-02 0. -1.
</event>
<event>
 5   0  0.2580244E-03  0.1192570E+04  0.7818609E-02  0.9119385E-01
       -2   -1    0    0    0  501  0.00000000000E+00  0.00000000000E+00  0.34883562175E+03  0.34883562176E+03  0.25500000920E-02 0.  1.
        2   -1    0    0  501    0  0.00000000000E+00  0.00000000000E+00 -0.10192652623E+04  0.10192652623E+04  0.25500000920E-02 0. -1.
    10030    2    1    2    0    0  0.00000000000E+00  0.00000000000E+00 -0.67042964058E+03  0.13681008841E+04  0.11925703862E+04 0.  0.
        1    1    3    3  502    0  0.39041036452E+03  0.37951068781E+03 -0.56310596202E+02  0.54737509823E+03  0.50400001928E-02 0.  1.
       -1    1    3    3    0  502 -0.39041036452E+03 -0.37951068781E+03 -0.61411904438E+03  0.82072578587E+03  0.50400001928E-02 0. -1.
</event>
<event>
 5   0  0.9678750E-04  0.1179098E+04  0.7818609E-02  0.9131351E-01
       -3   -1    0    0    0  501  0.00000000000E+00  0.00000000000E+00  0.35873287726E+03  0.35873289148E+03  0.10100000352E+00 0.  1.
        3   -1    0    0  501    0  0.00000000000E+00  0.00000000000E+00 -0.96887735196E+03  0.96887735722E+03  0.10100000352E+00 0. -1.
    10030    2    1    2    0    0  0.00000000000E+00  0.00000000000E+00 -0.61014447470E+03  0.13276102487E+04  0.11790982539E+04 0.  0.
        5    1    3    3  502    0  0.19244812822E+03 -0.32071583237E+03 -0.81815541601E+03  0.89960841589E+03  0.46999998093E+01 0. -1.
       -5    1    3    3    0  502 -0.19244812822E+03  0.32071583237E+03  0.20801094131E+03  0.42800183281E+03  0.46999998093E+01 0.  1.
</event>
<event>
 5   0  0.1404833E-03  0.1196111E+04  0.7818609E-02  0.9116267E-01
        1   -1    0    0  501    0  0.00000000000E+00  0.00000000000E+00  0.16496743187E+04  0.16496743187E+04  0.50400001928E-02 0. -1.
       -1   -1    0    0    0  501  0.00000000000E+00  0.00000000000E+00 -0.21681288248E+03  0.21681288254E+03  0.50400001928E-02 0.  1.
    10030    2    1    2    0    0  0.00000000000E+00  0.00000000000E+00  0.14328614362E+04  0.18664872012E+04  0.11961114400E+04 0.  0.
        1    1    3    3  502    0  0.43383900358E+03 -0.36650176866E+03  0.42394982811E+03  0.70871241293E+03  0.50400001928E-02 0.  1.
       -1    1    3    3    0  502 -0.43383900358E+03  0.36650176866E+03  0.10089116081E+04  0.11577747883E+04  0.50400001928E-02 0. -1.
</event>
<event>
 5   0  0.2484507E-03  0.1199170E+04  0.7818609E-02  0.9113583E-01
       -2   -1    0    0    0  501  0.00000000000E+00  0.00000000000E+00  0.23849647199E+03  0.23849647200E+03  0.25500000920E-02 0.  1.
        2   -1    0    0  501    0  0.00000000000E+00  0.00000000000E+00 -0.15073691435E+04  0.15073691435E+04  0.25500000920E-02 0. -1.
    10030    2    1    2    0    0  0.00000000000E+00  0.00000000000E+00 -0.12688726715E+04  0.17458656155E+04  0.11991700842E+04 0.  0.
        2    1    3    3  502    0  0.46633641368E+03 -0.37308025523E+03 -0.55679883543E+03  0.81650687120E+03  0.25500000920E-02 0.  1.
       -2    1    3    3    0  502 -0.46633641368E+03  0.37308025523E+03 -0.71207383606E+03  0.92935874428E+03  0.25500000920E-02 0. -1.
</event>
<event>
 5   0  0.1403154E-03  0.1267561E+04  0.7818609E-02  0.9055693E-01
       -1   -1    0    0    0  501  0.00000000000E+00  0.00000000000E+00  0.43273864297E+03  0.43273864300E+03  0.50400001928E-02 0. -1.
        1   -1    0    0  501    0  0.00000000000E+00  0.00000000000E+00 -0.92822188138E+03  0.92822188140E+03  0.50400001928E-02 0.  1.
    10030    2    1    2    0    0  0.00000000000E+00  0.00000000000E+00 -0.49548323841E+03  0.13609605244E+04  0.12675606137E+04 0.  0.
        3    1    3    3  502    0  0.16159382155E+03 -0.58678848047E+02  0.40722518413E+03  0.44202729685E+03  0.10100000352E+00 0. -1.
       -3    1    3    3    0  502 -0.16159382155E+03  0.58678848047E+02 -0.90270842254E+03  0.91893322755E+03  0.10100000352E+00 0.  1.
</event>
<event>
 5   0  0.2580244E-03  0.1206116E+04  0.7818609E-02  0.9107520E-01
        2   -1    0    0  501    0  0.00000000000E+00  0.00000000000E+00  0.81920967004E+03  0.81920967004E+03  0.25500000920E-02 0. -1.
       -2   -1    0    0    0  501  0.00000000000E+00  0.00000000000E+00 -0.44393883660E+03  0.44393883661E+03  0.25500000920E-02 0.  1.
    10030    2    1    2    0    0  0.00000000000E+00  0.00000000000E+00  0.37527083344E+03  0.12631485067E+04  0.12061160605E+04 0.  0.
        1    1    3    3  502    0 -0.40794384279E+03 -0.41884598997E+03  0.32903217775E+02  0.58560461401E+03  0.50400001928E-02 0.  1.
       -1    1    3    3    0  502  0.40794384279E+03  0.41884598997E+03  0.34236761566E+03  0.67754389265E+03  0.50400001928E-02 0. -1.
</event>
<event>
 5   0  0.1403154E-03  0.1066554E+04  0.7818609E-02  0.9238418E-01
        1   -1    0    0  501    0  0.00000000000E+00  0.00000000000E+00  0.91603304934E+03  0.91603304935E+03  0.50400001928E-02 0.  1.
       -1   -1    0    0    0  501  0.00000000000E+00  0.00000000000E+00 -0.31045198018E+03  0.31045198022E+03  0.50400001928E-02 0. -1.
    10030    2    1    2    0    0  0.00000000000E+00  0.00000000000E+00  0.60558106916E+03  0.12264850296E+04  0.10665538413E+04 0.  0.
        3    1    3    3  502    0  0.22248279895E+03  0.10982887286E+03 -0.24003435838E+03  0.34522091557E+03  0.10100000352E+00 0. -1.
       -3    1    3    3    0  502 -0.22248279895E+03 -0.10982887286E+03  0.84561542754E+03  0.88126411400E+03  0.10100000352E+00 0.  1.
</event>
<event>
 5   0  0.2499890E-03  0.1173162E+04  0.7818609E-02  0.9136677E-01
       -2   -1    0    0    0  501  0.00000000000E+00  0.00000000000E+00  0.20282157177E+03  0.20282157179E+03  0.25500000920E-02 0. -1.
        2   -1    0    0  501    0  0.00000000000E+00  0.00000000000E+00 -0.16964542876E+04  0.16964542876E+04  0.25500000920E-02 0.  1.
    10030    2    1    2    0    0  0.00000000000E+00  0.00000000000E+00 -0.14936327158E+04  0.18992758593E+04  0.11731624356E+04 0.  0.
        5    1    3    3  502    0  0.31310122092E+03 -0.17231393776E+03 -0.14998064224E+04  0.15418060392E+04  0.46999998093E+01 0.  1.
       -5    1    3    3    0  502 -0.31310122092E+03  0.17231393776E+03  0.61737066226E+01  0.35746982018E+03  0.46999998093E+01 0. -1.
</event>
<event>
 5   0  0.2580244E-03  0.1196610E+04  0.7818609E-02  0.9115829E-01
       -2   -1    0    0    0  501  0.00000000000E+00  0.00000000000E+00  0.29314223852E+03  0.29314223853E+03  0.25500000920E-02 0.  1.
        2   -1    0    0  501    0  0.00000000000E+00  0.00000000000E+00 -0.12211435142E+04  0.12211435142E+04  0.25500000920E-02 0. -1.
    10030    2    1    2    0    0  0.00000000000E+00  0.00000000000E+00 -0.92800127573E+03  0.15142857528E+04  0.11966097832E+04 0.  0.
        1    1    3    3  502    0 -0.33383904136E+03  0.49614461352E+03 -0.48803677199E+03  0.77187296487E+03  0.50400001928E-02 0.  1.
       -1    1    3    3    0  502  0.33383904136E+03 -0.49614461352E+03 -0.43996450374E+03  0.74241278790E+03  0.50400001928E-02 0. -1.
</event>
<event>
 5   0  0.1423024E-03  0.1143417E+04  0.7818609E-02  0.9163878E-01
        1   -1    0    0  501    0  0.00000000000E+00  0.00000000000E+00  0.94587012304E+03  0.94587012305E+03  0.50400001928E-02 0.  1.
       -1   -1    0    0    0  501  0.00000000000E+00  0.00000000000E+00 -0.34555534286E+03  0.34555534290E+03  0.50400001928E-02 0. -1.
    10030    2    1    2    0    0  0.00000000000E+00  0.00000000000E+00  0.60031478018E+03  0.12914254660E+04  0.11434167651E+04 0.  0.
        2    1    3    3  502    0  0.33282286907E+03  0.91340085454E+02 -0.21462193053E+03  0.40641929883E+03  0.25500000920E-02 0. -1.
       -2    1    3    3    0  502 -0.33282286907E+03 -0.91340085454E+02  0.81493671070E+03  0.88500616712E+03  0.25500000920E-02 0.  1.
</event>
<event>
 5   0  0.2484507E-03  0.1208270E+04  0.7818609E-02  0.9105649E-01
       -2   -1    0    0    0  501  0.00000000000E+00  0.00000000000E+00  0.50214497552E+03  0.50214497552E+03  0.25500000920E-02 0.  1.
        2   -1    0    0  501    0  0.00000000000E+00  0.00000000000E+00 -0.72683977190E+03  0.72683977190E+03  0.25500000920E-02 0. -1.
    10030    2    1    2    0    0  0.00000000000E+00  0.00000000000E+00 -0.22469479638E+03  0.12289847474E+04  0.12082697372E+04 0.  0.
        2    1    3    3  502    0  0.52522216572E+02 -0.45904150147E+03  0.28355735127E+03  0.54210926461E+03  0.25500000920E-02 0.  1.
       -2    1    3    3    0  502 -0.52522216572E+02  0.45904150147E+03 -0.50825214765E+03  0.68687548282E+03  0.25500000920E-02 0. -1.
</event>
<event>
 5   0  0.2580244E-03  0.1216863E+04  0.7818609E-02  0.9098223E-01
       -2   -1    0    0    0  501  0.00000000000E+00  0.00000000000E+00  0.48613868096E+03  0.48613868097E+03  0.25500000920E-02 0. -1.
        2   -1    0    0  501    0  0.00000000000E+00  0.00000000000E+00 -0.76148820404E+03  0.76148820404E+03  0.25500000920E-02 0.  1.
    10030    2    1    2    0    0  0.00000000000E+00  0.00000000000E+00 -0.27534952308E+03  0.12476268850E+04  0.12168629686E+04 0.  0.
        1    1    3    3  502    0 -0.55342891665E+03  0.16159224176E+03 -0.33699444345E+03  0.66780301985E+03  0.50400001928E-02 0. -1.
       -1    1    3    3    0  502  0.55342891665E+03 -0.16159224176E+03  0.61644920370E+02  0.57982386516E+03  0.50400001928E-02 0.  1.
</event>
<event>
 5   0  0.1423024E-03  0.1197837E+04  0.7818609E-02  0.9114752E-01
        1   -1    0    0  501    0  0.00000000000E+00  0.00000000000E+00  0.64252477892E+03  0.64252477894E+03  0.50400001928E-02 0. -1.
       -1   -1    0    0    0  501  0.00000000000E+00  0.00000000000E+00 -0.55827131965E+03  0.55827131967E+03  0.50400001928E-02 0.  1.
    10030    2    1    2    0    0  0.00000000000E+00  0.00000000000E+00  0.84253459276E+02  0.12007960986E+04  0.11978366437E+04 0.  0.
        2    1    3    3  502    0 -0.27748403330E+03  0.14080249710E+02 -0.48975695581E+03  0.56307860724E+03  0.25500000920E-02 0.  1.
       -2    1    3    3    0  502  0.27748403330E+03 -0.14080249710E+02  0.57401041508E+03  0.63771749137E+03  0.25500000920E-02 0. -1.
</event>
<event>
 5   0  0.1455076E-03  0.1199027E+04  0.7818609E-02  0.9113709E-01
        1   -1    0    0  501    0  0.00000000000E+00  0.00000000000E+00  0.11408424281E+04  0.11408424281E+04  0.50400001928E-02 0.  1.
       -1   -1    0    0    0  501  0.00000000000E+00  0.00000000000E+00 -0.31504470179E+03  0.31504470183E+03  0.50400001928E-02 0. -1.
    10030    2    1    2    0    0  0.00000000000E+00  0.00000000000E+00  0.82579772630E+03  0.14558871299E+04  0.11990268764E+04 0.  0.
        4    1    3    3  502    0  0.45785165706E+03  0.98605107990E+02 -0.41525384736E+02  0.47018834277E+03  0.12699999809E+01 0. -1.
       -4    1    3    3    0  502 -0.45785165706E+03 -0.98605107990E+02  0.86732311104E+03  0.98569878717E+03  0.12699999809E+01 0.  1.
</event>
<event>
 5   0  0.2499890E-03  0.1207025E+04  0.7818609E-02  0.9106730E-01
        2   -1    0    0  501    0  0.00000000000E+00  0.00000000000E+00  0.57884780898E+03  0.57884780898E+03  0.25500000920E-02 0.  1.
       -2   -1    0    0    0  501  0.00000000000E+00  0.00000000000E+00 -0.62922792943E+03  0.62922792944E+03  0.25500000920E-02 0. -1.
    10030    2    1    2    0    0  0.00000000000E+00  0.00000000000E+00 -0.50380120455E+02  0.12080757384E+04  0.12070247857E+04 0.  0.
        5    1    3    3  502    0 -0.52381158861E+03 -0.19498679671E+03 -0.25299906394E+03  0.61353813867E+03  0.46999998093E+01 0.  1.
       -5    1    3    3    0  502  0.52381158861E+03  0.19498679671E+03  0.20261894349E+03  0.59453759975E+03  0.46999998093E+01 0. -1.
</event>
<event>
 5   0  0.1403154E-03  0.1204569E+04  0.7818609E-02  0.9108867E-01
       -1   -1    0    0    0  501  0.00000000000E+00  0.00000000000E+00  0.60556726782E+03  0.60556726784E+03  0.50400001928E-02 0.  1.
        1   -1    0    0  501    0  0.00000000000E+00  0.00000000000E+00 -0.59901949235E+03  0.59901949238E+03  0.50400001928E-02 0. -1.
    10030    2    1    2    0    0  0.00000000000E+00  0.00000000000E+00  0.65477754655E+01  0.12045867602E+04  0.12045689642E+04 0.  0.
        3    1    3    3  502    0 -0.45402031697E+03  0.18612416595E+03  0.35252098899E+03  0.60419178351E+03  0.10100000352E+00 0.  1.
       -3    1    3    3    0  502  0.45402031697E+03 -0.18612416595E+03 -0.34597321353E+03  0.60039497671E+03  0.10100000352E+00 0. -1.
</event>
<event>
 5   0  0.1403154E-03  0.1204215E+04  0.7818609E-02  0.9109175E-01
        1   -1    0    0  501    0  0.00000000000E+00  0.00000000000E+00  0.61669427023E+03  0.61669427025E+03  0.50400001928E-02 0. -1.
       -1   -1    0    0    0  501  0.00000000000E+00  0.00000000000E+00 -0.58786558991E+03  0.58786558993E+03  0.50400001928E-02 0.  1.
    10030    2    1    2    0    0  0.00000000000E+00  0.00000000000E+00  0.28828680316E+02  0.12045598602E+04  0.12042148330E+04 0.  0.
        3    1    3    3  502    0  0.23928754457E+03 -0.30364442436E+03  0.47614692694E+03  0.61333055661E+03  0.10100000352E+00 0. -1.
       -3    1    3    3    0  502 -0.23928754457E+03  0.30364442436E+03 -0.44731824663E+03  0.59122930357E+03  0.10100000352E+00 0.  1.
</event>
<event>
 5   0  0.2517023E-03  0.1202657E+04  0.7818609E-02  0.9110534E-01
        2   -1    0    0  501    0  0.00000000000E+00  0.00000000000E+00  0.64088449259E+03  0.64088449260E+03  0.25500000920E-02 0.  1.
       -2   -1    0    0    0  501  0.00000000000E+00  0.00000000000E+00 -0.56421355927E+03  0.56421355928E+03  0.25500000920E-02 0. -1.
    10030    2    1    2    0    0  0.00000000000E+00  0.00000000000E+00  0.76670933316E+02  0.12050980519E+04  0.12026565938E+04 0.  0.
        3    1    3    3  502    0  0.58258185319E+03  0.14263299948E+03 -0.47625699137E+01  0.59980703604E+03  0.10100000352E+00 0. -1.
       -3    1    3    3    0  502 -0.58258185319E+03 -0.14263299948E+03  0.81433503230E+02  0.60529101584E+03  0.10100000352E+00 0.  1.
</event>
<event>
 5   0  0.2499890E-03  0.1204500E+04  0.7818609E-02  0.9108926E-01
       -2   -1    0    0    0  501  0.00000000000E+00  0.00000000000E+00  0.19640475361E+03  0.19640475363E+03  0.25500000920E-02 0. -1.
        2   -1    0    0  501    0  0.00000000000E+00  0.00000000000E+00 -0.18467238142E+04  0.18467238142E+04  0.25500000920E-02 0.  1.
    10030    2    1    2    0    0  0.00000000000E+00  0.00000000000E+00 -0.16503190605E+04  0.20431285678E+04  0.12045004537E+04 0.  0.
        5    1    3    3  502    0 -0.11850855100E+03 -0.28697629887E+03 -0.17004675674E+04  0.17285866222E+04  0.46999998093E+01 0.  1.
       -5    1    3    3    0  502  0.11850855100E+03  0.28697629887E+03  0.50148506860E+02  0.31454194555E+03  0.46999998093E+01 0. -1.
</event>
<event>
 5   0  0.1469851E-03  0.1175330E+04  0.7818609E-02  0.9134728E-01
        1   -1    0    0  501    0  0.00000000000E+00  0.00000000000E+00  0.13023179699E+04  0.13023179699E+04  0.50400001928E-02 0. -1.
       -1   -1    0    0    0  501  0.00000000000E+00  0.00000000000E+00 -0.26518121615E+03  0.26518121619E+03  0.50400001928E-02 0.  1.
    10030    2    1    2    0    0  0.00000000000E+00  0.00000000000E+00  0.10371367538E+04  0.15674991861E+04  0.11753301887E+04 0.  0.
        5    1    3    3  502    0  0.57133358754E+03 -0.13704495009E+03  0.50367026396E+03  0.77389224792E+03  0.46999998093E+01 0.  1.
       -5    1    3    3    0  502 -0.57133358754E+03  0.13704495009E+03  0.53346648980E+03  0.79360693819E+03  0.46999998093E+01 0. -1.
</event>
<event>
 5   0  0.1423024E-03  0.1188089E+04  0.7818609E-02  0.9123347E-01
       -1   -1    0    0    0  501  0.00000000000E+00  0.00000000000E+00  0.33967132575E+03  0.33967132578E+03  0.50400001928E-02 0. -1.
        1   -1    0    0  501    0  0.00000000000E+00  0.00000000000E+00 -0.10389120519E+04  0.10389120519E+04  0.50400001928E-02 0.  1.
    10030    2    1    2    0    0  0.00000000000E+00  0.00000000000E+00 -0.69924072618E+03  0.13785833777E+04  0.11880886062E+04 0.  0.
        2    1    3    3  502    0 -0.19541442572E+03 -0.41865458326E+03 -0.78289432932E+03  0.90905554767E+03  0.25500000920E-02 0.  1.
       -2    1    3    3    0  502  0.19541442572E+03  0.41865458326E+03  0.83653603136E+02  0.46952783005E+03  0.25500000920E-02 0. -1.
</event>
<event>
 5   0  0.2579442E-03  0.1198871E+04  0.7818609E-02  0.9113846E-01
       -2   -1    0    0    0  501  0.00000000000E+00  0.00000000000E+00  0.19746538046E+03  0.19746538048E+03  0.25500000920E-02 0.  1.
        2   -1    0    0  501    0  0.00000000000E+00  0.00000000000E+00 -0.18196745813E+04  0.18196745813E+04  0.25500000920E-02 0. -1.
    10030    2    1    2    0    0  0.00000000000E+00  0.00000000000E+00 -0.16222092008E+04  0.20171399618E+04  0.11988706912E+04 0.  0.
        4    1    3    3  502    0  0.25656359457E+02 -0.43013173679E+03 -0.10997139619E+03  0.44470988369E+03  0.12699999809E+01 0.  1.
       -4    1    3    3    0  502 -0.25656359457E+02  0.43013173679E+03 -0.15122378047E+04  0.15724300781E+04  0.12699999809E+01 0. -1.
</event>
<event>
 5   0  0.2499890E-03  0.1007922E+04  0.7818609E-02  0.9299898E-01
       -2   -1    0    0    0  501  0.00000000000E+00  0.00000000000E+00  0.18600910002E+03  0.18600910004E+03  0.25500000920E-02 0. -1.
        2   -1    0    0  501    0  0.00000000000E+00  0.00000000000E+00 -0.13653993402E+04  0.13653993402E+04  0.25500000920E-02 0.  1.
    10030    2    1    2    0    0  0.00000000000E+00  0.00000000000E+00 -0.11793902401E+04  0.15514084402E+04  0.10079220257E+04 0.  0.
        5    1    3    3  502    0 -0.41031832288E+03 -0.11730674635E+02 -0.10396512611E+04  0.11177636465E+04  0.46999998093E+01 0.  1.
       -5    1    3    3    0  502  0.41031832288E+03  0.11730674635E+02 -0.13973897905E+03  0.43364479368E+03  0.46999998093E+01 0. -1.
</event>
<event>
 5   0  0.1404833E-03  0.1209394E+04  0.7818609E-02  0.9104674E-01
       -1   -1    0    0    0  501  0.00000000000E+00  0.00000000000E+00  0.33992101123E+03  0.33992101126E+03  0.50400001928E-02 0.  1.
        1   -1    0    0  501    0  0.00000000000E+00  0.00000000000E+00 -0.10757159479E+04  0.10757159479E+04  0.50400001928E-02 0. -1.
    10030    2    1    2    0    0  0.00000000000E+00  0.00000000000E+00 -0.73579493668E+03  0.14156369592E+04  0.12093939852E+04 0.  0.
        1    1    3    3  502    0  0.25606403294E+03 -0.21552937345E+03  0.22161117989E+03  0.40141401926E+03  0.50400001928E-02 0.  1.
       -1    1    3    3    0  502 -0.25606403294E+03  0.21552937345E+03 -0.95740611657E+03  0.10142229399E+04  0.50400001928E-02 0. -1.
</event>
<event>
 5   0  0.2484507E-03  0.1288093E+04  0.7818609E-02  0.9039061E-01
       -2   -1    0    0    0  501  0.00000000000E+00  0.00000000000E+00  0.25115578289E+03  0.25115578291E+03  0.25500000920E-02 0.  1.
        2   -1    0    0  501    0  0.00000000000E+00  0.00000000000E+00 -0.16515495101E+04  0.16515495101E+04  0.25500000920E-02 0. -1.
    10030    2    1    2    0    0  0.00000000000E+00  0.00000000000E+00 -0.14003937272E+04  0.19027052930E+04  0.12880934907E+04 0.  0.
        2    1    3    3  502    0 -0.21187848037E+03 -0.57543094650E+03 -0.40929631779E+03  0.73724944245E+03  0.25500000920E-02 0. -1.
       -2    1    3    3    0  502  0.21187848037E+03  0.57543094650E+03 -0.99109740941E+03  0.11654558506E+04  0.25500000920E-02 0.  1.
</event>
<event>
 5   0  0.1423024E-03  0.1195932E+04  0.7818609E-02  0.9116425E-01
       -1   -1    0    0    0  501  0.00000000000E+00  0.00000000000E+00  0.37398342160E+03  0.37398342164E+03  0.50400001928E-02 0. -1.
        1   -1    0    0  501    0  0.00000000000E+00  0.00000000000E+00 -0.95609337420E+03  0.95609337421E+03  0.50400001928E-02 0.  1.
    10030    2    1    2    0    0  0.00000000000E+00  0.00000000000E+00 -0.58210995260E+03  0.13300767959E+04  0.11959315557E+04 0.  0.
        2    1    3    3  502    0  0.91274020402E+02 -0.89225040508E+02 -0.94076578959E+03  0.94938523557E+03  0.25500000920E-02 0.  1.
       -2    1    3    3    0  502 -0.91274020402E+02  0.89225040508E+02  0.35865583699E+03  0.38069156028E+03  0.25500000920E-02 0. -1.
</event>
<event>
 5   0  0.2580244E-03  0.1198711E+04  0.7818609E-02  0.9113986E-01
       -2   -1    0    0    0  501  0.00000000000E+00  0.00000000000E+00  0.33682049590E+03  0.33682049591E+03  0.25500000920E-02 0.  1.
        2   -1    0    0  501    0  0.00000000000E+00  0.00000000000E+00 -0.10665229663E+04  0.10665229663E+04  0.25500000920E-02 0. -1.
    10030    2    1    2    0    0  0.00000000000E+00  0.00000000000E+00 -0.72970247036E+03  0.14033434622E+04  0.11987106313E+04 0.  0.
        1    1    3    3  502    0  0.77104691880E+02  0.14349673141E+03 -0.10401092069E+04  0.10527884914E+04  0.50400001928E-02 0. -1.
       -1    1    3    3    0  502 -0.77104691880E+02 -0.14349673141E+03  0.31040673650E+03  0.35055497076E+03  0.50400001928E-02 0.  1.
</event>
<event>
 5   0  0.1403154E-03  0.1158198E+04  0.7818609E-02  0.9150254E-01
        1   -1    0    0  501    0  0.00000000000E+00  0.00000000000E+00  0.45491276359E+03  0.45491276362E+03  0.50400001928E-02 0. -1.
       -1   -1    0    0    0  501  0.00000000000E+00  0.00000000000E+00 -0.73718636097E+03  0.73718636098E+03  0.50400001928E-02 0.  1.
    10030    2    1    2    0    0  0.00000000000E+00  0.00000000000E+00 -0.28227359738E+03  0.11920991246E+04  0.11581977116E+04 0.  0.
        3    1    3    3  502    0 -0.43223957175E+03 -0.38141314701E+03 -0.19796558533E+03  0.60950588125E+03  0.10100000352E+00 0. -1.
       -3    1    3    3    0  502  0.43223957175E+03  0.38141314701E+03 -0.84308012044E+02  0.58259324335E+03  0.10100000352E+00 0.  1.
</event>
<event>
 5   0  0.1403154E-03  0.1199304E+04  0.7818609E-02  0.9113466E-01
       -1   -1    0    0    0  501  0.00000000000E+00  0.00000000000E+00  0.16884550010E+03  0.16884550017E+03  0.50400001928E-02 0.  1.
        1   -1    0    0  501    0  0.00000000000E+00  0.00000000000E+00 -0.21296555945E+04  0.21296555945E+04  0.50400001928E-02 0. -1.
    10030    2    1    2    0    0  0.00000000000E+00  0.00000000000E+00 -0.19608100944E+04  0.22985010946E+04  0.11993044050E+04 0.  0.
        3    1    3    3  502    0 -0.17044904545E+03 -0.47608509703E+03 -0.15980890085E+04  0.16761856658E+04  0.10100000352E+00 0. -1.
       -3    1    3    3    0  502  0.17044904545E+03  0.47608509703E+03 -0.36272108581E+03  0.62231542886E+03  0.10100000352E+00 0.  1.
</event>
<event>
 5   0  0.2579442E-03  0.1194235E+04  0.7818609E-02  0.9117918E-01
        2   -1    0    0  501    0  0.00000000000E+00  0.00000000000E+00  0.31160798713E+03  0.31160798714E+03  0.25500000920E-02 0.  1.
       -2   -1    0    0    0  501  0.00000000000E+00  0.00000000000E+00 -0.11442239278E+04  0.11442239278E+04  0.25500000920E-02 0. -1.
    10030    2    1    2    0    0  0.00000000000E+00  0.00000000000E+00 -0.83261594064E+03  0.14558319149E+04  0.11942350103E+04 0.  0.
        4    1    3    3  502    0  0.66364112612E+02 -0.58874660704E+03 -0.32572888648E+03  0.67611218236E+03  0.12699999809E+01 0. -1.
       -4    1    3    3    0  502 -0.66364112612E+02  0.58874660704E+03 -0.50688705416E+03  0.77971973254E+03  0.12699999809E+01 0.  1.
</event>
<event>
 5   0  0.2580244E-03  0.1204352E+04  0.7818609E-02  0.9109056E-01
       -2   -1    0    0    0  501  0.00000000000E+00  0.00000000000E+00  0.59521913921E+03  0.59521913921E+03  0.25500000920E-02 0.  1.
        2   -1    0    0  501    0  0.00000000000E+00  0.00000000000E+00 -0.60921422902E+03  0.60921422903E+03  0.25500000920E-02 0. -1.
    10030    2    1    2    0    0  0.00000000000E+00  0.00000000000E+00 -0.13995089815E+02  0.12044333682E+04  0.12043520565E+04 0.  0.
        1    1    3    3  502    0  0.26158443407E+03  0.53195202156E+03  0.98918054575E+02  0.60098598231E+03  0.50400001928E-02 0.  1.
       -1    1    3    3    0  502 -0.26158443407E+03 -0.53195202156E+03 -0.11291314439E+03  0.60344738593E+03  0.50400001928E-02 0. -1.
</event>
<event>
 5   0  0.9678750E-04  0.1191301E+04  0.7818609E-02  0.9120505E-01
       -4   -1    0    0    0  501  0.00000000000E+00  0.00000000000E+00  0.58542736897E+03  0.58542874651E+03  0.12699999809E+01 0.  1.
        4   -1    0    0  501    0  0.00000000000E+00  0.00000000000E+00 -0.60604929701E+03  0.60605062768E+03  0.12699999809E+01 0. -1.
    10030    2    1    2    0    0  0.00000000000E+00  0.00000000000E+00 -0.20621928045E+02  0.11914793742E+04  0.11913009004E+04 0.  0.
        4    1    3    3  502    0 -0.47371442565E+03  0.35915398061E+03 -0.47745264085E+02  0.59638759377E+03  0.12699999809E+01 0. -1.
       -4    1    3    3    0  502  0.47371442565E+03 -0.35915398061E+03  0.27123336041E+02  0.59509178041E+03  0.12699999809E+01 0.  1.
</event>
<event>
 5   0  0.1455076E-03  0.1196397E+04  0.7818609E-02  0.9116016E-01
        1   -1    0    0  501    0  0.00000000000E+00  0.00000000000E+00  0.71852707854E+03  0.71852707856E+03  0.50400001928E-02 0. -1.
       -1   -1    0    0    0  501  0.00000000000E+00  0.00000000000E+00 -0.49802120169E+03  0.49802120172E+03  0.50400001928E-02 0.  1.
    10030    2    1    2    0    0  0.00000000000E+00  0.00000000000E+00  0.22050587684E+03  0.12165482803E+04  0.11963974576E+04 0.  0.
        4    1    3    3  502    0 -0.21034634055E+03  0.16477460590E+03  0.65447183911E+03  0.70691672411E+03  0.12699999809E+01 0. -1.
       -4    1    3    3    0  502  0.21034634055E+03 -0.16477460590E+03 -0.43396596227E+03  0.50963155617E+03  0.12699999809E+01 0.  1.
</event>
<event>
 5   0  0.1469851E-03  0.1205283E+04  0.7818609E-02  0.9108245E-01
        1   -1    0    0  501    0  0.00000000000E+00  0.00000000000E+00  0.69154938406E+03  0.69154938408E+03  0.50400001928E-02 0. -1.
       -1   -1    0    0    0  501  0.00000000000E+00  0.00000000000E+00 -0.52516423419E+03  0.52516423421E+03  0.50400001928E-02 0.  1.
    10030    2    1    2    0    0  0.00000000000E+00  0.00000000000E+00  0.16638514988E+03  0.12167136183E+04  0.12052833737E+04 0.  0.
        5    1    3    3  502    0 -0.16806628923E+03 -0.14590833065E+03 -0.48213563725E+03  0.53104837937E+03  0.46999998093E+01 0.  1.
       -5    1    3    3    0  502  0.16806628923E+03  0.14590833065E+03  0.64852078713E+03  0.68566523892E+03  0.46999998093E+01 0. -1.
</event>
<event>
 5   0  0.2484507E-03  0.1180765E+04  0.7818609E-02  0.9129861E-01
       -2   -1    0    0    0  501  0.00000000000E+00  0.00000000000E+00  0.24588766403E+03  0.24588766404E+03  0.25500000920E-02 0.  1.
        2   -1    0    0  501    0  0.00000000000E+00  0.00000000000E+00 -0.14175240685E+04  0.14175240685E+04  0.25500000920E-02 0. -1.
    10030    2    1    2    0    0  0.00000000000E+00  0.00000000000E+00 -0.11716364044E+04  0.16634117325E+04  0.11807653144E+04 0.  0.
        2    1    3    3  502    0 -0.59014953986E+03 -0.16560917693E+02 -0.58445344867E+03  0.83074459196E+03  0.25500000920E-02 0. -1.
       -2    1    3    3    0  502  0.59014953986E+03  0.16560917693E+02 -0.58718295575E+03  0.83266714054E+03  0.25500000920E-02 0.  1.
</event>
<event>
 5   0  0.1455076E-03  0.1180259E+04  0.7818609E-02  0.9130314E-01
        1   -1    0    0  501    0  0.00000000000E+00  0.00000000000E+00  0.11720425071E+04  0.11720425071E+04  0.50400001928E-02 0. -1.
       -1   -1    0    0    0  501  0.00000000000E+00  0.00000000000E+00 -0.29713318896E+03  0.29713318900E+03  0.50400001928E-02 0.  1.
    10030    2    1    2    0    0  0.00000000000E+00  0.00000000000E+00  0.87490931816E+03  0.14691756961E+04  0.11802588323E+04 0.  0.
        4    1    3    3  502    0 -0.27411331269E+02  0.26510177535E+03 -0.21794976538E+03  0.34428773650E+03  0.12699999809E+01 0.  1.
       -4    1    3    3    0  502  0.27411331269E+02 -0.26510177535E+03  0.10928590835E+04  0.11248879596E+04  0.12699999809E+01 0. -1.
</event>
<event>
 5   0  0.2499890E-03  0.1258611E+04  0.7818609E-02  0.9063047E-01
       -2   -1    0    0    0  501  0.00000000000E+00  0.00000000000E+00  0.76307965854E+03  0.76307965854E+03  0.25500000920E-02 0.  1.
        2   -1    0    0  501    0  0.00000000000E+00  0.00000000000E+00 -0.51898268858E+03  0.51898268859E+03  0.25500000920E-02 0. -1.
    10030    2    1    2    0    0  0.00000000000E+00  0.00000000000E+00  0.24409696995E+03  0.12820623471E+04  0.12586105558E+04 0.  0.
        5    1    3    3  502    0  0.45120801729E+03 -0.26471240297E+02 -0.32396119432E+03  0.55611360966E+03  0.46999998093E+01 0. -1.
       -5    1    3    3    0  502 -0.45120801729E+03  0.26471240297E+02  0.56805816428E+03  0.72594873747E+03  0.46999998093E+01 0.  1.
</event>
<event>
 5   0  0.1469851E-03  0.1125498E+04  0.7818609E-02  0.9180690E-01
       -1   -1    0    0    0  501  0.00000000000E+00  0.00000000000E+00  0.86576937243E+03  0.86576937244E+03  0.50400001928E-02 0.  1.
        1   -1    0    0  501    0  0.00000000000E+00  0.00000000000E+00 -0.36578633298E+03  0.36578633302E+03  0.50400001928E-02 0. -1.
    10030    2    1    2    0    0  0.00000000000E+00  0.00000000000E+00  0.49998303944E+03  0.12315557055E+04  0.11254982967E+04 0.  0.
        5    1    3    3  502    0 -0.30476824196E+03  0.37830547230E+03  0.56077215296E+03  0.74194757848E+03  0.46999998093E+01 0.  1.
       -5    1    3    3    0  502  0.30476824196E+03 -0.37830547230E+03 -0.60789113522E+02  0.48960812698E+03  0.46999998093E+01 0. -1.
</event>
<event>
 5   0  0.1404833E-03  0.1202975E+04  0.7818609E-02  0.9110256E-01
        1   -1    0    0  501    0  0.00000000000E+00  0.00000000000E+00  0.14093117275E+04  0.14093117275E+04  0.50400001928E-02 0.  1.
       -1   -1    0    0    0  501  0.00000000000E+00  0.00000000000E+00 -0.25671219521E+03  0.25671219526E+03  0.50400001928E-02 0. -1.
    10030    2    1    2    0    0  0.00000000000E+00  0.00000000000E+00  0.11525995323E+04  0.16660239228E+04  0.12029754899E+04 0.  0.
        1    1    3    3  502    0 -0.57346809346E+03 -0.17909511377E+03  0.61660051995E+03  0.86089309163E+03  0.50400001928E-02 0. -1.
       -1    1    3    3    0  502  0.57346809346E+03  0.17909511377E+03  0.53599901233E+03  0.80513083112E+03  0.50400001928E-02 0.  1.
</event>
<event>
 5   0  0.2484507E-03  0.1193807E+04  0.7818609E-02  0.9118294E-01
        2   -1    0    0  501    0  0.00000000000E+00  0.00000000000E+00  0.61143656938E+03  0.61143656938E+03  0.25500000920E-02 0. -1.
       -2   -1    0    0    0  501  0.00000000000E+00  0.00000000000E+00 -0.58271597162E+03  0.58271597163E+03  0.25500000920E-02 0.  1.
    10030    2    1    2    0    0  0.00000000000E+00  0.00000000000E+00  0.28720597758E+02  0.11941525410E+04  0.11938071111E+04 0.  0.
        2    1    3    3  502    0 -0.50433711751E+03 -0.18448286935E+03 -0.24629905615E+03  0.59080714472E+03  0.25500000920E-02 0.  1.
       -2    1    3    3    0  502  0.50433711751E+03  0.18448286935E+03  0.27501965391E+03  0.60334539629E+03  0.25500000920E-02 0. -1.
</event>
<event>
 5   0  0.1469851E-03  0.1112243E+04  0.7818609E-02  0.9193340E-01
        1   -1    0    0  501    0  0.00000000000E+00  0.00000000000E+00  0.75141478646E+03  0.75141478648E+03  0.50400001928E-02 0. -1.
       -1   -1    0    0    0  501  0.00000000000E+00  0.00000000000E+00 -0.41158529028E+03  0.41158529031E+03  0.50400001928E-02 0.  1.
    10030    2    1    2    0    0  0.00000000000E+00  0.00000000000E+00  0.33982949618E+03  0.11630000768E+04  0.11122432702E+04 0.  0.
        5    1    3    3  502    0 -0.35931228999E+03 -0.10409430426E+03  0.60016288719E+03  0.70721886788E+03  0.46999998093E+01 0. -1.
       -5    1    3    3    0  502  0.35931228999E+03  0.10409430426E+03 -0.26033339102E+03  0.45578120891E+03  0.46999998093E+01 0.  1.
</event>
<event>
 5   0  0.2580244E-03  0.1222354E+04  0.7818609E-02  0.9093512E-01
        2   -1    0    0  501    0  0.00000000000E+00  0.00000000000E+00  0.20599412389E+04  0.20599412389E+04  0.25500000920E-02 0.  1.
       -2   -1    0    0    0  501  0.00000000000E+00  0.00000000000E+00 -0.18133406756E+03  0.18133406757E+03  0.25500000920E-02 0. -1.
    10030    2    1    2    0    0  0.00000000000E+00  0.00000000000E+00  0.18786071713E+04  0.22412753064E+04  0.12223543247E+04 0.  0.
        1    1    3    3  502    0  0.11186294152E+02  0.23339175294E+03  0.19748106140E+04  0.19885858806E+04  0.50400001928E-02 0.  1.
       -1    1    3    3    0  502 -0.11186294152E+02 -0.23339175294E+03 -0.96203442661E+02  0.25268942582E+03  0.50400001928E-02 0. -1.
</event>
<event>
 5   0  0.1404833E-03  0.1154715E+04  0.7818609E-02  0.9153445E-01
        1   -1    0    0  501    0  0.00000000000E+00  0.00000000000E+00  0.14020334339E+04  0.14020334339E+04  0.50400001928E-02 0. -1.
       -1   -1    0    0    0  501  0.00000000000E+00  0.00000000000E+00 -0.23775593603E+03  0.23775593608E+03  0.50400001928E-02 0.  1.
    10030    2    1    2    0    0  0.00000000000E+00  0.00000000000E+00  0.11642774979E+04  0.16397893700E+04  0.11547151536E+04 0.  0.
        1    1    3    3  502    0  0.56076426546E+02  0.29772016386E+03 -0.11581337148E+03  0.32433716812E+03  0.50400001928E-02 0.  1.
       -1    1    3    3    0  502 -0.56076426546E+02 -0.29772016386E+03  0.12800908694E+04  0.13154522019E+04  0.50400001928E-02 0. -1.
</event>
<event>
 5   0  0.1423024E-03  0.1202109E+04  0.7818609E-02  0.9111012E-01
        1   -1    0    0  501    0  0.00000000000E+00  0.00000000000E+00  0.85945934934E+03  0.85945934936E+03  0.50400001928E-02 0. -1.
       -1   -1    0    0    0  501  0.00000000000E+00  0.00000000000E+00 -0.42034189635E+03  0.42034189638E+03  0.50400001928E-02 0.  1.
    10030    2    1    2    0    0  0.00000000000E+00  0.00000000000E+00  0.43911745299E+03  0.12798012457E+04  0.12021094339E+04 0.  0.
        2    1    3    3  502    0 -0.87542633410E+01 -0.38351622398E+03 -0.27306165448E+03  0.47087577803E+03  0.25500000920E-02 0.  1.
       -2    1    3    3    0  502  0.87542633410E+01  0.38351622398E+03  0.71217910747E+03  0.80892546771E+03  0.25500000920E-02 0. -1.
</event>
<event>
 5   0  0.2579442E-03  0.1198089E+04  0.7818609E-02  0.9114531E-01
       -2   -1    0    0    0  501  0.00000000000E+00  0.00000000000E+00  0.35342543291E+03  0.35342543292E+03  0.25500000920E-02 0.  1.
        2   -1    0    0  501    0  0.00000000000E+00  0.00000000000E+00 -0.10153600396E+04  0.10153600396E+04  0.25500000920E-02 0. -1.
    10030    2    1    2    0    0  0.00000000000E+00  0.00000000000E+00 -0.66193460670E+03  0.13687854725E+04  0.11980885803E+04 0.  0.
        4    1    3    3  502    0 -0.19510499622E+03  0.16043526269E+03  0.28960454681E+03  0.38428874495E+03  0.12699999809E+01 0.  1.
       -4    1    3    3    0  502  0.19510499622E+03 -0.16043526269E+03 -0.95153915351E+03  0.98449672758E+03  0.12699999809E+01 0. -1.
</event>
<event>
 5   0  0.2484507E-03  0.1192540E+04  0.7818609E-02  0.9119411E-01
        2   -1    0    0  501    0  0.00000000000E+00  0.00000000000E+00  0.44593613492E+03  0.44593613493E+03  0.25500000920E-02 0. -1.
       -2   -1    0    0    0  501  0.00000000000E+00  0.00000000000E+00 -0.79728489366E+03  0.79728489367E+03  0.25500000920E-02 0.  1.
    10030    2    1    2    0    0  0.00000000000E+00  0.00000000000E+00 -0.35134875874E+03  0.12432210286E+04  0.11925403874E+04 0.  0.
        2    1    3    3  502    0 -0.30894988078E+03  0.29032174840E+03  0.26143126327E+03  0.49807936300E+03  0.25500000920E-02 0. -1.
       -2    1    3    3    0  502  0.30894988078E+03 -0.29032174840E+03 -0.61278002201E+03  0.74514166560E+03  0.25500000920E-02 0.  1.
</event>
<event>
 5   0  0.2579442E-03  0.1200700E+04  0.7818609E-02  0.9112244E-01
       -2   -1    0    0    0  501  0.00000000000E+00  0.00000000000E+00  0.46800007639E+03  0.46800007640E+03  0.25500000920E-02 0. -1.
        2   -1    0    0  501    0  0.00000000000E+00  0.00000000000E+00 -0.77012788782E+03  0.77012788783E+03  0.25500000920E-02 0.  1.
    10030    2    1    2    0    0  0.00000000000E+00  0.00000000000E+00 -0.30212781143E+03  0.12381279642E+04  0.12006996466E+04 0.  0.
        4    1    3    3  502    0 -0.35799863316E+03 -0.33121444474E+03  0.20992331331E+03  0.53097593177E+03  0.12699999809E+01 0.  1.
       -4    1    3    3    0  502  0.35799863316E+03  0.33121444474E+03 -0.51205112474E+03  0.70715203245E+03  0.12699999809E+01 0. -1.
</event>
<event>
 5   0  0.1423024E-03  0.1191657E+04  0.7818609E-02  0.9120190E-01
        1   -1    0    0  501    0  0.00000000000E+00  0.00000000000E+00  0.16792309386E+04  0.16792309386E+04  0.50400001928E-02 0. -1.
       -1   -1    0    0    0  501  0.00000000000E+00  0.00000000000E+00 -0.21141331692E+03  0.21141331698E+03  0.50400001928E-02 0.  1.
    10030    2    1    2    0    0  0.00000000000E+00  0.00000000000E+00  0.14678176217E+04  0.18906442556E+04  0.11916573042E+04 0.  0.
        2    1    3    3  502    0 -0.25177640103E+02 -0.28318909978E+03 -0.96855352414E+02  0.30035135940E+03  0.25500000920E-02 0.  1.
       -2    1    3    3    0  502  0.25177640103E+02  0.28318909978E+03  0.15646729741E+04  0.15902928962E+04  0.25500000920E-02 0. -1.
</event>
<event>
 5   0  0.2580244E-03  0.1105055E+04  0.7818609E-02  0.9200279E-01
       -2   -1    0    0    0  501  0.00000000000E+00  0.00000000000E+00  0.65414157789E+03  0.65414157789E+03  0.25500000920E-02 0.  1.
        2   -1    0    0  501    0  0.00000000000E+00  0.00000000000E+00 -0.46669822337E+03  0.46669822337E+03  0.25500000920E-02 0. -1.
    10030    2    1    2    0    0  0.00000000000E+00  0.00000000000E+00  0.18744335452E+03  0.11208398013E+04  0.11050551339E+04 0.  0.
        1    1    3    3  502    0  0.28766879055E+03  0.16086184287E+03  0.54351616975E+03  0.63564116635E+03  0.50400001928E-02 0.  1.
       -1    1    3    3    0  502 -0.28766879055E+03 -0.16086184287E+03 -0.35607281523E+03  0.48519863491E+03  0.50400001928E-02 0. -1.
</event>
<event>
 5   0  0.1455076E-03  0.1200234E+04  0.7818609E-02  0.9112651E-01
       -1   -1    0    0    0  501  0.00000000000E+00  0.00000000000E+00  0.20372258761E+03  0.20372258767E+03  0.50400001928E-02 0. -1.
        1   -1    0    0  501    0  0.00000000000E+00  0.00000000000E+00 -0.17677991564E+04  0.17677991564E+04  0.50400001928E-02 0.  1.
    10030    2    1    2    0    0  0.00000000000E+00  0.00000000000E+00 -0.15640765688E+04  0.19715217441E+04  0.12002343414E+04 0.  0.
        4    1    3    3  502    0 -0.49912342752E+03  0.24278859060E+03 -0.11568585791E+04  0.12831188100E+04  0.12699999809E+01 0.  1.
       -4    1    3    3    0  502  0.49912342752E+03 -0.24278859060E+03 -0.40721798971E+03  0.68840293410E+03  0.12699999809E+01 0. -1.
</event>
<event>
 5   0  0.1423024E-03  0.1232392E+04  0.7818609E-02  0.9084967E-01
        1   -1    0    0  501    0  0.00000000000E+00  0.00000000000E+00  0.50455069810E+03  0.50455069813E+03  0.50400001928E-02 0.  1.
       -1   -1    0    0    0  501  0.00000000000E+00  0.00000000000E+00 -0.75254551713E+03  0.75254551715E+03  0.50400001928E-02 0. -1.
    10030    2    1    2    0    0  0.00000000000E+00  0.00000000000E+00 -0.24799481903E+03  0.12570962153E+04  0.12323917657E+04 0.  0.
        2    1    3    3  502    0  0.11671183799E+03  0.48611288502E+03  0.24345985953E+03  0.55605763489E+03  0.25500000920E-02 0.  1.
       -2    1    3    3    0  502 -0.11671183799E+03 -0.48611288502E+03 -0.49145467856E+03  0.70103858039E+03  0.25500000920E-02 0. -1.
</event>
<event>
 5   0  0.1404833E-03  0.1207048E+04  0.7818609E-02  0.9106710E-01
       -1   -1    0    0    0  501  0.00000000000E+00  0.00000000000E+00  0.14122447485E+04  0.14122447485E+04  0.50400001928E-02 0. -1.
        1   -1    0    0  501    0  0.00000000000E+00  0.00000000000E+00 -0.25791635406E+03  0.25791635410E+03  0.50400001928E-02 0.  1.
    10030    2    1    2    0    0  0.00000000000E+00  0.00000000000E+00  0.11543283945E+04  0.16701611026E+04  0.12070476654E+04 0.  0.
        1    1    3    3  502    0  0.53388474980E+03  0.20043914782E+02  0.96559575054E+03  0.11035442166E+04  0.50400001928E-02 0. -1.
       -1    1    3    3    0  502 -0.53388474980E+03 -0.20043914782E+02  0.18873264393E+03  0.56661688600E+03  0.50400001928E-02 0.  1.
</event>
<event>
 5   0  0.2580244E-03  0.1200457E+04  0.7818609E-02  0.9112456E-01
        2   -1    0    0  501    0  0.00000000000E+00  0.00000000000E+00  0.61632213047E+03  0.61632213047E+03  0.25500000920E-02 0. -1.
       -2   -1    0    0    0  501  0.00000000000E+00  0.00000000000E+00 -0.58455525959E+03  0.58455525959E+03  0.25500000920E-02 0.  1.
    10030    2    1    2    0    0  0.00000000000E+00  0.00000000000E+00  0.31766870881E+02  0.12008773901E+04  0.12004571512E+04 0.  0.
        1    1    3    3  502    0  0.55740706656E+03  0.18798838656E+03  0.13522344416E+03  0.60359560237E+03  0.50400001928E-02 0.  1.
       -1    1    3    3    0  502 -0.55740706656E+03 -0.18798838656E+03 -0.10345657328E+03  0.59728178769E+03  0.50400001928E-02 0. -1.
</event>
<event>
 5   0  0.1403154E-03  0.1193602E+04  0.7818609E-02  0.9118475E-01
       -1   -1    0    0    0  501  0.00000000000E+00  0.00000000000E+00  0.93627409527E+03  0.93627409528E+03  0.50400001928E-02 0.  1.
        1   -1    0    0  501    0  0.00000000000E+00  0.00000000000E+00 -0.38041380179E+03  0.38041380182E+03  0.50400001928E-02 0. -1.
    10030    2    1    2    0    0  0.00000000000E+00  0.00000000000E+00  0.55586029348E+03  0.13166878971E+04  0.11936022589E+04 0.  0.
        3    1    3    3  502    0  0.39081821411E+03  0.27886604480E+03  0.66898065187E+03  0.82343200702E+03  0.10100000352E+00 0.  1.
       -3    1    3    3    0  502 -0.39081821411E+03 -0.27886604480E+03 -0.11312035838E+03  0.49325589008E+03  0.10100000352E+00 0. -1.
</event>
<event>
 5   0  0.1469851E-03  0.1201102E+04  0.7818609E-02  0.9111892E-01
       -1   -1    0    0    0  501  0.00000000000E+00  0.00000000000E+00  0.65019572981E+03  0.65019572983E+03  0.50400001928E-02 0. -1.
        1   -1    0    0  501    0  0.00000000000E+00  0.00000000000E+00 -0.55469720187E+03  0.55469720189E+03  0.50400001928E-02 0.  1.
    10030    2    1    2    0    0  0.00000000000E+00  0.00000000000E+00  0.95498527943E+02  0.12048929317E+04  0.12011024137E+04 0.  0.
        5    1    3    3  502    0 -0.36067901350E+03 -0.23933949706E+03 -0.36981780408E+03  0.56935054566E+03  0.46999998093E+01 0.  1.
       -5    1    3    3    0  502  0.36067901350E+03  0.23933949706E+03  0.46531633203E+03  0.63554238606E+03  0.46999998093E+01 0. -1.
</event>
<event>
 5   0  0.1403154E-03  0.1221171E+04  0.7818609E-02  0.9094525E-01
       -1   -1    0    0    0  501  0.00000000000E+00  0.00000000000E+00  0.45655817361E+03  0.45655817364E+03  0.50400001928E-02 0.  1.
        1   -1    0    0  501    0  0.00000000000E+00  0.00000000000E+00 -0.81657666653E+03  0.81657666654E+03  0.50400001928E-02 0. -1.
    10030    2    1    2    0    0  0.00000000000E+00  0.00000000000E+00 -0.36001849292E+03  0.12731348402E+04  0.12211711616E+04 0.  0.
        3    1    3    3  502    0  0.44945169038E+03 -0.75978575688E+01 -0.61081199308E+03  0.75839030223E+03  0.10100000352E+00 0. -1.
       -3    1    3    3    0  502 -0.44945169038E+03  0.75978575688E+01  0.25079350016E+03  0.51474453795E+03  0.10100000352E+00 0.  1.
</event>
<event>
 5   0  0.2484507E-03  0.1188074E+04  0.7818609E-02  0.9123360E-01
       -2   -1    0    0    0  501  0.00000000000E+00  0.00000000000E+00  0.15657318261E+03  0.15657318263E+03  0.25500000920E-02 0. -1.
        2   -1    0    0  501    0  0.00000000000E+00  0.00000000000E+00 -0.22537694196E+04  0.22537694196E+04  0.25500000920E-02 0.  1.
    10030    2    1    2    0    0  0.00000000000E+00  0.00000000000E+00 -0.20971962369E+04  0.24103426022E+04  0.11880738208E+04 0.  0.
        2    1    3    3  502    0  0.51401747905E+03  0.19565510864E+03 -0.15039905539E+04  0.16014001613E+04  0.25500000920E-02 0.  1.
       -2    1    3    3    0  502 -0.51401747905E+03 -0.19565510864E+03 -0.59320568306E+03  0.80894244093E+03  0.25500000920E-02 0. -1.
</event>
<event>
 5   0  0.2484507E-03  0.1202753E+04  0.7818609E-02  0.9110451E-01
       -2   -1    0    0    0  501  0.00000000000E+00  0.00000000000E+00  0.37195598685E+03  0.37195598686E+03  0.25500000920E-02 0.  1.
        2   -1    0    0  501    0  0.00000000000E+00  0.00000000000E+00 -0.97230171662E+03  0.97230171663E+03  0.25500000920E-02 0. -1.
    10030    2    1    2    0    0  0.00000000000E+00  0.00000000000E+00 -0.60034572978E+03  0.13442577035E+04  0.12027525839E+04 0.  0.
        2    1    3    3  502    0 -0.30429022044E+03 -0.15378676493E+03  0.25349948858E+03  0.42485868008E+03  0.25500000920E-02 0.  1.
       -2    1    3    3    0  502  0.30429022044E+03  0.15378676493E+03 -0.85384521836E+03  0.91939902340E+03  0.25500000920E-02 0. -1.
</event>
<event>
 5   0  0.2579442E-03  0.1199790E+04  0.7818609E-02  0.9113040E-01
       -2   -1    0    0    0  501  0.00000000000E+00  0.00000000000E+00  0.26793698967E+03  0.26793698968E+03  0.25500000920E-02 0. -1.
        2   -1    0    0  501    0  0.00000000000E+00  0.00000000000E+00 -0.13431296036E+04  0.13431296036E+04  0.25500000920E-02 0.  1.
    10030    2    1    2    0    0  0.00000000000E+00  0.00000000000E+00 -0.10751926139E+04  0.16110665933E+04  0.11997901529E+04 0.  0.
        4    1    3    3  502    0  0.29886125514E+03  0.39985948446E+03 -0.90895291869E+02  0.50741425297E+03  0.12699999809E+01 0. -1.
       -4    1    3    3    0  502 -0.29886125514E+03 -0.39985948446E+03 -0.98429732203E+03  0.11036523403E+04  0.12699999809E+01 0.  1.
</event>
<event>
 5   0  0.9678750E-04  0.1200252E+04  0.7818609E-02  0.9112636E-01
        3   -1    0    0  501    0  0.00000000000E+00  0.00000000000E+00  0.19313089053E+04  0.19313089079E+04  0.10100000352E+00 0.  1.
       -3   -1    0    0    0  501  0.00000000000E+00  0.00000000000E+00 -0.18648035265E+03  0.18648038000E+03  0.10100000352E+00 0. -1.
    10030    2    1    2    0    0  0.00000000000E+00  0.00000000000E+00  0.17448285526E+04  0.21177892879E+04  0.12002519694E+04 0.  0.
        2    1    3    3  502    0  0.52802478669E+03  0.19139601858E+03  0.12454975580E+04  0.13662747814E+04  0.25500000920E-02 0. -1.
       -2    1    3    3    0  502 -0.52802478669E+03 -0.19139601858E+03  0.49933099459E+03  0.75151450649E+03  0.25500000920E-02 0.  1.
</event>
<event>
 5   0  0.1403154E-03  0.1204435E+04  0.7818609E-02  0.9108983E-01
       -1   -1    0    0    0  501  0.00000000000E+00  0.00000000000E+00  0.24879720009E+03  0.24879720015E+03  0.50400001928E-02 0. -1.
        1   -1    0    0  501    0  0.00000000000E+00  0.00000000000E+00 -0.14576767651E+04  0.14576767651E+04  0.50400001928E-02 0.  1.
    10030    2    1    2    0    0  0.00000000000E+00  0.00000000000E+00 -0.12088795650E+04  0.17064739652E+04  0.12044349677E+04 0.  0.
        3    1    3    3  502    0 -0.12034627956E+02 -0.29883394973E+03 -0.13450198499E+04  0.13778697212E+04  0.10100000352E+00 0.  1.
       -3    1    3    3    0  502  0.12034627956E+02  0.29883394973E+03  0.13614028495E+03  0.32860424399E+03  0.10100000352E+00 0. -1.
</event>
<event>
 5   0  0.1455076E-03  0.1200335E+04  0.7818609E-02  0.9112563E-01
        1   -1    0    0  501    0  0.00000000000E+00  0.00000000000E+00  0.69390947118E+03  0.69390947120E+03  0.50400001928E-02 0.  1.
       -1   -1    0    0    0  501  0.00000000000E+00  0.00000000000E+00 -0.51908972557E+03  0.51908972559E+03  0.50400001928E-02 0. -1.
    10030    2    1    2    0    0  0.00000000000E+00  0.00000000000E+00  0.17481974561E+03  0.12129991968E+04  0.12003354148E+04 0.  0.
        4    1    3    3  502    0  0.58098962860E+03  0.14503580773E+03  0.46794679377E+02  0.60064605966E+03  0.12699999809E+01 0.  1.
       -4    1    3    3    0  502 -0.58098962860E+03 -0.14503580773E+03  0.12802506623E+03  0.61235313713E+03  0.12699999809E+01 0. -1.
</event>
<event>
 5   0  0.2499890E-03  0.1210576E+04  0.7818609E-02  0.9103649E-01
       -2   -1    0    0    0  501  0.00000000000E+00  0.00000000000E+00  0.30744192054E+03  0.30744192055E+03  0.25500000920E-02 0. -1.
        2   -1    0    0  501    0  0.00000000000E+00  0.00000000000E+00 -0.11916843380E+04  0.11916843380E+04  0.25500000920E-02 0.  1.
    10030    2    1    2    0    0  0.00000000000E+00  0.00000000000E+00 -0.88424241741E+03  0.14991262585E+04  0.12105762620E+04 0.  0.
        5    1    3    3  502    0 -0.68536980488E+02  0.32247675055E+03 -0.10707179670E+04  0.11203337125E+04  0.46999998093E+01 0.  1.
       -5    1    3    3    0  502  0.68536980488E+02 -0.32247675055E+03  0.18647554962E+03  0.37879254605E+03  0.46999998093E+01 0. -1.
</event>
<event>
 5   0  0.1403154E-03  0.1242485E+04  0.7818609E-02  0.9076461E-01
        1   -1    0    0  501    0  0.00000000000E+00  0.00000000000E+00  0.36908234127E+03  0.36908234130E+03  0.50400001928E-02 0. -1.
       -1   -1    0    0    0  501  0.00000000000E+00  0.00000000000E+00 -0.10456813604E+04  0.10456813604E+04  0.50400001928E-02 0.  1.
    10030    2    1    2    0    0  0.00000000000E+00  0.00000000000E+00 -0.67659901911E+03  0.14147637017E+04  0.12424854522E+04 0.  0.
        3    1    3    3  502    0 -0.58370081750E+03  0.63036785378E+02 -0.56959595807E+03  0.81799746107E+03  0.10100000352E+00 0. -1.
       -3    1    3    3    0  502  0.58370081750E+03 -0.63036785378E+02 -0.10700306104E+03  0.59676624062E+03  0.10100000352E+00 0.  1.
</event>
<event>
 5   0  0.1423024E-03  0.1229008E+04  0.7818609E-02  0.9087838E-01
        1   -1    0    0  501    0  0.00000000000E+00  0.00000000000E+00  0.15745238662E+04  0.15745238662E+04  0.50400001928E-02 0. -1.
       -1   -1    0    0    0  501  0.00000000000E+00  0.00000000000E+00 -0.23982800264E+03  0.23982800269E+03  0.50400001928E-02 0.  1.
    10030    2    1    2    0    0  0.00000000000E+00  0.00000000000E+00  0.13346958635E+04  0.18143518689E+04  0.12290075899E+04 0.  0.
        2    1    3    3  502    0  0.46413183041E+03  0.25996557828E+03  0.21325399821E+03  0.57312976336E+03  0.25500000920E-02 0.  1.
       -2    1    3    3    0  502 -0.46413183041E+03 -0.25996557828E+03  0.11214418653E+04  0.12412221055E+04  0.25500000920E-02 0. -1.
</event>
<event>
 5   0  0.2517023E-03  0.1070600E+04  0.7818609E-02  0.9234330E-01
       -2   -1    0    0    0  501  0.00000000000E+00  0.00000000000E+00  0.23950503058E+03  0.23950503059E+03  0.25500000920E-02 0. -1.
        2   -1    0    0  501    0  0.00000000000E+00  0.00000000000E+00 -0.11964099552E+04  0.11964099552E+04  0.25500000920E-02 0.  1.
    10030    2    1    2    0    0  0.00000000000E+00  0.00000000000E+00 -0.95690492459E+03  0.14359149858E+04  0.10706002109E+04 0.  0.
        3    1    3    3  502    0 -0.43141685044E+03 -0.73837992899E+02 -0.65116725581E+02  0.44250734027E+03  0.10100000352E+00 0. -1.
       -3    1    3    3    0  502  0.43141685044E+03  0.73837992899E+02 -0.89178819901E+03  0.99340764550E+03  0.10100000352E+00 0.  1.
</event>
<event>
 5   0  0.1403154E-03  0.1194702E+04  0.7818609E-02  0.9117507E-01
        1   -1    0    0  501    0  0.00000000000E+00  0.00000000000E+00  0.29656791891E+04  0.29656791891E+04  0.50400001928E-02 0. -1.
       -1   -1    0    0    0  501  0.00000000000E+00  0.00000000000E+00 -0.12031917857E+03  0.12031917868E+03  0.50400001928E-02 0.  1.
    10030    2    1    2    0    0  0.00000000000E+00  0.00000000000E+00  0.28453600106E+04  0.30859983678E+04  0.11947017772E+04 0.  0.
        3    1    3    3  502    0  0.87986356418E+02  0.36587173661E+03  0.22433496694E+03  0.43809806455E+03  0.10100000352E+00 0.  1.
       -3    1    3    3    0  502 -0.87986356418E+02 -0.36587173661E+03  0.26210250436E+04  0.26479003033E+04  0.10100000352E+00 0. -1.
</event>
<event>
 5   0  0.1403154E-03  0.1223541E+04  0.7818609E-02  0.9092497E-01
        1   -1    0    0  501    0  0.00000000000E+00  0.00000000000E+00  0.11468000823E+04  0.11468000823E+04  0.50400001928E-02 0. -1.
       -1   -1    0    0    0  501  0.00000000000E+00  0.00000000000E+00 -0.32635442511E+03  0.32635442515E+03  0.50400001928E-02 0.  1.
    10030    2    1    2    0    0  0.00000000000E+00  0.00000000000E+00  0.82044565719E+03  0.14731545075E+04  0.12235412238E+04 0.  0.
        3    1    3    3  502    0 -0.69779957988E+02  0.24300209768E+03  0.10809584569E+04  0.11101308291E+04  0.10100000352E+00 0. -1.
       -3    1    3    3    0  502  0.69779957988E+02 -0.24300209768E+03 -0.26051279972E+03  0.36302367833E+03  0.10100000352E+00 0.  1.
</event>
<event>
 5   0  0.1403154E-03  0.1187773E+04  0.7818609E-02  0.9123627E-01
        1   -1    0    0  501    0  0.00000000000E+00  0.00000000000E+00  0.14363631979E+04  0.14363631979E+04  0.50400001928E-02 0. -1.
       -1   -1    0    0    0  501  0.00000000000E+00  0.00000000000E+00 -0.24555143055E+03  0.24555143060E+03  0.50400001928E-02 0.  1.
    10030    2    1    2    0    0  0.00000000000E+00  0.00000000000E+00  0.11908117673E+04  0.16819146285E+04  0.11877727696E+04 0.  0.
        3    1    3    3  502    0 -0.49078842010E+03 -0.29697501660E+03  0.37771739245E+03  0.68683176437E+03  0.10100000352E+00 0.  1.
       -3    1    3    3    0  502  0.49078842010E+03  0.29697501660E+03  0.81309437487E+03  0.99508286411E+03  0.10100000352E+00 0. -1.
</event>
<event>
 5   0  0.9678750E-04  0.1148103E+04  0.7818609E-02  0.9159535E-01
       -4   -1    0    0    0  501  0.00000000000E+00  0.00000000000E+00  0.32887084474E+03  0.32887329691E+03  0.12699999809E+01 0. -1.
        4   -1    0    0  501    0  0.00000000000E+00  0.00000000000E+00 -0.10020139110E+04  0.10020147159E+04  0.12699999809E+01 0.  1.
    10030    2    1    2    0    0  0.00000000000E+00  0.00000000000E+00 -0.67314306631E+03  0.13308880128E+04  0.11481033555E+04 0.  0.
        4    1    3    3  502    0 -0.40755910369E+03 -0.38812677536E+03 -0.46765355930E+03  0.73174331645E+03  0.12699999809E+01 0.  1.
       -4    1    3    3    0  502  0.40755910369E+03  0.38812677536E+03 -0.20548950701E+03  0.59914469633E+03  0.12699999809E+01 0. -1.
</event>
<event>
 5   0  0.1455076E-03  0.1200100E+04  0.7818609E-02  0.9112769E-01
       -1   -1    0    0    0  501  0.00000000000E+00  0.00000000000E+00  0.20226161549E+03  0.20226161555E+03  0.50400001928E-02 0. -1.
        1   -1    0    0  501    0  0.00000000000E+00  0.00000000000E+00 -0.17801697792E+04  0.17801697792E+04  0.50400001928E-02 0.  1.
    10030    2    1    2    0    0  0.00000000000E+00  0.00000000000E+00 -0.15779081637E+04  0.19824313948E+04  0.12001000216E+04 0.  0.
        4    1    3    3  502    0  0.50817785516E+03 -0.31378978152E+03 -0.69334921727E+03  0.91511939628E+03  0.12699999809E+01 0. -1.
       -4    1    3    3    0  502 -0.50817785516E+03  0.31378978152E+03 -0.88455894646E+03  0.10673119985E+04  0.12699999809E+01 0.  1.
</event>
<event>
 5   0  0.1455076E-03  0.1203396E+04  0.7818609E-02  0.9109889E-01
       -1   -1    0    0    0  501  0.00000000000E+00  0.00000000000E+00  0.85980329761E+03  0.85980329763E+03  0.50400001928E-02 0. -1.
        1   -1    0    0  501    0  0.00000000000E+00  0.00000000000E+00 -0.42107394829E+03  0.42107394832E+03  0.50400001928E-02 0.  1.
    10030    2    1    2    0    0  0.00000000000E+00  0.00000000000E+00  0.43872934932E+03  0.12808772459E+04  0.12033964755E+04 0.  0.
        4    1    3    3  502    0  0.51630467456E+03  0.17717443338E+03 -0.50069558059E+02  0.54815132068E+03  0.12699999809E+01 0.  1.
       -4    1    3    3    0  502 -0.51630467456E+03 -0.17717443338E+03  0.48879890738E+03  0.73272592527E+03  0.12699999809E+01 0. -1.
</event>
<event>
 5   0  0.2517023E-03  0.1190245E+04  0.7818609E-02  0.9121438E-01
        2   -1    0    0  501    0  0.00000000000E+00  0.00000000000E+00  0.28141695250E+04  0.28141695250E+04  0.25500000920E-02 0.  1.
       -2   -1    0    0    0  501  0.00000000000E+00  0.00000000000E+00 -0.12585267170E+03  0.12585267172E+03  0.25500000920E-02 0. -1.
    10030    2    1    2    0    0  0.00000000000E+00  0.00000000000E+00  0.26883168533E+04  0.29400221967E+04  0.11902449384E+04 0.  0.
        3    1    3    3  502    0 -0.17468248015E+03  0.53586507264E+03  0.18161049717E+04  0.19015526875E+04  0.10100000352E+00 0.  1.
       -3    1    3    3    0  502  0.17468248015E+03 -0.53586507264E+03  0.87221188159E+03  0.10384695092E+04  0.10100000352E+00 0. -1.
</event>
<event>
 5   0  0.2579442E-03  0.1207548E+04  0.7818609E-02  0.9106275E-01
       -2   -1    0    0    0  501  0.00000000000E+00  0.00000000000E+00  0.18019242690E+03  0.18019242692E+03  0.25500000920E-02 0. -1.
        2   -1    0    0  501    0  0.00000000000E+00  0.00000000000E+00 -0.20230764281E+04  0.20230764281E+04  0.25500000920E-02 0.  1.
    10030    2    1    2    0    0  0.00000000000E+00  0.00000000000E+00 -0.18428840012E+04  0.22032688550E+04  0.12075480138E+04 0.  0.
        4    1    3    3  502    0 -0.49599327790E+03  0.91385592934E+02 -0.15270840343E+04  0.16082126473E+04  0.12699999809E+01 0.  1.
       -4    1    3    3    0  502  0.49599327790E+03 -0.91385592934E+02 -0.31579996690E+03  0.59505620769E+03  0.12699999809E+01 0. -1.
</event>
<event>
 5   0  0.2579442E-03  0.1206926E+04  0.7818609E-02  0.9106816E-01
        2   -1    0    0  501    0  0.00000000000E+00  0.00000000000E+00  0.53482717736E+03  0.53482717737E+03  0.25500000920E-02 0. -1.
       -2   -1    0    0    0  501  0.00000000000E+00  0.00000000000E+00 -0.68090719419E+03  0.68090719419E+03  0.25500000920E-02 0.  1.
    10030    2    1    2    0    0  0.00000000000E+00  0.00000000000E+00 -0.14608001683E+03  0.12157343716E+04  0.12069261331E+04 0.  0.
        4    1    3    3  502    0 -0.36685680363E+03 -0.32244513111E+03 -0.43004339004E+03  0.65076394120E+03  0.12699999809E+01 0.  1.
       -4    1    3    3    0  502  0.36685680363E+03  0.32244513111E+03  0.28396337321E+03  0.56497043036E+03  0.12699999809E+01 0. -1.
</event>
<event>
 5   0  0.1469851E-03  0.1176119E+04  0.7818609E-02  0.9134020E-01
        1   -1    0    0  501    0  0.00000000000E+00  0.00000000000E+00  0.14525838137E+04  0.14525838137E+04  0.50400001928E-02 0. -1.
       -1   -1    0    0    0  501  0.00000000000E+00  0.00000000000E+00 -0.23806835660E+03  0.23806835666E+03  0.50400001928E-02 0.  1.
    10030    2    1    2    0    0  0.00000000000E+00  0.00000000000E+00  0.12145154571E+04  0.16906521704E+04  0.11761194521E+04 0.  0.
        5    1    3    3  502    0  0.52933035873E+03 -0.44749371121E+02  0.24474101568E+03  0.58490459876E+03  0.46999998093E+01 0.  1.
       -5    1    3    3    0  502 -0.52933035873E+03  0.44749371121E+02  0.96977444142E+03  0.11057475716E+04  0.46999998093E+01 0. -1.
</event>
<event>
 5   0  0.1403154E-03  0.1199893E+04  0.7818609E-02  0.9112951E-01
        1   -1    0    0  501    0  0.00000000000E+00  0.00000000000E+00  0.43343462996E+03  0.43343462999E+03  0.50400001928E-02 0.  1.
       -1   -1    0    0    0  501  0.00000000000E+00  0.00000000000E+00 -0.83042633636E+03  0.83042633638E+03  0.50400001928E-02 0. -1.
    10030    2    1    2    0    0  0.00000000000E+00  0.00000000000E+00 -0.39699170640E+03  0.12638609664E+04  0.11998925483E+04 0.  0.
        3    1    3    3  502    0 -0.72921801965E+02  0.52022930535E+03 -0.50373718133E+03  0.72780991846E+03  0.10100000352E+00 0. -1.
       -3    1    3    3    0  502  0.72921801965E+02 -0.52022930535E+03  0.10674547493E+03  0.53605104791E+03  0.10100000352E+00 0.  1.
</event>
<event>
 5   0  0.2579442E-03  0.1184600E+04  0.7818609E-02  0.9126444E-01
       -2   -1    0    0    0  501  0.00000000000E+00  0.00000000000E+00  0.20526918148E+03  0.20526918150E+03  0.25500000920E-02 0.  1.
        2   -1    0    0  501    0  0.00000000000E+00  0.00000000000E+00 -0.17090707872E+04  0.17090707872E+04  0.25500000920E-02 0. -1.
    10030    2    1    2    0    0  0.00000000000E+00  0.00000000000E+00 -0.15038016057E+04  0.19143399687E+04  0.11846004585E+04 0.  0.
        4    1    3    3  502    0  0.67448129959E+02  0.49174218682E+03 -0.22960241033E+03  0.54688070752E+03  0.12699999809E+01 0.  1.
       -4    1    3    3    0  502 -0.67448129959E+02 -0.49174218682E+03 -0.12741991954E+04  0.13674592611E+04  0.12699999809E+01 0. -1.
</event>
<event>
 5   0  0.2499890E-03  0.1218569E+04  0.7818609E-02  0.9096757E-01
        2   -1    0    0  501    0  0.00000000000E+00  0.00000000000E+00  0.38580843519E+03  0.38580843520E+03  0.25500000920E-02 0. -1.
       -2   -1    0    0    0  501  0.00000000000E+00  0.00000000000E+00 -0.96220707078E+03  0.96220707079E+03  0.25500000920E-02 0.  1.
    10030    2    1    2    0    0  0.00000000000E+00  0.00000000000E+00 -0.57639863560E+03  0.13480155060E+04  0.12185690039E+04 0.  0.
        5    1    3    3  502    0  0.50386246906E+03 -0.57833366223E+02  0.85279193061E+02  0.51431188664E+03  0.46999998093E+01 0. -1.
       -5    1    3    3    0  502 -0.50386246906E+03  0.57833366223E+02 -0.66167782866E+03  0.83370361934E+03  0.46999998093E+01 0.  1.
</event>
<event>
 5   0  0.1469851E-03  0.1198478E+04  0.7818609E-02  0.9114190E-01
       -1   -1    0    0    0  501  0.00000000000E+00  0.00000000000E+00  0.68552696562E+03  0.68552696564E+03  0.50400001928E-02 0. -1.
        1   -1    0    0  501    0  0.00000000000E+00  0.00000000000E+00 -0.52381202283E+03  0.52381202285E+03  0.50400001928E-02 0.  1.
    10030    2    1    2    0    0  0.00000000000E+00  0.00000000000E+00  0.16171494280E+03  0.12093389885E+04  0.11984778122E+04 0.  0.
        5    1    3    3  502    0 -0.33958185954E+03 -0.48842907498E+03  0.15352661713E+03  0.61438694060E+03  0.46999998093E+01 0. -1.
       -5    1    3    3    0  502  0.33958185954E+03  0.48842907498E+03  0.81883256618E+01  0.59495204789E+03  0.46999998093E+01 0.  1.
</event>
<event>
 5   0  0.1403154E-03  0.1215290E+04  0.7818609E-02  0.9099577E-01
        1   -1    0    0  501    0  0.00000000000E+00  0.00000000000E+00  0.11843315823E+04  0.11843315823E+04  0.50400001928E-02 0.  1.
       -1   -1    0    0    0  501  0.00000000000E+00  0.00000000000E+00 -0.31176448487E+03  0.31176448491E+03  0.50400001928E-02 0. -1.
    10030    2    1    2    0    0  0.00000000000E+00  0.00000000000E+00  0.87256709741E+03  0.14960960672E+04  0.12152901311E+04 0.  0.
        3    1    3    3  502    0  0.25622889822E+03 -0.50753689396E+03  0.70027525922E+03  0.90201574038E+03  0.10100000352E+00 0.  1.
       -3    1    3    3    0  502 -0.25622889822E+03  0.50753689396E+03  0.17229183819E+03  0.59408032683E+03  0.10100000352E+00 0. -1.
</event>
<event>
 5   0  0.2484507E-03  0.1214353E+04  0.7818609E-02  0.9100385E-01
        2   -1    0    0  501    0  0.00000000000E+00  0.00000000000E+00  0.11809077572E+04  0.11809077573E+04  0.25500000920E-02 0. -1.
       -2   -1    0    0    0  501  0.00000000000E+00  0.00000000000E+00 -0.31218648853E+03  0.31218648854E+03  0.25500000920E-02 0.  1.
    10030    2    1    2    0    0  0.00000000000E+00  0.00000000000E+00  0.86872126872E+03  0.14930942458E+04  0.12143532369E+04 0.  0.
        2    1    3    3  502    0  0.26294069536E+01 -0.52170558818E+03  0.81627008908E+03  0.96875202856E+03  0.25500000920E-02 0. -1.
       -2    1    3    3    0  502 -0.26294069536E+01  0.52170558818E+03  0.52451179645E+02  0.52434221723E+03  0.25500000920E-02 0.  1.
</event>
<event>
 5   0  0.2499890E-03  0.1198684E+04  0.7818609E-02  0.9114009E-01
       -2   -1    0    0    0  501  0.00000000000E+00  0.00000000000E+00  0.28818959048E+03  0.28818959049E+03  0.25500000920E-02 0.  1.
        2   -1    0    0  501    0  0.00000000000E+00  0.00000000000E+00 -0.12464402085E+04  0.12464402085E+04  0.25500000920E-02 0. -1.
    10030    2    1    2    0    0  0.00000000000E+00  0.00000000000E+00 -0.95825061800E+03  0.15346297990E+04  0.11986844343E+04 0.  0.
        5    1    3    3  502    0  0.30030091894E+03  0.13615363145E+03 -0.11198583143E+04  0.11674001831E+04  0.46999998093E+01 0. -1.
       -5    1    3    3    0  502 -0.30030091894E+03 -0.13615363145E+03  0.16160769634E+03  0.36722961589E+03  0.46999998093E+01 0.  1.
</event>
<event>
 5   0  0.2580244E-03  0.1418108E+04  0.7818609E-02  0.8940814E-01
       -2   -1    0    0    0  501  0.00000000000E+00  0.00000000000E+00  0.36147900158E+03  0.36147900159E+03  0.25500000920E-02 0. -1.
        2   -1    0    0  501    0  0.00000000000E+00  0.00000000000E+00 -0.13908348574E+04  0.13908348574E+04  0.25500000920E-02 0.  1.
    10030    2    1    2    0    0  0.00000000000E+00  0.00000000000E+00 -0.10293558558E+04  0.17523138590E+04  0.14181080292E+04 0.  0.
        1    1    3    3  502    0 -0.46655954406E+03  0.44941922625E+03 -0.15846580087E+03  0.66690843386E+03  0.50400001928E-02 0. -1.
       -1    1    3    3    0  502  0.46655954406E+03 -0.44941922625E+03 -0.87089005490E+03  0.10854054251E+04  0.50400001928E-02 0.  1.
</event>
<event>
 5   0  0.2579442E-03  0.1198692E+04  0.7818609E-02  0.9114002E-01
        2   -1    0    0  501    0  0.00000000000E+00  0.00000000000E+00  0.17982228329E+04  0.17982228329E+04  0.25500000920E-02 0.  1.
       -2   -1    0    0    0  501  0.00000000000E+00  0.00000000000E+00 -0.19976146403E+03  0.19976146404E+03  0.25500000920E-02 0. -1.
    10030    2    1    2    0    0  0.00000000000E+00  0.00000000000E+00  0.15984613689E+04  0.19979842969E+04  0.11986919967E+04 0.  0.
        4    1    3    3  502    0  0.14978102711E+03 -0.55364326726E+03  0.10891720895E+04  0.12309560012E+04  0.12699999809E+01 0.  1.
       -4    1    3    3    0  502 -0.14978102711E+03  0.55364326726E+03  0.50928927937E+03  0.76702829573E+03  0.12699999809E+01 0. -1.
</event>
<event>
 5   0  0.2499890E-03  0.1207508E+04  0.7818609E-02  0.9106310E-01
       -2   -1    0    0    0  501  0.00000000000E+00  0.00000000000E+00  0.26916256569E+03  0.26916256570E+03  0.25500000920E-02 0.  1.
        2   -1    0    0  501    0  0.00000000000E+00  0.00000000000E+00 -0.13542711882E+04  0.13542711882E+04  0.25500000920E-02 0. -1.
    10030    2    1    2    0    0  0.00000000000E+00  0.00000000000E+00 -0.10851086225E+04  0.16234337539E+04  0.12075083563E+04 0.  0.
        5    1    3    3  502    0 -0.10912858210E+03  0.50568803227E+03 -0.12411386063E+03  0.53202986177E+03  0.46999998093E+01 0.  1.
       -5    1    3    3    0  502  0.10912858210E+03 -0.50568803227E+03 -0.96099476187E+03  0.10914038921E+04  0.46999998093E+01 0. -1.
</event>
<event>
 5   0  0.2517023E-03  0.1203474E+04  0.7818609E-02  0.9109821E-01
        2   -1    0    0  501    0  0.00000000000E+00  0.00000000000E+00  0.15295532475E+04  0.15295532475E+04  0.25500000920E-02 0. -1.
       -2   -1    0    0    0  501  0.00000000000E+00  0.00000000000E+00 -0.23672775196E+03  0.23672775198E+03  0.25500000920E-02 0.  1.
    10030    2    1    2    0    0  0.00000000000E+00  0.00000000000E+00  0.12928254955E+04  0.17662809995E+04  0.12034744730E+04 0.  0.
        3    1    3    3  502    0  0.50382933894E+03  0.94393670670E+02  0.18384980720E+03  0.54456857204E+03  0.10100000352E+00 0.  1.
       -3    1    3    3    0  502 -0.50382933894E+03 -0.94393670670E+02  0.11089756883E+04  0.12217124274E+04  0.10100000352E+00 0. -1.
</event>
<event>
 5   0  0.1423024E-03  0.1184760E+04  0.7818609E-02  0.9126302E-01
        1   -1    0    0  501    0  0.00000000000E+00  0.00000000000E+00  0.11262489247E+04  0.11262489247E+04  0.50400001928E-02 0. -1.
       -1   -1    0    0    0  501  0.00000000000E+00  0.00000000000E+00 -0.31157755661E+03  0.31157755665E+03  0.50400001928E-02 0.  1.
    10030    2    1    2    0    0  0.00000000000E+00  0.00000000000E+00  0.81467136808E+03  0.14378264814E+04  0.11847597024E+04 0.  0.
        2    1    3    3  502    0  0.12006039212E+03 -0.19583453818E+03 -0.25532669816E+03  0.34344924938E+03  0.25500000920E-02 0.  1.
       -2    1    3    3    0  502 -0.12006039212E+03  0.19583453818E+03  0.10699980662E+04  0.10943772320E+04  0.25500000920E-02 0. -1.
</event>
<event>
 5   0  0.2499890E-03  0.1225091E+04  0.7818609E-02  0.9091174E-01
       -2   -1    0    0    0  501  0.00000000000E+00  0.00000000000E+00  0.15922666562E+03  0.15922666564E+03  0.25500000920E-02 0. -1.
        2   -1    0    0  501    0  0.00000000000E+00  0.00000000000E+00 -0.23564631926E+04  0.23564631926E+04  0.25500000920E-02 0.  1.
    10030    2    1    2    0    0  0.00000000000E+00  0.00000000000E+00 -0.21972365270E+04  0.25156898582E+04  0.12250906527E+04 0.  0.
        5    1    3    3  502    0  0.18769524761E+03 -0.48468438638E+03 -0.17641499918E+04  0.18391290721E+04  0.46999998093E+01 0.  1.
       -5    1    3    3    0  502 -0.18769524761E+03  0.48468438638E+03 -0.43308653521E+03  0.67656078615E+03  0.46999998093E+01 0. -1.
</event>
<event>
 5   0  0.1469851E-03  0.1196530E+04  0.7818609E-02  0.9115899E-01
       -1   -1    0    0    0  501  0.00000000000E+00  0.00000000000E+00  0.35613841861E+03  0.35613841864E+03  0.50400001928E-02 0.  1.
        1   -1    0    0  501    0  0.00000000000E+00  0.00000000000E+00 -0.10050051911E+04  0.10050051911E+04  0.50400001928E-02 0. -1.
    10030    2    1    2    0    0  0.00000000000E+00  0.00000000000E+00 -0.64886677246E+03  0.13611436097E+04  0.11965299152E+04 0.  0.
        5    1    3    3  502    0 -0.31193482787E+03  0.12097990099E+03 -0.88860612453E+03  0.94951693394E+03  0.46999998093E+01 0. -1.
       -5    1    3    3    0  502  0.31193482787E+03 -0.12097990099E+03  0.23973935207E+03  0.41162667578E+03  0.46999998093E+01 0.  1.
</event>
<event>
 5   0  0.1469851E-03  0.1196897E+04  0.7818609E-02  0.9115577E-01
        1   -1    0    0  501    0  0.00000000000E+00  0.00000000000E+00  0.36106680974E+03  0.36106680977E+03  0.50400001928E-02 0. -1.
       -1   -1    0    0    0  501  0.00000000000E+00  0.00000000000E+00 -0.99189498776E+03  0.99189498778E+03  0.50400001928E-02 0.  1.
    10030    2    1    2    0    0  0.00000000000E+00  0.00000000000E+00 -0.63082817802E+03  0.13529617975E+04  0.11968965851E+04 0.  0.
        5    1    3    3  502    0  0.23527240293E+03 -0.54787672067E+03 -0.25781662645E+03  0.64962566721E+03  0.46999998093E+01 0. -1.
       -5    1    3    3    0  502 -0.23527240293E+03  0.54787672067E+03 -0.37301155158E+03  0.70333613034E+03  0.46999998093E+01 0.  1.
</event>
<event>
 5   0  0.1469851E-03  0.1199729E+04  0.7818609E-02  0.9113094E-01
        1   -1    0    0  501    0  0.00000000000E+00  0.00000000000E+00  0.85594232310E+03  0.85594232312E+03  0.50400001928E-02 0. -1.
       -1   -1    0    0    0  501  0.00000000000E+00  0.00000000000E+00 -0.42039883818E+03  0.42039883821E+03  0.50400001928E-02 0.  1.
    10030    2    1    2    0    0  0.00000000000E+00  0.00000000000E+00  0.43554348492E+03  0.12763411613E+04  0.11997285663E+04 0.  0.
        5    1    3    3  502    0  0.36190840562E+03  0.30010399153E+03  0.61408567833E+03  0.77341024697E+03  0.46999998093E+01 0. -1.
       -5    1    3    3    0  502 -0.36190840562E+03 -0.30010399153E+03 -0.17854219341E+03  0.50293091436E+03  0.46999998093E+01 0.  1.
</event>
<event>
 5   0  0.1455076E-03  0.1205598E+04  0.7818609E-02  0.9107970E-01
        1   -1    0    0  501    0  0.00000000000E+00  0.00000000000E+00  0.10596759128E+04  0.10596759128E+04  0.50400001928E-02 0.  1.
       -1   -1    0    0    0  501  0.00000000000E+00  0.00000000000E+00 -0.34290370380E+03  0.34290370384E+03  0.50400001928E-02 0. -1.
    10030    2    1    2    0    0  0.00000000000E+00  0.00000000000E+00  0.71677220898E+03  0.14025796166E+04  0.12055982670E+04 0.  0.
        4    1    3    3  502    0  0.88767165008E+02  0.15285985133E+03  0.10288448432E+04  0.10439200487E+04  0.12699999809E+01 0.  1.
       -4    1    3    3    0  502 -0.88767165008E+02 -0.15285985133E+03 -0.31207263424E+03  0.35865956794E+03  0.12699999809E+01 0. -1.
</event>
<event>
 5   0  0.2517023E-03  0.1185805E+04  0.7818609E-02  0.9125373E-01
        2   -1    0    0  501    0  0.00000000000E+00  0.00000000000E+00  0.47650759870E+03  0.47650759871E+03  0.25500000920E-02 0. -1.
       -2   -1    0    0    0  501  0.00000000000E+00  0.00000000000E+00 -0.73772922043E+03  0.73772922043E+03  0.25500000920E-02 0.  1.
    10030    2    1    2    0    0  0.00000000000E+00  0.00000000000E+00 -0.26122162173E+03  0.12142368191E+04  0.11858053455E+04 0.  0.
        3    1    3    3  502    0 -0.40655436982E+00 -0.26513833674E+03  0.41242032215E+03  0.49029484519E+03  0.10100000352E+00 0. -1.
       -3    1    3    3    0  502  0.40655436982E+00  0.26513833674E+03 -0.67364194388E+03  0.72394197395E+03  0.10100000352E+00 0.  1.
</event>
<event>
 5   0  0.9678750E-04  0.1186725E+04  0.7818609E-02  0.9124556E-01
       -4   -1    0    0    0  501  0.00000000000E+00  0.00000000000E+00  0.13328476887E+04  0.13328482937E+04  0.12699999809E+01 0. -1.
        4   -1    0    0  501    0  0.00000000000E+00  0.00000000000E+00 -0.26415333244E+03  0.26415638538E+03  0.12699999809E+01 0.  1.
    10030    2    1    2    0    0  0.00000000000E+00  0.00000000000E+00  0.10686943562E+04  0.15970046791E+04  0.11867250389E+04 0.  0.
        2    1    3    3  502    0 -0.26049762749E+02  0.52850159362E+03  0.89565987070E+03  0.10402880027E+04  0.25500000920E-02 0. -1.
       -2    1    3    3    0  502  0.26049762749E+02 -0.52850159362E+03  0.17303448554E+03  0.55671667640E+03  0.25500000920E-02 0.  1.
</event>
<event>
 5   0  0.1455076E-03  0.1201382E+04  0.7818609E-02  0.9111648E-01
        1   -1    0    0  501    0  0.00000000000E+00  0.00000000000E+00  0.86740303606E+03  0.86740303607E+03  0.50400001928E-02 0.  1.
       -1   -1    0    0    0  501  0.00000000000E+00  0.00000000000E+00 -0.41598837973E+03  0.41598837976E+03  0.50400001928E-02 0. -1.
    10030    2    1    2    0    0  0.00000000000E+00  0.00000000000E+00  0.45141465633E+03  0.12833914158E+04  0.12013818437E+04 0.  0.
        4    1    3    3  502    0 -0.53605537089E+03  0.26626740094E+03  0.27990817341E+03  0.66076008347E+03  0.12699999809E+01 0.  1.
       -4    1    3    3    0  502  0.53605537089E+03 -0.26626740094E+03  0.17150648292E+03  0.62263133237E+03  0.12699999809E+01 0. -1.
</event>
<event>
 5   0  0.2484507E-03  0.1197476E+04  0.7818609E-02  0.9115069E-01
       -2   -1    0    0    0  501  0.00000000000E+00  0.00000000000E+00  0.47923616555E+03  0.47923616556E+03  0.25500000920E-02 0. -1.
        2   -1    0    0  501    0  0.00000000000E+00  0.00000000000E+00 -0.74803833506E+03  0.74803833506E+03  0.25500000920E-02 0.  1.
    10030    2    1    2    0    0  0.00000000000E+00  0.00000000000E+00 -0.26880216950E+03  0.12272745006E+04  0.11974757173E+04 0.  0.
        2    1    3    3  502    0 -0.30434162458E+02 -0.17399626597E+03 -0.72072656193E+03  0.74205641018E+03  0.25500000920E-02 0.  1.
       -2    1    3    3    0  502  0.30434162458E+02  0.17399626597E+03  0.45192439243E+03  0.48521809044E+03  0.25500000920E-02 0. -1.
</event>
<event>
 5   0  0.2484507E-03  0.1176058E+04  0.7818609E-02  0.9134075E-01
        2   -1    0    0  501    0  0.00000000000E+00  0.00000000000E+00  0.38168017150E+03  0.38168017151E+03  0.25500000920E-02 0.  1.
       -2   -1    0    0    0  501  0.00000000000E+00  0.00000000000E+00 -0.90593713659E+03  0.90593713660E+03  0.25500000920E-02 0. -1.
    10030    2    1    2    0    0  0.00000000000E+00  0.00000000000E+00 -0.52425696510E+03  0.12876173081E+04  0.11760582327E+04 0.  0.
        2    1    3    3  502    0  0.11846867683E+03  0.40788945435E+03  0.18310296003E+03  0.46253143497E+03  0.25500000920E-02 0.  1.
       -2    1    3    3    0  502 -0.11846867683E+03 -0.40788945435E+03 -0.70735992512E+03  0.82508587313E+03  0.25500000920E-02 0. -1.
</event>
<event>
 5   0  0.1404833E-03  0.1232622E+04  0.7818609E-02  0.9084772E-01
        1   -1    0    0  501    0  0.00000000000E+00  0.00000000000E+00  0.11224072075E+04  0.11224072075E+04  0.50400001928E-02 0. -1.
       -1   -1    0    0    0  501  0.00000000000E+00  0.00000000000E+00 -0.33841485288E+03  0.33841485292E+03  0.50400001928E-02 0.  1.
    10030    2    1    2    0    0  0.00000000000E+00  0.00000000000E+00  0.78399235459E+03  0.14608220604E+04  0.12326220346E+04 0.  0.
        1    1    3    3  502    0 -0.26995121398E+03 -0.80189415456E+02 -0.25770718599E+03  0.38172895360E+03  0.50400001928E-02 0.  1.
       -1    1    3    3    0  502  0.26995121398E+03  0.80189415456E+02  0.10416995406E+04  0.10790931068E+04  0.50400001928E-02 0. -1.
</event>
<event>
 5   0  0.2499890E-03  0.1186050E+04  0.7818609E-02  0.9125156E-01
       -2   -1    0    0    0  501  0.00000000000E+00  0.00000000000E+00  0.22876759544E+03  0.22876759546E+03  0.25500000920E-02 0.  1.
        2   -1    0    0  501    0  0.00000000000E+00  0.00000000000E+00 -0.15372734698E+04  0.15372734698E+04  0.25500000920E-02 0. -1.
    10030    2    1    2    0    0  0.00000000000E+00  0.00000000000E+00 -0.13085058744E+04  0.17660410653E+04  0.11860495019E+04 0.  0.
        5    1    3    3  502    0 -0.10919886772E+02 -0.21276893488E+03 -0.14782917361E+04  0.14935723654E+04  0.46999998093E+01 0. -1.
       -5    1    3    3    0  502  0.10919886772E+02  0.21276893488E+03  0.16978586174E+03  0.27246869989E+03  0.46999998093E+01 0.  1.
</event>
<event>
 5   0  0.1403154E-03  0.1202157E+04  0.7818609E-02  0.9110971E-01
        1   -1    0    0  501    0  0.00000000000E+00  0.00000000000E+00  0.32874126567E+03  0.32874126571E+03  0.50400001928E-02 0. -1.
       -1   -1    0    0    0  501  0.00000000000E+00  0.00000000000E+00 -0.10990260255E+04  0.10990260255E+04  0.50400001928E-02 0.  1.
    10030    2    1    2    0    0  0.00000000000E+00  0.00000000000E+00 -0.77028475981E+03  0.14277672912E+04  0.12021567396E+04 0.  0.
        3    1    3    3  502    0  0.40063825306E+03  0.26777060944E+03  0.41565836063E+02  0.48367327611E+03  0.10100000352E+00 0. -1.
       -3    1    3    3    0  502 -0.40063825306E+03 -0.26777060944E+03 -0.81185059587E+03  0.94409401508E+03  0.10100000352E+00 0.  1.
</event>
<event>
 5   0  0.2579442E-03  0.1211274E+04  0.7818609E-02  0.9103045E-01
        2   -1    0    0  501    0  0.00000000000E+00  0.00000000000E+00  0.82931739714E+03  0.82931739715E+03  0.25500000920E-02 0.  1.
       -2   -1    0    0    0  501  0.00000000000E+00  0.00000000000E+00 -0.44228685963E+03  0.44228685964E+03  0.25500000920E-02 0. -1.
    10030    2    1    2    0    0  0.00000000000E+00  0.00000000000E+00  0.38703053751E+03  0.12716042568E+04  0.12112740189E+04 0.  0.
        4    1    3    3  502    0 -0.89890771245E+02  0.53056813811E+03 -0.98194556026E+02  0.54701616399E+03  0.12699999809E+01 0. -1.
       -4    1    3    3    0  502  0.89890771245E+02 -0.53056813811E+03  0.48522509354E+03  0.72458809280E+03  0.12699999809E+01 0.  1.
</event>
<event>
 5   0  0.9678750E-04  0.1196268E+04  0.7818609E-02  0.9116129E-01
        3   -1    0    0  501    0  0.00000000000E+00  0.00000000000E+00  0.95079379941E+03  0.95079380477E+03  0.10100000352E+00 0. -1.
       -3   -1    0    0    0  501  0.00000000000E+00  0.00000000000E+00 -0.37627961139E+03  0.37627962495E+03  0.10100000352E+00 0.  1.
    10030    2    1    2    0    0  0.00000000000E+00  0.00000000000E+00  0.57451418802E+03  0.13270734297E+04  0.11962680869E+04 0.  0.
        1    1    3    3  502    0  0.65495247119E+02  0.27521404776E+03 -0.29737054907E+03  0.41044079105E+03  0.50400001928E-02 0.  1.
       -1    1    3    3    0  502 -0.65495247119E+02 -0.27521404776E+03  0.87188473709E+03  0.91663263867E+03  0.50400001928E-02 0. -1.
</event>
<event>
 5   0  0.9678750E-04  0.1196865E+04  0.7818609E-02  0.9115605E-01
        4   -1    0    0  501    0  0.00000000000E+00  0.00000000000E+00  0.27067092494E+03  0.27067390437E+03  0.12699999809E+01 0.  1.
       -4   -1    0    0    0  501  0.00000000000E+00  0.00000000000E+00 -0.13230780890E+04  0.13230786986E+04  0.12699999809E+01 0. -1.
    10030    2    1    2    0    0  0.00000000000E+00  0.00000000000E+00 -0.10524071641E+04  0.15937526029E+04  0.11968652891E+04 0.  0.
        2    1    3    3  502    0  0.57382923161E+03 -0.10667503766E+03 -0.70216749619E+03  0.91307105059E+03  0.25500000920E-02 0.  1.
       -2    1    3    3    0  502 -0.57382923161E+03  0.10667503766E+03 -0.35023966791E+03  0.68068155234E+03  0.25500000920E-02 0. -1.
</event>
<event>
 5   0  0.1404833E-03  0.1198656E+04  0.7818609E-02  0.9114034E-01
       -1   -1    0    0    0  501  0.00000000000E+00  0.00000000000E+00  0.46203466354E+03  0.46203466357E+03  0.50400001928E-02 0. -1.
        1   -1    0    0  501    0  0.00000000000E+00  0.00000000000E+00 -0.77741830058E+03  0.77741830060E+03  0.50400001928E-02 0.  1.
    10030    2    1    2    0    0  0.00000000000E+00  0.00000000000E+00 -0.31538363704E+03  0.12394529642E+04  0.11986562526E+04 0.  0.
        1    1    3    3  502    0  0.26320815461E+02  0.55325180593E+03  0.79040992142E+02  0.55948889583E+03  0.50400001928E-02 0. -1.
       -1    1    3    3    0  502 -0.26320815461E+02 -0.55325180593E+03 -0.39442462918E+03  0.67996406833E+03  0.50400001928E-02 0.  1.
</event>
<event>
 5   0  0.1404833E-03  0.1213604E+04  0.7818609E-02  0.9101031E-01
       -1   -1    0    0    0  501  0.00000000000E+00  0.00000000000E+00  0.22015641556E+03  0.22015641562E+03  0.50400001928E-02 0.  1.
        1   -1    0    0  501    0  0.00000000000E+00  0.00000000000E+00 -0.16724874398E+04  0.16724874398E+04  0.50400001928E-02 0. -1.
    10030    2    1    2    0    0  0.00000000000E+00  0.00000000000E+00 -0.14523310243E+04  0.18926438555E+04  0.12136042846E+04 0.  0.
        1    1    3    3  502    0  0.40378645365E+03 -0.40541535303E+03 -0.41114289351E+03  0.70458753007E+03  0.50400001928E-02 0. -1.
       -1    1    3    3    0  502 -0.40378645365E+03  0.40541535303E+03 -0.10411881308E+04  0.11880563254E+04  0.50400001928E-02 0.  1.
</event>
<event>
 5   0  0.1403154E-03  0.1186570E+04  0.7818609E-02  0.9124694E-01
        1   -1    0    0  501    0  0.00000000000E+00  0.00000000000E+00  0.17702250215E+04  0.17702250215E+04  0.50400001928E-02 0. -1.
       -1   -1    0    0    0  501  0.00000000000E+00  0.00000000000E+00 -0.19883743121E+03  0.19883743128E+03  0.50400001928E-02 0.  1.
    10030    2    1    2    0    0  0.00000000000E+00  0.00000000000E+00  0.15713875903E+04  0.19690624528E+04  0.11865698395E+04 0.  0.
        3    1    3    3  502    0 -0.10685251928E+02  0.14467293840E+03  0.17403400905E+04  0.17463756968E+04  0.10100000352E+00 0. -1.
       -3    1    3    3    0  502  0.10685251928E+02 -0.14467293840E+03 -0.16895250025E+03  0.22268675591E+03  0.10100000352E+00 0.  1.
</event>
<event>
 5   0  0.2579442E-03  0.1198491E+04  0.7818609E-02  0.9114178E-01
       -2   -1    0    0    0  501  0.00000000000E+00  0.00000000000E+00  0.16289050361E+03  0.16289050363E+03  0.25500000920E-02 0. -1.
        2   -1    0    0  501    0  0.00000000000E+00  0.00000000000E+00 -0.22045204690E+04  0.22045204690E+04  0.25500000920E-02 0.  1.
    10030    2    1    2    0    0  0.00000000000E+00  0.00000000000E+00 -0.20416299654E+04  0.23674109727E+04  0.11984914675E+04 0.  0.
        4    1    3    3  502    0  0.17239348773E+03 -0.38106248288E+03 -0.18685167545E+04  0.19147544504E+04  0.12699999809E+01 0.  1.
       -4    1    3    3    0  502 -0.17239348773E+03  0.38106248288E+03 -0.17311321092E+03  0.45265652229E+03  0.12699999809E+01 0. -1.
</event>
<event>
 5   0  0.2580244E-03  0.1212966E+04  0.7818609E-02  0.9101583E-01
       -2   -1    0    0    0  501  0.00000000000E+00  0.00000000000E+00  0.99830589161E+03  0.99830589161E+03  0.25500000920E-02 0. -1.
        2   -1    0    0  501    0  0.00000000000E+00  0.00000000000E+00 -0.36844566678E+03  0.36844566679E+03  0.25500000920E-02 0.  1.
    10030    2    1    2    0    0  0.00000000000E+00  0.00000000000E+00  0.62986022483E+03  0.13667515584E+04  0.12129657537E+04 0.  0.
        1    1    3    3  502    0 -0.25089722974E+03 -0.12976086226E+03 -0.28980202753E+03  0.40468817187E+03  0.50400001928E-02 0.  1.
       -1    1    3    3    0  502  0.25089722974E+03  0.12976086226E+03  0.91966225236E+03  0.96206338653E+03  0.50400001928E-02 0. -1.
</event>
<event>
 5   0  0.9678750E-04  0.1236431E+04  0.7818609E-02  0.9081553E-01
        4   -1    0    0  501    0  0.00000000000E+00  0.00000000000E+00  0.75527508411E+03  0.75527615187E+03  0.12699999809E+01 0. -1.
       -4   -1    0    0    0  501  0.00000000000E+00  0.00000000000E+00 -0.50602546420E+03  0.50602705789E+03  0.12699999809E+01 0.  1.
    10030    2    1    2    0    0  0.00000000000E+00  0.00000000000E+00  0.24924961991E+03  0.12613032098E+04  0.12364305132E+04 0.  0.
        4    1    3    3  502    0  0.56403419602E+03 -0.25188984944E+03  0.14972506811E+03  0.63561173640E+03  0.12699999809E+01 0. -1.
       -4    1    3    3    0  502 -0.56403419602E+03  0.25188984944E+03  0.99524551805E+02  0.62569147336E+03  0.12699999809E+01 0.  1.
</event>
<event>
 5   0  0.1423024E-03  0.1188952E+04  0.7818609E-02  0.9122582E-01
       -1   -1    0    0    0  501  0.00000000000E+00  0.00000000000E+00  0.68052689398E+03  0.68052689400E+03  0.50400001928E-02 0.  1.
        1   -1    0    0  501    0  0.00000000000E+00  0.00000000000E+00 -0.51930574722E+03  0.51930574724E+03  0.50400001928E-02 0. -1.
    10030    2    1    2    0    0  0.00000000000E+00  0.00000000000E+00  0.16122114676E+03  0.11998326412E+04  0.11889516848E+04 0.  0.
        2    1    3    3  502    0 -0.11371504930E+03  0.17000145008E+03 -0.48268226359E+03  0.52422683359E+03  0.25500000920E-02 0. -1.
       -2    1    3    3    0  502  0.11371504930E+03 -0.17000145008E+03  0.64390341035E+03  0.67560580765E+03  0.25500000920E-02 0.  1.
</event>
<event>
 5   0  0.1469851E-03  0.1225792E+04  0.7818609E-02  0.9090576E-01
       -1   -1    0    0    0  501  0.00000000000E+00  0.00000000000E+00  0.30471634736E+03  0.30471634740E+03  0.50400001928E-02 0. -1.
        1   -1    0    0  501    0  0.00000000000E+00  0.00000000000E+00 -0.12327571533E+04  0.12327571533E+04  0.50400001928E-02 0.  1.
    10030    2    1    2    0    0  0.00000000000E+00  0.00000000000E+00 -0.92804080594E+03  0.15374735007E+04  0.12257915924E+04 0.  0.
        5    1    3    3  502    0  0.41192359069E+03 -0.11691030064E+03 -0.10140003839E+04  0.11007124654E+04  0.46999998093E+01 0.  1.
       -5    1    3    3    0  502 -0.41192359069E+03  0.11691030064E+03  0.85959577918E+02  0.43676103535E+03  0.46999998093E+01 0. -1.
</event>
<event>
 5   0  0.2579442E-03  0.1196201E+04  0.7818609E-02  0.9116188E-01
        2   -1    0    0  501    0  0.00000000000E+00  0.00000000000E+00  0.12824912033E+04  0.12824912033E+04  0.25500000920E-02 0. -1.
       -2   -1    0    0    0  501  0.00000000000E+00  0.00000000000E+00 -0.27892914275E+03  0.27892914276E+03  0.25500000920E-02 0.  1.
    10030    2    1    2    0    0  0.00000000000E+00  0.00000000000E+00  0.10035620606E+04  0.15614203461E+04  0.11962009395E+04 0.  0.
        4    1    3    3  502    0  0.29566584100E+03  0.12407218014E+03 -0.15725542877E+03  0.35713173787E+03  0.12699999809E+01 0.  1.
       -4    1    3    3    0  502 -0.29566584100E+03 -0.12407218014E+03  0.11608174893E+04  0.12042886082E+04  0.12699999809E+01 0. -1.
</event>
<event>
 5   0  0.1403154E-03  0.1207537E+04  0.7818609E-02  0.9106285E-01
       -1   -1    0    0    0  501  0.00000000000E+00  0.00000000000E+00  0.42868738756E+03  0.42868738759E+03  0.50400001928E-02 0. -1.
        1   -1    0    0  501    0  0.00000000000E+00  0.00000000000E+00 -0.85035511865E+03  0.85035511866E+03  0.50400001928E-02 0.  1.
    10030    2    1    2    0    0  0.00000000000E+00  0.00000000000E+00 -0.42166773109E+03  0.12790425063E+04  0.12075371867E+04 0.  0.
        3    1    3    3  502    0  0.29448659648E+02  0.33701582555E+02 -0.84859569954E+03  0.84977508300E+03  0.10100000352E+00 0.  1.
       -3    1    3    3    0  502 -0.29448659648E+02 -0.33701582555E+02  0.42692796844E+03  0.42926742325E+03  0.10100000352E+00 0. -1.
</event>
<event>
 5   0  0.2579442E-03  0.1201304E+04  0.7818609E-02  0.9111716E-01
        2   -1    0    0  501    0  0.00000000000E+00  0.00000000000E+00  0.12725843231E+04  0.12725843231E+04  0.25500000920E-02 0.  1.
       -2   -1    0    0    0  501  0.00000000000E+00  0.00000000000E+00 -0.28350426518E+03  0.28350426519E+03  0.25500000920E-02 0. -1.
    10030    2    1    2    0    0  0.00000000000E+00  0.00000000000E+00  0.98908005792E+03  0.15560885883E+04  0.12013044300E+04 0.  0.
        4    1    3    3  502    0 -0.46644200548E+03  0.62952114953E+02  0.11170356780E+02  0.47080516461E+03  0.12699999809E+01 0.  1.
       -4    1    3    3    0  502  0.46644200548E+03 -0.62952114953E+02  0.97790970114E+03  0.10852834237E+04  0.12699999809E+01 0. -1.
</event>
<event>
 5   0  0.1404833E-03  0.1198153E+04  0.7818609E-02  0.9114475E-01
        1   -1    0    0  501    0  0.00000000000E+00  0.00000000000E+00  0.10637276172E+04  0.10637276172E+04  0.50400001928E-02 0. -1.
       -1   -1    0    0    0  501  0.00000000000E+00  0.00000000000E+00 -0.33739144674E+03  0.33739144677E+03  0.50400001928E-02 0.  1.
    10030    2    1    2    0    0  0.00000000000E+00  0.00000000000E+00  0.72633617046E+03  0.14011190640E+04  0.11981529113E+04 0.  0.
        1    1    3    3  502    0 -0.43229188580E+03  0.14487233620E+01 -0.12183553257E+03  0.44913502463E+03  0.50400001928E-02 0.  1.
       -1    1    3    3    0  502  0.43229188580E+03 -0.14487233620E+01  0.84817170303E+03  0.95198403935E+03  0.50400001928E-02 0. -1.
</event>
<event>
 5   0  0.1404833E-03  0.1193736E+04  0.7818609E-02  0.9118357E-01
       -1   -1    0    0    0  501  0.00000000000E+00  0.00000000000E+00  0.84648793412E+03  0.84648793414E+03  0.50400001928E-02 0.  1.
        1   -1    0    0  501    0  0.00000000000E+00  0.00000000000E+00 -0.42085830072E+03  0.42085830075E+03  0.50400001928E-02 0. -1.
    10030    2    1    2    0    0  0.00000000000E+00  0.00000000000E+00  0.42562963340E+03  0.12673462349E+04  0.11937361075E+04 0.  0.
        1    1    3    3  502    0  0.57754034838E+03 -0.94121846294E+02  0.33771131107E+03  0.67561875759E+03  0.50400001928E-02 0.  1.
       -1    1    3    3    0  502 -0.57754034838E+03  0.94121846294E+02  0.87918322331E+02  0.59172747729E+03  0.50400001928E-02 0. -1.
</event>
<event>
 5   0  0.2579442E-03  0.1200621E+04  0.7818609E-02  0.9112313E-01
       -2   -1    0    0    0  501  0.00000000000E+00  0.00000000000E+00  0.30691252510E+03  0.30691252512E+03  0.25500000920E-02 0. -1.
        2   -1    0    0  501    0  0.00000000000E+00  0.00000000000E+00 -0.11741874350E+04  0.11741874350E+04  0.25500000920E-02 0.  1.
    10030    2    1    2    0    0  0.00000000000E+00  0.00000000000E+00 -0.86727490986E+03  0.14810999601E+04  0.12006212236E+04 0.  0.
        4    1    3    3  502    0  0.20486192580E+03  0.15871411883E+03 -0.11016270479E+04  0.11316988759E+04  0.12699999809E+01 0.  1.
       -4    1    3    3    0  502 -0.20486192580E+03 -0.15871411883E+03  0.23435213801E+03  0.34940108421E+03  0.12699999809E+01 0. -1.
</event>
<event>
 5   0  0.2580244E-03  0.1165078E+04  0.7818609E-02  0.9143985E-01
        2   -1    0    0  501    0  0.00000000000E+00  0.00000000000E+00  0.14627236890E+04  0.14627236890E+04  0.25500000920E-02 0.  1.
       -2   -1    0    0    0  501  0.00000000000E+00  0.00000000000E+00 -0.23199971154E+03  0.23199971156E+03  0.25500000920E-02 0. -1.
    10030    2    1    2    0    0  0.00000000000E+00  0.00000000000E+00  0.12307239774E+04  0.16947234005E+04  0.11650776351E+04 0.  0.
        1    1    3    3  502    0 -0.44112972553E+03  0.16404980183E+03  0.11147028990E+04  0.12099877376E+04  0.50400001928E-02 0.  1.
       -1    1    3    3    0  502  0.44112972553E+03 -0.16404980183E+03  0.11602107847E+03  0.48473566291E+03  0.50400001928E-02 0. -1.
</event>
<event>
 5   0  0.2484507E-03  0.1189115E+04  0.7818609E-02  0.9122437E-01
       -2   -1    0    0    0  501  0.00000000000E+00  0.00000000000E+00  0.28196319146E+03  0.28196319147E+03  0.25500000920E-02 0. -1.
        2   -1    0    0  501    0  0.00000000000E+00  0.00000000000E+00 -0.12537057713E+04  0.12537057713E+04  0.25500000920E-02 0.  1.
    10030    2    1    2    0    0  0.00000000000E+00  0.00000000000E+00 -0.97174257983E+03  0.15356689628E+04  0.11891154367E+04 0.  0.
        2    1    3    3  502    0  0.15021263496E+03 -0.45521822539E+03 -0.31638510300E+02  0.48040447934E+03  0.25500000920E-02 0. -1.
       -2    1    3    3    0  502 -0.15021263496E+03  0.45521822539E+03 -0.94010406953E+03  0.10552644834E+04  0.25500000920E-02 0.  1.
</event>
<event>
 5   0  0.2579442E-03  0.1205061E+04  0.7818609E-02  0.9108438E-01
        2   -1    0    0  501    0  0.00000000000E+00  0.00000000000E+00  0.43600711249E+03  0.43600711249E+03  0.25500000920E-02 0.  1.
       -2   -1    0    0    0  501  0.00000000000E+00  0.00000000000E+00 -0.83265440580E+03  0.83265440580E+03  0.25500000920E-02 0. -1.
    10030    2    1    2    0    0  0.00000000000E+00  0.00000000000E+00 -0.39664729331E+03  0.12686615183E+04  0.12050613979E+04 0.  0.
        4    1    3    3  502    0 -0.40970902276E+03  0.25835747968E+02 -0.66263631132E+03  0.77949821243E+03  0.12699999809E+01 0. -1.
       -4    1    3    3    0  502  0.40970902276E+03 -0.25835747968E+02  0.26598901801E+03  0.48916330586E+03  0.12699999809E+01 0.  1.
</event>
<event>
 5   0  0.1404833E-03  0.1204858E+04  0.7818609E-02  0.9108615E-01
        1   -1    0    0  501    0  0.00000000000E+00  0.00000000000E+00  0.91734810818E+03  0.91734810819E+03  0.50400001928E-02 0.  1.
       -1   -1    0    0    0  501  0.00000000000E+00  0.00000000000E+00 -0.39561971232E+03  0.39561971235E+03  0.50400001928E-02 0. -1.
    10030    2    1    2    0    0  0.00000000000E+00  0.00000000000E+00  0.52172839586E+03  0.13129678205E+04  0.12048584891E+04 0.  0.
        1    1    3    3  502    0 -0.26160484485E+03 -0.31469312390E+03  0.74263253354E+03  0.84792212908E+03  0.50400001928E-02 0.  1.
       -1    1    3    3    0  502  0.26160484485E+03  0.31469312390E+03 -0.22090413768E+03  0.46504569146E+03  0.50400001928E-02 0. -1.
</event>
<event>
 5   0  0.1403154E-03  0.1259315E+04  0.7818609E-02  0.9062466E-01
       -1   -1    0    0    0  501  0.00000000000E+00  0.00000000000E+00  0.69696162965E+03  0.69696162967E+03  0.50400001928E-02 0. -1.
        1   -1    0    0  501    0  0.00000000000E+00  0.00000000000E+00 -0.56885292112E+03  0.56885292114E+03  0.50400001928E-02 0.  1.
    10030    2    1    2    0    0  0.00000000000E+00  0.00000000000E+00  0.12810870853E+03  0.12658145508E+04  0.12593151456E+04 0.  0.
        3    1    3    3  502    0 -0.48322218520E+03  0.11766054703E+03  0.45220919672E+03  0.67219108325E+03  0.10100000352E+00 0. -1.
       -3    1    3    3    0  502  0.48322218520E+03 -0.11766054703E+03 -0.32410048819E+03  0.59362346757E+03  0.10100000352E+00 0.  1.
</event>
<event>
 5   0  0.2484507E-03  0.1205316E+04  0.7818609E-02  0.9108216E-01
       -2   -1    0    0    0  501  0.00000000000E+00  0.00000000000E+00  0.13213152190E+04  0.13213152190E+04  0.25500000920E-02 0.  1.
        2   -1    0    0  501    0  0.00000000000E+00  0.00000000000E+00 -0.27487505122E+03  0.27487505123E+03  0.25500000920E-02 0. -1.
    10030    2    1    2    0    0  0.00000000000E+00  0.00000000000E+00  0.10464401678E+04  0.15961902702E+04  0.12053158731E+04 0.  0.
        2    1    3    3  502    0 -0.32597153213E+03 -0.36867625269E+03  0.98390810494E+03  0.11001158021E+04  0.25500000920E-02 0.  1.
       -2    1    3    3    0  502  0.32597153213E+03  0.36867625269E+03  0.62532062849E+02  0.49607446814E+03  0.25500000920E-02 0. -1.
</event>
<event>
 5   0  0.1423024E-03  0.1199322E+04  0.7818609E-02  0.9113450E-01
        1   -1    0    0  501    0  0.00000000000E+00  0.00000000000E+00  0.12230352400E+04  0.12230352400E+04  0.50400001928E-02 0.  1.
       -1   -1    0    0    0  501  0.00000000000E+00  0.00000000000E+00 -0.29401701325E+03  0.29401701329E+03  0.50400001928E-02 0. -1.
    10030    2    1    2    0    0  0.00000000000E+00  0.00000000000E+00  0.92901822677E+03  0.15170522533E+04  0.11993217557E+04 0.  0.
        2    1    3    3  502    0 -0.75972389148E+02 -0.79426306209E+02  0.12101852542E+04  0.12151661169E+04  0.25500000920E-02 0.  1.
       -2    1    3    3    0  502  0.75972389148E+02  0.79426306209E+02 -0.28116702747E+03  0.30188613644E+03  0.25500000920E-02 0. -1.
</event>
<event>
 5   0  0.1455076E-03  0.1186361E+04  0.7818609E-02  0.9124880E-01
        1   -1    0    0  501    0  0.00000000000E+00  0.00000000000E+00  0.79332709098E+03  0.79332709099E+03  0.50400001928E-02 0. -1.
       -1   -1    0    0    0  501  0.00000000000E+00  0.00000000000E+00 -0.44352809890E+03  0.44352809893E+03  0.50400001928E-02 0.  1.
    10030    2    1    2    0    0  0.00000000000E+00  0.00000000000E+00  0.34979899208E+03  0.12368551899E+04  0.11863605801E+04 0.  0.
        4    1    3    3  502    0  0.10139672364E+03  0.36822545797E+03 -0.29827919095E+03  0.48460640948E+03  0.12699999809E+01 0.  1.
       -4    1    3    3    0  502 -0.10139672364E+03 -0.36822545797E+03  0.64807818302E+03  0.75224878044E+03  0.12699999809E+01 0. -1.
</event>
<event>
 5   0  0.1455076E-03  0.1213909E+04  0.7818609E-02  0.9100768E-01
        1   -1    0    0  501    0  0.00000000000E+00  0.00000000000E+00  0.10319987658E+04  0.10319987658E+04  0.50400001928E-02 0.  1.
       -1   -1    0    0    0  501  0.00000000000E+00  0.00000000000E+00 -0.35697131409E+03  0.35697131413E+03  0.50400001928E-02 0. -1.
    10030    2    1    2    0    0  0.00000000000E+00  0.00000000000E+00  0.67502745174E+03  0.13889700800E+04  0.12139093139E+04 0.  0.
        4    1    3    3  502    0  0.56610826693E+03  0.15242765610E+03  0.15776097265E+03  0.60712675581E+03  0.12699999809E+01 0. -1.
       -4    1    3    3    0  502 -0.56610826693E+03 -0.15242765610E+03  0.51726647909E+03  0.78184332415E+03  0.12699999809E+01 0.  1.
</event>
<event>
 5   0  0.2484507E-03  0.1187174E+04  0.7818609E-02  0.9124157E-01
       -2   -1    0    0    0  501  0.00000000000E+00  0.00000000000E+00  0.16180347398E+03  0.16180347400E+03  0.25500000920E-02 0.  1.
        2   -1    0    0  501    0  0.00000000000E+00  0.00000000000E+00 -0.21776152935E+04  0.21776152935E+04  0.25500000920E-02 0. -1.
    10030    2    1    2    0    0  0.00000000000E+00  0.00000000000E+00 -0.20158118196E+04  0.23394187675E+04  0.11871743250E+04 0.  0.
        2    1    3    3  502    0 -0.18707171725E+03 -0.56268814984E+03 -0.95459321187E+03  0.11237713208E+04  0.25500000920E-02 0. -1.
       -2    1    3    3    0  502  0.18707171725E+03  0.56268814984E+03 -0.10612186077E+04  0.12156474467E+04  0.25500000920E-02 0.  1.
</event>
<event>
 5   0  0.1404833E-03  0.1198266E+04  0.7818609E-02  0.9114376E-01
        1   -1    0    0  501    0  0.00000000000E+00  0.00000000000E+00  0.10709716079E+04  0.10709716079E+04  0.50400001928E-02 0.  1.
       -1   -1    0    0    0  501  0.00000000000E+00  0.00000000000E+00 -0.33517262035E+03  0.33517262039E+03  0.50400001928E-02 0. -1.
    10030    2    1    2    0    0  0.00000000000E+00  0.00000000000E+00  0.73579898755E+03  0.14061442283E+04  0.11982660142E+04 0.  0.
        1    1    3    3  502    0  0.23033217847E+03  0.99658898501E+02 -0.27051765775E+03  0.36900489383E+03  0.50400001928E-02 0. -1.
       -1    1    3    3    0  502 -0.23033217847E+03 -0.99658898501E+02  0.10063166453E+04  0.10371393345E+04  0.50400001928E-02 0.  1.
</event>
<event>
 5   0  0.2484507E-03  0.1215691E+04  0.7818609E-02  0.9099232E-01
        2   -1    0    0  501    0  0.00000000000E+00  0.00000000000E+00  0.10621028683E+04  0.10621028683E+04  0.25500000920E-02 0.  1.
       -2   -1    0    0    0  501  0.00000000000E+00  0.00000000000E+00 -0.34787221666E+03  0.34787221667E+03  0.25500000920E-02 0. -1.
    10030    2    1    2    0    0  0.00000000000E+00  0.00000000000E+00  0.71423065164E+03  0.14099750850E+04  0.12156908803E+04 0.  0.
        2    1    3    3  502    0 -0.18626480792E+03  0.65429617910E+02  0.10238826638E+04  0.10427422130E+04  0.25500000920E-02 0.  1.
       -2    1    3    3    0  502  0.18626480792E+03 -0.65429617910E+02 -0.30965201219E+03  0.36723287194E+03  0.25500000920E-02 0. -1.
</event>
<event>
 5   0  0.2484507E-03  0.1190044E+04  0.7818609E-02  0.9121616E-01
        2   -1    0    0  501    0  0.00000000000E+00  0.00000000000E+00  0.85225990243E+03  0.85225990244E+03  0.25500000920E-02 0.  1.
       -2   -1    0    0    0  501  0.00000000000E+00  0.00000000000E+00 -0.41542661125E+03  0.41542661126E+03  0.25500000920E-02 0. -1.
    10030    2    1    2    0    0  0.00000000000E+00  0.00000000000E+00  0.43683329118E+03  0.12676865137E+04  0.11900444415E+04 0.  0.
        2    1    3    3  502    0  0.57629397477E+03  0.12649498258E+02  0.61219518578E+02  0.57967455061E+03  0.25500000920E-02 0. -1.
       -2    1    3    3    0  502 -0.57629397477E+03 -0.12649498258E+02  0.37561377261E+03  0.68801196308E+03  0.25500000920E-02 0.  1.
</event>
<event>
 5   0  0.2484507E-03  0.1190152E+04  0.7818609E-02  0.9121520E-01
       -2   -1    0    0    0  501  0.00000000000E+00  0.00000000000E+00  0.41513372185E+03  0.41513372186E+03  0.25500000920E-02 0.  1.
        2   -1    0    0  501    0  0.00000000000E+00  0.00000000000E+00 -0.85301541441E+03  0.85301541441E+03  0.25500000920E-02 0. -1.
    10030    2    1    2    0    0  0.00000000000E+00  0.00000000000E+00 -0.43788169255E+03  0.12681491363E+04  0.11901520303E+04 0.  0.
        2    1    3    3  502    0 -0.73410331981E+02 -0.54909448727E+03  0.12605738669E+02  0.55412339550E+03  0.25500000920E-02 0.  1.
       -2    1    3    3    0  502  0.73410331981E+02  0.54909448727E+03 -0.45048743122E+03  0.71402574077E+03  0.25500000920E-02 0. -1.
</event>
<event>
 5   0  0.2580244E-03  0.1204103E+04  0.7818609E-02  0.9109273E-01
       -2   -1    0    0    0  501  0.00000000000E+00  0.00000000000E+00  0.83009556884E+03  0.83009556885E+03  0.25500000920E-02 0.  1.
        2   -1    0    0  501    0  0.00000000000E+00  0.00000000000E+00 -0.43665572061E+03  0.43665572062E+03  0.25500000920E-02 0. -1.
    10030    2    1    2    0    0  0.00000000000E+00  0.00000000000E+00  0.39343984823E+03  0.12667512895E+04  0.12041029504E+04 0.  0.
        1    1    3    3  502    0  0.54330753724E+03 -0.84246088970E+02 -0.61371547380E+02  0.55321510318E+03  0.50400001928E-02 0.  1.
       -1    1    3    3    0  502 -0.54330753724E+03  0.84246088970E+02  0.45481139561E+03  0.71353618628E+03  0.50400001928E-02 0. -1.
</event>
<event>
 5   0  0.1423024E-03  0.1197894E+04  0.7818609E-02  0.9114702E-01
        1   -1    0    0  501    0  0.00000000000E+00  0.00000000000E+00  0.59054628763E+03  0.59054628765E+03  0.50400001928E-02 0. -1.
       -1   -1    0    0    0  501  0.00000000000E+00  0.00000000000E+00 -0.60746727610E+03  0.60746727612E+03  0.50400001928E-02 0.  1.
    10030    2    1    2    0    0  0.00000000000E+00  0.00000000000E+00 -0.16920988473E+02  0.11980135638E+04  0.11978940601E+04 0.  0.
        2    1    3    3  502    0  0.34202818576E+03  0.24270768427E+03 -0.43610956645E+03  0.60504698480E+03  0.25500000920E-02 0.  1.
       -2    1    3    3    0  502 -0.34202818576E+03 -0.24270768427E+03  0.41918857798E+03  0.59296657897E+03  0.25500000920E-02 0. -1.
</event>
<event>
 5   0  0.2579442E-03  0.1213005E+04  0.7818609E-02  0.9101549E-01
        2   -1    0    0  501    0  0.00000000000E+00  0.00000000000E+00  0.81458184647E+03  0.81458184647E+03  0.25500000920E-02 0. -1.
       -2   -1    0    0    0  501  0.00000000000E+00  0.00000000000E+00 -0.45157573752E+03  0.45157573752E+03  0.25500000920E-02 0.  1.
    10030    2    1    2    0    0  0.00000000000E+00  0.00000000000E+00  0.36300610895E+03  0.12661575840E+04  0.12130051906E+04 0.  0.
        4    1    3    3  502    0 -0.24882627542E+03 -0.51655845347E+03  0.38789596991E+03  0.69225143377E+03  0.12699999809E+01 0. -1.
       -4    1    3    3    0  502  0.24882627542E+03  0.51655845347E+03 -0.24889860959E+02  0.57390615022E+03  0.12699999809E+01 0.  1.
</event>
<event>
 5   0  0.2499890E-03  0.1211707E+04  0.7818609E-02  0.9102671E-01
        2   -1    0    0  501    0  0.00000000000E+00  0.00000000000E+00  0.18389250533E+04  0.18389250533E+04  0.25500000920E-02 0. -1.
       -2   -1    0    0    0  501  0.00000000000E+00  0.00000000000E+00 -0.19960493946E+03  0.19960493948E+03  0.25500000920E-02 0.  1.
    10030    2    1    2    0    0  0.00000000000E+00  0.00000000000E+00  0.16393201138E+04  0.20385299927E+04  0.12117070998E+04 0.  0.
        5    1    3    3  502    0  0.35789386700E+03  0.33267845484E+03  0.14222027955E+04  0.15038104454E+04  0.46999998093E+01 0. -1.
       -5    1    3    3    0  502 -0.35789386700E+03 -0.33267845484E+03  0.21711731832E+03  0.53471954730E+03  0.46999998093E+01 0.  1.
</event>
<event>
 5   0  0.1403154E-03  0.1200372E+04  0.7818609E-02  0.9112531E-01
        1   -1    0    0  501    0  0.00000000000E+00  0.00000000000E+00  0.85754297386E+03  0.85754297387E+03  0.50400001928E-02 0. -1.
       -1   -1    0    0    0  501  0.00000000000E+00  0.00000000000E+00 -0.42006413544E+03  0.42006413547E+03  0.50400001928E-02 0.  1.
    10030    2    1    2    0    0  0.00000000000E+00  0.00000000000E+00  0.43747883842E+03  0.12776071093E+04  0.12003716890E+04 0.  0.
        3    1    3    3  502    0  0.32763866623E+03 -0.37538839380E+03  0.57487227568E+03  0.76075073799E+03  0.10100000352E+00 0. -1.
       -3    1    3    3    0  502 -0.32763866623E+03  0.37538839380E+03 -0.13739343726E+03  0.51685637135E+03  0.10100000352E+00 0.  1.
</event>
<event>
 5   0  0.2499890E-03  0.1210200E+04  0.7818609E-02  0.9103975E-01
        2   -1    0    0  501    0  0.00000000000E+00  0.00000000000E+00  0.18922856679E+04  0.18922856679E+04  0.25500000920E-02 0. -1.
       -2   -1    0    0    0  501  0.00000000000E+00  0.00000000000E+00 -0.19349394129E+03  0.19349394130E+03  0.25500000920E-02 0.  1.
    10030    2    1    2    0    0  0.00000000000E+00  0.00000000000E+00  0.16987917266E+04  0.20857796092E+04  0.12101996727E+04 0.  0.
        5    1    3    3  502    0 -0.42425859352E+03  0.36722950129E+03  0.45914246615E+03  0.72504258841E+03  0.46999998093E+01 0.  1.
       -5    1    3    3    0  502  0.42425859352E+03 -0.36722950129E+03  0.12396492605E+04  0.13607370208E+04  0.46999998093E+01 0. -1.
</event>
<event>
 5   0  0.1469851E-03  0.1171931E+04  0.7818609E-02  0.9137786E-01
        1   -1    0    0  501    0  0.00000000000E+00  0.00000000000E+00  0.10331076558E+04  0.10331076558E+04  0.50400001928E-02 0. -1.
       -1   -1    0    0    0  501  0.00000000000E+00  0.00000000000E+00 -0.33235243245E+03  0.33235243249E+03  0.50400001928E-02 0.  1.
    10030    2    1    2    0    0  0.00000000000E+00  0.00000000000E+00  0.70075522332E+03  0.13654600883E+04  0.11719314697E+04 0.  0.
        5    1    3    3  502    0 -0.19450764251E+03  0.39707489756E+03  0.79836016549E+03  0.91263505363E+03  0.46999998093E+01 0. -1.
       -5    1    3    3    0  502  0.19450764251E+03 -0.39707489756E+03 -0.97604942173E+02  0.45282503465E+03  0.46999998093E+01 0.  1.
</event>
<event>
 5   0  0.2499890E-03  0.1208535E+04  0.7818609E-02  0.9105419E-01
        2   -1    0    0  501    0  0.00000000000E+00  0.00000000000E+00  0.20403932507E+04  0.20403932507E+04  0.25500000920E-02 0.  1.
       -2   -1    0    0    0  501  0.00000000000E+00  0.00000000000E+00 -0.17895521065E+03  0.17895521066E+03  0.25500000920E-02 0. -1.
    10030    2    1    2    0    0  0.00000000000E+00  0.00000000000E+00  0.18614380400E+04  0.22193484613E+04  0.12085346565E+04 0.  0.
        5    1    3    3  502    0 -0.27929662365E+03 -0.39903548795E+03  0.27401544387E+03  0.55887608475E+03  0.46999998093E+01 0. -1.
       -5    1    3    3    0  502  0.27929662365E+03  0.39903548795E+03  0.15874225961E+04  0.16604723766E+04  0.46999998093E+01 0.  1.
</event>
<event>
 5   0  0.2484507E-03  0.1198902E+04  0.7818609E-02  0.9113818E-01
        2   -1    0    0  501    0  0.00000000000E+00  0.00000000000E+00  0.90418558279E+03  0.90418558279E+03  0.25500000920E-02 0.  1.
       -2   -1    0    0    0  501  0.00000000000E+00  0.00000000000E+00 -0.39742007859E+03  0.39742007860E+03  0.25500000920E-02 0. -1.
    10030    2    1    2    0    0  0.00000000000E+00  0.00000000000E+00  0.50676550419E+03  0.13016056614E+04  0.11989020066E+04 0.  0.
        2    1    3    3  502    0  0.27750833930E+03 -0.55365146678E+01  0.83021716392E+03  0.87538681202E+03  0.25500000920E-02 0.  1.
       -2    1    3    3    0  502 -0.27750833930E+03  0.55365146678E+01 -0.32345165972E+03  0.42621884938E+03  0.25500000920E-02 0. -1.
</event>
<event>
 5   0  0.1404833E-03  0.1203947E+04  0.7818609E-02  0.9109408E-01
       -1   -1    0    0    0  501  0.00000000000E+00  0.00000000000E+00  0.22047961563E+03  0.22047961568E+03  0.50400001928E-02 0.  1.
        1   -1    0    0  501    0  0.00000000000E+00  0.00000000000E+00 -0.16435636694E+04  0.16435636694E+04  0.50400001928E-02 0. -1.
    10030    2    1    2    0    0  0.00000000000E+00  0.00000000000E+00 -0.14230840538E+04  0.18640432851E+04  0.12039473180E+04 0.  0.
        1    1    3    3  502    0 -0.24045794136E+03 -0.54210916169E+02  0.13876125458E+03  0.28286663075E+03  0.50400001928E-02 0.  1.
       -1    1    3    3    0  502  0.24045794136E+03  0.54210916169E+02 -0.15618453083E+04  0.15811766543E+04  0.50400001928E-02 0. -1.
</event>
<event>
 5   0  0.1404833E-03  0.1179482E+04  0.7818609E-02  0.9131008E-01
       -1   -1    0    0    0  501  0.00000000000E+00  0.00000000000E+00  0.17242641936E+03  0.17242641943E+03  0.50400001928E-02 0. -1.
        1   -1    0    0  501    0  0.00000000000E+00  0.00000000000E+00 -0.20170614434E+04  0.20170614434E+04  0.50400001928E-02 0.  1.
    10030    2    1    2    0    0  0.00000000000E+00  0.00000000000E+00 -0.18446350240E+04  0.21894878628E+04  0.11794823990E+04 0.  0.
        1    1    3    3  502    0  0.37705665215E+03 -0.42756929284E+03 -0.64197460682E+03  0.85855612218E+03  0.50400001928E-02 0. -1.
       -1    1    3    3    0  502 -0.37705665215E+03  0.42756929284E+03 -0.12026604172E+04  0.13309317406E+04  0.50400001928E-02 0.  1.
</event>
<event>
 5   0  0.2579442E-03  0.1168304E+04  0.7818609E-02  0.9141062E-01
       -2   -1    0    0    0  501  0.00000000000E+00  0.00000000000E+00  0.12317057935E+04  0.12317057935E+04  0.25500000920E-02 0. -1.
        2   -1    0    0  501    0  0.00000000000E+00  0.00000000000E+00 -0.27704134655E+03  0.27704134656E+03  0.25500000920E-02 0.  1.
    10030    2    1    2    0    0  0.00000000000E+00  0.00000000000E+00  0.95466444690E+03  0.15087471400E+04  0.11683037817E+04 0.  0.
        4    1    3    3  502    0  0.69635621712E+02 -0.25000776979E+03 -0.19850155872E+03  0.32673764166E+03  0.12699999809E+01 0.  1.
       -4    1    3    3    0  502 -0.69635621712E+02  0.25000776979E+03  0.11531660056E+04  0.11820094984E+04  0.12699999809E+01 0. -1.
</event>
<event>
 5   0  0.2579442E-03  0.1190644E+04  0.7818609E-02  0.9121085E-01
        2   -1    0    0  501    0  0.00000000000E+00  0.00000000000E+00  0.11724966237E+04  0.11724966237E+04  0.25500000920E-02 0.  1.
       -2   -1    0    0    0  501  0.00000000000E+00  0.00000000000E+00 -0.30226827739E+03  0.30226827740E+03  0.25500000920E-02 0. -1.
    10030    2    1    2    0    0  0.00000000000E+00  0.00000000000E+00  0.87022834630E+03  0.14747649011E+04  0.11906444216E+04 0.  0.
        4    1    3    3  502    0  0.49268762482E+02 -0.56985643270E+03  0.63955584678E+03  0.85801926488E+03  0.12699999809E+01 0.  1.
       -4    1    3    3    0  502 -0.49268762482E+02  0.56985643270E+03  0.23067249952E+03  0.61674563621E+03  0.12699999809E+01 0. -1.
</event>
<event>
 5   0  0.2580244E-03  0.1182865E+04  0.7818609E-02  0.9127988E-01
        2   -1    0    0  501    0  0.00000000000E+00  0.00000000000E+00  0.82336917432E+03  0.82336917433E+03  0.25500000920E-02 0. -1.
       -2   -1    0    0    0  501  0.00000000000E+00  0.00000000000E+00 -0.42483060794E+03  0.42483060794E+03  0.25500000920E-02 0.  1.
    10030    2    1    2    0    0  0.00000000000E+00  0.00000000000E+00  0.39853856639E+03  0.12481997823E+04  0.11828650420E+04 0.  0.
        1    1    3    3  502    0 -0.31791460945E+03 -0.45910211878E+02 -0.32476371165E+03  0.45678103604E+03  0.50400001928E-02 0.  1.
       -1    1    3    3    0  502  0.31791460945E+03  0.45910211878E+02  0.72330227803E+03  0.79141874623E+03  0.50400001928E-02 0. -1.
</event>
<event>
 5   0  0.2499890E-03  0.1268153E+04  0.7818609E-02  0.9055209E-01
       -2   -1    0    0    0  501  0.00000000000E+00  0.00000000000E+00  0.66286991032E+03  0.66286991033E+03  0.25500000920E-02 0.  1.
        2   -1    0    0  501    0  0.00000000000E+00  0.00000000000E+00 -0.60653367138E+03  0.60653367139E+03  0.25500000920E-02 0. -1.
    10030    2    1    2    0    0  0.00000000000E+00  0.00000000000E+00  0.56336238940E+02  0.12694035817E+04  0.12681528620E+04 0.  0.
        5    1    3    3  502    0 -0.49534997357E+02  0.32426641193E+02  0.66007959211E+03  0.66274607577E+03  0.46999998093E+01 0.  1.
       -5    1    3    3    0  502  0.49534997357E+02 -0.32426641193E+02 -0.60374335317E+03  0.60665750595E+03  0.46999998093E+01 0. -1.
</event>
<event>
 5   0  0.1403154E-03  0.1195534E+04  0.7818609E-02  0.9116774E-01
       -1   -1    0    0    0  501  0.00000000000E+00  0.00000000000E+00  0.22847142039E+03  0.22847142045E+03  0.50400001928E-02 0. -1.
        1   -1    0    0  501    0  0.00000000000E+00  0.00000000000E+00 -0.15639833331E+04  0.15639833331E+04  0.50400001928E-02 0.  1.
    10030    2    1    2    0    0  0.00000000000E+00  0.00000000000E+00 -0.13355119127E+04  0.17924547536E+04  0.11955341796E+04 0.  0.
        3    1    3    3  502    0 -0.42467989874E+03  0.41754086566E+03 -0.74467551499E+03  0.95353816060E+03  0.10100000352E+00 0. -1.
       -3    1    3    3    0  502  0.42467989874E+03 -0.41754086566E+03 -0.59083639775E+03  0.83891659299E+03  0.10100000352E+00 0.  1.
</event>
<event>
 5   0  0.1404833E-03  0.1209836E+04  0.7818609E-02  0.9104290E-01
        1   -1    0    0  501    0  0.00000000000E+00  0.00000000000E+00  0.20705081313E+03  0.20705081319E+03  0.50400001928E-02 0.  1.
       -1   -1    0    0    0  501  0.00000000000E+00  0.00000000000E+00 -0.17673234250E+04  0.17673234250E+04  0.50400001928E-02 0. -1.
    10030    2    1    2    0    0  0.00000000000E+00  0.00000000000E+00 -0.15602726119E+04  0.19743742382E+04  0.12098359431E+04 0.  0.
        1    1    3    3  502    0  0.15592030971E+03  0.13120718161E+03 -0.17096224859E+04  0.17217245749E+04  0.50400001928E-02 0. -1.
       -1    1    3    3    0  502 -0.15592030971E+03 -0.13120718161E+03  0.14934987401E+03  0.25264966332E+03  0.50400001928E-02 0.  1.
</event>
<event>
 5   0  0.2484507E-03  0.1200473E+04  0.7818609E-02  0.9112443E-01
       -2   -1    0    0    0  501  0.00000000000E+00  0.00000000000E+00  0.31758904097E+03  0.31758904098E+03  0.25500000920E-02 0. -1.
        2   -1    0    0  501    0  0.00000000000E+00  0.00000000000E+00 -0.11344335415E+04  0.11344335415E+04  0.25500000920E-02 0.  1.
    10030    2    1    2    0    0  0.00000000000E+00  0.00000000000E+00 -0.81684450051E+03  0.14520225825E+04  0.12004726744E+04 0.  0.
        2    1    3    3  502    0 -0.64319418307E+02  0.21106953114E+03 -0.10835986538E+04  0.11058360535E+04  0.25500000920E-02 0.  1.
       -2    1    3    3    0  502  0.64319418307E+02 -0.21106953114E+03  0.26675415332E+03  0.34618652901E+03  0.25500000920E-02 0. -1.
</event>
<event>
 5   0  0.1469851E-03  0.1181855E+04  0.7818609E-02  0.9128888E-01
        1   -1    0    0  501    0  0.00000000000E+00  0.00000000000E+00  0.11660706171E+04  0.11660706171E+04  0.50400001928E-02 0. -1.
       -1   -1    0    0    0  501  0.00000000000E+00  0.00000000000E+00 -0.29946350065E+03  0.29946350069E+03  0.50400001928E-02 0.  1.
    10030    2    1    2    0    0  0.00000000000E+00  0.00000000000E+00  0.86660711646E+03  0.14655341178E+04  0.11818554718E+04 0.  0.
        5    1    3    3  502    0  0.47506310176E+03 -0.19665472500E+03  0.79443815279E+03  0.94631501105E+03  0.46999998093E+01 0. -1.
       -5    1    3    3    0  502 -0.47506310176E+03  0.19665472500E+03  0.72168963662E+02  0.51921910677E+03  0.46999998093E+01 0.  1.
</event>
<event>
 5   0  0.1404833E-03  0.1209185E+04  0.7818609E-02  0.9104855E-01
        1   -1    0    0  501    0  0.00000000000E+00  0.00000000000E+00  0.20162136483E+04  0.20162136483E+04  0.50400001928E-02 0. -1.
       -1   -1    0    0    0  501  0.00000000000E+00  0.00000000000E+00 -0.18129616427E+03  0.18129616434E+03  0.50400001928E-02 0.  1.
    10030    2    1    2    0    0  0.00000000000E+00  0.00000000000E+00  0.18349174840E+04  0.21975098127E+04  0.12091845200E+04 0.  0.
        1    1    3    3  502    0  0.29152879329E+03 -0.44251831416E+02 -0.41757997924E+02  0.29781032943E+03  0.50400001928E-02 0.  1.
       -1    1    3    3    0  502 -0.29152879329E+03  0.44251831416E+02  0.18766754820E+04  0.18996994832E+04  0.50400001928E-02 0. -1.
</event>
<event>
 5   0  0.1423024E-03  0.1204600E+04  0.7818609E-02  0.9108839E-01
       -1   -1    0    0    0  501  0.00000000000E+00  0.00000000000E+00  0.56995237631E+03  0.56995237633E+03  0.50400001928E-02 0. -1.
        1   -1    0    0  501    0  0.00000000000E+00  0.00000000000E+00 -0.63648381840E+03  0.63648381842E+03  0.50400001928E-02 0.  1.
    10030    2    1    2    0    0  0.00000000000E+00  0.00000000000E+00 -0.66531442094E+02  0.12064361948E+04  0.12046002902E+04 0.  0.
        2    1    3    3  502    0 -0.43755603057E+02  0.17512893062E+03 -0.60875505974E+03  0.63495465815E+03  0.25500000920E-02 0.  1.
       -2    1    3    3    0  502  0.43755603057E+02 -0.17512893062E+03  0.54222361765E+03  0.57148153661E+03  0.25500000920E-02 0. -1.
</event>
<event>
 5   0  0.2484507E-03  0.1187366E+04  0.7818609E-02  0.9123987E-01
       -2   -1    0    0    0  501  0.00000000000E+00  0.00000000000E+00  0.43585341584E+03  0.43585341585E+03  0.25500000920E-02 0. -1.
        2   -1    0    0  501    0  0.00000000000E+00  0.00000000000E+00 -0.80866551651E+03  0.80866551652E+03  0.25500000920E-02 0.  1.
    10030    2    1    2    0    0  0.00000000000E+00  0.00000000000E+00 -0.37281210067E+03  0.12445189324E+04  0.11873662075E+04 0.  0.
        2    1    3    3  502    0 -0.21064574650E+03  0.17906891153E+03  0.36426079043E+03  0.45729993336E+03  0.25500000920E-02 0. -1.
       -2    1    3    3    0  502  0.21064574650E+03 -0.17906891153E+03 -0.73707289110E+03  0.78721899901E+03  0.25500000920E-02 0.  1.
</event>
<event>
 5   0  0.2517023E-03  0.1180851E+04  0.7818609E-02  0.9129784E-01
       -2   -1    0    0    0  501  0.00000000000E+00  0.00000000000E+00  0.51256488541E+03  0.51256488542E+03  0.25500000920E-02 0. -1.
        2   -1    0    0  501    0  0.00000000000E+00  0.00000000000E+00 -0.68011383996E+03  0.68011383997E+03  0.25500000920E-02 0.  1.
    10030    2    1    2    0    0  0.00000000000E+00  0.00000000000E+00 -0.16754895455E+03  0.11926787254E+04  0.11808513411E+04 0.  0.
        3    1    3    3  502    0 -0.25506962492E+03  0.53069411105E+03 -0.39682806024E+02  0.59014531122E+03  0.10100000352E+00 0. -1.
       -3    1    3    3    0  502  0.25506962492E+03 -0.53069411105E+03 -0.12786614853E+03  0.60253341417E+03  0.10100000352E+00 0.  1.
</event>
<event>
 5   0  0.1469851E-03  0.1198858E+04  0.7818609E-02  0.9113857E-01
        1   -1    0    0  501    0  0.00000000000E+00  0.00000000000E+00  0.16718371552E+04  0.16718371552E+04  0.50400001928E-02 0.  1.
       -1   -1    0    0    0  501  0.00000000000E+00  0.00000000000E+00 -0.21492220677E+03  0.21492220683E+03  0.50400001928E-02 0. -1.
    10030    2    1    2    0    0  0.00000000000E+00  0.00000000000E+00  0.14569149484E+04  0.18867593620E+04  0.11988576743E+04 0.  0.
        5    1    3    3  502    0  0.37405900641E+03 -0.38580394921E+03  0.11464126533E+04  0.12661156697E+04  0.46999998093E+01 0.  1.
       -5    1    3    3    0  502 -0.37405900641E+03  0.38580394921E+03  0.31050229511E+03  0.62064369228E+03  0.46999998093E+01 0. -1.
</event>
<event>
 5   0  0.1404833E-03  0.1201177E+04  0.7818609E-02  0.9111827E-01
        1   -1    0    0  501    0  0.00000000000E+00  0.00000000000E+00  0.18888479776E+04  0.18888479776E+04  0.50400001928E-02 0. -1.
       -1   -1    0    0    0  501  0.00000000000E+00  0.00000000000E+00 -0.19096635364E+03  0.19096635370E+03  0.50400001928E-02 0.  1.
    10030    2    1    2    0    0  0.00000000000E+00  0.00000000000E+00  0.16978816240E+04  0.20798143313E+04  0.12011767746E+04 0.  0.
        1    1    3    3  502    0  0.17828834784E+03  0.55093858145E+03  0.11248192879E+04  0.12651239014E+04  0.50400001928E-02 0.  1.
       -1    1    3    3    0  502 -0.17828834784E+03 -0.55093858145E+03  0.57306233607E+03  0.81469042989E+03  0.50400001928E-02 0. -1.
</event>
<event>
 5   0  0.1403154E-03  0.1199615E+04  0.7818609E-02  0.9113193E-01
        1   -1    0    0  501    0  0.00000000000E+00  0.00000000000E+00  0.27236282869E+04  0.27236282869E+04  0.50400001928E-02 0. -1.
       -1   -1    0    0    0  501  0.00000000000E+00  0.00000000000E+00 -0.13209188005E+03  0.13209188015E+03  0.50400001928E-02 0.  1.
    10030    2    1    2    0    0  0.00000000000E+00  0.00000000000E+00  0.25915364068E+04  0.28557201670E+04  0.11996152402E+04 0.  0.
        3    1    3    3  502    0  0.24369984714E+03  0.50884574993E+03  0.17804593174E+04  0.18677122379E+04  0.10100000352E+00 0. -1.
       -3    1    3    3    0  502 -0.24369984714E+03 -0.50884574993E+03  0.81107708946E+03  0.98800792910E+03  0.10100000352E+00 0.  1.
</event>
<event>
 5   0  0.2499890E-03  0.1216109E+04  0.7818609E-02  0.9098872E-01
        2   -1    0    0  501    0  0.00000000000E+00  0.00000000000E+00  0.11481585481E+04  0.11481585481E+04  0.25500000920E-02 0. -1.
       -2   -1    0    0    0  501  0.00000000000E+00  0.00000000000E+00 -0.32202037052E+03  0.32202037053E+03  0.25500000920E-02 0.  1.
    10030    2    1    2    0    0  0.00000000000E+00  0.00000000000E+00  0.82613817754E+03  0.14701789186E+04  0.12161092732E+04 0.  0.
        5    1    3    3  502    0  0.14300463753E+03 -0.49277695736E+03  0.18677751255E+02  0.51346899074E+03  0.46999998093E+01 0.  1.
       -5    1    3    3    0  502 -0.14300463753E+03  0.49277695736E+03  0.80746042628E+03  0.95670992786E+03  0.46999998093E+01 0. -1.
</event>
<event>
 5   0  0.9678750E-04  0.1194154E+04  0.7818609E-02  0.9117989E-01
        3   -1    0    0  501    0  0.00000000000E+00  0.00000000000E+00  0.24201457279E+03  0.24201459386E+03  0.10100000352E+00 0.  1.
       -3   -1    0    0    0  501  0.00000000000E+00  0.00000000000E+00 -0.14730556478E+04  0.14730556512E+04  0.10100000352E+00 0. -1.
    10030    2    1    2    0    0  0.00000000000E+00  0.00000000000E+00 -0.12310410750E+04  0.17150702451E+04  0.11941540174E+04 0.  0.
        2    1    3    3  502    0  0.22980580164E+03 -0.53571102660E+03 -0.80114323464E+03  0.99077116071E+03  0.25500000920E-02 0. -1.
       -2    1    3    3    0  502 -0.22980580164E+03  0.53571102660E+03 -0.42989784032E+03  0.72429908437E+03  0.25500000920E-02 0.  1.
</event>
<event>
 5   0  0.2484507E-03  0.1236905E+04  0.7818609E-02  0.9081153E-01
       -2   -1    0    0    0  501  0.00000000000E+00  0.00000000000E+00  0.10610452967E+04  0.10610452967E+04  0.25500000920E-02 0. -1.
        2   -1    0    0  501    0  0.00000000000E+00  0.00000000000E+00 -0.36047791707E+03  0.36047791708E+03  0.25500000920E-02 0.  1.
    10030    2    1    2    0    0  0.00000000000E+00  0.00000000000E+00  0.70056737964E+03  0.14215232138E+04  0.12369048443E+04 0.  0.
        2    1    3    3  502    0  0.39413522744E+03 -0.17366773666E+03 -0.15978551637E+03  0.45938488386E+03  0.25500000920E-02 0.  1.
       -2    1    3    3    0  502 -0.39413522744E+03  0.17366773666E+03  0.86035289601E+03  0.96213832994E+03  0.25500000920E-02 0. -1.
</event>
<event>
 5   0  0.2484507E-03  0.1217793E+04  0.7818609E-02  0.9097424E-01
       -2   -1    0    0    0  501  0.00000000000E+00  0.00000000000E+00  0.55136180342E+03  0.55136180343E+03  0.25500000920E-02 0.  1.
        2   -1    0    0  501    0  0.00000000000E+00  0.00000000000E+00 -0.67243441779E+03  0.67243441780E+03  0.25500000920E-02 0. -1.
    10030    2    1    2    0    0  0.00000000000E+00  0.00000000000E+00 -0.12107261437E+03  0.12237962212E+04  0.12177925165E+04 0.  0.
        2    1    3    3  502    0  0.17633298129E+02 -0.20794846733E+03  0.51429871639E+03  0.55502852895E+03  0.25500000920E-02 0.  1.
       -2    1    3    3    0  502 -0.17633298129E+02  0.20794846733E+03 -0.63537133076E+03  0.66876769227E+03  0.25500000920E-02 0. -1.
</event>
<event>
 5   0  0.2499890E-03  0.1170087E+04  0.7818609E-02  0.9139450E-01
        2   -1    0    0  501    0  0.00000000000E+00  0.00000000000E+00  0.15666643095E+04  0.15666643095E+04  0.25500000920E-02 0. -1.
       -2   -1    0    0    0  501  0.00000000000E+00  0.00000000000E+00 -0.21847439461E+03  0.21847439463E+03  0.25500000920E-02 0.  1.
    10030    2    1    2    0    0  0.00000000000E+00  0.00000000000E+00  0.13481899149E+04  0.17851387042E+04  0.11700872388E+04 0.  0.
        5    1    3    3  502    0  0.46816611096E+03  0.22078352621E+02  0.13992936996E+03  0.48915159172E+03  0.46999998093E+01 0.  1.
       -5    1    3    3    0  502 -0.46816611096E+03 -0.22078352621E+02  0.12082605450E+04  0.12959871124E+04  0.46999998093E+01 0. -1.
</event>
<event>
 5   0  0.2580244E-03  0.1198765E+04  0.7818609E-02  0.9113938E-01
        2   -1    0    0  501    0  0.00000000000E+00  0.00000000000E+00  0.17375338574E+04  0.17375338574E+04  0.25500000920E-02 0.  1.
       -2   -1    0    0    0  501  0.00000000000E+00  0.00000000000E+00 -0.20676396803E+03  0.20676396805E+03  0.25500000920E-02 0. -1.
    10030    2    1    2    0    0  0.00000000000E+00  0.00000000000E+00  0.15307698894E+04  0.19442978255E+04  0.11987650228E+04 0.  0.
        1    1    3    3  502    0  0.95436813217E+02  0.20044824273E+03  0.16683891200E+04  0.16830953446E+04  0.50400001928E-02 0.  1.
       -1    1    3    3    0  502 -0.95436813217E+02 -0.20044824273E+03 -0.13761923063E+03  0.26120248083E+03  0.50400001928E-02 0. -1.
</event>
<event>
 5   0  0.2484507E-03  0.1192683E+04  0.7818609E-02  0.9119285E-01
       -2   -1    0    0    0  501  0.00000000000E+00  0.00000000000E+00  0.39913057809E+03  0.39913057810E+03  0.25500000920E-02 0. -1.
        2   -1    0    0  501    0  0.00000000000E+00  0.00000000000E+00 -0.89099493488E+03  0.89099493488E+03  0.25500000920E-02 0.  1.
    10030    2    1    2    0    0  0.00000000000E+00  0.00000000000E+00 -0.49186435679E+03  0.12901255130E+04  0.11926832328E+04 0.  0.
        2    1    3    3  502    0 -0.33840478846E+00 -0.22002949802E+03 -0.84548118247E+03  0.87364267549E+03  0.25500000920E-02 0.  1.
       -2    1    3    3    0  502  0.33840478846E+00  0.22002949802E+03  0.35361682568E+03  0.41648283750E+03  0.25500000920E-02 0. -1.
</event>
<event>
 5   0  0.2580244E-03  0.1202501E+04  0.7818609E-02  0.9110671E-01
       -2   -1    0    0    0  501  0.00000000000E+00  0.00000000000E+00  0.14710188074E+04  0.14710188074E+04  0.25500000920E-02 0. -1.
        2   -1    0    0  501    0  0.00000000000E+00  0.00000000000E+00 -0.24574938650E+03  0.24574938652E+03  0.25500000920E-02 0.  1.
    10030    2    1    2    0    0  0.00000000000E+00  0.00000000000E+00  0.12252694209E+04  0.17167681939E+04  0.12025006769E+04 0.  0.
        1    1    3    3  502    0 -0.59748813324E+03 -0.58404972308E+02  0.65995829228E+03  0.89215926702E+03  0.50400001928E-02 0.  1.
       -1    1    3    3    0  502  0.59748813324E+03  0.58404972308E+02  0.56531112862E+03  0.82460892690E+03  0.50400001928E-02 0. -1.
</event>
<event>
 5   0  0.1455076E-03  0.1205585E+04  0.7818609E-02  0.9107982E-01
       -1   -1    0    0    0  501  0.00000000000E+00  0.00000000000E+00  0.49020278190E+03  0.49020278192E+03  0.50400001928E-02 0. -1.
        1   -1    0    0  501    0  0.00000000000E+00  0.00000000000E+00 -0.74124205761E+03  0.74124205763E+03  0.50400001928E-02 0.  1.
    10030    2    1    2    0    0  0.00000000000E+00  0.00000000000E+00 -0.25103927572E+03  0.12314448396E+04  0.12055852002E+04 0.  0.
        4    1    3    3  502    0  0.27232155709E+03  0.63741908311E+01 -0.67478776021E+03  0.72769485019E+03  0.12699999809E+01 0.  1.
       -4    1    3    3    0  502 -0.27232155709E+03 -0.63741908311E+01  0.42374848450E+03  0.50374998936E+03  0.12699999809E+01 0. -1.
</event>
<event>
 5   0  0.1455076E-03  0.1205403E+04  0.7818609E-02  0.9108141E-01
        1   -1    0    0  501    0  0.00000000000E+00  0.00000000000E+00  0.75037828907E+03  0.75037828909E+03  0.50400001928E-02 0. -1.
       -1   -1    0    0    0  501  0.00000000000E+00  0.00000000000E+00 -0.48408771470E+03  0.48408771472E+03  0.50400001928E-02 0.  1.
    10030    2    1    2    0    0  0.00000000000E+00  0.00000000000E+00  0.26629057437E+03  0.12344660038E+04  0.12054026898E+04 0.  0.
        4    1    3    3  502    0  0.52643044696E+03 -0.24696204212E+03  0.29548554100E+03  0.65225193260E+03  0.12699999809E+01 0. -1.
       -4    1    3    3    0  502 -0.52643044696E+03  0.24696204212E+03 -0.29194966630E+02  0.58221407121E+03  0.12699999809E+01 0.  1.
</event>
<event>
 5   0  0.1455076E-03  0.1197550E+04  0.7818609E-02  0.9115004E-01
       -1   -1    0    0    0  501  0.00000000000E+00  0.00000000000E+00  0.60980909651E+03  0.60980909653E+03  0.50400001928E-02 0. -1.
        1   -1    0    0  501    0  0.00000000000E+00  0.00000000000E+00 -0.58794053686E+03  0.58794053688E+03  0.50400001928E-02 0.  1.
    10030    2    1    2    0    0  0.00000000000E+00  0.00000000000E+00  0.21868559655E+02  0.11977496334E+04  0.11975499783E+04 0.  0.
        4    1    3    3  502    0 -0.65655496329E+01  0.18903418156E+03  0.57914240538E+03  0.60924918289E+03  0.12699999809E+01 0. -1.
       -4    1    3    3    0  502  0.65655496329E+01 -0.18903418156E+03 -0.55727384572E+03  0.58850045053E+03  0.12699999809E+01 0.  1.
</event>
<event>
 5   0  0.2579442E-03  0.1188459E+04  0.7818609E-02  0.9123019E-01
       -2   -1    0    0    0  501  0.00000000000E+00  0.00000000000E+00  0.80021911634E+03  0.80021911634E+03  0.25500000920E-02 0. -1.
        2   -1    0    0  501    0  0.00000000000E+00  0.00000000000E+00 -0.44126499098E+03  0.44126499099E+03  0.25500000920E-02 0.  1.
    10030    2    1    2    0    0  0.00000000000E+00  0.00000000000E+00  0.35895412536E+03  0.12414841073E+04  0.11884589705E+04 0.  0.
        4    1    3    3  502    0  0.45989262407E+03 -0.20967642387E+03 -0.14694124108E+03  0.52636372370E+03  0.12699999809E+01 0.  1.
       -4    1    3    3    0  502 -0.45989262407E+03  0.20967642387E+03  0.50589536644E+03  0.71512038363E+03  0.12699999809E+01 0. -1.
</event>
<event>
 5   0  0.1469851E-03  0.1204360E+04  0.7818609E-02  0.9109049E-01
       -1   -1    0    0    0  501  0.00000000000E+00  0.00000000000E+00  0.57662739897E+03  0.57662739899E+03  0.50400001928E-02 0. -1.
        1   -1    0    0  501    0  0.00000000000E+00  0.00000000000E+00 -0.62886503923E+03  0.62886503925E+03  0.50400001928E-02 0.  1.
    10030    2    1    2    0    0  0.00000000000E+00  0.00000000000E+00 -0.52237640255E+02  0.12054924382E+04  0.12043600988E+04 0.  0.
        5    1    3    3  502    0  0.82678488979E+02 -0.37299869616E+02  0.56973215364E+03  0.57692619087E+03  0.46999998093E+01 0. -1.
       -5    1    3    3    0  502 -0.82678488979E+02  0.37299869616E+02 -0.62196979390E+03  0.62856624737E+03  0.46999998093E+01 0.  1.
</event>
<event>
 5   0  0.1423024E-03  0.1192511E+04  0.7818609E-02  0.9119437E-01
       -1   -1    0    0    0  501  0.00000000000E+00  0.00000000000E+00  0.55892278861E+03  0.55892278863E+03  0.50400001928E-02 0.  1.
        1   -1    0    0  501    0  0.00000000000E+00  0.00000000000E+00 -0.63608130971E+03  0.63608130973E+03  0.50400001928E-02 0. -1.
    10030    2    1    2    0    0  0.00000000000E+00  0.00000000000E+00 -0.77158521098E+02  0.11950040984E+04  0.11925105273E+04 0.  0.
        2    1    3    3  502    0  0.23167244866E+03  0.54590116703E+03 -0.10067763580E+03  0.60151159091E+03  0.25500000920E-02 0.  1.
       -2    1    3    3    0  502 -0.23167244866E+03 -0.54590116703E+03  0.23519114706E+02  0.59349250745E+03  0.25500000920E-02 0. -1.
</event>
<event>
 5   0  0.1455076E-03  0.1206426E+04  0.7818609E-02  0.9107251E-01
       -1   -1    0    0    0  501  0.00000000000E+00  0.00000000000E+00  0.53393066764E+03  0.53393066766E+03  0.50400001928E-02 0. -1.
        1   -1    0    0  501    0  0.00000000000E+00  0.00000000000E+00 -0.68148499689E+03  0.68148499691E+03  0.50400001928E-02 0.  1.
    10030    2    1    2    0    0  0.00000000000E+00  0.00000000000E+00 -0.14755432925E+03  0.12154156646E+04  0.12064256950E+04 0.  0.
        4    1    3    3  502    0 -0.16858793192E+03 -0.40054786899E+02 -0.65586971086E+03  0.67837524075E+03  0.12699999809E+01 0.  1.
       -4    1    3    3    0  502  0.16858793192E+03  0.40054786899E+02  0.50831538161E+03  0.53704042382E+03  0.12699999809E+01 0. -1.
</event>
<event>
 5   0  0.1455076E-03  0.1083828E+04  0.7818609E-02  0.9221099E-01
        1   -1    0    0  501    0  0.00000000000E+00  0.00000000000E+00  0.13752139474E+04  0.13752139474E+04  0.50400001928E-02 0. -1.
       -1   -1    0    0    0  501  0.00000000000E+00  0.00000000000E+00 -0.21354552449E+03  0.21354552455E+03  0.50400001928E-02 0.  1.
    10030    2    1    2    0    0  0.00000000000E+00  0.00000000000E+00  0.11616684229E+04  0.15887594720E+04  0.10838280006E+04 0.  0.
        4    1    3    3  502    0  0.19475471897E+03  0.45377234428E+02  0.13191488511E+04  0.13342202960E+04  0.12699999809E+01 0. -1.
       -4    1    3    3    0  502 -0.19475471897E+03 -0.45377234428E+02 -0.15748042816E+03  0.25453917600E+03  0.12699999809E+01 0.  1.
</event>
<event>
 5   0  0.2517023E-03  0.1065851E+04  0.7818609E-02  0.9239130E-01
       -2   -1    0    0    0  501  0.00000000000E+00  0.00000000000E+00  0.11694541913E+03  0.11694541916E+03  0.25500000920E-02 0. -1.
        2   -1    0    0  501    0  0.00000000000E+00  0.00000000000E+00 -0.24285656753E+04  0.24285656753E+04  0.25500000920E-02 0.  1.
    10030    2    1    2    0    0  0.00000000000E+00  0.00000000000E+00 -0.23116202562E+04  0.25455110945E+04  0.10658510793E+04 0.  0.
        3    1    3    3  502    0 -0.10412928260E+03  0.11765991445E+03  0.60372692128E+02  0.16832003778E+03  0.10100000352E+00 0. -1.
       -3    1    3    3    0  502  0.10412928260E+03 -0.11765991445E+03 -0.23719929483E+04  0.23771910567E+04  0.10100000352E+00 0.  1.
</event>
<event>
 5   0  0.1423024E-03  0.1204823E+04  0.7818609E-02  0.9108646E-01
       -1   -1    0    0    0  501  0.00000000000E+00  0.00000000000E+00  0.10794399280E+04  0.10794399280E+04  0.50400001928E-02 0. -1.
        1   -1    0    0  501    0  0.00000000000E+00  0.00000000000E+00 -0.33619222853E+03  0.33619222857E+03  0.50400001928E-02 0.  1.
    10030    2    1    2    0    0  0.00000000000E+00  0.00000000000E+00  0.74324769951E+03  0.14156321566E+04  0.12048225015E+04 0.  0.
        2    1    3    3  502    0 -0.28308774694E+02 -0.10638080839E+03 -0.32427386830E+03  0.34244971133E+03  0.25500000920E-02 0.  1.
       -2    1    3    3    0  502  0.28308774694E+02  0.10638080839E+03  0.10675215678E+04  0.10731824453E+04  0.25500000920E-02 0. -1.
</event>
<event>
 5   0  0.2517023E-03  0.1198438E+04  0.7818609E-02  0.9114225E-01
        2   -1    0    0  501    0  0.00000000000E+00  0.00000000000E+00  0.13093885111E+04  0.13093885111E+04  0.25500000920E-02 0.  1.
       -2   -1    0    0    0  501  0.00000000000E+00  0.00000000000E+00 -0.27422233100E+03  0.27422233102E+03  0.25500000920E-02 0. -1.
    10030    2    1    2    0    0  0.00000000000E+00  0.00000000000E+00  0.10351661801E+04  0.15836108421E+04  0.11984382666E+04 0.  0.
        3    1    3    3  502    0  0.45972130138E+03  0.29077506266E+03  0.18546894791E+03  0.57471084282E+03  0.10100000352E+00 0. -1.
       -3    1    3    3    0  502 -0.45972130138E+03 -0.29077506266E+03  0.84969723219E+03  0.10088999993E+04  0.10100000352E+00 0.  1.
</event>
<event>
 5   0  0.1469851E-03  0.1188087E+04  0.7818609E-02  0.9123349E-01
       -1   -1    0    0    0  501  0.00000000000E+00  0.00000000000E+00  0.34720271292E+03  0.34720271296E+03  0.50400001928E-02 0.  1.
        1   -1    0    0  501    0  0.00000000000E+00  0.00000000000E+00 -0.10163730967E+04  0.10163730967E+04  0.50400001928E-02 0. -1.
    10030    2    1    2    0    0  0.00000000000E+00  0.00000000000E+00 -0.66917038379E+03  0.13635758097E+04  0.11880866914E+04 0.  0.
        5    1    3    3  502    0 -0.42481426957E+03 -0.41377680075E+03 -0.37412703409E+03  0.70119293500E+03  0.46999998093E+01 0.  1.
       -5    1    3    3    0  502  0.42481426957E+03  0.41377680075E+03 -0.29504334970E+03  0.66238287468E+03  0.46999998093E+01 0. -1.
</event>
<event>
 5   0  0.2517023E-03  0.1198469E+04  0.7818609E-02  0.9114197E-01
       -2   -1    0    0    0  501  0.00000000000E+00  0.00000000000E+00  0.30863459172E+03  0.30863459174E+03  0.25500000920E-02 0.  1.
        2   -1    0    0  501    0  0.00000000000E+00  0.00000000000E+00 -0.11634541487E+04  0.11634541487E+04  0.25500000920E-02 0. -1.
    10030    2    1    2    0    0  0.00000000000E+00  0.00000000000E+00 -0.85481955700E+03  0.14720887405E+04  0.11984693508E+04 0.  0.
        3    1    3    3  502    0  0.12833930918E+03  0.57246589127E+03 -0.27750589137E+03  0.64899746139E+03  0.10100000352E+00 0.  1.
       -3    1    3    3    0  502 -0.12833930918E+03 -0.57246589127E+03 -0.57731366563E+03  0.82309127907E+03  0.10100000352E+00 0. -1.
</event>
<event>
 5   0  0.1403154E-03  0.1180114E+04  0.7818609E-02  0.9130443E-01
       -1   -1    0    0    0  501  0.00000000000E+00  0.00000000000E+00  0.78694939604E+03  0.78694939606E+03  0.50400001928E-02 0. -1.
        1   -1    0    0  501    0  0.00000000000E+00  0.00000000000E+00 -0.44242629471E+03  0.44242629474E+03  0.50400001928E-02 0.  1.
    10030    2    1    2    0    0  0.00000000000E+00  0.00000000000E+00  0.34452310133E+03  0.12293756908E+04  0.11801137326E+04 0.  0.
        3    1    3    3  502    0 -0.47951869691E+03  0.26633449569E+03 -0.54290338379E+02  0.55119841738E+03  0.10100000352E+00 0.  1.
       -3    1    3    3    0  502  0.47951869691E+03 -0.26633449569E+03  0.39881343971E+03  0.67817727342E+03  0.10100000352E+00 0. -1.
</event>
<event>
 5   0  0.1469851E-03  0.1085763E+04  0.7818609E-02  0.9219180E-01
        1   -1    0    0  501    0  0.00000000000E+00  0.00000000000E+00  0.11121518189E+04  0.11121518189E+04  0.50400001928E-02 0.  1.
       -1   -1    0    0    0  501  0.00000000000E+00  0.00000000000E+00 -0.26500019959E+03  0.26500019963E+03  0.50400001928E-02 0. -1.
    10030    2    1    2    0    0  0.00000000000E+00  0.00000000000E+00  0.84715161933E+03  0.13771520186E+04  0.10857632413E+04 0.  0.
        5    1    3    3  502    0  0.44432006547E+03  0.19050879224E+03  0.11035090827E+03  0.49589649470E+03  0.46999998093E+01 0. -1.
       -5    1    3    3    0  502 -0.44432006547E+03 -0.19050879224E+03  0.73680071106E+03  0.88125552385E+03  0.46999998093E+01 0.  1.
</event>
<event>
 5   0  0.2499890E-03  0.1198126E+04  0.7818609E-02  0.9114498E-01
       -2   -1    0    0    0  501  0.00000000000E+00  0.00000000000E+00  0.25174358293E+03  0.25174358294E+03  0.25500000920E-02 0. -1.
        2   -1    0    0  501    0  0.00000000000E+00  0.00000000000E+00 -0.14255642740E+04  0.14255642740E+04  0.25500000920E-02 0.  1.
    10030    2    1    2    0    0  0.00000000000E+00  0.00000000000E+00 -0.11738206910E+04  0.16773078569E+04  0.11981263006E+04 0.  0.
        5    1    3    3  502    0 -0.24126059939E+03 -0.51314508468E+03 -0.85739289542E+03  0.10279441725E+04  0.46999998093E+01 0.  1.
       -5    1    3    3    0  502  0.24126059939E+03  0.51314508468E+03 -0.31642779563E+03  0.64936368438E+03  0.46999998093E+01 0. -1.
</event>
<event>
 5   0  0.1404833E-03  0.1207998E+04  0.7818609E-02  0.9105885E-01
       -1   -1    0    0    0  501  0.00000000000E+00  0.00000000000E+00  0.43550713588E+03  0.43550713591E+03  0.50400001928E-02 0.  1.
        1   -1    0    0  501    0  0.00000000000E+00  0.00000000000E+00 -0.83767764207E+03  0.83767764209E+03  0.50400001928E-02 0. -1.
    10030    2    1    2    0    0  0.00000000000E+00  0.00000000000E+00 -0.40217050619E+03  0.12731847780E+04  0.12079976668E+04 0.  0.
        1    1    3    3  502    0 -0.20422573214E+03 -0.42999135711E+03  0.19074788461E+03  0.51282109197E+03  0.50400001928E-02 0.  1.
       -1    1    3    3    0  502  0.20422573214E+03  0.42999135711E+03 -0.59291839079E+03  0.76036368603E+03  0.50400001928E-02 0. -1.
</event>
<event>
 5   0  0.1423024E-03  0.1197018E+04  0.7818609E-02  0.9115471E-01
       -1   -1    0    0    0  501  0.00000000000E+00  0.00000000000E+00  0.57363647701E+03  0.57363647703E+03  0.50400001928E-02 0.  1.
        1   -1    0    0  501    0  0.00000000000E+00  0.00000000000E+00 -0.62445995959E+03  0.62445995961E+03  0.50400001928E-02 0. -1.
    10030    2    1    2    0    0  0.00000000000E+00  0.00000000000E+00 -0.50823482580E+02  0.11980964366E+04  0.11970179803E+04 0.  0.
        2    1    3    3  502    0 -0.16210883633E+03 -0.47334251052E+03 -0.35415949012E+03  0.61299376141E+03  0.25500000920E-02 0. -1.
       -2    1    3    3    0  502  0.16210883633E+03  0.47334251052E+03  0.30333600754E+03  0.58510267523E+03  0.25500000920E-02 0.  1.
</event>
<event>
 5   0  0.2484507E-03  0.1188074E+04  0.7818609E-02  0.9123360E-01
       -2   -1    0    0    0  501  0.00000000000E+00  0.00000000000E+00  0.78886968350E+03  0.78886968350E+03  0.25500000920E-02 0. -1.
        2   -1    0    0  501    0  0.00000000000E+00  0.00000000000E+00 -0.44732317695E+03  0.44732317695E+03  0.25500000920E-02 0.  1.
    10030    2    1    2    0    0  0.00000000000E+00  0.00000000000E+00  0.34154650655E+03  0.12361928605E+04  0.11880735550E+04 0.  0.
        2    1    3    3  502    0  0.24282430804E+03  0.51330988296E+03 -0.10731010287E+02  0.56794879621E+03  0.25500000920E-02 0.  1.
       -2    1    3    3    0  502 -0.24282430804E+03 -0.51330988296E+03  0.35227751684E+03  0.66824406425E+03  0.25500000920E-02 0. -1.
</event>
<event>
 5   0  0.2484507E-03  0.1192082E+04  0.7818609E-02  0.9119815E-01
        2   -1    0    0  501    0  0.00000000000E+00  0.00000000000E+00  0.16359886981E+03  0.16359886983E+03  0.25500000920E-02 0.  1.
       -2   -1    0    0    0  501  0.00000000000E+00  0.00000000000E+00 -0.21715620178E+04  0.21715620178E+04  0.25500000920E-02 0. -1.
    10030    2    1    2    0    0  0.00000000000E+00  0.00000000000E+00 -0.20079631480E+04  0.23351608876E+04  0.11920823661E+04 0.  0.
        2    1    3    3  502    0 -0.35162429129E+03 -0.41420550648E+03 -0.52391608176E+03  0.75478069964E+03  0.25500000920E-02 0.  1.
       -2    1    3    3    0  502  0.35162429129E+03  0.41420550648E+03 -0.14840470662E+04  0.15803801880E+04  0.25500000920E-02 0. -1.
</event>
<event>
 5   0  0.2579442E-03  0.1210030E+04  0.7818609E-02  0.9104122E-01
        2   -1    0    0  501    0  0.00000000000E+00  0.00000000000E+00  0.15547461005E+04  0.15547461005E+04  0.25500000920E-02 0.  1.
       -2   -1    0    0    0  501  0.00000000000E+00  0.00000000000E+00 -0.23543610262E+03  0.23543610264E+03  0.25500000920E-02 0. -1.
    10030    2    1    2    0    0  0.00000000000E+00  0.00000000000E+00  0.13193099979E+04  0.17901822032E+04  0.12100303508E+04 0.  0.
        4    1    3    3  502    0 -0.63974977744E+02 -0.10793707409E+03  0.15352839961E+04  0.15404031197E+04  0.12699999809E+01 0.  1.
       -4    1    3    3    0  502  0.63974977744E+02  0.10793707409E+03 -0.21597399817E+03  0.24977908345E+03  0.12699999809E+01 0. -1.
</event>
<event>
 5   0  0.2580244E-03  0.1219751E+04  0.7818609E-02  0.9095742E-01
        2   -1    0    0  501    0  0.00000000000E+00  0.00000000000E+00  0.11382244881E+04  0.11382244881E+04  0.25500000920E-02 0. -1.
       -2   -1    0    0    0  501  0.00000000000E+00  0.00000000000E+00 -0.32677943328E+03  0.32677943329E+03  0.25500000920E-02 0.  1.
    10030    2    1    2    0    0  0.00000000000E+00  0.00000000000E+00  0.81144505481E+03  0.14650039214E+04  0.12197513733E+04 0.  0.
        1    1    3    3  502    0 -0.38646185975E+03  0.30478672915E+03  0.83827472285E+03  0.97208653437E+03  0.50400001928E-02 0. -1.
       -1    1    3    3    0  502  0.38646185975E+03 -0.30478672915E+03 -0.26829668046E+02  0.49291738701E+03  0.50400001928E-02 0.  1.
</event>
<event>
 5   0  0.9678750E-04  0.1193781E+04  0.7818609E-02  0.9118318E-01
       -4   -1    0    0    0  501  0.00000000000E+00  0.00000000000E+00  0.17841289690E+03  0.17841741697E+03  0.12699999809E+01 0. -1.
        4   -1    0    0  501    0  0.00000000000E+00  0.00000000000E+00 -0.19969008677E+04  0.19969012716E+04  0.12699999809E+01 0.  1.
    10030    2    1    2    0    0  0.00000000000E+00  0.00000000000E+00 -0.18184879708E+04  0.21753186886E+04  0.11937809249E+04 0.  0.
        4    1    3    3  502    0 -0.29818087231E+03 -0.60219839024E+01  0.32907849461E+02  0.30005438900E+03  0.12699999809E+01 0. -1.
       -4    1    3    3    0  502  0.29818087231E+03  0.60219839024E+01 -0.18513958203E+04  0.18752642996E+04  0.12699999809E+01 0.  1.
</event>
<event>
 5   0  0.2484507E-03  0.1200139E+04  0.7818609E-02  0.9112735E-01
        2   -1    0    0  501    0  0.00000000000E+00  0.00000000000E+00  0.17392643656E+04  0.17392643656E+04  0.25500000920E-02 0. -1.
       -2   -1    0    0    0  501  0.00000000000E+00  0.00000000000E+00 -0.20703206190E+03  0.20703206192E+03  0.25500000920E-02 0.  1.
    10030    2    1    2    0    0  0.00000000000E+00  0.00000000000E+00  0.15322323037E+04  0.19462964276E+04  0.12001391383E+04 0.  0.
        2    1    3    3  502    0  0.11645010497E+03  0.56463260517E+03  0.10360878468E+04  0.11856848789E+04  0.25500000920E-02 0. -1.
       -2    1    3    3    0  502 -0.11645010497E+03 -0.56463260517E+03  0.49614445689E+03  0.76061154861E+03  0.25500000920E-02 0.  1.
</event>
<event>
 5   0  0.2517023E-03  0.1201944E+04  0.7818609E-02  0.9111157E-01
       -2   -1    0    0    0  501  0.00000000000E+00  0.00000000000E+00  0.20096219528E+04  0.20096219528E+04  0.25500000920E-02 0.  1.
        2   -1    0    0  501    0  0.00000000000E+00  0.00000000000E+00 -0.17971908062E+03  0.17971908063E+03  0.25500000920E-02 0. -1.
    10030    2    1    2    0    0  0.00000000000E+00  0.00000000000E+00  0.18299028722E+04  0.21893410335E+04  0.12019441081E+04 0.  0.
        3    1    3    3  502    0  0.43959351704E+03 -0.98884191890E+02  0.19058315489E+03  0.48922642279E+03  0.10100000352E+00 0. -1.
       -3    1    3    3    0  502 -0.43959351704E+03  0.98884191890E+02  0.16393197173E+04  0.17001146107E+04  0.10100000352E+00 0.  1.
</event>
<event>
 5   0  0.9678750E-04  0.1217242E+04  0.7818609E-02  0.9097897E-01
       -3   -1    0    0    0  501  0.00000000000E+00  0.00000000000E+00  0.56977833681E+03  0.56977834576E+03  0.10100000352E+00 0.  1.
        3   -1    0    0  501    0  0.00000000000E+00  0.00000000000E+00 -0.65011194087E+03  0.65011194872E+03  0.10100000352E+00 0. -1.
    10030    2    1    2    0    0  0.00000000000E+00  0.00000000000E+00 -0.80333604061E+02  0.12198902945E+04  0.12172423106E+04 0.  0.
        4    1    3    3  502    0 -0.13550870489E+03  0.58383303267E+03  0.65867326604E+02  0.60296246712E+03  0.12699999809E+01 0.  1.
       -4    1    3    3    0  502  0.13550870489E+03 -0.58383303267E+03 -0.14620093067E+03  0.61692782736E+03  0.12699999809E+01 0. -1.
</event>
<event>
 5   0  0.9678750E-04  0.1212607E+04  0.7818609E-02  0.9101892E-01
        3   -1    0    0  501    0  0.00000000000E+00  0.00000000000E+00  0.72304969793E+03  0.72304970498E+03  0.10100000352E+00 0.  1.
       -3   -1    0    0    0  501  0.00000000000E+00  0.00000000000E+00 -0.50840791179E+03  0.50840792182E+03  0.10100000352E+00 0. -1.
    10030    2    1    2    0    0  0.00000000000E+00  0.00000000000E+00  0.21464178613E+03  0.12314576268E+04  0.12126074345E+04 0.  0.
        4    1    3    3  502    0  0.59545996074E+02  0.72645047521E+02  0.71561427337E+03  0.72175371820E+03  0.12699999809E+01 0.  1.
       -4    1    3    3    0  502 -0.59545996074E+02 -0.72645047521E+02 -0.50097248724E+03  0.50970390861E+03  0.12699999809E+01 0. -1.
</event>
<event>
 5   0  0.1403154E-03  0.1157959E+04  0.7818609E-02  0.9150472E-01
        1   -1    0    0  501    0  0.00000000000E+00  0.00000000000E+00  0.95643009591E+03  0.95643009592E+03  0.50400001928E-02 0. -1.
       -1   -1    0    0    0  501  0.00000000000E+00  0.00000000000E+00 -0.35048795711E+03  0.35048795715E+03  0.50400001928E-02 0.  1.
    10030    2    1    2    0    0  0.00000000000E+00  0.00000000000E+00  0.60594213880E+03  0.13069180531E+04  0.11579589465E+04 0.  0.
        3    1    3    3  502    0 -0.46821778184E+03 -0.84367089365E+02  0.67537336060E+03  0.82612038070E+03  0.10100000352E+00 0. -1.
       -3    1    3    3    0  502  0.46821778184E+03  0.84367089365E+02 -0.69431221800E+02  0.48079767237E+03  0.10100000352E+00 0.  1.
</event>
<event>
 5   0  0.2499890E-03  0.1040660E+04  0.7818609E-02  0.9265041E-01
        2   -1    0    0  501    0  0.00000000000E+00  0.00000000000E+00  0.12428858817E+04  0.12428858817E+04  0.25500000920E-02 0.  1.
       -2   -1    0    0    0  501  0.00000000000E+00  0.00000000000E+00 -0.21783433794E+03  0.21783433795E+03  0.25500000920E-02 0. -1.
    10030    2    1    2    0    0  0.00000000000E+00  0.00000000000E+00  0.10250515437E+04  0.14607202196E+04  0.10406598353E+04 0.  0.
        5    1    3    3  502    0  0.34451461210E+02  0.37590799651E+03  0.10151560884E+04  0.10830778822E+04  0.46999998093E+01 0.  1.
       -5    1    3    3    0  502 -0.34451461210E+02 -0.37590799651E+03  0.98954553485E+01  0.37764233748E+03  0.46999998093E+01 0. -1.
</event>
<event>
 5   0  0.1455076E-03  0.1192337E+04  0.7818609E-02  0.9119591E-01
       -1   -1    0    0    0  501  0.00000000000E+00  0.00000000000E+00  0.29569287132E+03  0.29569287137E+03  0.50400001928E-02 0. -1.
        1   -1    0    0  501    0  0.00000000000E+00  0.00000000000E+00 -0.12019797373E+04  0.12019797373E+04  0.50400001928E-02 0.  1.
    10030    2    1    2    0    0  0.00000000000E+00  0.00000000000E+00 -0.90628686596E+03  0.14976726087E+04  0.11923369320E+04 0.  0.
        4    1    3    3  502    0 -0.55010666347E+03  0.64900126556E+02 -0.73001147846E+03  0.91637750911E+03  0.12699999809E+01 0.  1.
       -4    1    3    3    0  502  0.55010666347E+03 -0.64900126556E+02 -0.17627538750E+03  0.58129509955E+03  0.12699999809E+01 0. -1.
</event>
<event>
 5   0  0.2580244E-03  0.1149534E+04  0.7818609E-02  0.9158213E-01
        2   -1    0    0  501    0  0.00000000000E+00  0.00000000000E+00  0.20217908684E+04  0.20217908684E+04  0.25500000920E-02 0. -1.
       -2   -1    0    0    0  501  0.00000000000E+00  0.00000000000E+00 -0.16339838432E+03  0.16339838434E+03  0.25500000920E-02 0.  1.
    10030    2    1    2    0    0  0.00000000000E+00  0.00000000000E+00  0.18583924841E+04  0.21851892528E+04  0.11495344472E+04 0.  0.
        1    1    3    3  502    0  0.30897468363E+02 -0.52564086275E+03  0.49113756929E+03  0.72004797211E+03  0.50400001928E-02 0.  1.
       -1    1    3    3    0  502 -0.30897468363E+02  0.52564086275E+03  0.13672549148E+04  0.14651412807E+04  0.50400001928E-02 0. -1.
</event>
<event>
 5   0  0.9678750E-04  0.1193871E+04  0.7818609E-02  0.9118238E-01
       -3   -1    0    0    0  501  0.00000000000E+00  0.00000000000E+00  0.23707228491E+03  0.23707230642E+03  0.10100000352E+00 0. -1.
        3   -1    0    0  501    0  0.00000000000E+00  0.00000000000E+00 -0.15030532046E+04  0.15030532080E+04  0.10100000352E+00 0.  1.
    10030    2    1    2    0    0  0.00000000000E+00  0.00000000000E+00 -0.12659809197E+04  0.17401255145E+04  0.11938714826E+04 0.  0.
        3    1    3    3  502    0  0.21457076947E+03 -0.28446361865E+03 -0.13310513313E+04  0.13779179302E+04  0.10100000352E+00 0.  1.
       -3    1    3    3    0  502 -0.21457076947E+03  0.28446361865E+03  0.65070411607E+02  0.36220758428E+03  0.10100000352E+00 0. -1.
</event>
<event>
 5   0  0.2484507E-03  0.1191825E+04  0.7818609E-02  0.9120042E-01
        2   -1    0    0  501    0  0.00000000000E+00  0.00000000000E+00  0.81048182285E+03  0.81048182286E+03  0.25500000920E-02 0. -1.
       -2   -1    0    0    0  501  0.00000000000E+00  0.00000000000E+00 -0.43814924795E+03  0.43814924795E+03  0.25500000920E-02 0.  1.
    10030    2    1    2    0    0  0.00000000000E+00  0.00000000000E+00  0.37233257491E+03  0.12486310708E+04  0.11918254925E+04 0.  0.
        2    1    3    3  502    0  0.43724788067E+03  0.89191877626E+02  0.59992155517E+03  0.74769430421E+03  0.25500000920E-02 0. -1.
       -2    1    3    3    0  502 -0.43724788067E+03 -0.89191877626E+02 -0.22758898027E+03  0.50093676660E+03  0.25500000920E-02 0.  1.
</event>
<event>
 5   0  0.1469851E-03  0.1198198E+04  0.7818609E-02  0.9114436E-01
       -1   -1    0    0    0  501  0.00000000000E+00  0.00000000000E+00  0.38617016005E+03  0.38617016009E+03  0.50400001928E-02 0.  1.
        1   -1    0    0  501    0  0.00000000000E+00  0.00000000000E+00 -0.92943329439E+03  0.92943329440E+03  0.50400001928E-02 0. -1.
    10030    2    1    2    0    0  0.00000000000E+00  0.00000000000E+00 -0.54326313434E+03  0.13156034545E+04  0.11981976533E+04 0.  0.
        5    1    3    3  502    0  0.45771844337E+03 -0.31199007205E+03 -0.52213911909E+03  0.76124590518E+03  0.46999998093E+01 0.  1.
       -5    1    3    3    0  502 -0.45771844337E+03  0.31199007205E+03 -0.21124015244E+02  0.55435754931E+03  0.46999998093E+01 0. -1.
</event>
<event>
 5   0  0.2579442E-03  0.1241175E+04  0.7818609E-02  0.9077560E-01
        2   -1    0    0  501    0  0.00000000000E+00  0.00000000000E+00  0.10150492276E+04  0.10150492276E+04  0.25500000920E-02 0.  1.
       -2   -1    0    0    0  501  0.00000000000E+00  0.00000000000E+00 -0.37941914108E+03  0.37941914109E+03  0.25500000920E-02 0. -1.
    10030    2    1    2    0    0  0.00000000000E+00  0.00000000000E+00  0.63563008651E+03  0.13944683687E+04  0.12411754205E+04 0.  0.
        4    1    3    3  502    0  0.10990648978E+03 -0.19753710731E+03 -0.33151632519E+03  0.40125432337E+03  0.12699999809E+01 0. -1.
       -4    1    3    3    0  502 -0.10990648978E+03  0.19753710731E+03  0.96714641169E+03  0.99321404531E+03  0.12699999809E+01 0.  1.
</event>
<event>
 5   0  0.2499890E-03  0.1177484E+04  0.7818609E-02  0.9132796E-01
        2   -1    0    0  501    0  0.00000000000E+00  0.00000000000E+00  0.12547166724E+04  0.12547166724E+04  0.25500000920E-02 0.  1.
       -2   -1    0    0    0  501  0.00000000000E+00  0.00000000000E+00 -0.27625122071E+03  0.27625122072E+03  0.25500000920E-02 0. -1.
    10030    2    1    2    0    0  0.00000000000E+00  0.00000000000E+00  0.97846545168E+03  0.15309678931E+04  0.11774837789E+04 0.  0.
        5    1    3    3  502    0  0.35096846869E+03  0.30436720208E+03  0.95942585127E+03  0.10659917044E+04  0.46999998093E+01 0.  1.
       -5    1    3    3    0  502 -0.35096846869E+03 -0.30436720208E+03  0.19039600409E+02  0.46497618874E+03  0.46999998093E+01 0. -1.
</event>
<event>
 5   0  0.1455076E-03  0.1188763E+04  0.7818609E-02  0.9122749E-01
       -1   -1    0    0    0  501  0.00000000000E+00  0.00000000000E+00  0.52521731779E+03  0.52521731781E+03  0.50400001928E-02 0.  1.
        1   -1    0    0  501    0  0.00000000000E+00  0.00000000000E+00 -0.67265392914E+03  0.67265392916E+03  0.50400001928E-02 0. -1.
    10030    2    1    2    0    0  0.00000000000E+00  0.00000000000E+00 -0.14743661136E+03  0.11978712470E+04  0.11887632102E+04 0.  0.
        4    1    3    3  502    0 -0.35261743438E+03  0.24860672442E+02  0.40778248703E+03  0.53967145347E+03  0.12699999809E+01 0.  1.
       -4    1    3    3    0  502  0.35261743438E+03 -0.24860672442E+02 -0.55521909838E+03  0.65819979351E+03  0.12699999809E+01 0. -1.
</event>
<event>
 5   0  0.2517023E-03  0.1215118E+04  0.7818609E-02  0.9099726E-01
        2   -1    0    0  501    0  0.00000000000E+00  0.00000000000E+00  0.14056882093E+04  0.14056882093E+04  0.25500000920E-02 0.  1.
       -2   -1    0    0    0  501  0.00000000000E+00  0.00000000000E+00 -0.26259597816E+03  0.26259597818E+03  0.25500000920E-02 0. -1.
    10030    2    1    2    0    0  0.00000000000E+00  0.00000000000E+00  0.11430922311E+04  0.16682841875E+04  0.12151182170E+04 0.  0.
        3    1    3    3  502    0  0.34498816032E+03 -0.41682029279E+03  0.19212736395E+03  0.57416802542E+03  0.10100000352E+00 0.  1.
       -3    1    3    3    0  502 -0.34498816032E+03  0.41682029279E+03  0.95096486719E+03  0.10941161621E+04  0.10100000352E+00 0. -1.
</event>
<event>
 5   0  0.1469851E-03  0.1207085E+04  0.7818609E-02  0.9106678E-01
        1   -1    0    0  501    0  0.00000000000E+00  0.00000000000E+00  0.68837446235E+03  0.68837446237E+03  0.50400001928E-02 0. -1.
       -1   -1    0    0    0  501  0.00000000000E+00  0.00000000000E+00 -0.52916479010E+03  0.52916479012E+03  0.50400001928E-02 0.  1.
    10030    2    1    2    0    0  0.00000000000E+00  0.00000000000E+00  0.15920967226E+03  0.12175392525E+04  0.12070849645E+04 0.  0.
        5    1    3    3  502    0 -0.15121620760E+03 -0.48359196794E+03 -0.25112810206E+03  0.56552183560E+03  0.46999998093E+01 0.  1.
       -5    1    3    3    0  502  0.15121620760E+03  0.48359196794E+03  0.41033777432E+03  0.65201741689E+03  0.46999998093E+01 0. -1.
</event>
<event>
 5   0  0.1403154E-03  0.1187019E+04  0.7818609E-02  0.9124295E-01
       -1   -1    0    0    0  501  0.00000000000E+00  0.00000000000E+00  0.26998549693E+03  0.26998549698E+03  0.50400001928E-02 0.  1.
        1   -1    0    0  501    0  0.00000000000E+00  0.00000000000E+00 -0.13047132316E+04  0.13047132316E+04  0.50400001928E-02 0. -1.
    10030    2    1    2    0    0  0.00000000000E+00  0.00000000000E+00 -0.10347277346E+04  0.15746987286E+04  0.11870192083E+04 0.  0.
        3    1    3    3  502    0 -0.15861179776E+03 -0.56189857236E+03 -0.37593363428E+03  0.69441616888E+03  0.10100000352E+00 0. -1.
       -3    1    3    3    0  502  0.15861179776E+03  0.56189857236E+03 -0.65879410037E+03  0.88028255969E+03  0.10100000352E+00 0.  1.
</event>
<event>
 5   0  0.1403154E-03  0.1237264E+04  0.7818609E-02  0.9080850E-01
        1   -1    0    0  501    0  0.00000000000E+00  0.00000000000E+00  0.49861959393E+03  0.49861959395E+03  0.50400001928E-02 0.  1.
       -1   -1    0    0    0  501  0.00000000000E+00  0.00000000000E+00 -0.76753056374E+03  0.76753056375E+03  0.50400001928E-02 0. -1.
    10030    2    1    2    0    0  0.00000000000E+00  0.00000000000E+00 -0.26891096981E+03  0.12661501577E+04  0.12372643663E+04 0.  0.
        3    1    3    3  502    0 -0.29505948147E+03  0.44455946994E+03  0.18592315088E+03  0.56503154616E+03  0.10100000352E+00 0.  1.
       -3    1    3    3    0  502  0.29505948147E+03 -0.44455946994E+03 -0.45483412069E+03  0.70111861155E+03  0.10100000352E+00 0. -1.
</event>
<event>
 5   0  0.1455076E-03  0.1202946E+04  0.7818609E-02  0.9110282E-01
       -1   -1    0    0    0  501  0.00000000000E+00  0.00000000000E+00  0.28368043291E+03  0.28368043295E+03  0.50400001928E-02 0. -1.
        1   -1    0    0  501    0  0.00000000000E+00  0.00000000000E+00 -0.12752726239E+04  0.12752726239E+04  0.50400001928E-02 0.  1.
    10030    2    1    2    0    0  0.00000000000E+00  0.00000000000E+00 -0.99159219098E+03  0.15589530568E+04  0.12029462001E+04 0.  0.
        4    1    3    3  502    0 -0.37609306351E+03 -0.99951795459E+02 -0.10901422127E+04  0.11575180390E+04  0.12699999809E+01 0. -1.
       -4    1    3    3    0  502  0.37609306351E+03  0.99951795459E+02  0.98550021743E+02  0.40143501781E+03  0.12699999809E+01 0.  1.
</event>
<event>
 5   0  0.2517023E-03  0.1193271E+04  0.7818609E-02  0.9118767E-01
       -2   -1    0    0    0  501  0.00000000000E+00  0.00000000000E+00  0.38952335018E+03  0.38952335019E+03  0.25500000920E-02 0.  1.
        2   -1    0    0  501    0  0.00000000000E+00  0.00000000000E+00 -0.91387031789E+03  0.91387031789E+03  0.25500000920E-02 0. -1.
    10030    2    1    2    0    0  0.00000000000E+00  0.00000000000E+00 -0.52434696771E+03  0.13033936681E+04  0.11932708458E+04 0.  0.
        3    1    3    3  502    0 -0.30834800556E+03  0.41100902808E+03  0.69073826077E+02  0.51843815190E+03  0.10100000352E+00 0. -1.
       -3    1    3    3    0  502  0.30834800556E+03 -0.41100902808E+03 -0.59342079378E+03  0.78495551618E+03  0.10100000352E+00 0.  1.
</event>
<event>
 5   0  0.1469851E-03  0.1200588E+04  0.7818609E-02  0.9112342E-01
       -1   -1    0    0    0  501  0.00000000000E+00  0.00000000000E+00  0.22029134557E+03  0.22029134563E+03  0.50400001928E-02 0. -1.
        1   -1    0    0  501    0  0.00000000000E+00  0.00000000000E+00 -0.16358005693E+04  0.16358005693E+04  0.50400001928E-02 0.  1.
    10030    2    1    2    0    0  0.00000000000E+00  0.00000000000E+00 -0.14155092238E+04  0.18560919150E+04  0.12005877037E+04 0.  0.
        5    1    3    3  502    0  0.28263412166E+02 -0.47260929716E+03 -0.12782470539E+04  0.13631199467E+04  0.46999998093E+01 0.  1.
       -5    1    3    3    0  502 -0.28263412166E+02  0.47260929716E+03 -0.13726216985E+03  0.49297196827E+03  0.46999998093E+01 0. -1.
</event>
<event>
 5   0  0.2517023E-03  0.1203601E+04  0.7818609E-02  0.9109710E-01
        2   -1    0    0  501    0  0.00000000000E+00  0.00000000000E+00  0.12504783879E+04  0.12504783879E+04  0.25500000920E-02 0. -1.
       -2   -1    0    0    0  501  0.00000000000E+00  0.00000000000E+00 -0.28962021301E+03  0.28962021302E+03  0.25500000920E-02 0.  1.
    10030    2    1    2    0    0  0.00000000000E+00  0.00000000000E+00  0.96085817490E+03  0.15400986009E+04  0.12036009589E+04 0.  0.
        3    1    3    3  502    0 -0.19008104286E+03  0.28893553471E+03 -0.14975289046E+03  0.37688258712E+03  0.10100000352E+00 0.  1.
       -3    1    3    3    0  502  0.19008104286E+03 -0.28893553471E+03  0.11106110654E+04  0.11632160138E+04  0.10100000352E+00 0. -1.
</event>
<event>
 5   0  0.2499890E-03  0.1210281E+04  0.7818609E-02  0.9103905E-01
       -2   -1    0    0    0  501  0.00000000000E+00  0.00000000000E+00  0.10554048963E+04  0.10554048963E+04  0.25500000920E-02 0.  1.
        2   -1    0    0  501    0  0.00000000000E+00  0.00000000000E+00 -0.34697104582E+03  0.34697104582E+03  0.25500000920E-02 0. -1.
    10030    2    1    2    0    0  0.00000000000E+00  0.00000000000E+00  0.70843385049E+03  0.14023759421E+04  0.12102808610E+04 0.  0.
        5    1    3    3  502    0  0.19407618725E+03 -0.57071975133E+03  0.29305399297E+03  0.67029048465E+03  0.46999998093E+01 0.  1.
       -5    1    3    3    0  502 -0.19407618725E+03  0.57071975133E+03  0.41537985752E+03  0.73208545748E+03  0.46999998093E+01 0. -1.
</event>
<event>
 5   0  0.1423024E-03  0.1150567E+04  0.7818609E-02  0.9157261E-01
       -1   -1    0    0    0  501  0.00000000000E+00  0.00000000000E+00  0.90921937746E+03  0.90921937747E+03  0.50400001928E-02 0.  1.
        1   -1    0    0  501    0  0.00000000000E+00  0.00000000000E+00 -0.36399455590E+03  0.36399455594E+03  0.50400001928E-02 0. -1.
    10030    2    1    2    0    0  0.00000000000E+00  0.00000000000E+00  0.54522482156E+03  0.12732139334E+04  0.11505666492E+04 0.  0.
        2    1    3    3  502    0 -0.46000314646E+03 -0.77728621552E+02  0.64510408780E+03  0.79611802986E+03  0.25500000920E-02 0.  1.
       -2    1    3    3    0  502  0.46000314646E+03  0.77728621552E+02 -0.99879266246E+02  0.47709590356E+03  0.25500000920E-02 0. -1.
</event>
<event>
 5   0  0.1455076E-03  0.1203864E+04  0.7818609E-02  0.9109481E-01
        1   -1    0    0  501    0  0.00000000000E+00  0.00000000000E+00  0.16683678076E+04  0.16683678076E+04  0.50400001928E-02 0.  1.
       -1   -1    0    0    0  501  0.00000000000E+00  0.00000000000E+00 -0.21717174364E+03  0.21717174370E+03  0.50400001928E-02 0. -1.
    10030    2    1    2    0    0  0.00000000000E+00  0.00000000000E+00  0.14511960640E+04  0.18855395513E+04  0.12038643543E+04 0.  0.
        4    1    3    3  502    0  0.85176057649E+02  0.24374023394E+03 -0.12603360253E+03  0.28731575715E+03  0.12699999809E+01 0. -1.
       -4    1    3    3    0  502 -0.85176057649E+02 -0.24374023394E+03  0.15772296665E+04  0.15982237942E+04  0.12699999809E+01 0.  1.
</event>
<event>
 5   0  0.2484507E-03  0.1206139E+04  0.7818609E-02  0.9107500E-01
        2   -1    0    0  501    0  0.00000000000E+00  0.00000000000E+00  0.34300488929E+03  0.34300488930E+03  0.25500000920E-02 0.  1.
       -2   -1    0    0    0  501  0.00000000000E+00  0.00000000000E+00 -0.10603141896E+04  0.10603141896E+04  0.25500000920E-02 0. -1.
    10030    2    1    2    0    0  0.00000000000E+00  0.00000000000E+00 -0.71730930031E+03  0.14033190789E+04  0.12061392146E+04 0.  0.
        2    1    3    3  502    0 -0.20830509661E+03  0.97871823341E+02  0.28989872464E+03  0.37015020955E+03  0.25500000920E-02 0.  1.
       -2    1    3    3    0  502  0.20830509661E+03 -0.97871823341E+02 -0.10072080250E+04  0.10331688694E+04  0.25500000920E-02 0. -1.
</event>
<event>
 5   0  0.2517023E-03  0.1206567E+04  0.7818609E-02  0.9107128E-01
       -2   -1    0    0    0  501  0.00000000000E+00  0.00000000000E+00  0.50703958163E+03  0.50703958163E+03  0.25500000920E-02 0.  1.
        2   -1    0    0  501    0  0.00000000000E+00  0.00000000000E+00 -0.71779580863E+03  0.71779580863E+03  0.25500000920E-02 0. -1.
    10030    2    1    2    0    0  0.00000000000E+00  0.00000000000E+00 -0.21075622700E+03  0.12248353903E+04  0.12065668428E+04 0.  0.
        3    1    3    3  502    0  0.21013373559E+03  0.47900441257E+03  0.19975484917E+03  0.55991376484E+03  0.10100000352E+00 0.  1.
       -3    1    3    3    0  502 -0.21013373559E+03 -0.47900441257E+03 -0.41051107617E+03  0.66492162542E+03  0.10100000352E+00 0. -1.
</event>
<event>
 5   0  0.1404833E-03  0.1205745E+04  0.7818609E-02  0.9107843E-01
       -1   -1    0    0    0  501  0.00000000000E+00  0.00000000000E+00  0.28723375124E+03  0.28723375128E+03  0.50400001928E-02 0.  1.
        1   -1    0    0  501    0  0.00000000000E+00  0.00000000000E+00 -0.12653645199E+04  0.12653645199E+04  0.50400001928E-02 0. -1.
    10030    2    1    2    0    0  0.00000000000E+00  0.00000000000E+00 -0.97813076867E+03  0.15525982712E+04  0.12057452430E+04 0.  0.
        1    1    3    3  502    0 -0.23491295232E+03  0.86064744081E+02  0.21723390757E+03  0.33133337587E+03  0.50400001928E-02 0.  1.
       -1    1    3    3    0  502  0.23491295232E+03 -0.86064744081E+02 -0.11953646762E+04  0.12212648953E+04  0.50400001928E-02 0. -1.
</event>
<event>
 5   0  0.2499890E-03  0.1198963E+04  0.7818609E-02  0.9113764E-01
        2   -1    0    0  501    0  0.00000000000E+00  0.00000000000E+00  0.12385750131E+04  0.12385750131E+04  0.25500000920E-02 0.  1.
       -2   -1    0    0    0  501  0.00000000000E+00  0.00000000000E+00 -0.29015466944E+03  0.29015466945E+03  0.25500000920E-02 0. -1.
    10030    2    1    2    0    0  0.00000000000E+00  0.00000000000E+00  0.94842034363E+03  0.15287296825E+04  0.11989634248E+04 0.  0.
        5    1    3    3  502    0 -0.27368430802E+03  0.34395279710E+03  0.99393614566E+03  0.10868016280E+04  0.46999998093E+01 0.  1.
       -5    1    3    3    0  502  0.27368430802E+03 -0.34395279710E+03 -0.45515802027E+02  0.44192805446E+03  0.46999998093E+01 0. -1.
</event>
<event>
 5   0  0.1455076E-03  0.1198721E+04  0.7818609E-02  0.9113977E-01
       -1   -1    0    0    0  501  0.00000000000E+00  0.00000000000E+00  0.14899238428E+03  0.14899238437E+03  0.50400001928E-02 0.  1.
        1   -1    0    0  501    0  0.00000000000E+00  0.00000000000E+00 -0.24110833788E+04  0.24110833788E+04  0.50400001928E-02 0. -1.
    10030    2    1    2    0    0  0.00000000000E+00  0.00000000000E+00 -0.22620909945E+04  0.25600757632E+04  0.11987210875E+04 0.  0.
        4    1    3    3  502    0  0.40043182132E+03 -0.40361476134E+03 -0.15361535362E+04  0.16379926187E+04  0.12699999809E+01 0. -1.
       -4    1    3    3    0  502 -0.40043182132E+03  0.40361476134E+03 -0.72593745827E+03  0.92208314447E+03  0.12699999809E+01 0.  1.
</event>
<event>
 5   0  0.1469851E-03  0.1200598E+04  0.7818609E-02  0.9112333E-01
       -1   -1    0    0    0  501  0.00000000000E+00  0.00000000000E+00  0.22304319261E+03  0.22304319266E+03  0.50400001928E-02 0.  1.
        1   -1    0    0  501    0  0.00000000000E+00  0.00000000000E+00 -0.16156455204E+04  0.16156455204E+04  0.50400001928E-02 0. -1.
    10030    2    1    2    0    0  0.00000000000E+00  0.00000000000E+00 -0.13926023278E+04  0.18386887130E+04  0.12005977429E+04 0.  0.
        5    1    3    3  502    0  0.32512780719E+03 -0.27561248613E+03 -0.48961789983E+02  0.42905673331E+03  0.46999998093E+01 0.  1.
       -5    1    3    3    0  502 -0.32512780719E+03  0.27561248613E+03 -0.13436405378E+04  0.14096319797E+04  0.46999998093E+01 0. -1.
</event>
<event>
 5   0  0.2484507E-03  0.1185373E+04  0.7818609E-02  0.9125757E-01
        2   -1    0    0  501    0  0.00000000000E+00  0.00000000000E+00  0.74391197359E+03  0.74391197359E+03  0.25500000920E-02 0. -1.
       -2   -1    0    0    0  501  0.00000000000E+00  0.00000000000E+00 -0.47220291537E+03  0.47220291537E+03  0.25500000920E-02 0.  1.
    10030    2    1    2    0    0  0.00000000000E+00  0.00000000000E+00  0.27170905822E+03  0.12161148890E+04  0.11853731948E+04 0.  0.
        2    1    3    3  502    0 -0.96541424024E+02 -0.45223867115E+03  0.51619441752E+03  0.69303444281E+03  0.25500000920E-02 0. -1.
       -2    1    3    3    0  502  0.96541424024E+02  0.45223867115E+03 -0.24448535930E+03  0.52308044616E+03  0.25500000920E-02 0.  1.
</event>
<event>
 5   0  0.1404833E-03  0.1196842E+04  0.7818609E-02  0.9115626E-01
       -1   -1    0    0    0  501  0.00000000000E+00  0.00000000000E+00  0.22234113416E+03  0.22234113422E+03  0.50400001928E-02 0. -1.
        1   -1    0    0  501    0  0.00000000000E+00  0.00000000000E+00 -0.16106216064E+04  0.16106216065E+04  0.50400001928E-02 0.  1.
    10030    2    1    2    0    0  0.00000000000E+00  0.00000000000E+00 -0.13882804723E+04  0.18329627407E+04  0.11968415680E+04 0.  0.
        1    1    3    3  502    0 -0.21421484586E+03  0.31689048859E+03  0.10682328599E+02  0.38265087758E+03  0.50400001928E-02 0. -1.
       -1    1    3    3    0  502  0.21421484586E+03 -0.31689048859E+03 -0.13989628009E+04  0.14503118631E+04  0.50400001928E-02 0.  1.
</event>
<event>
 5   0  0.1423024E-03  0.1193023E+04  0.7818609E-02  0.9118985E-01
        1   -1    0    0  501    0  0.00000000000E+00  0.00000000000E+00  0.47444317898E+03  0.47444317901E+03  0.50400001928E-02 0.  1.
       -1   -1    0    0    0  501  0.00000000000E+00  0.00000000000E+00 -0.74998662109E+03  0.74998662111E+03  0.50400001928E-02 0. -1.
    10030    2    1    2    0    0  0.00000000000E+00  0.00000000000E+00 -0.27554344211E+03  0.12244298001E+04  0.11930231125E+04 0.  0.
        2    1    3    3  502    0  0.15599816389E+03  0.28198212786E+03 -0.65295910120E+03  0.72815172554E+03  0.25500000920E-02 0. -1.
       -2    1    3    3    0  502 -0.15599816389E+03 -0.28198212786E+03  0.37741565909E+03  0.49627807457E+03  0.25500000920E-02 0.  1.
</event>
<event>
 5   0  0.2499890E-03  0.1160817E+04  0.7818609E-02  0.9147862E-01
        2   -1    0    0  501    0  0.00000000000E+00  0.00000000000E+00  0.76601893905E+03  0.76601893906E+03  0.25500000920E-02 0. -1.
       -2   -1    0    0    0  501  0.00000000000E+00  0.00000000000E+00 -0.43977224795E+03  0.43977224796E+03  0.25500000920E-02 0.  1.
    10030    2    1    2    0    0  0.00000000000E+00  0.00000000000E+00  0.32624669111E+03  0.12057911870E+04  0.11608167311E+04 0.  0.
        5    1    3    3  502    0  0.51355953050E+03 -0.92536142264E+01 -0.11757352341E+03  0.52694842646E+03  0.46999998093E+01 0.  1.
       -5    1    3    3    0  502 -0.51355953050E+03  0.92536142264E+01  0.44382021452E+03  0.67884276055E+03  0.46999998093E+01 0. -1.
</event>
<event>
 5   0  0.2579442E-03  0.1204800E+04  0.7818609E-02  0.9108666E-01
        2   -1    0    0  501    0  0.00000000000E+00  0.00000000000E+00  0.14087826635E+04  0.14087826635E+04  0.25500000920E-02 0. -1.
       -2   -1    0    0    0  501  0.00000000000E+00  0.00000000000E+00 -0.25758800196E+03  0.25758800197E+03  0.25500000920E-02 0.  1.
    10030    2    1    2    0    0  0.00000000000E+00  0.00000000000E+00  0.11511946616E+04  0.16663706655E+04  0.12047995875E+04 0.  0.
        4    1    3    3  502    0  0.22927703905E+03 -0.50279422576E+03  0.24389904459E+03  0.60403505771E+03  0.12699999809E+01 0.  1.
       -4    1    3    3    0  502 -0.22927703905E+03  0.50279422576E+03  0.90729561696E+03  0.10623356078E+04  0.12699999809E+01 0. -1.
</event>
<event>
 5   0  0.1423024E-03  0.1212594E+04  0.7818609E-02  0.9101904E-01
        1   -1    0    0  501    0  0.00000000000E+00  0.00000000000E+00  0.16070226531E+04  0.16070226531E+04  0.50400001928E-02 0.  1.
       -1   -1    0    0    0  501  0.00000000000E+00  0.00000000000E+00 -0.22874352106E+03  0.22874352112E+03  0.50400001928E-02 0. -1.
    10030    2    1    2    0    0  0.00000000000E+00  0.00000000000E+00  0.13782791320E+04  0.18357661742E+04  0.12125939471E+04 0.  0.
        2    1    3    3  502    0 -0.40539569577E+02 -0.28187095087E+03 -0.12119672415E+03  0.30948882952E+03  0.25500000920E-02 0. -1.
       -2    1    3    3    0  502  0.40539569577E+02  0.28187095087E+03  0.14994758562E+04  0.15262773447E+04  0.25500000920E-02 0.  1.
</event>
<event>
 5   0  0.1403154E-03  0.1217380E+04  0.7818609E-02  0.9097779E-01
       -1   -1    0    0    0  501  0.00000000000E+00  0.00000000000E+00  0.28648278769E+03  0.28648278773E+03  0.50400001928E-02 0.  1.
        1   -1    0    0  501    0  0.00000000000E+00  0.00000000000E+00 -0.12932826876E+04  0.12932826876E+04  0.50400001928E-02 0. -1.
    10030    2    1    2    0    0  0.00000000000E+00  0.00000000000E+00 -0.10067998999E+04  0.15797654754E+04  0.12173795294E+04 0.  0.
        3    1    3    3  502    0  0.28085577991E+03  0.48957396884E+03 -0.79914672570E+03  0.97836503385E+03  0.10100000352E+00 0. -1.
       -3    1    3    3    0  502 -0.28085577991E+03 -0.48957396884E+03 -0.20765317424E+03  0.60140044151E+03  0.10100000352E+00 0.  1.
</event>
<event>
 5   0  0.1423024E-03  0.1205299E+04  0.7818609E-02  0.9108231E-01
        1   -1    0    0  501    0  0.00000000000E+00  0.00000000000E+00  0.11987840715E+04  0.11987840715E+04  0.50400001928E-02 0.  1.
       -1   -1    0    0    0  501  0.00000000000E+00  0.00000000000E+00 -0.30296241787E+03  0.30296241791E+03  0.50400001928E-02 0. -1.
    10030    2    1    2    0    0  0.00000000000E+00  0.00000000000E+00  0.89582165359E+03  0.15017464894E+04  0.12052991676E+04 0.  0.
        2    1    3    3  502    0 -0.50920954979E+03 -0.31668989113E+03  0.37315707446E+03  0.70628114443E+03  0.25500000920E-02 0. -1.
       -2    1    3    3    0  502  0.50920954979E+03  0.31668989113E+03  0.52266457913E+03  0.79546534496E+03  0.25500000920E-02 0.  1.
</event>
<event>
 5   0  0.2517023E-03  0.1194182E+04  0.7818609E-02  0.9117964E-01
        2   -1    0    0  501    0  0.00000000000E+00  0.00000000000E+00  0.38641149109E+03  0.38641149110E+03  0.25500000920E-02 0.  1.
       -2   -1    0    0    0  501  0.00000000000E+00  0.00000000000E+00 -0.92263719891E+03  0.92263719891E+03  0.25500000920E-02 0. -1.
    10030    2    1    2    0    0  0.00000000000E+00  0.00000000000E+00 -0.53622570782E+03  0.13090486900E+04  0.11941819221E+04 0.  0.
        3    1    3    3  502    0  0.10805531255E+03  0.36494584451E+02  0.37436013554E+03  0.39134808873E+03  0.10100000352E+00 0.  1.
       -3    1    3    3    0  502 -0.10805531255E+03 -0.36494584451E+02 -0.91058584336E+03  0.91770060128E+03  0.10100000352E+00 0. -1.
</event>
<event>
 5   0  0.1469851E-03  0.1203761E+04  0.7818609E-02  0.9109571E-01
       -1   -1    0    0    0  501  0.00000000000E+00  0.00000000000E+00  0.10662194514E+04  0.10662194514E+04  0.50400001928E-02 0. -1.
        1   -1    0    0  501    0  0.00000000000E+00  0.00000000000E+00 -0.33976129545E+03  0.33976129548E+03  0.50400001928E-02 0.  1.
    10030    2    1    2    0    0  0.00000000000E+00  0.00000000000E+00  0.72645815598E+03  0.14059807469E+04  0.12037609432E+04 0.  0.
        5    1    3    3  502    0  0.34046213926E+02  0.38770780219E+03  0.89943893610E+03  0.98004539402E+03  0.46999998093E+01 0. -1.
       -5    1    3    3    0  502 -0.34046213926E+02 -0.38770780219E+03 -0.17298078012E+03  0.42593535290E+03  0.46999998093E+01 0.  1.
</event>
<event>
 5   0  0.1455076E-03  0.1196634E+04  0.7818609E-02  0.9115808E-01
        1   -1    0    0  501    0  0.00000000000E+00  0.00000000000E+00  0.73780730897E+03  0.73780730899E+03  0.50400001928E-02 0. -1.
       -1   -1    0    0    0  501  0.00000000000E+00  0.00000000000E+00 -0.48519910861E+03  0.48519910864E+03  0.50400001928E-02 0.  1.
    10030    2    1    2    0    0  0.00000000000E+00  0.00000000000E+00  0.25260820036E+03  0.12230064176E+04  0.11966343613E+04 0.  0.
        4    1    3    3  502    0  0.11297348851E+03  0.56881486741E+03  0.27675036952E+03  0.64257742134E+03  0.12699999809E+01 0. -1.
       -4    1    3    3    0  502 -0.11297348851E+03 -0.56881486741E+03 -0.24142169162E+02  0.58042899628E+03  0.12699999809E+01 0.  1.
</event>
<event>
 5   0  0.1403154E-03  0.1207206E+04  0.7818609E-02  0.9106572E-01
        1   -1    0    0  501    0  0.00000000000E+00  0.00000000000E+00  0.10800569008E+04  0.10800569008E+04  0.50400001928E-02 0.  1.
       -1   -1    0    0    0  501  0.00000000000E+00  0.00000000000E+00 -0.33733113192E+03  0.33733113195E+03  0.50400001928E-02 0. -1.
    10030    2    1    2    0    0  0.00000000000E+00  0.00000000000E+00  0.74272576887E+03  0.14173880328E+04  0.12072063898E+04 0.  0.
        3    1    3    3  502    0  0.44565960293E+03  0.40549860480E+03  0.41361775248E+03  0.73083599771E+03  0.10100000352E+00 0.  1.
       -3    1    3    3    0  502 -0.44565960293E+03 -0.40549860480E+03  0.32910801639E+03  0.68655203505E+03  0.10100000352E+00 0. -1.
</event>
<event>
 5   0  0.2580244E-03  0.1197428E+04  0.7818609E-02  0.9115111E-01
        2   -1    0    0  501    0  0.00000000000E+00  0.00000000000E+00  0.34733460117E+03  0.34733460118E+03  0.25500000920E-02 0. -1.
       -2   -1    0    0    0  501  0.00000000000E+00  0.00000000000E+00 -0.10320257952E+04  0.10320257952E+04  0.25500000920E-02 0.  1.
    10030    2    1    2    0    0  0.00000000000E+00  0.00000000000E+00 -0.68469119404E+03  0.13793603964E+04  0.11974276896E+04 0.  0.
        1    1    3    3  502    0 -0.13338162501E+03 -0.31875965315E+03  0.22087926436E+03  0.41010489368E+03  0.50400001928E-02 0. -1.
       -1    1    3    3    0  502  0.13338162501E+03  0.31875965315E+03 -0.90557045840E+03  0.96925550270E+03  0.50400001928E-02 0.  1.
</event>
<event>
 5   0  0.1404833E-03  0.1182021E+04  0.7818609E-02  0.9128741E-01
       -1   -1    0    0    0  501  0.00000000000E+00  0.00000000000E+00  0.32979633502E+03  0.32979633506E+03  0.50400001928E-02 0. -1.
        1   -1    0    0  501    0  0.00000000000E+00  0.00000000000E+00 -0.10591177912E+04  0.10591177913E+04  0.50400001928E-02 0.  1.
    10030    2    1    2    0    0  0.00000000000E+00  0.00000000000E+00 -0.72932145623E+03  0.13889141263E+04  0.11820205852E+04 0.  0.
        1    1    3    3  502    0  0.39490801876E+03  0.30511292131E+03 -0.73669752043E+03  0.88981429224E+03  0.50400001928E-02 0.  1.
       -1    1    3    3    0  502 -0.39490801876E+03 -0.30511292131E+03  0.73760642092E+01  0.49909983408E+03  0.50400001928E-02 0. -1.
</event>
<event>
 5   0  0.2517023E-03  0.1199445E+04  0.7818609E-02  0.9113343E-01
        2   -1    0    0  501    0  0.00000000000E+00  0.00000000000E+00  0.16092673950E+04  0.16092673950E+04  0.25500000920E-02 0. -1.
       -2   -1    0    0    0  501  0.00000000000E+00  0.00000000000E+00 -0.22349730490E+03  0.22349730492E+03  0.25500000920E-02 0.  1.
    10030    2    1    2    0    0  0.00000000000E+00  0.00000000000E+00  0.13857700901E+04  0.18327647000E+04  0.11994447477E+04 0.  0.
        3    1    3    3  502    0 -0.20399635724E+03  0.54335883634E+03  0.92367832210E+03  0.10908872498E+04  0.10100000352E+00 0. -1.
       -3    1    3    3    0  502  0.20399635724E+03 -0.54335883634E+03  0.46209176803E+03  0.74187745018E+03  0.10100000352E+00 0.  1.
</event>
<event>
 5   0  0.2517023E-03  0.1201360E+04  0.7818609E-02  0.9111667E-01
       -2   -1    0    0    0  501  0.00000000000E+00  0.00000000000E+00  0.47342613456E+03  0.47342613456E+03  0.25500000920E-02 0. -1.
        2   -1    0    0  501    0  0.00000000000E+00  0.00000000000E+00 -0.76213934755E+03  0.76213934755E+03  0.25500000920E-02 0.  1.
    10030    2    1    2    0    0  0.00000000000E+00  0.00000000000E+00 -0.28871321299E+03  0.12355654821E+04  0.12013603711E+04 0.  0.
        3    1    3    3  502    0 -0.49713794938E+03  0.21666900603E+03  0.12131002203E+03  0.55570471523E+03  0.10100000352E+00 0. -1.
       -3    1    3    3    0  502  0.49713794938E+03 -0.21666900603E+03 -0.41002323502E+03  0.67986076688E+03  0.10100000352E+00 0.  1.
</event>
<event>
 5   0  0.2579442E-03  0.1237247E+04  0.7818609E-02  0.9080865E-01
       -2   -1    0    0    0  501  0.00000000000E+00  0.00000000000E+00  0.45289716294E+03  0.45289716295E+03  0.25500000920E-02 0.  1.
        2   -1    0    0  501    0  0.00000000000E+00  0.00000000000E+00 -0.84499356087E+03  0.84499356088E+03  0.25500000920E-02 0. -1.
    10030    2    1    2    0    0  0.00000000000E+00  0.00000000000E+00 -0.39209639793E+03  0.12978907238E+04  0.12372472452E+04 0.  0.
        4    1    3    3  502    0 -0.41045763943E+03 -0.22471915301E+02  0.28890208501E+03  0.50244053217E+03  0.12699999809E+01 0.  1.
       -4    1    3    3    0  502  0.41045763943E+03  0.22471915301E+02 -0.68099848294E+03  0.79545019166E+03  0.12699999809E+01 0. -1.
</event>
<event>
 5   0  0.1403154E-03  0.1201195E+04  0.7818609E-02  0.9111811E-01
        1   -1    0    0  501    0  0.00000000000E+00  0.00000000000E+00  0.55106079689E+03  0.55106079691E+03  0.50400001928E-02 0. -1.
       -1   -1    0    0    0  501  0.00000000000E+00  0.00000000000E+00 -0.65458760179E+03  0.65458760181E+03  0.50400001928E-02 0.  1.
    10030    2    1    2    0    0  0.00000000000E+00  0.00000000000E+00 -0.10352680490E+03  0.12056483987E+04  0.12011953471E+04 0.  0.
        3    1    3    3  502    0  0.14980798469E+03  0.67431695177E+02 -0.63159704975E+03  0.65261344550E+03  0.10100000352E+00 0.  1.
       -3    1    3    3    0  502 -0.14980798469E+03 -0.67431695177E+02  0.52807024485E+03  0.55303495322E+03  0.10100000352E+00 0. -1.
</event>
<event>
 5   0  0.2579442E-03  0.1241232E+04  0.7818609E-02  0.9077513E-01
        2   -1    0    0  501    0  0.00000000000E+00  0.00000000000E+00  0.10805522242E+04  0.10805522242E+04  0.25500000920E-02 0.  1.
       -2   -1    0    0    0  501  0.00000000000E+00  0.00000000000E+00 -0.35645103886E+03  0.35645103887E+03  0.25500000920E-02 0. -1.
    10030    2    1    2    0    0  0.00000000000E+00  0.00000000000E+00  0.72410118533E+03  0.14370032631E+04  0.12412315866E+04 0.  0.
        4    1    3    3  502    0  0.10763033862E+03 -0.20404853171E+03  0.10290665236E+04  0.10546087502E+04  0.12699999809E+01 0.  1.
       -4    1    3    3    0  502 -0.10763033862E+03  0.20404853171E+03 -0.30496533823E+03  0.38239451291E+03  0.12699999809E+01 0. -1.
</event>
<event>
 5   0  0.1469851E-03  0.1207335E+04  0.7818609E-02  0.9106461E-01
       -1   -1    0    0    0  501  0.00000000000E+00  0.00000000000E+00  0.12205799016E+04  0.12205799016E+04  0.50400001928E-02 0. -1.
        1   -1    0    0  501    0  0.00000000000E+00  0.00000000000E+00 -0.29855830146E+03  0.29855830150E+03  0.50400001928E-02 0.  1.
    10030    2    1    2    0    0  0.00000000000E+00  0.00000000000E+00  0.92202160015E+03  0.15191382031E+04  0.12073346881E+04 0.  0.
        5    1    3    3  502    0  0.15585602339E+03  0.55093361766E+03  0.22038000113E+03  0.61352130036E+03  0.46999998093E+01 0.  1.
       -5    1    3    3    0  502 -0.15585602339E+03 -0.55093361766E+03  0.70164159902E+03  0.90561690277E+03  0.46999998093E+01 0. -1.
</event>
<event>
 5   0  0.2580244E-03  0.1193442E+04  0.7818609E-02  0.9118616E-01
       -2   -1    0    0    0  501  0.00000000000E+00  0.00000000000E+00  0.20339959430E+03  0.20339959431E+03  0.25500000920E-02 0.  1.
        2   -1    0    0  501    0  0.00000000000E+00  0.00000000000E+00 -0.17506235684E+04  0.17506235684E+04  0.25500000920E-02 0. -1.
    10030    2    1    2    0    0  0.00000000000E+00  0.00000000000E+00 -0.15472239741E+04  0.19540231627E+04  0.11934422878E+04 0.  0.
        1    1    3    3  502    0 -0.35078469757E+03  0.42884634400E+03 -0.41074760047E+03  0.68969027986E+03  0.50400001928E-02 0.  1.
       -1    1    3    3    0  502  0.35078469757E+03 -0.42884634400E+03 -0.11364763736E+04  0.12643328829E+04  0.50400001928E-02 0. -1.
</event>
<event>
 5   0  0.1423024E-03  0.1180826E+04  0.7818609E-02  0.9129807E-01
       -1   -1    0    0    0  501  0.00000000000E+00  0.00000000000E+00  0.25184646989E+03  0.25184646994E+03  0.50400001928E-02 0.  1.
        1   -1    0    0  501    0  0.00000000000E+00  0.00000000000E+00 -0.13841258891E+04  0.13841258891E+04  0.50400001928E-02 0. -1.
    10030    2    1    2    0    0  0.00000000000E+00  0.00000000000E+00 -0.11322794193E+04  0.16359723591E+04  0.11808255063E+04 0.  0.
        2    1    3    3  502    0 -0.43127964507E+03 -0.23717225040E+03 -0.11435955471E+03  0.50530279672E+03  0.25500000920E-02 0.  1.
       -2    1    3    3    0  502  0.43127964507E+03  0.23717225040E+03 -0.10179198645E+04  0.11306695624E+04  0.25500000920E-02 0. -1.
</event>
<event>
 5   0  0.2499890E-03  0.1191816E+04  0.7818609E-02  0.9120050E-01
       -2   -1    0    0    0  501  0.00000000000E+00  0.00000000000E+00  0.49854005271E+03  0.49854005271E+03  0.25500000920E-02 0. -1.
        2   -1    0    0  501    0  0.00000000000E+00  0.00000000000E+00 -0.71229255557E+03  0.71229255558E+03  0.25500000920E-02 0.  1.
    10030    2    1    2    0    0  0.00000000000E+00  0.00000000000E+00 -0.21375250287E+03  0.12108326083E+04  0.11918160398E+04 0.  0.
        5    1    3    3  502    0  0.22853245851E+03 -0.10304368898E+03 -0.65609342809E+03  0.70237152762E+03  0.46999998093E+01 0.  1.
       -5    1    3    3    0  502 -0.22853245851E+03  0.10304368898E+03  0.44234092522E+03  0.50846108067E+03  0.46999998093E+01 0. -1.
</event>
<event>
 5   0  0.1403154E-03  0.1199135E+04  0.7818609E-02  0.9113614E-01
        1   -1    0    0  501    0  0.00000000000E+00  0.00000000000E+00  0.73802645120E+03  0.73802645122E+03  0.50400001928E-02 0.  1.
       -1   -1    0    0    0  501  0.00000000000E+00  0.00000000000E+00 -0.48708402268E+03  0.48708402270E+03  0.50400001928E-02 0. -1.
    10030    2    1    2    0    0  0.00000000000E+00  0.00000000000E+00  0.25094242853E+03  0.12251104739E+04  0.11991345091E+04 0.  0.
        3    1    3    3  502    0  0.32027109827E+03 -0.42237486464E+03 -0.16078896138E+03  0.55391985248E+03  0.10100000352E+00 0. -1.
       -3    1    3    3    0  502 -0.32027109827E+03  0.42237486464E+03  0.41173138991E+03  0.67119062144E+03  0.10100000352E+00 0.  1.
</event>
<event>
 5   0  0.1403154E-03  0.1199397E+04  0.7818609E-02  0.9113385E-01
        1   -1    0    0  501    0  0.00000000000E+00  0.00000000000E+00  0.40597887976E+03  0.40597887979E+03  0.50400001928E-02 0. -1.
       -1   -1    0    0    0  501  0.00000000000E+00  0.00000000000E+00 -0.88585394763E+03  0.88585394765E+03  0.50400001928E-02 0.  1.
    10030    2    1    2    0    0  0.00000000000E+00  0.00000000000E+00 -0.47987506787E+03  0.12918328274E+04  0.11993965038E+04 0.  0.
        3    1    3    3  502    0  0.31777058514E+03 -0.19046883756E+03 -0.74785462493E+03  0.83459156064E+03  0.10100000352E+00 0.  1.
       -3    1    3    3    0  502 -0.31777058514E+03  0.19046883756E+03  0.26797955706E+03  0.45724126680E+03  0.10100000352E+00 0. -1.
</event>
<event>
 5   0  0.9678750E-04  0.1193139E+04  0.7818609E-02  0.9118883E-01
       -3   -1    0    0    0  501  0.00000000000E+00  0.00000000000E+00  0.40721079717E+03  0.40721080970E+03  0.10100000352E+00 0. -1.
        3   -1    0    0  501    0  0.00000000000E+00  0.00000000000E+00 -0.87398326975E+03  0.87398327558E+03  0.10100000352E+00 0.  1.
    10030    2    1    2    0    0  0.00000000000E+00  0.00000000000E+00 -0.46677247258E+03  0.12811940853E+04  0.11931394483E+04 0.  0.
        2    1    3    3  502    0 -0.17737458507E+03  0.46597931897E+03  0.11835026739E+03  0.51245024630E+03  0.25500000920E-02 0. -1.
       -2    1    3    3    0  502  0.17737458507E+03 -0.46597931897E+03 -0.58512273997E+03  0.76874383898E+03  0.25500000920E-02 0.  1.
</event>
<event>
 5   0  0.1404833E-03  0.1198471E+04  0.7818609E-02  0.9114196E-01
        1   -1    0    0  501    0  0.00000000000E+00  0.00000000000E+00  0.44997976710E+03  0.44997976713E+03  0.50400001928E-02 0. -1.
       -1   -1    0    0    0  501  0.00000000000E+00  0.00000000000E+00 -0.79799810284E+03  0.79799810285E+03  0.50400001928E-02 0.  1.
    10030    2    1    2    0    0  0.00000000000E+00  0.00000000000E+00 -0.34801833574E+03  0.12479778700E+04  0.11984706930E+04 0.  0.
        1    1    3    3  502    0  0.13659677865E+03 -0.21066721006E+02 -0.78117381837E+03  0.79330638546E+03  0.50400001928E-02 0.  1.
       -1    1    3    3    0  502 -0.13659677865E+03  0.21066721006E+02  0.43315548264E+03  0.45467148452E+03  0.50400001928E-02 0. -1.
</event>
<event>
 5   0  0.1423024E-03  0.1197686E+04  0.7818609E-02  0.9114884E-01
       -1   -1    0    0    0  501  0.00000000000E+00  0.00000000000E+00  0.36739783434E+03  0.36739783437E+03  0.50400001928E-02 0.  1.
        1   -1    0    0  501    0  0.00000000000E+00  0.00000000000E+00 -0.97608938850E+03  0.97608938851E+03  0.50400001928E-02 0. -1.
    10030    2    1    2    0    0  0.00000000000E+00  0.00000000000E+00 -0.60869155416E+03  0.13434872229E+04  0.11976863153E+04 0.  0.
        2    1    3    3  502    0 -0.13674285717E+03 -0.49896388462E+03 -0.64263701953E+03  0.82501267021E+03  0.25500000920E-02 0. -1.
       -2    1    3    3    0  502  0.13674285717E+03  0.49896388462E+03  0.33945465366E+02  0.51847455267E+03  0.25500000920E-02 0.  1.
</event>
<event>
 5   0  0.1469851E-03  0.1187078E+04  0.7818609E-02  0.9124243E-01
        1   -1    0    0  501    0  0.00000000000E+00  0.00000000000E+00  0.19539255146E+04  0.19539255146E+04  0.50400001928E-02 0. -1.
       -1   -1    0    0    0  501  0.00000000000E+00  0.00000000000E+00 -0.18029771525E+03  0.18029771532E+03  0.50400001928E-02 0.  1.
    10030    2    1    2    0    0  0.00000000000E+00  0.00000000000E+00  0.17736277994E+04  0.21342232300E+04  0.11870775984E+04 0.  0.
        5    1    3    3  502    0 -0.17444277034E+03  0.55731618500E+03  0.10773773710E+04  0.12254777434E+04  0.46999998093E+01 0.  1.
       -5    1    3    3    0  502  0.17444277034E+03 -0.55731618500E+03  0.69625042842E+03  0.90874548652E+03  0.46999998093E+01 0. -1.
</event>
<event>
 5   0  0.2499890E-03  0.1196622E+04  0.7818609E-02  0.9115818E-01
        2   -1    0    0  501    0  0.00000000000E+00  0.00000000000E+00  0.16662167211E+04  0.16662167211E+04  0.25500000920E-02 0.  1.
       -2   -1    0    0    0  501  0.00000000000E+00  0.00000000000E+00 -0.21484367424E+03  0.21484367426E+03  0.25500000920E-02 0. -1.
    10030    2    1    2    0    0  0.00000000000E+00  0.00000000000E+00  0.14513730468E+04  0.18810603953E+04  0.11966221165E+04 0.  0.
        5    1    3    3  502    0 -0.48200735387E+02  0.21429521484E+02  0.16625251037E+04  0.16633683734E+04  0.46999998093E+01 0.  1.
       -5    1    3    3    0  502  0.48200735387E+02 -0.21429521484E+02 -0.21115205687E+03  0.21769202191E+03  0.46999998093E+01 0. -1.
</event>
<event>
 5   0  0.1469851E-03  0.1216673E+04  0.7818609E-02  0.9098386E-01
        1   -1    0    0  501    0  0.00000000000E+00  0.00000000000E+00  0.39284457558E+03  0.39284457561E+03  0.50400001928E-02 0.  1.
       -1   -1    0    0    0  501  0.00000000000E+00  0.00000000000E+00 -0.94203518815E+03  0.94203518816E+03  0.50400001928E-02 0. -1.
    10030    2    1    2    0    0  0.00000000000E+00  0.00000000000E+00 -0.54919061257E+03  0.13348797638E+04  0.12166731914E+04 0.  0.
        5    1    3    3  502    0 -0.22538182642E+03  0.26517822821E+03  0.27281260856E+03  0.44222762214E+03  0.46999998093E+01 0.  1.
       -5    1    3    3    0  502  0.22538182642E+03 -0.26517822821E+03 -0.82200322113E+03  0.89265214163E+03  0.46999998093E+01 0. -1.
</event>
<event>
 5   0  0.2580244E-03  0.1218313E+04  0.7818609E-02  0.9096977E-01
        2   -1    0    0  501    0  0.00000000000E+00  0.00000000000E+00  0.13052526037E+04  0.13052526037E+04  0.25500000920E-02 0.  1.
       -2   -1    0    0    0  501  0.00000000000E+00  0.00000000000E+00 -0.28429104546E+03  0.28429104547E+03  0.25500000920E-02 0. -1.
    10030    2    1    2    0    0  0.00000000000E+00  0.00000000000E+00  0.10209615582E+04  0.15895436492E+04  0.12183129767E+04 0.  0.
        1    1    3    3  502    0 -0.27990626839E+03 -0.52720626363E+03  0.66908563474E+03  0.89664349110E+03  0.50400001928E-02 0. -1.
       -1    1    3    3    0  502  0.27990626839E+03  0.52720626363E+03  0.35187592348E+03  0.69290015806E+03  0.50400001928E-02 0.  1.
</event>
<event>
 5   0  0.1404833E-03  0.1204444E+04  0.7818609E-02  0.9108975E-01
        1   -1    0    0  501    0  0.00000000000E+00  0.00000000000E+00  0.15870469467E+04  0.15870469467E+04  0.50400001928E-02 0.  1.
       -1   -1    0    0    0  501  0.00000000000E+00  0.00000000000E+00 -0.22851969748E+03  0.22851969754E+03  0.50400001928E-02 0. -1.
    10030    2    1    2    0    0  0.00000000000E+00  0.00000000000E+00  0.13585272492E+04  0.18155666442E+04  0.12044442506E+04 0.  0.
        1    1    3    3  502    0 -0.39683977320E+02  0.53502465297E+03  0.26687399783E+03  0.59920608148E+03  0.50400001928E-02 0.  1.
       -1    1    3    3    0  502  0.39683977320E+02 -0.53502465297E+03  0.10916532514E+04  0.12163605627E+04  0.50400001928E-02 0. -1.
</event>
<event>
 5   0  0.2579442E-03  0.1149354E+04  0.7818609E-02  0.9158380E-01
       -2   -1    0    0    0  501  0.00000000000E+00  0.00000000000E+00  0.31933647073E+03  0.31933647074E+03  0.25500000920E-02 0. -1.
        2   -1    0    0  501    0  0.00000000000E+00  0.00000000000E+00 -0.10341874316E+04  0.10341874316E+04  0.25500000920E-02 0.  1.
    10030    2    1    2    0    0  0.00000000000E+00  0.00000000000E+00 -0.71485096092E+03  0.13535239024E+04  0.11493541917E+04 0.  0.
        4    1    3    3  502    0 -0.53962651578E+03 -0.19449292448E+03 -0.39869121186E+03  0.69855606040E+03  0.12699999809E+01 0.  1.
       -4    1    3    3    0  502  0.53962651578E+03  0.19449292448E+03 -0.31615974906E+03  0.65496784198E+03  0.12699999809E+01 0. -1.
</event>
<event>
 5   0  0.2517023E-03  0.1203993E+04  0.7818609E-02  0.9109369E-01
       -2   -1    0    0    0  501  0.00000000000E+00  0.00000000000E+00  0.31306880405E+03  0.31306880406E+03  0.25500000920E-02 0.  1.
        2   -1    0    0  501    0  0.00000000000E+00  0.00000000000E+00 -0.11575719720E+04  0.11575719720E+04  0.25500000920E-02 0. -1.
    10030    2    1    2    0    0  0.00000000000E+00  0.00000000000E+00 -0.84450316791E+03  0.14706407760E+04  0.12039928121E+04 0.  0.
        3    1    3    3  502    0 -0.42229718968E+03  0.96451325572E+02 -0.93288128621E+03  0.10285452246E+04  0.10100000352E+00 0. -1.
       -3    1    3    3    0  502  0.42229718968E+03 -0.96451325572E+02  0.88378118306E+02  0.44209555145E+03  0.10100000352E+00 0.  1.
</event>
<event>
 5   0  0.1403154E-03  0.1222353E+04  0.7818609E-02  0.9093513E-01
        1   -1    0    0  501    0  0.00000000000E+00  0.00000000000E+00  0.83871014353E+03  0.83871014355E+03  0.50400001928E-02 0.  1.
       -1   -1    0    0    0  501  0.00000000000E+00  0.00000000000E+00 -0.44537062332E+03  0.44537062335E+03  0.50400001928E-02 0. -1.
    10030    2    1    2    0    0  0.00000000000E+00  0.00000000000E+00  0.39333952021E+03  0.12840807669E+04  0.12223532377E+04 0.  0.
        3    1    3    3  502    0  0.49961778675E+03  0.20220964245E+03 -0.10603105856E+03  0.54931709232E+03  0.10100000352E+00 0. -1.
       -3    1    3    3    0  502 -0.49961778675E+03 -0.20220964245E+03  0.49937057877E+03  0.73476367458E+03  0.10100000352E+00 0.  1.
</event>
<event>
 5   0  0.1469851E-03  0.1177421E+04  0.7818609E-02  0.9132853E-01
       -1   -1    0    0    0  501  0.00000000000E+00  0.00000000000E+00  0.78504231498E+03  0.78504231500E+03  0.50400001928E-02 0.  1.
        1   -1    0    0  501    0  0.00000000000E+00  0.00000000000E+00 -0.44147919702E+03  0.44147919705E+03  0.50400001928E-02 0. -1.
    10030    2    1    2    0    0  0.00000000000E+00  0.00000000000E+00  0.34356311796E+03  0.12265215120E+04  0.11774206570E+04 0.  0.
        5    1    3    3  502    0 -0.81794519513E+02  0.38862571033E+03  0.62445770615E+03  0.74006067516E+03  0.46999998093E+01 0.  1.
       -5    1    3    3    0  502  0.81794519513E+02 -0.38862571033E+03 -0.28089458819E+03  0.48646083689E+03  0.46999998093E+01 0. -1.
</event>
<event>
 5   0  0.9678750E-04  0.1199921E+04  0.7818609E-02  0.9112925E-01
       -3   -1    0    0    0  501  0.00000000000E+00  0.00000000000E+00  0.47809899899E+03  0.47809900966E+03  0.10100000352E+00 0.  1.
        3   -1    0    0  501    0  0.00000000000E+00  0.00000000000E+00 -0.75288331818E+03  0.75288332496E+03  0.10100000352E+00 0. -1.
    10030    2    1    2    0    0  0.00000000000E+00  0.00000000000E+00 -0.27478431919E+03  0.12309823346E+04  0.11999212833E+04 0.  0.
        4    1    3    3  502    0  0.41290973019E+03  0.25955197692E+03 -0.49585009097E+03  0.69550744038E+03  0.12699999809E+01 0. -1.
       -4    1    3    3    0  502 -0.41290973019E+03 -0.25955197692E+03  0.22106577178E+03  0.53547489424E+03  0.12699999809E+01 0.  1.
</event>
<event>
 5   0  0.1423024E-03  0.1163360E+04  0.7818609E-02  0.9145546E-01
       -1   -1    0    0    0  501  0.00000000000E+00  0.00000000000E+00  0.32751625255E+03  0.32751625258E+03  0.50400001928E-02 0. -1.
        1   -1    0    0  501    0  0.00000000000E+00  0.00000000000E+00 -0.10330837717E+04  0.10330837717E+04  0.50400001928E-02 0.  1.
    10030    2    1    2    0    0  0.00000000000E+00  0.00000000000E+00 -0.70556751915E+03  0.13606000243E+04  0.11633601773E+04 0.  0.
        2    1    3    3  502    0  0.16830798667E+03 -0.23618102441E+03 -0.94249648835E+03  0.98610784665E+03  0.25500000920E-02 0.  1.
       -2    1    3    3    0  502 -0.16830798667E+03  0.23618102441E+03  0.23692896920E+03  0.37449217765E+03  0.25500000920E-02 0. -1.
</event>
<event>
 5   0  0.2499890E-03  0.1211472E+04  0.7818609E-02  0.9102874E-01
       -2   -1    0    0    0  501  0.00000000000E+00  0.00000000000E+00  0.20377134464E+03  0.20377134465E+03  0.25500000920E-02 0.  1.
        2   -1    0    0  501    0  0.00000000000E+00  0.00000000000E+00 -0.18006256465E+04  0.18006256466E+04  0.25500000920E-02 0. -1.
    10030    2    1    2    0    0  0.00000000000E+00  0.00000000000E+00 -0.15968543019E+04  0.20043969912E+04  0.12114716822E+04 0.  0.
        5    1    3    3  502    0 -0.21262754043E+03  0.21396303059E+03 -0.16674852676E+04  0.16945559469E+04  0.46999998093E+01 0. -1.
       -5    1    3    3    0  502  0.21262754043E+03 -0.21396303059E+03  0.70630965737E+02  0.30984104429E+03  0.46999998093E+01 0.  1.
</event>
<event>
 5   0  0.2484507E-03  0.1240827E+04  0.7818609E-02  0.9077853E-01
        2   -1    0    0  501    0  0.00000000000E+00  0.00000000000E+00  0.23946232300E+03  0.23946232302E+03  0.25500000920E-02 0.  1.
       -2   -1    0    0    0  501  0.00000000000E+00  0.00000000000E+00 -0.16074039502E+04  0.16074039502E+04  0.25500000920E-02 0. -1.
    10030    2    1    2    0    0  0.00000000000E+00  0.00000000000E+00 -0.13679416272E+04  0.18468662733E+04  0.12408266341E+04 0.  0.
        2    1    3    3  502    0  0.15541347592E+02 -0.56298468889E+03 -0.29664105611E+03  0.63654474280E+03  0.25500000920E-02 0.  1.
       -2    1    3    3    0  502 -0.15541347592E+02  0.56298468889E+03 -0.10713005711E+04  0.12103215305E+04  0.25500000920E-02 0. -1.
</event>
<event>
 5   0  0.2517023E-03  0.1201567E+04  0.7818609E-02  0.9111486E-01
       -2   -1    0    0    0  501  0.00000000000E+00  0.00000000000E+00  0.20788613715E+03  0.20788613717E+03  0.25500000920E-02 0. -1.
        2   -1    0    0  501    0  0.00000000000E+00  0.00000000000E+00 -0.17362424361E+04  0.17362424361E+04  0.25500000920E-02 0.  1.
    10030    2    1    2    0    0  0.00000000000E+00  0.00000000000E+00 -0.15283562989E+04  0.19441285732E+04  0.12015668657E+04 0.  0.
        3    1    3    3  502    0 -0.22610029072E+03 -0.27730349833E+03 -0.15450547980E+04  0.15859422785E+04  0.10100000352E+00 0.  1.
       -3    1    3    3    0  502  0.22610029072E+03  0.27730349833E+03  0.16698499128E+02  0.35818629472E+03  0.10100000352E+00 0. -1.
</event>
<event>
 5   0  0.2484507E-03  0.1202439E+04  0.7818609E-02  0.9110724E-01
        2   -1    0    0  501    0  0.00000000000E+00  0.00000000000E+00  0.50509157444E+03  0.50509157445E+03  0.25500000920E-02 0. -1.
       -2   -1    0    0    0  501  0.00000000000E+00  0.00000000000E+00 -0.71564228200E+03  0.71564228201E+03  0.25500000920E-02 0.  1.
    10030    2    1    2    0    0  0.00000000000E+00  0.00000000000E+00 -0.21055070756E+03  0.12207338565E+04  0.12024389996E+04 0.  0.
        2    1    3    3  502    0  0.50420625190E+03 -0.18528151816E+03 -0.37940534538E+03  0.65764853952E+03  0.25500000920E-02 0.  1.
       -2    1    3    3    0  502 -0.50420625190E+03  0.18528151816E+03  0.16885463782E+03  0.56308531693E+03  0.25500000920E-02 0. -1.
</event>
<event>
 5   0  0.2517023E-03  0.1165484E+04  0.7818609E-02  0.9143617E-01
        2   -1    0    0  501    0  0.00000000000E+00  0.00000000000E+00  0.71929329696E+03  0.71929329696E+03  0.25500000920E-02 0.  1.
       -2   -1    0    0    0  501  0.00000000000E+00  0.00000000000E+00 -0.47211333407E+03  0.47211333408E+03  0.25500000920E-02 0. -1.
    10030    2    1    2    0    0  0.00000000000E+00  0.00000000000E+00  0.24717996288E+03  0.11914066310E+04  0.11654835162E+04 0.  0.
        3    1    3    3  502    0  0.10650390590E+02  0.85775595722E+02  0.71270415501E+03  0.71792625416E+03  0.10100000352E+00 0.  1.
       -3    1    3    3    0  502 -0.10650390590E+02 -0.85775595722E+02 -0.46552419212E+03  0.47348037688E+03  0.10100000352E+00 0. -1.
</event>
<event>
 5   0  0.2499890E-03  0.1199002E+04  0.7818609E-02  0.9113731E-01
        2   -1    0    0  501    0  0.00000000000E+00  0.00000000000E+00  0.14089589720E+04  0.14089589720E+04  0.25500000920E-02 0. -1.
       -2   -1    0    0    0  501  0.00000000000E+00  0.00000000000E+00 -0.25508294579E+03  0.25508294581E+03  0.25500000920E-02 0.  1.
    10030    2    1    2    0    0  0.00000000000E+00  0.00000000000E+00  0.11538760262E+04  0.16640419178E+04  0.11990019268E+04 0.  0.
        5    1    3    3  502    0  0.19371795342E+02  0.53839056976E+03  0.21200937395E+03  0.57897300171E+03  0.46999998093E+01 0.  1.
       -5    1    3    3    0  502 -0.19371795342E+02 -0.53839056976E+03  0.94186665227E+03  0.10850689161E+04  0.46999998093E+01 0. -1.
</event>
<event>
 5   0  0.2579442E-03  0.1208324E+04  0.7818609E-02  0.9105601E-01
        2   -1    0    0  501    0  0.00000000000E+00  0.00000000000E+00  0.78100314922E+03  0.78100314923E+03  0.25500000920E-02 0.  1.
       -2   -1    0    0    0  501  0.00000000000E+00  0.00000000000E+00 -0.46736303020E+03  0.46736303021E+03  0.25500000920E-02 0. -1.
    10030    2    1    2    0    0  0.00000000000E+00  0.00000000000E+00  0.31364011902E+03  0.12483661794E+04  0.12083244571E+04 0.  0.
        4    1    3    3  502    0  0.22797548177E+03  0.55282036490E+03  0.24585721198E+03  0.64655282670E+03  0.12699999809E+01 0.  1.
       -4    1    3    3    0  502 -0.22797548177E+03 -0.55282036490E+03  0.67782907044E+02  0.60181335273E+03  0.12699999809E+01 0. -1.
</event>
<event>
 5   0  0.2579442E-03  0.1201133E+04  0.7818609E-02  0.9111865E-01
       -2   -1    0    0    0  501  0.00000000000E+00  0.00000000000E+00  0.58736894086E+03  0.58736894087E+03  0.25500000920E-02 0. -1.
        2   -1    0    0  501    0  0.00000000000E+00  0.00000000000E+00 -0.61406075323E+03  0.61406075324E+03  0.25500000920E-02 0.  1.
    10030    2    1    2    0    0  0.00000000000E+00  0.00000000000E+00 -0.26691812371E+02  0.12014296941E+04  0.12011331554E+04 0.  0.
        4    1    3    3  502    0 -0.45998751507E+03  0.31728612977E+03  0.20675295806E+03  0.59582497491E+03  0.12699999809E+01 0. -1.
       -4    1    3    3    0  502  0.45998751507E+03 -0.31728612977E+03 -0.23344477043E+03  0.60560471919E+03  0.12699999809E+01 0.  1.
</event>
<event>
 5   0  0.1404833E-03  0.1227671E+04  0.7818609E-02  0.9088975E-01
        1   -1    0    0  501    0  0.00000000000E+00  0.00000000000E+00  0.13904019079E+04  0.13904019079E+04  0.50400001928E-02 0. -1.
       -1   -1    0    0    0  501  0.00000000000E+00  0.00000000000E+00 -0.27099659494E+03  0.27099659499E+03  0.50400001928E-02 0.  1.
    10030    2    1    2    0    0  0.00000000000E+00  0.00000000000E+00  0.11194053129E+04  0.16613985029E+04  0.12276712633E+04 0.  0.
        1    1    3    3  502    0  0.12757661644E+02 -0.33332387262E+03  0.12570445532E+04  0.13005493343E+04  0.50400001928E-02 0. -1.
       -1    1    3    3    0  502 -0.12757661644E+02  0.33332387262E+03 -0.13763924031E+03  0.36084916861E+03  0.50400001928E-02 0.  1.
</event>
<event>
 5   0  0.2484507E-03  0.1231158E+04  0.7818609E-02  0.9086013E-01
       -2   -1    0    0    0  501  0.00000000000E+00  0.00000000000E+00  0.40562947714E+03  0.40562947715E+03  0.25500000920E-02 0.  1.
        2   -1    0    0  501    0  0.00000000000E+00  0.00000000000E+00 -0.93419564336E+03  0.93419564336E+03  0.25500000920E-02 0. -1.
    10030    2    1    2    0    0  0.00000000000E+00  0.00000000000E+00 -0.52856616621E+03  0.13398251205E+04  0.12311576509E+04 0.  0.
        2    1    3    3  502    0 -0.24902839560E+03  0.35136551920E+03  0.21438558513E+03  0.48107592853E+03  0.25500000920E-02 0.  1.
       -2    1    3    3    0  502  0.24902839560E+03 -0.35136551920E+03 -0.74295175134E+03  0.85874919198E+03  0.25500000920E-02 0. -1.
</event>
<event>
 5   0  0.1469851E-03  0.1171215E+04  0.7818609E-02  0.9138432E-01
        1   -1    0    0  501    0  0.00000000000E+00  0.00000000000E+00  0.12181092346E+04  0.12181092346E+04  0.50400001928E-02 0.  1.
       -1   -1    0    0    0  501  0.00000000000E+00  0.00000000000E+00 -0.28153161810E+03  0.28153161815E+03  0.50400001928E-02 0. -1.
    10030    2    1    2    0    0  0.00000000000E+00  0.00000000000E+00  0.93657761650E+03  0.14996408528E+04  0.11712152046E+04 0.  0.
        5    1    3    3  502    0  0.40242867423E+03  0.16201217849E+03  0.97192870524E+03  0.10643609735E+04  0.46999998093E+01 0.  1.
       -5    1    3    3    0  502 -0.40242867423E+03 -0.16201217849E+03 -0.35351088739E+02  0.43527987927E+03  0.46999998093E+01 0. -1.
</event>
<event>
 5   0  0.1455076E-03  0.1205988E+04  0.7818609E-02  0.9107631E-01
        1   -1    0    0  501    0  0.00000000000E+00  0.00000000000E+00  0.15925484422E+04  0.15925484422E+04  0.50400001928E-02 0.  1.
       -1   -1    0    0    0  501  0.00000000000E+00  0.00000000000E+00 -0.22831442483E+03  0.22831442489E+03  0.50400001928E-02 0. -1.
    10030    2    1    2    0    0  0.00000000000E+00  0.00000000000E+00  0.13642340174E+04  0.18208628671E+04  0.12059880292E+04 0.  0.
        4    1    3    3  502    0  0.27544753484E+02  0.26099308601E+03 -0.13755865554E+03  0.29631081824E+03  0.12699999809E+01 0. -1.
       -4    1    3    3    0  502 -0.27544753484E+02 -0.26099308601E+03  0.15017926729E+04  0.15245520489E+04  0.12699999809E+01 0.  1.
</event>
<event>
 5   0  0.1469851E-03  0.1208083E+04  0.7818609E-02  0.9105811E-01
        1   -1    0    0  501    0  0.00000000000E+00  0.00000000000E+00  0.18072164168E+04  0.18072164168E+04  0.50400001928E-02 0. -1.
       -1   -1    0    0    0  501  0.00000000000E+00  0.00000000000E+00 -0.20189391903E+03  0.20189391909E+03  0.50400001928E-02 0.  1.
    10030    2    1    2    0    0  0.00000000000E+00  0.00000000000E+00  0.16053224978E+04  0.20091103359E+04  0.12080827869E+04 0.  0.
        5    1    3    3  502    0 -0.22533491412E+03 -0.55728721103E+03  0.90103574744E+03  0.10831585144E+04  0.46999998093E+01 0.  1.
       -5    1    3    3    0  502  0.22533491412E+03  0.55728721103E+03  0.70428675034E+03  0.92595182154E+03  0.46999998093E+01 0. -1.
</event>
<event>
 5   0  0.2580244E-03  0.1219089E+04  0.7818609E-02  0.9096311E-01
        2   -1    0    0  501    0  0.00000000000E+00  0.00000000000E+00  0.14024582050E+04  0.14024582050E+04  0.25500000920E-02 0. -1.
       -2   -1    0    0    0  501  0.00000000000E+00  0.00000000000E+00 -0.26492354531E+03  0.26492354532E+03  0.25500000920E-02 0.  1.
    10030    2    1    2    0    0  0.00000000000E+00  0.00000000000E+00  0.11375346597E+04  0.16673817503E+04  0.12190885117E+04 0.  0.
        1    1    3    3  502    0 -0.14088516171E+03 -0.10845703734E+03 -0.22866940861E+03  0.28965713560E+03  0.50400001928E-02 0.  1.
       -1    1    3    3    0  502  0.14088516171E+03  0.10845703734E+03  0.13662040683E+04  0.13777246147E+04  0.50400001928E-02 0. -1.
</event>
<event>
 5   0  0.2517023E-03  0.1235537E+04  0.7818609E-02  0.9082307E-01
       -2   -1    0    0    0  501  0.00000000000E+00  0.00000000000E+00  0.63165334655E+03  0.63165334655E+03  0.25500000920E-02 0. -1.
        2   -1    0    0  501    0  0.00000000000E+00  0.00000000000E+00 -0.60418887819E+03  0.60418887819E+03  0.25500000920E-02 0.  1.
    10030    2    1    2    0    0  0.00000000000E+00  0.00000000000E+00  0.27464468360E+02  0.12358422247E+04  0.12355370118E+04 0.  0.
        3    1    3    3  502    0 -0.60388209072E+03 -0.12872179648E+03 -0.61481952493E+01  0.61747930402E+03  0.10100000352E+00 0. -1.
       -3    1    3    3    0  502  0.60388209072E+03  0.12872179648E+03  0.33612663609E+02  0.61836292073E+03  0.10100000352E+00 0.  1.
</event>
<event>
 5   0  0.2499890E-03  0.1228292E+04  0.7818609E-02  0.9088447E-01
       -2   -1    0    0    0  501  0.00000000000E+00  0.00000000000E+00  0.51820878217E+03  0.51820878217E+03  0.25500000920E-02 0. -1.
        2   -1    0    0  501    0  0.00000000000E+00  0.00000000000E+00 -0.72784403584E+03  0.72784403584E+03  0.25500000920E-02 0.  1.
    10030    2    1    2    0    0  0.00000000000E+00  0.00000000000E+00 -0.20963525367E+03  0.12460528180E+04  0.12282917755E+04 0.  0.
        5    1    3    3  502    0 -0.36995688978E+03  0.32770180805E+03 -0.47463872983E+03  0.68524491180E+03  0.46999998093E+01 0.  1.
       -5    1    3    3    0  502  0.36995688978E+03 -0.32770180805E+03  0.26500347616E+03  0.56080790621E+03  0.46999998093E+01 0. -1.
</event>
<event>
 5   0  0.1469851E-03  0.1195288E+04  0.7818609E-02  0.9116991E-01
       -1   -1    0    0    0  501  0.00000000000E+00  0.00000000000E+00  0.48861820442E+03  0.48861820445E+03  0.50400001928E-02 0. -1.
        1   -1    0    0  501    0  0.00000000000E+00  0.00000000000E+00 -0.73099676874E+03  0.73099676876E+03  0.50400001928E-02 0.  1.
    10030    2    1    2    0    0  0.00000000000E+00  0.00000000000E+00 -0.24237856432E+03  0.12196149732E+04  0.11952879630E+04 0.  0.
        5    1    3    3  502    0  0.14495498764E+03  0.24570093803E+03 -0.65702038035E+03  0.71629516932E+03  0.46999998093E+01 0.  1.
       -5    1    3    3    0  502 -0.14495498764E+03 -0.24570093803E+03  0.41464181603E+03  0.50331980389E+03  0.46999998093E+01 0. -1.
</event>
<event>
 5   0  0.2517023E-03  0.1161192E+04  0.7818609E-02  0.9147520E-01
        2   -1    0    0  501    0  0.00000000000E+00  0.00000000000E+00  0.66286504716E+03  0.66286504716E+03  0.25500000920E-02 0. -1.
       -2   -1    0    0    0  501  0.00000000000E+00  0.00000000000E+00 -0.50853769923E+03  0.50853769923E+03  0.25500000920E-02 0.  1.
    10030    2    1    2    0    0  0.00000000000E+00  0.00000000000E+00  0.15432734793E+03  0.11714027464E+04  0.11611922597E+04 0.  0.
        3    1    3    3  502    0  0.21206339973E+03 -0.20411507465E+03  0.58202204946E+03  0.65221432479E+03  0.10100000352E+00 0. -1.
       -3    1    3    3    0  502 -0.21206339973E+03  0.20411507465E+03 -0.42769470153E+03  0.51918842160E+03  0.10100000352E+00 0.  1.
</event>
<event>
 5   0  0.2579442E-03  0.1228039E+04  0.7818609E-02  0.9088662E-01
       -2   -1    0    0    0  501  0.00000000000E+00  0.00000000000E+00  0.42343973206E+03  0.42343973207E+03  0.25500000920E-02 0. -1.
        2   -1    0    0  501    0  0.00000000000E+00  0.00000000000E+00 -0.89037455077E+03  0.89037455077E+03  0.25500000920E-02 0.  1.
    10030    2    1    2    0    0  0.00000000000E+00  0.00000000000E+00 -0.46693481870E+03  0.13138142828E+04  0.12280390242E+04 0.  0.
        4    1    3    3  502    0 -0.35169199668E+03  0.21570003284E+03  0.25305392720E+03  0.48399552443E+03  0.12699999809E+01 0. -1.
       -4    1    3    3    0  502  0.35169199668E+03 -0.21570003284E+03 -0.71998874590E+03  0.82981875842E+03  0.12699999809E+01 0.  1.
</event>
<event>
 5   0  0.2499890E-03  0.1194088E+04  0.7818609E-02  0.9118047E-01
        2   -1    0    0  501    0  0.00000000000E+00  0.00000000000E+00  0.39333672330E+03  0.39333672331E+03  0.25500000920E-02 0. -1.
       -2   -1    0    0    0  501  0.00000000000E+00  0.00000000000E+00 -0.90625075160E+03  0.90625075160E+03  0.25500000920E-02 0.  1.
    10030    2    1    2    0    0  0.00000000000E+00  0.00000000000E+00 -0.51291402830E+03  0.12995874749E+04  0.11940882733E+04 0.  0.
        5    1    3    3  502    0  0.20111816678E+02 -0.45308800571E+03  0.16610702673E+03  0.48301848869E+03  0.46999998093E+01 0. -1.
       -5    1    3    3    0  502 -0.20111816678E+02  0.45308800571E+03 -0.67902105503E+03  0.81656898622E+03  0.46999998093E+01 0.  1.
</event>
<event>
 5   0  0.1469851E-03  0.1151363E+04  0.7818609E-02  0.9156527E-01
        1   -1    0    0  501    0  0.00000000000E+00  0.00000000000E+00  0.89801721929E+03  0.89801721930E+03  0.50400001928E-02 0.  1.
       -1   -1    0    0    0  501  0.00000000000E+00  0.00000000000E+00 -0.36904536032E+03  0.36904536036E+03  0.50400001928E-02 0. -1.
    10030    2    1    2    0    0  0.00000000000E+00  0.00000000000E+00  0.52897185896E+03  0.12670625797E+04  0.11513628243E+04 0.  0.
        5    1    3    3  502    0 -0.41730849110E+03  0.31846292195E+03  0.52449500994E+03  0.74207958795E+03  0.46999998093E+01 0.  1.
       -5    1    3    3    0  502  0.41730849110E+03 -0.31846292195E+03  0.44768490221E+01  0.52498299171E+03  0.46999998093E+01 0. -1.
</event>
<event>
 5   0  0.2517023E-03  0.1201497E+04  0.7818609E-02  0.9111547E-01
       -2   -1    0    0    0  501  0.00000000000E+00  0.00000000000E+00  0.22844273522E+03  0.22844273523E+03  0.25500000920E-02 0.  1.
        2   -1    0    0  501    0  0.00000000000E+00  0.00000000000E+00 -0.15798217468E+04  0.15798217468E+04  0.25500000920E-02 0. -1.
    10030    2    1    2    0    0  0.00000000000E+00  0.00000000000E+00 -0.13513790116E+04  0.18082644820E+04  0.12014970678E+04 0.  0.
        3    1    3    3  502    0 -0.64864397458E+02 -0.26086062562E+01 -0.15745274829E+04  0.15758651590E+04  0.10100000352E+00 0. -1.
       -3    1    3    3    0  502  0.64864397458E+02  0.26086062562E+01  0.22314847130E+03  0.23239932300E+03  0.10100000352E+00 0.  1.
</event>
<event>
 5   0  0.2580244E-03  0.1184401E+04  0.7818609E-02  0.9126621E-01
       -2   -1    0    0    0  501  0.00000000000E+00  0.00000000000E+00  0.74878385837E+03  0.74878385838E+03  0.25500000920E-02 0. -1.
        2   -1    0    0  501    0  0.00000000000E+00  0.00000000000E+00 -0.46836159712E+03  0.46836159713E+03  0.25500000920E-02 0.  1.
    10030    2    1    2    0    0  0.00000000000E+00  0.00000000000E+00  0.28042226125E+03  0.12171454555E+04  0.11844012898E+04 0.  0.
        1    1    3    3  502    0 -0.55331820752E+03 -0.17321473938E+03  0.26411483133E+03  0.63711932075E+03  0.50400001928E-02 0. -1.
       -1    1    3    3    0  502  0.55331820752E+03  0.17321473938E+03  0.16307429918E+02  0.58002613476E+03  0.50400001928E-02 0.  1.
</event>
<event>
 5   0  0.2579442E-03  0.1198723E+04  0.7818609E-02  0.9113975E-01
       -2   -1    0    0    0  501  0.00000000000E+00  0.00000000000E+00  0.25847653254E+03  0.25847653255E+03  0.25500000920E-02 0. -1.
        2   -1    0    0  501    0  0.00000000000E+00  0.00000000000E+00 -0.13898133711E+04  0.13898133711E+04  0.25500000920E-02 0.  1.
    10030    2    1    2    0    0  0.00000000000E+00  0.00000000000E+00 -0.11313368386E+04  0.16482899037E+04  0.11987228888E+04 0.  0.
        4    1    3    3  502    0 -0.65534894829E+02  0.34570667691E+02  0.25215297334E+03  0.26281683426E+03  0.12699999809E+01 0. -1.
       -4    1    3    3    0  502  0.65534894829E+02 -0.34570667691E+02 -0.13834898119E+04  0.13854730694E+04  0.12699999809E+01 0.  1.
</event>
<event>
 5   0  0.2580244E-03  0.1199589E+04  0.7818609E-02  0.9113217E-01
        2   -1    0    0  501    0  0.00000000000E+00  0.00000000000E+00  0.23895133189E+03  0.23895133190E+03  0.25500000920E-02 0.  1.
       -2   -1    0    0    0  501  0.00000000000E+00  0.00000000000E+00 -0.15055498635E+04  0.15055498635E+04  0.25500000920E-02 0. -1.
    10030    2    1    2    0    0  0.00000000000E+00  0.00000000000E+00 -0.12665985316E+04  0.17445011954E+04  0.11995885046E+04 0.  0.
        1    1    3    3  502    0 -0.46933406252E+03 -0.35438240833E+03 -0.80470214163E+03  0.99669799355E+03  0.50400001928E-02 0.  1.
       -1    1    3    3    0  502  0.46933406252E+03  0.35438240833E+03 -0.46189638995E+03  0.74780320182E+03  0.50400001928E-02 0. -1.
</event>
<event>
 5   0  0.2517023E-03  0.1345728E+04  0.7818609E-02  0.8994068E-01
        2   -1    0    0  501    0  0.00000000000E+00  0.00000000000E+00  0.11169675886E+04  0.11169675886E+04  0.25500000920E-02 0. -1.
       -2   -1    0    0    0  501  0.00000000000E+00  0.00000000000E+00 -0.40533492850E+03  0.40533492851E+03  0.25500000920E-02 0.  1.
    10030    2    1    2    0    0  0.00000000000E+00  0.00000000000E+00  0.71163266010E+03  0.15223025171E+04  0.13457280226E+04 0.  0.
        3    1    3    3  502    0  0.16219114118E+03  0.76445973394E+02 -0.37781225696E+03  0.41820098617E+03  0.10100000352E+00 0.  1.
       -3    1    3    3    0  502 -0.16219114118E+03 -0.76445973394E+02  0.10894449171E+04  0.11041015309E+04  0.10100000352E+00 0. -1.
</event>
<event>
 5   0  0.2484507E-03  0.1197796E+04  0.7818609E-02  0.9114788E-01
       -2   -1    0    0    0  501  0.00000000000E+00  0.00000000000E+00  0.33438123877E+03  0.33438123878E+03  0.25500000920E-02 0. -1.
        2   -1    0    0  501    0  0.00000000000E+00  0.00000000000E+00 -0.10726636818E+04  0.10726636818E+04  0.25500000920E-02 0.  1.
    10030    2    1    2    0    0  0.00000000000E+00  0.00000000000E+00 -0.73828244303E+03  0.14070449206E+04  0.11977956599E+04 0.  0.
        2    1    3    3  502    0  0.14741847965E+03  0.22719941628E+03  0.25833392929E+03  0.37428358490E+03  0.25500000920E-02 0. -1.
       -2    1    3    3    0  502 -0.14741847965E+03 -0.22719941628E+03 -0.99661637232E+03  0.10327613357E+04  0.25500000920E-02 0.  1.
</event>
<event>
 5   0  0.2580244E-03  0.1027447E+04  0.7818609E-02  0.9278944E-01
       -2   -1    0    0    0  501  0.00000000000E+00  0.00000000000E+00  0.16908508321E+03  0.16908508323E+03  0.25500000920E-02 0. -1.
        2   -1    0    0  501    0  0.00000000000E+00  0.00000000000E+00 -0.15608221594E+04  0.15608221594E+04  0.25500000920E-02 0.  1.
    10030    2    1    2    0    0  0.00000000000E+00  0.00000000000E+00 -0.13917370762E+04  0.17299072426E+04  0.10274468253E+04 0.  0.
        1    1    3    3  502    0 -0.16968873682E+02  0.27944172981E+03 -0.14211017752E+04  0.14484149539E+04  0.50400001928E-02 0.  1.
       -1    1    3    3    0  502  0.16968873682E+02 -0.27944172981E+03  0.29364699062E+02  0.28149228873E+03  0.50400001928E-02 0. -1.
</event>
<event>
 5   0  0.2484507E-03  0.1209175E+04  0.7818609E-02  0.9104863E-01
       -2   -1    0    0    0  501  0.00000000000E+00  0.00000000000E+00  0.74897127221E+03  0.74897127221E+03  0.25500000920E-02 0.  1.
        2   -1    0    0  501    0  0.00000000000E+00  0.00000000000E+00 -0.48803782665E+03  0.48803782666E+03  0.25500000920E-02 0. -1.
    10030    2    1    2    0    0  0.00000000000E+00  0.00000000000E+00  0.26093344556E+03  0.12370090989E+04  0.12091754412E+04 0.  0.
        2    1    3    3  502    0 -0.84132807478E+02 -0.88622711379E+02  0.73620611076E+03  0.74627860200E+03  0.25500000920E-02 0.  1.
       -2    1    3    3    0  502  0.84132807478E+02  0.88622711379E+02 -0.47527266521E+03  0.49073049688E+03  0.25500000920E-02 0. -1.
</event>
<event>
 5   0  0.1404833E-03  0.1200444E+04  0.7818609E-02  0.9112468E-01
       -1   -1    0    0    0  501  0.00000000000E+00  0.00000000000E+00  0.43914254829E+03  0.43914254832E+03  0.50400001928E-02 0. -1.
        1   -1    0    0  501    0  0.00000000000E+00  0.00000000000E+00 -0.82038667465E+03  0.82038667467E+03  0.50400001928E-02 0.  1.
    10030    2    1    2    0    0  0.00000000000E+00  0.00000000000E+00 -0.38124412636E+03  0.12595292230E+04  0.12004444092E+04 0.  0.
        1    1    3    3  502    0  0.18970395739E+03  0.52970457311E+02 -0.78551471510E+03  0.80983135804E+03  0.50400001928E-02 0.  1.
       -1    1    3    3    0  502 -0.18970395739E+03 -0.52970457311E+02  0.40427058874E+03  0.44969786495E+03  0.50400001928E-02 0. -1.
</event>
<event>
 5   0  0.1423024E-03  0.1225059E+04  0.7818609E-02  0.9091201E-01
       -1   -1    0    0    0  501  0.00000000000E+00  0.00000000000E+00  0.30046187559E+03  0.30046187563E+03  0.50400001928E-02 0.  1.
        1   -1    0    0  501    0  0.00000000000E+00  0.00000000000E+00 -0.12487188885E+04  0.12487188886E+04  0.50400001928E-02 0. -1.
    10030    2    1    2    0    0  0.00000000000E+00  0.00000000000E+00 -0.94825701296E+03  0.15491807642E+04  0.12250590506E+04 0.  0.
        2    1    3    3  502    0  0.33973813278E+03 -0.46184630707E+03 -0.74672732860E+03  0.94144873121E+03  0.25500000920E-02 0. -1.
       -2    1    3    3    0  502 -0.33973813278E+03  0.46184630707E+03 -0.20152968435E+03  0.60773203297E+03  0.25500000920E-02 0.  1.
</event>
<event>
 5   0  0.1455076E-03  0.1210116E+04  0.7818609E-02  0.9104048E-01
       -1   -1    0    0    0  501  0.00000000000E+00  0.00000000000E+00  0.78130463758E+03  0.78130463759E+03  0.50400001928E-02 0. -1.
        1   -1    0    0  501    0  0.00000000000E+00  0.00000000000E+00 -0.46856907238E+03  0.46856907240E+03  0.50400001928E-02 0.  1.
    10030    2    1    2    0    0  0.00000000000E+00  0.00000000000E+00  0.31273556520E+03  0.12498737100E+04  0.12101160098E+04 0.  0.
        4    1    3    3  502    0  0.40440737924E+03 -0.25816266229E+03 -0.22439046093E+03  0.52966591399E+03  0.12699999809E+01 0.  1.
       -4    1    3    3    0  502 -0.40440737924E+03  0.25816266229E+03  0.53712602613E+03  0.72020779601E+03  0.12699999809E+01 0. -1.
</event>
<event>
 5   0  0.1469851E-03  0.1218651E+04  0.7818609E-02  0.9096686E-01
       -1   -1    0    0    0  501  0.00000000000E+00  0.00000000000E+00  0.35662844465E+03  0.35662844469E+03  0.50400001928E-02 0. -1.
        1   -1    0    0  501    0  0.00000000000E+00  0.00000000000E+00 -0.10410762189E+04  0.10410762189E+04  0.50400001928E-02 0.  1.
    10030    2    1    2    0    0  0.00000000000E+00  0.00000000000E+00 -0.68444777420E+03  0.13977046636E+04  0.12186507174E+04 0.  0.
        5    1    3    3  502    0 -0.34727091425E+03 -0.38606062120E+03  0.23384336796E+02  0.51981612935E+03  0.46999998093E+01 0. -1.
       -5    1    3    3    0  502  0.34727091425E+03  0.38606062120E+03 -0.70783211100E+03  0.87788853420E+03  0.46999998093E+01 0.  1.
</event>
<event>
 5   0  0.2517023E-03  0.1207784E+04  0.7818609E-02  0.9106070E-01
       -2   -1    0    0    0  501  0.00000000000E+00  0.00000000000E+00  0.45971194224E+03  0.45971194224E+03  0.25500000920E-02 0.  1.
        2   -1    0    0  501    0  0.00000000000E+00  0.00000000000E+00 -0.79329155823E+03  0.79329155823E+03  0.25500000920E-02 0. -1.
    10030    2    1    2    0    0  0.00000000000E+00  0.00000000000E+00 -0.33357961599E+03  0.12530035005E+04  0.12077840916E+04 0.  0.
        3    1    3    3  502    0  0.25093021902E+02  0.99769646356E+02  0.45055406029E+03  0.46214999030E+03  0.10100000352E+00 0.  1.
       -3    1    3    3    0  502 -0.25093021902E+02 -0.99769646356E+02 -0.78413367629E+03  0.79085351018E+03  0.10100000352E+00 0. -1.
</event>
<event>
 5   0  0.9678750E-04  0.1216701E+04  0.7818609E-02  0.9098362E-01
        3   -1    0    0  501    0  0.00000000000E+00  0.00000000000E+00  0.53989544426E+03  0.53989545371E+03  0.10100000352E+00 0. -1.
       -3   -1    0    0    0  501  0.00000000000E+00  0.00000000000E+00 -0.68548540553E+03  0.68548541298E+03  0.10100000352E+00 0.  1.
    10030    2    1    2    0    0  0.00000000000E+00  0.00000000000E+00 -0.14558996127E+03  0.12253808667E+04  0.12167012088E+04 0.  0.
        1    1    3    3  502    0  0.37191156201E+03  0.12559159781E+02 -0.55749165739E+03  0.67027821875E+03  0.50400001928E-02 0.  1.
       -1    1    3    3    0  502 -0.37191156201E+03 -0.12559159781E+02  0.41190169611E+03  0.55510264793E+03  0.50400001928E-02 0. -1.
</event>
<event>
 5   0  0.2517023E-03  0.1199787E+04  0.7818609E-02  0.9113043E-01
       -2   -1    0    0    0  501  0.00000000000E+00  0.00000000000E+00  0.60763304563E+03  0.60763304564E+03  0.25500000920E-02 0.  1.
        2   -1    0    0  501    0  0.00000000000E+00  0.00000000000E+00 -0.59225291645E+03  0.59225291646E+03  0.25500000920E-02 0. -1.
    10030    2    1    2    0    0  0.00000000000E+00  0.00000000000E+00  0.15380129180E+02  0.11998859621E+04  0.11997873869E+04 0.  0.
        3    1    3    3  502    0 -0.36729537732E+03 -0.26162143163E+03 -0.38796949394E+03  0.59487141982E+03  0.10100000352E+00 0. -1.
       -3    1    3    3    0  502  0.36729537732E+03  0.26162143163E+03  0.40334962312E+03  0.60501454227E+03  0.10100000352E+00 0.  1.
</event>
<event>
 5   0  0.1403154E-03  0.1191535E+04  0.7818609E-02  0.9120298E-01
       -1   -1    0    0    0  501  0.00000000000E+00  0.00000000000E+00  0.91541703614E+03  0.91541703616E+03  0.50400001928E-02 0.  1.
        1   -1    0    0  501    0  0.00000000000E+00  0.00000000000E+00 -0.38773468128E+03  0.38773468131E+03  0.50400001928E-02 0. -1.
    10030    2    1    2    0    0  0.00000000000E+00  0.00000000000E+00  0.52768235487E+03  0.13031517175E+04  0.11915350314E+04 0.  0.
        3    1    3    3  502    0 -0.39904558617E+03  0.19996013927E+03  0.69541675111E+03  0.82633280527E+03  0.10100000352E+00 0.  1.
       -3    1    3    3    0  502  0.39904558617E+03 -0.19996013927E+03 -0.16773439625E+03  0.47681891219E+03  0.10100000352E+00 0. -1.
</event>
<event>
 5   0  0.1455076E-03  0.1207662E+04  0.7818609E-02  0.9106177E-01
        1   -1    0    0  501    0  0.00000000000E+00  0.00000000000E+00  0.10631772422E+04  0.10631772422E+04  0.50400001928E-02 0. -1.
       -1   -1    0    0    0  501  0.00000000000E+00  0.00000000000E+00 -0.34294530422E+03  0.34294530425E+03  0.50400001928E-02 0.  1.
    10030    2    1    2    0    0  0.00000000000E+00  0.00000000000E+00  0.72023193801E+03  0.14061225465E+04  0.12076616129E+04 0.  0.
        4    1    3    3  502    0 -0.21649793367E+03  0.13459285492E+02 -0.29601284827E+03  0.36698464121E+03  0.12699999809E+01 0.  1.
       -4    1    3    3    0  502  0.21649793367E+03 -0.13459285492E+02  0.10162447863E+04  0.10391379053E+04  0.12699999809E+01 0. -1.
</event>
<event>
 5   0  0.1469851E-03  0.1184736E+04  0.7818609E-02  0.9126323E-01
        1   -1    0    0  501    0  0.00000000000E+00  0.00000000000E+00  0.90339266693E+03  0.90339266695E+03  0.50400001928E-02 0.  1.
       -1   -1    0    0    0  501  0.00000000000E+00  0.00000000000E+00 -0.38842481084E+03  0.38842481087E+03  0.50400001928E-02 0. -1.
    10030    2    1    2    0    0  0.00000000000E+00  0.00000000000E+00  0.51496785610E+03  0.12918174778E+04  0.11847364699E+04 0.  0.
        5    1    3    3  502    0 -0.51507354773E+03  0.29242143726E+03  0.24856013332E+03  0.64235137301E+03  0.46999998093E+01 0.  1.
       -5    1    3    3    0  502  0.51507354773E+03 -0.29242143726E+03  0.26640772277E+03  0.64946610480E+03  0.46999998093E+01 0. -1.
</event>
<event>
 5   0  0.2579442E-03  0.1197633E+04  0.7818609E-02  0.9114930E-01
       -2   -1    0    0    0  501  0.00000000000E+00  0.00000000000E+00  0.27043100621E+03  0.27043100622E+03  0.25500000920E-02 0.  1.
        2   -1    0    0  501    0  0.00000000000E+00  0.00000000000E+00 -0.13259628641E+04  0.13259628641E+04  0.25500000920E-02 0. -1.
    10030    2    1    2    0    0  0.00000000000E+00  0.00000000000E+00 -0.10555318579E+04  0.15963938703E+04  0.11976334523E+04 0.  0.
        4    1    3    3  502    0  0.28234668973E+03  0.25844129509E+03 -0.11416042726E+04  0.12040653986E+04  0.12699999809E+01 0. -1.
       -4    1    3    3    0  502 -0.28234668973E+03 -0.25844129509E+03  0.86072414672E+02  0.39232847167E+03  0.12699999809E+01 0.  1.
</event>
<event>
 5   0  0.2579442E-03  0.1201042E+04  0.7818609E-02  0.9111945E-01
       -2   -1    0    0    0  501  0.00000000000E+00  0.00000000000E+00  0.20740556895E+03  0.20740556897E+03  0.25500000920E-02 0. -1.
        2   -1    0    0  501    0  0.00000000000E+00  0.00000000000E+00 -0.17387446410E+04  0.17387446410E+04  0.25500000920E-02 0.  1.
    10030    2    1    2    0    0  0.00000000000E+00  0.00000000000E+00 -0.15313390720E+04  0.19461502100E+04  0.12010417504E+04 0.  0.
        4    1    3    3  502    0 -0.19182978643E+03 -0.12876417861E+03 -0.16638436689E+04  0.16798083962E+04  0.12699999809E+01 0.  1.
       -4    1    3    3    0  502  0.19182978643E+03  0.12876417861E+03  0.13250459685E+03  0.26634181373E+03  0.12699999809E+01 0. -1.
</event>
<event>
 5   0  0.2517023E-03  0.1207402E+04  0.7818609E-02  0.9106402E-01
       -2   -1    0    0    0  501  0.00000000000E+00  0.00000000000E+00  0.17062305554E+03  0.17062305556E+03  0.25500000920E-02 0. -1.
        2   -1    0    0  501    0  0.00000000000E+00  0.00000000000E+00 -0.21360228264E+04  0.21360228264E+04  0.25500000920E-02 0.  1.
    10030    2    1    2    0    0  0.00000000000E+00  0.00000000000E+00 -0.19653997709E+04  0.23066458820E+04  0.12074017416E+04 0.  0.
        3    1    3    3  502    0 -0.52738408831E+03 -0.95377601116E+02 -0.15135903235E+04  0.16056732361E+04  0.10100000352E+00 0.  1.
       -3    1    3    3    0  502  0.52738408831E+03  0.95377601116E+02 -0.45180944740E+03  0.70097264594E+03  0.10100000352E+00 0. -1.
</event>
<event>
 5   0  0.1404833E-03  0.1199555E+04  0.7818609E-02  0.9113246E-01
       -1   -1    0    0    0  501  0.00000000000E+00  0.00000000000E+00  0.60642231399E+03  0.60642231401E+03  0.50400001928E-02 0.  1.
        1   -1    0    0  501    0  0.00000000000E+00  0.00000000000E+00 -0.59320555896E+03  0.59320555898E+03  0.50400001928E-02 0. -1.
    10030    2    1    2    0    0  0.00000000000E+00  0.00000000000E+00  0.13216755028E+02  0.11996278730E+04  0.11995550638E+04 0.  0.
        1    1    3    3  502    0 -0.19410266540E+03  0.48803881214E+03  0.29623838824E+03  0.60300490011E+03  0.50400001928E-02 0.  1.
       -1    1    3    3    0  502  0.19410266540E+03 -0.48803881214E+03 -0.28302163321E+03  0.59662297287E+03  0.50400001928E-02 0. -1.
</event>
<event>
 5   0  0.2579442E-03  0.1219374E+04  0.7818609E-02  0.9096066E-01
       -2   -1    0    0    0  501  0.00000000000E+00  0.00000000000E+00  0.35501955120E+03  0.35501955121E+03  0.25500000920E-02 0. -1.
        2   -1    0    0  501    0  0.00000000000E+00  0.00000000000E+00 -0.10470358040E+04  0.10470358041E+04  0.25500000920E-02 0.  1.
    10030    2    1    2    0    0  0.00000000000E+00  0.00000000000E+00 -0.69201625284E+03  0.14020553553E+04  0.12193739070E+04 0.  0.
        4    1    3    3  502    0  0.23259784106E+03 -0.31618890730E+03 -0.88241830569E+03  0.96578510026E+03  0.12699999809E+01 0.  1.
       -4    1    3    3    0  502 -0.23259784106E+03  0.31618890730E+03  0.19040205285E+03  0.43627025500E+03  0.12699999809E+01 0. -1.
</event>
<event>
 5   0  0.1455076E-03  0.1200758E+04  0.7818609E-02  0.9112193E-01
       -1   -1    0    0    0  501  0.00000000000E+00  0.00000000000E+00  0.29359246769E+03  0.29359246774E+03  0.50400001928E-02 0.  1.
        1   -1    0    0  501    0  0.00000000000E+00  0.00000000000E+00 -0.12277386677E+04  0.12277386677E+04  0.50400001928E-02 0. -1.
    10030    2    1    2    0    0  0.00000000000E+00  0.00000000000E+00 -0.93414619998E+03  0.15213311354E+04  0.12007578027E+04 0.  0.
        4    1    3    3  502    0  0.29641357219E+03 -0.39526007238E+03 -0.89926172343E+03  0.10260432694E+04  0.12699999809E+01 0. -1.
       -4    1    3    3    0  502 -0.29641357219E+03  0.39526007238E+03 -0.34884476552E+02  0.49528786600E+03  0.12699999809E+01 0.  1.
</event>
<event>
 5   0  0.2580244E-03  0.1224443E+04  0.7818609E-02  0.9091727E-01
        2   -1    0    0  501    0  0.00000000000E+00  0.00000000000E+00  0.92684178342E+03  0.92684178342E+03  0.25500000920E-02 0. -1.
       -2   -1    0    0    0  501  0.00000000000E+00  0.00000000000E+00 -0.40440022724E+03  0.40440022725E+03  0.25500000920E-02 0.  1.
    10030    2    1    2    0    0  0.00000000000E+00  0.00000000000E+00  0.52244155618E+03  0.13312420107E+04  0.12244427759E+04 0.  0.
        1    1    3    3  502    0  0.54222346877E+03 -0.23503692386E+03  0.43506215746E+03  0.73384448389E+03  0.50400001928E-02 0. -1.
       -1    1    3    3    0  502 -0.54222346877E+03  0.23503692386E+03  0.87379398719E+02  0.59739752678E+03  0.50400001928E-02 0.  1.
</event>
<event>
 5   0  0.2499890E-03  0.9900879E+03  0.7818609E-02  0.9319483E-01
        2   -1    0    0  501    0  0.00000000000E+00  0.00000000000E+00  0.11652521635E+04  0.11652521635E+04  0.25500000920E-02 0. -1.
       -2   -1    0    0    0  501  0.00000000000E+00  0.00000000000E+00 -0.21031371888E+03  0.21031371890E+03  0.25500000920E-02 0.  1.
    10030    2    1    2    0    0  0.00000000000E+00  0.00000000000E+00  0.95493844459E+03  0.13755658824E+04  0.99008790710E+03 0.  0.
        5    1    3    3  502    0 -0.41390133322E+03  0.24837492423E+03  0.62992964485E+03  0.79362325072E+03  0.46999998093E+01 0. -1.
       -5    1    3    3    0  502  0.41390133322E+03 -0.24837492423E+03  0.32500879974E+03  0.58194263165E+03  0.46999998093E+01 0.  1.
</event>
<event>
 5   0  0.1455076E-03  0.1152463E+04  0.7818609E-02  0.9155514E-01
       -1   -1    0    0    0  501  0.00000000000E+00  0.00000000000E+00  0.31288366436E+03  0.31288366441E+03  0.50400001928E-02 0. -1.
        1   -1    0    0  501    0  0.00000000000E+00  0.00000000000E+00 -0.10612335123E+04  0.10612335123E+04  0.50400001928E-02 0.  1.
    10030    2    1    2    0    0  0.00000000000E+00  0.00000000000E+00 -0.74834984790E+03  0.13741171767E+04  0.11524628065E+04 0.  0.
        4    1    3    3  502    0 -0.10232285424E+03 -0.40278390651E+03  0.10176709031E+03  0.42785861615E+03  0.12699999809E+01 0. -1.
       -4    1    3    3    0  502  0.10232285424E+03  0.40278390651E+03 -0.85011693821E+03  0.94625856053E+03  0.12699999809E+01 0.  1.
</event>
<event>
 5   0  0.1404833E-03  0.1142093E+04  0.7818609E-02  0.9165109E-01
        1   -1    0    0  501    0  0.00000000000E+00  0.00000000000E+00  0.84105008591E+03  0.84105008592E+03  0.50400001928E-02 0.  1.
       -1   -1    0    0    0  501  0.00000000000E+00  0.00000000000E+00 -0.38772284244E+03  0.38772284248E+03  0.50400001928E-02 0. -1.
    10030    2    1    2    0    0  0.00000000000E+00  0.00000000000E+00  0.45332724346E+03  0.12287729284E+04  0.11420933937E+04 0.  0.
        1    1    3    3  502    0 -0.45278624221E+03  0.24555062180E+01  0.60102714194E+03  0.75249919337E+03  0.50400001928E-02 0.  1.
       -1    1    3    3    0  502  0.45278624221E+03 -0.24555062180E+01 -0.14769989848E+03  0.47627373503E+03  0.50400001928E-02 0. -1.
</event>
<event>
 5   0  0.1455076E-03  0.1209188E+04  0.7818609E-02  0.9104852E-01
       -1   -1    0    0    0  501  0.00000000000E+00  0.00000000000E+00  0.81293860718E+03  0.81293860719E+03  0.50400001928E-02 0. -1.
        1   -1    0    0  501    0  0.00000000000E+00  0.00000000000E+00 -0.44964502758E+03  0.44964502761E+03  0.50400001928E-02 0.  1.
    10030    2    1    2    0    0  0.00000000000E+00  0.00000000000E+00  0.36329357960E+03  0.12625836348E+04  0.12091878307E+04 0.  0.
        4    1    3    3  502    0  0.31009492570E+03  0.73191814469E+02 -0.35486805865E+03  0.47691598484E+03  0.12699999809E+01 0.  1.
       -4    1    3    3    0  502 -0.31009492570E+03 -0.73191814469E+02  0.71816163825E+03  0.78566764996E+03  0.12699999809E+01 0. -1.
</event>
<event>
 5   0  0.2579442E-03  0.1284614E+04  0.7818609E-02  0.9041856E-01
        2   -1    0    0  501    0  0.00000000000E+00  0.00000000000E+00  0.24296948389E+03  0.24296948390E+03  0.25500000920E-02 0.  1.
       -2   -1    0    0    0  501  0.00000000000E+00  0.00000000000E+00 -0.16979836897E+04  0.16979836897E+04  0.25500000920E-02 0. -1.
    10030    2    1    2    0    0  0.00000000000E+00  0.00000000000E+00 -0.14550142058E+04  0.19409531736E+04  0.12846139042E+04 0.  0.
        4    1    3    3  502    0 -0.86781673971E+02  0.50182363118E+03 -0.13188914518E+04  0.14138013617E+04  0.12699999809E+01 0. -1.
       -4    1    3    3    0  502  0.86781673971E+02 -0.50182363118E+03 -0.13612275401E+03  0.52715181192E+03  0.12699999809E+01 0.  1.
</event>
<event>
 5   0  0.1404833E-03  0.1198010E+04  0.7818609E-02  0.9114600E-01
        1   -1    0    0  501    0  0.00000000000E+00  0.00000000000E+00  0.18495464948E+04  0.18495464949E+04  0.50400001928E-02 0. -1.
       -1   -1    0    0    0  501  0.00000000000E+00  0.00000000000E+00 -0.19399731739E+03  0.19399731746E+03  0.50400001928E-02 0.  1.
    10030    2    1    2    0    0  0.00000000000E+00  0.00000000000E+00  0.16555491775E+04  0.20435438123E+04  0.11980101143E+04 0.  0.
        1    1    3    3  502    0 -0.11013561688E+03  0.44369365274E+02 -0.17372207067E+03  0.21042303235E+03  0.50400001928E-02 0.  1.
       -1    1    3    3    0  502  0.11013561688E+03 -0.44369365274E+02  0.18292712481E+04  0.18331207800E+04  0.50400001928E-02 0. -1.
</event>
<event>
 5   0  0.2580244E-03  0.1208745E+04  0.7818609E-02  0.9105236E-01
       -2   -1    0    0    0  501  0.00000000000E+00  0.00000000000E+00  0.93849080287E+03  0.93849080288E+03  0.25500000920E-02 0. -1.
        2   -1    0    0  501    0  0.00000000000E+00  0.00000000000E+00 -0.38920589956E+03  0.38920589957E+03  0.25500000920E-02 0.  1.
    10030    2    1    2    0    0  0.00000000000E+00  0.00000000000E+00  0.54928490331E+03  0.13276967024E+04  0.12087450636E+04 0.  0.
        1    1    3    3  502    0 -0.16348688013E+03 -0.82920066827E+02 -0.35793298183E+03  0.40214390082E+03  0.50400001928E-02 0.  1.
       -1    1    3    3    0  502  0.16348688013E+03  0.82920066827E+02  0.90721788514E+03  0.92555280163E+03  0.50400001928E-02 0. -1.
</event>
<event>
 5   0  0.9678750E-04  0.1186509E+04  0.7818609E-02  0.9124748E-01
        3   -1    0    0  501    0  0.00000000000E+00  0.00000000000E+00  0.27779621789E+03  0.27779623625E+03  0.10100000352E+00 0. -1.
       -3   -1    0    0    0  501  0.00000000000E+00  0.00000000000E+00 -0.12669394713E+04  0.12669394753E+04  0.10100000352E+00 0.  1.
    10030    2    1    2    0    0  0.00000000000E+00  0.00000000000E+00 -0.98914325337E+03  0.15447357115E+04  0.11865091836E+04 0.  0.
        4    1    3    3  502    0  0.52862137966E+02  0.11567337621E+03 -0.12489809435E+04  0.12554400605E+04  0.12699999809E+01 0.  1.
       -4    1    3    3    0  502 -0.52862137966E+02 -0.11567337621E+03  0.25983769009E+03  0.28929565099E+03  0.12699999809E+01 0. -1.
</event>
<event>
 5   0  0.1469851E-03  0.1186660E+04  0.7818609E-02  0.9124613E-01
        1   -1    0    0  501    0  0.00000000000E+00  0.00000000000E+00  0.72089140176E+03  0.72089140178E+03  0.50400001928E-02 0.  1.
       -1   -1    0    0    0  501  0.00000000000E+00  0.00000000000E+00 -0.48834080651E+03  0.48834080654E+03  0.50400001928E-02 0. -1.
    10030    2    1    2    0    0  0.00000000000E+00  0.00000000000E+00  0.23255059525E+03  0.12092322083E+04  0.11866603365E+04 0.  0.
        5    1    3    3  502    0 -0.18145893084E+03 -0.44036396631E+01  0.69188424186E+03  0.71531295931E+03  0.46999998093E+01 0.  1.
       -5    1    3    3    0  502  0.18145893084E+03  0.44036396631E+01 -0.45933364662E+03  0.49391924900E+03  0.46999998093E+01 0. -1.
</event>
<event>
 5   0  0.2517023E-03  0.1206540E+04  0.7818609E-02  0.9107151E-01
       -2   -1    0    0    0  501  0.00000000000E+00  0.00000000000E+00  0.41242324467E+03  0.41242324468E+03  0.25500000920E-02 0. -1.
        2   -1    0    0  501    0  0.00000000000E+00  0.00000000000E+00 -0.88243084277E+03  0.88243084278E+03  0.25500000920E-02 0.  1.
    10030    2    1    2    0    0  0.00000000000E+00  0.00000000000E+00 -0.47000759810E+03  0.12948540875E+04  0.12065404948E+04 0.  0.
        3    1    3    3  502    0 -0.40595500840E+03 -0.34246557614E+03  0.72036803495E+02  0.53597709927E+03  0.10100000352E+00 0. -1.
       -3    1    3    3    0  502  0.40595500840E+03  0.34246557614E+03 -0.54204440159E+03  0.75887698818E+03  0.10100000352E+00 0.  1.
</event>
<event>
 5   0  0.1404833E-03  0.1204088E+04  0.7818609E-02  0.9109286E-01
        1   -1    0    0  501    0  0.00000000000E+00  0.00000000000E+00  0.39697574150E+03  0.39697574154E+03  0.50400001928E-02 0.  1.
       -1   -1    0    0    0  501  0.00000000000E+00  0.00000000000E+00 -0.91304498338E+03  0.91304498339E+03  0.50400001928E-02 0. -1.
    10030    2    1    2    0    0  0.00000000000E+00  0.00000000000E+00 -0.51606924188E+03  0.13100207249E+04  0.12040875538E+04 0.  0.
        1    1    3    3  502    0  0.10204801725E+03 -0.52169036310E+03  0.49465132579E+02  0.53387398526E+03  0.50400001928E-02 0.  1.
       -1    1    3    3    0  502 -0.10204801725E+03  0.52169036310E+03 -0.56553437445E+03  0.77614673966E+03  0.50400001928E-02 0. -1.
</event>
<event>
 5   0  0.1469851E-03  0.1156250E+04  0.7818609E-02  0.9152037E-01
        1   -1    0    0  501    0  0.00000000000E+00  0.00000000000E+00  0.10028613917E+04  0.10028613918E+04  0.50400001928E-02 0. -1.
       -1   -1    0    0    0  501  0.00000000000E+00  0.00000000000E+00 -0.33327504370E+03  0.33327504374E+03  0.50400001928E-02 0.  1.
    10030    2    1    2    0    0  0.00000000000E+00  0.00000000000E+00  0.66958634804E+03  0.13361364355E+04  0.11562502743E+04 0.  0.
        5    1    3    3  502    0  0.39617357444E+03  0.40513826993E+03  0.46713610364E+03  0.73439005179E+03  0.46999998093E+01 0. -1.
       -5    1    3    3    0  502 -0.39617357444E+03 -0.40513826993E+03  0.20245024440E+03  0.60174638371E+03  0.46999998093E+01 0.  1.
</event>
<event>
 5   0  0.9678750E-04  0.1202739E+04  0.7818609E-02  0.9110462E-01
       -3   -1    0    0    0  501  0.00000000000E+00  0.00000000000E+00  0.25876052824E+03  0.25876054795E+03  0.10100000352E+00 0.  1.
        3   -1    0    0  501    0  0.00000000000E+00  0.00000000000E+00 -0.13976067859E+04  0.13976067895E+04  0.10100000352E+00 0. -1.
    10030    2    1    2    0    0  0.00000000000E+00  0.00000000000E+00 -0.11388462576E+04  0.16563673375E+04  0.12027393558E+04 0.  0.
        3    1    3    3  502    0  0.88286327299E+02  0.41257835612E+03 -0.11595658782E+04  0.12339401977E+04  0.10100000352E+00 0. -1.
       -3    1    3    3    0  502 -0.88286327299E+02 -0.41257835612E+03  0.20719620530E+02  0.42242713976E+03  0.10100000352E+00 0.  1.
</event>
<event>
 5   0  0.2499890E-03  0.1197964E+04  0.7818609E-02  0.9114640E-01
        2   -1    0    0  501    0  0.00000000000E+00  0.00000000000E+00  0.15303334007E+04  0.15303334007E+04  0.25500000920E-02 0. -1.
       -2   -1    0    0    0  501  0.00000000000E+00  0.00000000000E+00 -0.23444543194E+03  0.23444543195E+03  0.25500000920E-02 0.  1.
    10030    2    1    2    0    0  0.00000000000E+00  0.00000000000E+00  0.12958879688E+04  0.17647788327E+04  0.11979643987E+04 0.  0.
        5    1    3    3  502    0 -0.54559858719E+03  0.15909177213E+03  0.92655819482E+03  0.10869775475E+04  0.46999998093E+01 0. -1.
       -5    1    3    3    0  502  0.54559858719E+03 -0.15909177213E+03  0.36932977397E+03  0.67780128522E+03  0.46999998093E+01 0.  1.
</event>
<event>
 5   0  0.1404833E-03  0.1204470E+04  0.7818609E-02  0.9108953E-01
        1   -1    0    0  501    0  0.00000000000E+00  0.00000000000E+00  0.64147099811E+03  0.64147099813E+03  0.50400001928E-02 0.  1.
       -1   -1    0    0    0  501  0.00000000000E+00  0.00000000000E+00 -0.56539851249E+03  0.56539851251E+03  0.50400001928E-02 0. -1.
    10030    2    1    2    0    0  0.00000000000E+00  0.00000000000E+00  0.76072485628E+02  0.12068695106E+04  0.12044695898E+04 0.  0.
        1    1    3    3  502    0  0.13080977995E+03 -0.10365550771E+03 -0.54176262316E+03  0.56688835117E+03  0.50400001928E-02 0. -1.
       -1    1    3    3    0  502 -0.13080977995E+03  0.10365550771E+03  0.61783510879E+03  0.63998115948E+03  0.50400001928E-02 0.  1.
</event>
<event>
 5   0  0.1469851E-03  0.1258224E+04  0.7818609E-02  0.9063366E-01
        1   -1    0    0  501    0  0.00000000000E+00  0.00000000000E+00  0.52807579703E+03  0.52807579705E+03  0.50400001928E-02 0. -1.
       -1   -1    0    0    0  501  0.00000000000E+00  0.00000000000E+00 -0.74947898543E+03  0.74947898545E+03  0.50400001928E-02 0.  1.
    10030    2    1    2    0    0  0.00000000000E+00  0.00000000000E+00 -0.22140318841E+03  0.12775547825E+04  0.12582236886E+04 0.  0.
        5    1    3    3  502    0  0.11597793371E+03  0.62327157399E+02 -0.73531463762E+03  0.74702427133E+03  0.46999998093E+01 0.  1.
       -5    1    3    3    0  502 -0.11597793371E+03 -0.62327157399E+02  0.51391144921E+03  0.53053051118E+03  0.46999998093E+01 0. -1.
</event>
<event>
 5   0  0.1403154E-03  0.1192593E+04  0.7818609E-02  0.9119364E-01
       -1   -1    0    0    0  501  0.00000000000E+00  0.00000000000E+00  0.30753944188E+03  0.30753944192E+03  0.50400001928E-02 0.  1.
        1   -1    0    0  501    0  0.00000000000E+00  0.00000000000E+00 -0.11561761309E+04  0.11561761309E+04  0.50400001928E-02 0. -1.
    10030    2    1    2    0    0  0.00000000000E+00  0.00000000000E+00 -0.84863668904E+03  0.14637155728E+04  0.11925934128E+04 0.  0.
        3    1    3    3  502    0 -0.60602458532E+02 -0.59141596279E+03 -0.36775079184E+03  0.69906090873E+03  0.10100000352E+00 0. -1.
       -3    1    3    3    0  502  0.60602458532E+02  0.59141596279E+03 -0.48088589720E+03  0.76465466411E+03  0.10100000352E+00 0.  1.
</event>
<event>
 5   0  0.2579442E-03  0.1121416E+04  0.7818609E-02  0.9184567E-01
        2   -1    0    0  501    0  0.00000000000E+00  0.00000000000E+00  0.80785468768E+03  0.80785468769E+03  0.25500000920E-02 0.  1.
       -2   -1    0    0    0  501  0.00000000000E+00  0.00000000000E+00 -0.38917051381E+03  0.38917051382E+03  0.25500000920E-02 0. -1.
    10030    2    1    2    0    0  0.00000000000E+00  0.00000000000E+00  0.41868417387E+03  0.11970252015E+04  0.11214155767E+04 0.  0.
        4    1    3    3  502    0 -0.20368184658E+02 -0.46324580193E+03  0.54584309520E+03  0.71621074652E+03  0.12699999809E+01 0.  1.
       -4    1    3    3    0  502  0.20368184658E+02  0.46324580193E+03 -0.12715892133E+03  0.48081445499E+03  0.12699999809E+01 0. -1.
</event>
<event>
 5   0  0.1423024E-03  0.1244453E+04  0.7818609E-02  0.9074813E-01
       -1   -1    0    0    0  501  0.00000000000E+00  0.00000000000E+00  0.41437956499E+03  0.41437956502E+03  0.50400001928E-02 0. -1.
        1   -1    0    0  501    0  0.00000000000E+00  0.00000000000E+00 -0.93432635382E+03  0.93432635383E+03  0.50400001928E-02 0.  1.
    10030    2    1    2    0    0  0.00000000000E+00  0.00000000000E+00 -0.51994678882E+03  0.13487059189E+04  0.12444528888E+04 0.  0.
        2    1    3    3  502    0  0.33379796888E+03  0.12079553471E+03 -0.81381604664E+03  0.88786778465E+03  0.25500000920E-02 0.  1.
       -2    1    3    3    0  502 -0.33379796888E+03 -0.12079553471E+03  0.29386925782E+03  0.46083813420E+03  0.25500000920E-02 0. -1.
</event>
<event>
 5   0  0.9678750E-04  0.1208080E+04  0.7818609E-02  0.9105814E-01
        3   -1    0    0  501    0  0.00000000000E+00  0.00000000000E+00  0.40420453394E+03  0.40420454656E+03  0.10100000352E+00 0. -1.
       -3   -1    0    0    0  501  0.00000000000E+00  0.00000000000E+00 -0.90267190526E+03  0.90267191091E+03  0.10100000352E+00 0.  1.
    10030    2    1    2    0    0  0.00000000000E+00  0.00000000000E+00 -0.49846737132E+03  0.13068764575E+04  0.12080796144E+04 0.  0.
        2    1    3    3  502    0 -0.45163234553E+03 -0.77248162254E+02 -0.67502792301E+03  0.81584419527E+03  0.25500000920E-02 0.  1.
       -2    1    3    3    0  502  0.45163234553E+03  0.77248162254E+02  0.17656055169E+03  0.49103226220E+03  0.25500000920E-02 0. -1.
</event>
<event>
 5   0  0.2580244E-03  0.1203524E+04  0.7818609E-02  0.9109777E-01
       -2   -1    0    0    0  501  0.00000000000E+00  0.00000000000E+00  0.34845539380E+03  0.34845539381E+03  0.25500000920E-02 0. -1.
        2   -1    0    0  501    0  0.00000000000E+00  0.00000000000E+00 -0.10392080366E+04  0.10392080366E+04  0.25500000920E-02 0.  1.
    10030    2    1    2    0    0  0.00000000000E+00  0.00000000000E+00 -0.69075264278E+03  0.13876634304E+04  0.12035242343E+04 0.  0.
        1    1    3    3  502    0 -0.59845660183E+03  0.60063108805E+01 -0.27308344667E+03  0.65784568776E+03  0.50400001928E-02 0. -1.
       -1    1    3    3    0  502  0.59845660183E+03 -0.60063108805E+01 -0.41766919611E+03  0.72981774262E+03  0.50400001928E-02 0.  1.
</event>
<event>
 5   0  0.2579442E-03  0.1198392E+04  0.7818609E-02  0.9114265E-01
       -2   -1    0    0    0  501  0.00000000000E+00  0.00000000000E+00  0.27513381628E+03  0.27513381629E+03  0.25500000920E-02 0. -1.
        2   -1    0    0  501    0  0.00000000000E+00  0.00000000000E+00 -0.13049496415E+04  0.13049496415E+04  0.25500000920E-02 0.  1.
    10030    2    1    2    0    0  0.00000000000E+00  0.00000000000E+00 -0.10298158252E+04  0.15800834578E+04  0.11983918807E+04 0.  0.
        4    1    3    3  502    0  0.45180794964E+03  0.14977525470E+02  0.36501907324E+01  0.45207265613E+03  0.12699999809E+01 0. -1.
       -4    1    3    3    0  502 -0.45180794964E+03 -0.14977525470E+02 -0.10334660160E+04  0.11280108017E+04  0.12699999809E+01 0.  1.
</event>
<event>
 5   0  0.2579442E-03  0.1191279E+04  0.7818609E-02  0.9120524E-01
        2   -1    0    0  501    0  0.00000000000E+00  0.00000000000E+00  0.11981952485E+04  0.11981952485E+04  0.25500000920E-02 0.  1.
       -2   -1    0    0    0  501  0.00000000000E+00  0.00000000000E+00 -0.29610066477E+03  0.29610066478E+03  0.25500000920E-02 0. -1.
    10030    2    1    2    0    0  0.00000000000E+00  0.00000000000E+00  0.90209458378E+03  0.14942959133E+04  0.11912789927E+04 0.  0.
        4    1    3    3  502    0 -0.19674682552E+03 -0.41170593180E+03  0.93127936777E+03  0.10370602496E+04  0.12699999809E+01 0.  1.
       -4    1    3    3    0  502  0.19674682552E+03  0.41170593180E+03 -0.29184783997E+02  0.45723566369E+03  0.12699999809E+01 0. -1.
</event>
<event>
 5   0  0.2484507E-03  0.1175101E+04  0.7818609E-02  0.9134934E-01
        2   -1    0    0  501    0  0.00000000000E+00  0.00000000000E+00  0.10839906256E+04  0.10839906256E+04  0.25500000920E-02 0. -1.
       -2   -1    0    0    0  501  0.00000000000E+00  0.00000000000E+00 -0.31846718571E+03  0.31846718572E+03  0.25500000920E-02 0.  1.
    10030    2    1    2    0    0  0.00000000000E+00  0.00000000000E+00  0.76552343987E+03  0.14024578113E+04  0.11751007512E+04 0.  0.
        2    1    3    3  502    0  0.58115564903E+01 -0.50500823262E+03  0.24423110439E+02  0.50563185969E+03  0.25500000920E-02 0.  1.
       -2    1    3    3    0  502 -0.58115564903E+01  0.50500823262E+03  0.74110032943E+03  0.89682595162E+03  0.25500000920E-02 0. -1.
</event>
<event>
 5   0  0.2517023E-03  0.1205396E+04  0.7818609E-02  0.9108147E-01
        2   -1    0    0  501    0  0.00000000000E+00  0.00000000000E+00  0.11803369271E+04  0.11803369271E+04  0.25500000920E-02 0.  1.
       -2   -1    0    0    0  501  0.00000000000E+00  0.00000000000E+00 -0.30774666869E+03  0.30774666871E+03  0.25500000920E-02 0. -1.
    10030    2    1    2    0    0  0.00000000000E+00  0.00000000000E+00  0.87259025845E+03  0.14880835959E+04  0.12053957977E+04 0.  0.
        3    1    3    3  502    0  0.16436687704E+03  0.29775141683E+03 -0.17795993217E+03  0.38385169552E+03  0.10100000352E+00 0. -1.
       -3    1    3    3    0  502 -0.16436687704E+03 -0.29775141683E+03  0.10505501906E+04  0.11042319003E+04  0.10100000352E+00 0.  1.
</event>
<event>
 5   0  0.1403154E-03  0.1199390E+04  0.7818609E-02  0.9113391E-01
        1   -1    0    0  501    0  0.00000000000E+00  0.00000000000E+00  0.11211344373E+04  0.11211344373E+04  0.50400001928E-02 0.  1.
       -1   -1    0    0    0  501  0.00000000000E+00  0.00000000000E+00 -0.32077701285E+03  0.32077701289E+03  0.50400001928E-02 0. -1.
    10030    2    1    2    0    0  0.00000000000E+00  0.00000000000E+00  0.80035742446E+03  0.14419114502E+04  0.11993901048E+04 0.  0.
        3    1    3    3  502    0  0.38242097198E+03 -0.46089479012E+03  0.43751170704E+03  0.74167803754E+03  0.10100000352E+00 0. -1.
       -3    1    3    3    0  502 -0.38242097198E+03  0.46089479012E+03  0.36284571742E+03  0.70023341268E+03  0.10100000352E+00 0.  1.
</event>
<event>
 5   0  0.1455076E-03  0.1169191E+04  0.7818609E-02  0.9140259E-01
        1   -1    0    0  501    0  0.00000000000E+00  0.00000000000E+00  0.11687917538E+04  0.11687917538E+04  0.50400001928E-02 0. -1.
       -1   -1    0    0    0  501  0.00000000000E+00  0.00000000000E+00 -0.29239757116E+03  0.29239757120E+03  0.50400001928E-02 0.  1.
    10030    2    1    2    0    0  0.00000000000E+00  0.00000000000E+00  0.87639418266E+03  0.14611893250E+04  0.11691909511E+04 0.  0.
        4    1    3    3  502    0 -0.77474267107E+02  0.38114052524E+03 -0.10724119178E+03  0.40345092410E+03  0.12699999809E+01 0. -1.
       -4    1    3    3    0  502  0.77474267107E+02 -0.38114052524E+03  0.98363537444E+03  0.10577384009E+04  0.12699999809E+01 0.  1.
</event>
<event>
 5   0  0.2517023E-03  0.1169924E+04  0.7818609E-02  0.9139597E-01
       -2   -1    0    0    0  501  0.00000000000E+00  0.00000000000E+00  0.27728194241E+03  0.27728194242E+03  0.25500000920E-02 0. -1.
        2   -1    0    0  501    0  0.00000000000E+00  0.00000000000E+00 -0.12340520569E+04  0.12340520569E+04  0.25500000920E-02 0.  1.
    10030    2    1    2    0    0  0.00000000000E+00  0.00000000000E+00 -0.95677011444E+03  0.15113339993E+04  0.11699236751E+04 0.  0.
        3    1    3    3  502    0  0.19809354305E+03 -0.95583699683E+02  0.22182939400E+03  0.31238691664E+03  0.10100000352E+00 0. -1.
       -3    1    3    3    0  502 -0.19809354305E+03  0.95583699683E+02 -0.11785995084E+04  0.11989470826E+04  0.10100000352E+00 0.  1.
</event>
<event>
 5   0  0.2484507E-03  0.1197513E+04  0.7818609E-02  0.9115036E-01
        2   -1    0    0  501    0  0.00000000000E+00  0.00000000000E+00  0.11936095683E+04  0.11936095683E+04  0.25500000920E-02 0. -1.
       -2   -1    0    0    0  501  0.00000000000E+00  0.00000000000E+00 -0.30035716984E+03  0.30035716985E+03  0.25500000920E-02 0.  1.
    10030    2    1    2    0    0  0.00000000000E+00  0.00000000000E+00  0.89325239848E+03  0.14939667382E+04  0.11975127421E+04 0.  0.
        2    1    3    3  502    0  0.41101160640E+03 -0.11153151737E+03  0.97169756535E+03  0.10609269430E+04  0.25500000920E-02 0. -1.
       -2    1    3    3    0  502 -0.41101160640E+03  0.11153151737E+03 -0.78445166869E+02  0.43303979514E+03  0.25500000920E-02 0.  1.
</event>
<event>
 5   0  0.1404833E-03  0.1196391E+04  0.7818609E-02  0.9116021E-01
       -1   -1    0    0    0  501  0.00000000000E+00  0.00000000000E+00  0.32835721036E+03  0.32835721040E+03  0.50400001928E-02 0. -1.
        1   -1    0    0  501    0  0.00000000000E+00  0.00000000000E+00 -0.10897822080E+04  0.10897822080E+04  0.50400001928E-02 0.  1.
    10030    2    1    2    0    0  0.00000000000E+00  0.00000000000E+00 -0.76142499763E+03  0.14181394184E+04  0.11963909825E+04 0.  0.
        1    1    3    3  502    0 -0.32109759860E+03  0.38163939866E+02  0.21583395373E+03  0.38877300542E+03  0.50400001928E-02 0. -1.
       -1    1    3    3    0  502  0.32109759860E+03 -0.38163939866E+02 -0.97725895135E+03  0.10293664130E+04  0.50400001928E-02 0.  1.
</event>
<event>
 5   0  0.2580244E-03  0.1220312E+04  0.7818609E-02  0.9095261E-01
        2   -1    0    0  501    0  0.00000000000E+00  0.00000000000E+00  0.20173826193E+04  0.20173826193E+04  0.25500000920E-02 0. -1.
       -2   -1    0    0    0  501  0.00000000000E+00  0.00000000000E+00 -0.18454137645E+03  0.18454137647E+03  0.25500000920E-02 0.  1.
    10030    2    1    2    0    0  0.00000000000E+00  0.00000000000E+00  0.18328412429E+04  0.22019239958E+04  0.12203123623E+04 0.  0.
        1    1    3    3  502    0  0.18954968795E+02  0.59405249677E+03  0.66748682609E+03  0.89375406169E+03  0.50400001928E-02 0.  1.
       -1    1    3    3    0  502 -0.18954968795E+02 -0.59405249677E+03  0.11653544168E+04  0.13081699341E+04  0.50400001928E-02 0. -1.
</event>
<event>
 5   0  0.1423024E-03  0.1202839E+04  0.7818609E-02  0.9110375E-01
       -1   -1    0    0    0  501  0.00000000000E+00  0.00000000000E+00  0.11166819271E+04  0.11166819271E+04  0.50400001928E-02 0.  1.
        1   -1    0    0  501    0  0.00000000000E+00  0.00000000000E+00 -0.32391103655E+03  0.32391103659E+03  0.50400001928E-02 0. -1.
    10030    2    1    2    0    0  0.00000000000E+00  0.00000000000E+00  0.79277089057E+03  0.14405929637E+04  0.12028393085E+04 0.  0.
        2    1    3    3  502    0 -0.23746726783E+03 -0.55427845357E+02  0.10548183889E+04  0.10826378817E+04  0.25500000920E-02 0.  1.
       -2    1    3    3    0  502  0.23746726783E+03  0.55427845357E+02 -0.26204749835E+03  0.35795508200E+03  0.25500000920E-02 0. -1.
</event>
<event>
 5   0  0.2499890E-03  0.1210201E+04  0.7818609E-02  0.9103975E-01
       -2   -1    0    0    0  501  0.00000000000E+00  0.00000000000E+00  0.28429288124E+03  0.28429288125E+03  0.25500000920E-02 0.  1.
        2   -1    0    0  501    0  0.00000000000E+00  0.00000000000E+00 -0.12879194593E+04  0.12879194593E+04  0.25500000920E-02 0. -1.
    10030    2    1    2    0    0  0.00000000000E+00  0.00000000000E+00 -0.10036265780E+04  0.15722123405E+04  0.12102005353E+04 0.  0.
        5    1    3    3  502    0  0.24608652331E+03 -0.52507457250E+03 -0.72631307186E+03  0.92941629639E+03  0.46999998093E+01 0. -1.
       -5    1    3    3    0  502 -0.24608652331E+03  0.52507457250E+03 -0.27731350616E+03  0.64279604412E+03  0.46999998093E+01 0.  1.
</event>
<event>
 5   0  0.1423024E-03  0.1199690E+04  0.7818609E-02  0.9113128E-01
        1   -1    0    0  501    0  0.00000000000E+00  0.00000000000E+00  0.68348706625E+03  0.68348706627E+03  0.50400001928E-02 0.  1.
       -1   -1    0    0    0  501  0.00000000000E+00  0.00000000000E+00 -0.52643859368E+03  0.52643859370E+03  0.50400001928E-02 0. -1.
    10030    2    1    2    0    0  0.00000000000E+00  0.00000000000E+00  0.15704847257E+03  0.12099256600E+04  0.11996899099E+04 0.  0.
        2    1    3    3  502    0 -0.58585711242E+03  0.12847150057E+03  0.69476217683E+02  0.60378839626E+03  0.25500000920E-02 0.  1.
       -2    1    3    3    0  502  0.58585711242E+03 -0.12847150057E+03  0.87572254887E+02  0.60613726371E+03  0.25500000920E-02 0. -1.
</event>
<event>
 5   0  0.1403154E-03  0.1157445E+04  0.7818609E-02  0.9150942E-01
        1   -1    0    0  501    0  0.00000000000E+00  0.00000000000E+00  0.42168970110E+03  0.42168970113E+03  0.50400001928E-02 0.  1.
       -1   -1    0    0    0  501  0.00000000000E+00  0.00000000000E+00 -0.79423282575E+03  0.79423282576E+03  0.50400001928E-02 0. -1.
    10030    2    1    2    0    0  0.00000000000E+00  0.00000000000E+00 -0.37254312465E+03  0.12159225269E+04  0.11574451225E+04 0.  0.
        3    1    3    3  502    0  0.22069331753E+03 -0.30589919276E+03  0.27481095783E+03  0.46669147119E+03  0.10100000352E+00 0.  1.
       -3    1    3    3    0  502 -0.22069331753E+03  0.30589919276E+03 -0.64735408248E+03  0.74923105571E+03  0.10100000352E+00 0. -1.
</event>
<event>
 5   0  0.1469851E-03  0.1201229E+04  0.7818609E-02  0.9111782E-01
       -1   -1    0    0    0  501  0.00000000000E+00  0.00000000000E+00  0.80786368025E+03  0.80786368027E+03  0.50400001928E-02 0. -1.
        1   -1    0    0  501    0  0.00000000000E+00  0.00000000000E+00 -0.44653277182E+03  0.44653277185E+03  0.50400001928E-02 0.  1.
    10030    2    1    2    0    0  0.00000000000E+00  0.00000000000E+00  0.36133090843E+03  0.12543964521E+04  0.12012287183E+04 0.  0.
        5    1    3    3  502    0  0.22739515845E+03  0.55088708608E+03  0.25832351604E+03  0.64956775523E+03  0.46999998093E+01 0.  1.
       -5    1    3    3    0  502 -0.22739515845E+03 -0.55088708608E+03  0.10300739239E+03  0.60482869689E+03  0.46999998093E+01 0. -1.
</event>
<event>
 5   0  0.2580244E-03  0.1201500E+04  0.7818609E-02  0.9111545E-01
       -2   -1    0    0    0  501  0.00000000000E+00  0.00000000000E+00  0.12087633990E+04  0.12087633990E+04  0.25500000920E-02 0.  1.
        2   -1    0    0  501    0  0.00000000000E+00  0.00000000000E+00 -0.29857009844E+03  0.29857009845E+03  0.25500000920E-02 0. -1.
    10030    2    1    2    0    0  0.00000000000E+00  0.00000000000E+00  0.91019330058E+03  0.15073334975E+04  0.12015000742E+04 0.  0.
        1    1    3    3  502    0 -0.53718171525E+03 -0.10353207137E+03  0.76651031342E+03  0.94171181664E+03  0.50400001928E-02 0. -1.
       -1    1    3    3    0  502  0.53718171525E+03  0.10353207137E+03  0.14368298716E+03  0.56562168084E+03  0.50400001928E-02 0.  1.
</event>
<event>
 5   0  0.1403154E-03  0.1199666E+04  0.7818609E-02  0.9113149E-01
       -1   -1    0    0    0  501  0.00000000000E+00  0.00000000000E+00  0.50964333590E+03  0.50964333593E+03  0.50400001928E-02 0. -1.
        1   -1    0    0  501    0  0.00000000000E+00  0.00000000000E+00 -0.70598322423E+03  0.70598322424E+03  0.50400001928E-02 0.  1.
    10030    2    1    2    0    0  0.00000000000E+00  0.00000000000E+00 -0.19633988832E+03  0.12156265602E+04  0.11996660294E+04 0.  0.
        3    1    3    3  502    0 -0.46341159193E+02 -0.40333331243E+03  0.34926364475E+03  0.53554679319E+03  0.10100000352E+00 0. -1.
       -3    1    3    3    0  502  0.46341159193E+02  0.40333331243E+03 -0.54560353307E+03  0.68007976698E+03  0.10100000352E+00 0.  1.
</event>
<event>
 5   0  0.2484507E-03  0.1200417E+04  0.7818609E-02  0.9112492E-01
        2   -1    0    0  501    0  0.00000000000E+00  0.00000000000E+00  0.15138225614E+04  0.15138225614E+04  0.25500000920E-02 0. -1.
       -2   -1    0    0    0  501  0.00000000000E+00  0.00000000000E+00 -0.23797392118E+03  0.23797392119E+03  0.25500000920E-02 0.  1.
    10030    2    1    2    0    0  0.00000000000E+00  0.00000000000E+00  0.12758486403E+04  0.17517964826E+04  0.12004170791E+04 0.  0.
        2    1    3    3  502    0 -0.37467197123E+03 -0.21129091964E+03  0.27049205583E+02  0.43099257334E+03  0.25500000920E-02 0.  1.
       -2    1    3    3    0  502  0.37467197123E+03  0.21129091964E+03  0.12487994347E+04  0.13208039093E+04  0.25500000920E-02 0. -1.
</event>
<event>
 5   0  0.1455076E-03  0.1202316E+04  0.7818609E-02  0.9110831E-01
       -1   -1    0    0    0  501  0.00000000000E+00  0.00000000000E+00  0.66907715592E+03  0.66907715594E+03  0.50400001928E-02 0.  1.
        1   -1    0    0  501    0  0.00000000000E+00  0.00000000000E+00 -0.54013370252E+03  0.54013370254E+03  0.50400001928E-02 0. -1.
    10030    2    1    2    0    0  0.00000000000E+00  0.00000000000E+00  0.12894345340E+03  0.12092108585E+04  0.12023163003E+04 0.  0.
        4    1    3    3  502    0  0.39840009004E+03  0.36051690779E+03  0.33563688655E+03  0.63352095866E+03  0.12699999809E+01 0.  1.
       -4    1    3    3    0  502 -0.39840009004E+03 -0.36051690779E+03 -0.20669343315E+03  0.57568989982E+03  0.12699999809E+01 0. -1.
</event>
<event>
 5   0  0.1469851E-03  0.1192464E+04  0.7818609E-02  0.9119478E-01
        1   -1    0    0  501    0  0.00000000000E+00  0.00000000000E+00  0.16246498583E+04  0.16246498583E+04  0.50400001928E-02 0. -1.
       -1   -1    0    0    0  501  0.00000000000E+00  0.00000000000E+00 -0.21881196482E+03  0.21881196488E+03  0.50400001928E-02 0.  1.
    10030    2    1    2    0    0  0.00000000000E+00  0.00000000000E+00  0.14058378935E+04  0.18434618232E+04  0.11924643855E+04 0.  0.
        5    1    3    3  502    0  0.30050731144E+03 -0.49981669863E+03  0.89444765711E+03  0.10677921510E+04  0.46999998093E+01 0. -1.
       -5    1    3    3    0  502 -0.30050731144E+03  0.49981669863E+03  0.51139023634E+03  0.77566967215E+03  0.46999998093E+01 0.  1.
</event>
<event>
 5   0  0.2499890E-03  0.1203222E+04  0.7818609E-02  0.9110041E-01
       -2   -1    0    0    0  501  0.00000000000E+00  0.00000000000E+00  0.41062845453E+03  0.41062845454E+03  0.25500000920E-02 0. -1.
        2   -1    0    0  501    0  0.00000000000E+00  0.00000000000E+00 -0.88141888006E+03  0.88141888006E+03  0.25500000920E-02 0.  1.
    10030    2    1    2    0    0  0.00000000000E+00  0.00000000000E+00 -0.47079042553E+03  0.12920473346E+04  0.12032217959E+04 0.  0.
        5    1    3    3  502    0 -0.50088397513E+03  0.15324078752E+03 -0.55312000460E+03  0.76179480505E+03  0.46999998093E+01 0.  1.
       -5    1    3    3    0  502  0.50088397513E+03 -0.15324078752E+03  0.82329579078E+02  0.53025252955E+03  0.46999998093E+01 0. -1.
</event>
<event>
 5   0  0.1469851E-03  0.1273193E+04  0.7818609E-02  0.9051098E-01
        1   -1    0    0  501    0  0.00000000000E+00  0.00000000000E+00  0.59009475016E+03  0.59009475018E+03  0.50400001928E-02 0.  1.
       -1   -1    0    0    0  501  0.00000000000E+00  0.00000000000E+00 -0.68676264822E+03  0.68676264823E+03  0.50400001928E-02 0. -1.
    10030    2    1    2    0    0  0.00000000000E+00  0.00000000000E+00 -0.96667898059E+02  0.12768573984E+04  0.12731928893E+04 0.  0.
        5    1    3    3  502    0 -0.94479184489E+02  0.58632004301E+02 -0.67693054748E+03  0.68601828280E+03  0.46999998093E+01 0. -1.
       -5    1    3    3    0  502  0.94479184489E+02 -0.58632004301E+02  0.58026264942E+03  0.59083911561E+03  0.46999998093E+01 0.  1.
</event>
<event>
 5   0  0.1423024E-03  0.1222330E+04  0.7818609E-02  0.9093533E-01
        1   -1    0    0  501    0  0.00000000000E+00  0.00000000000E+00  0.14951223724E+04  0.14951223724E+04  0.50400001928E-02 0. -1.
       -1   -1    0    0    0  501  0.00000000000E+00  0.00000000000E+00 -0.24982736788E+03  0.24982736793E+03  0.50400001928E-02 0.  1.
    10030    2    1    2    0    0  0.00000000000E+00  0.00000000000E+00  0.12452950045E+04  0.17449497403E+04  0.12223297215E+04 0.  0.
        2    1    3    3  502    0  0.13486567509E+03  0.11149621029E+03  0.14585964775E+04  0.14690554242E+04  0.25500000920E-02 0. -1.
       -2    1    3    3    0  502 -0.13486567509E+03 -0.11149621029E+03 -0.21330147304E+03  0.27589431606E+03  0.25500000920E-02 0.  1.
</event>
<event>
 5   0  0.2580244E-03  0.1201075E+04  0.7818609E-02  0.9111916E-01
       -2   -1    0    0    0  501  0.00000000000E+00  0.00000000000E+00  0.32272046758E+03  0.32272046759E+03  0.25500000920E-02 0.  1.
        2   -1    0    0  501    0  0.00000000000E+00  0.00000000000E+00 -0.11175160778E+04  0.11175160778E+04  0.25500000920E-02 0. -1.
    10030    2    1    2    0    0  0.00000000000E+00  0.00000000000E+00 -0.79479561019E+03  0.14402365454E+04  0.12010750371E+04 0.  0.
        1    1    3    3  502    0  0.37712948156E+03 -0.33535319163E+03 -0.78772455210E+03  0.93552037872E+03  0.50400001928E-02 0. -1.
       -1    1    3    3    0  502 -0.37712948156E+03  0.33535319163E+03 -0.70710580930E+01  0.50471616665E+03  0.50400001928E-02 0.  1.
</event>
<event>
 5   0  0.1455076E-03  0.1150298E+04  0.7818609E-02  0.9157508E-01
        1   -1    0    0  501    0  0.00000000000E+00  0.00000000000E+00  0.65756993290E+03  0.65756993292E+03  0.50400001928E-02 0. -1.
       -1   -1    0    0    0  501  0.00000000000E+00  0.00000000000E+00 -0.50305916934E+03  0.50305916937E+03  0.50400001928E-02 0.  1.
    10030    2    1    2    0    0  0.00000000000E+00  0.00000000000E+00  0.15451076356E+03  0.11606291023E+04  0.11502983687E+04 0.  0.
        4    1    3    3  502    0 -0.14039461842E+03  0.18386405537E+03 -0.45404596690E+03  0.50958413701E+03  0.12699999809E+01 0.  1.
       -4    1    3    3    0  502  0.14039461842E+03 -0.18386405537E+03  0.60855673046E+03  0.65104496528E+03  0.12699999809E+01 0. -1.
</event>
<event>
 5   0  0.2580244E-03  0.1209273E+04  0.7818609E-02  0.9104778E-01
        2   -1    0    0  501    0  0.00000000000E+00  0.00000000000E+00  0.13090731408E+04  0.13090731408E+04  0.25500000920E-02 0. -1.
       -2   -1    0    0    0  501  0.00000000000E+00  0.00000000000E+00 -0.27927034129E+03  0.27927034130E+03  0.25500000920E-02 0.  1.
    10030    2    1    2    0    0  0.00000000000E+00  0.00000000000E+00  0.10298027995E+04  0.15883434821E+04  0.12092730094E+04 0.  0.
        1    1    3    3  502    0  0.36556677231E+03 -0.18134827875E+03 -0.71116683605E+02  0.41422680495E+03  0.50400001928E-02 0.  1.
       -1    1    3    3    0  502 -0.36556677231E+03  0.18134827875E+03  0.11009194831E+04  0.11741166772E+04  0.50400001928E-02 0. -1.
</event>
<event>
 5   0  0.2580244E-03  0.1203423E+04  0.7818609E-02  0.9109865E-01
       -2   -1    0    0    0  501  0.00000000000E+00  0.00000000000E+00  0.64343072554E+03  0.64343072555E+03  0.25500000920E-02 0. -1.
        2   -1    0    0  501    0  0.00000000000E+00  0.00000000000E+00 -0.56269763247E+03  0.56269763247E+03  0.25500000920E-02 0.  1.
    10030    2    1    2    0    0  0.00000000000E+00  0.00000000000E+00  0.80733093075E+02  0.12061283580E+04  0.12034233601E+04 0.  0.
        1    1    3    3  502    0  0.17645140179E+03  0.19836553046E+03 -0.50082215060E+03  0.56683931358E+03  0.50400001928E-02 0.  1.
       -1    1    3    3    0  502 -0.17645140179E+03 -0.19836553046E+03  0.58155524367E+03  0.63928904444E+03  0.50400001928E-02 0. -1.
</event>
<event>
 5   0  0.1455076E-03  0.1196773E+04  0.7818609E-02  0.9115685E-01
        1   -1    0    0  501    0  0.00000000000E+00  0.00000000000E+00  0.14683483262E+04  0.14683483262E+04  0.50400001928E-02 0. -1.
       -1   -1    0    0    0  501  0.00000000000E+00  0.00000000000E+00 -0.24385677705E+03  0.24385677711E+03  0.50400001928E-02 0.  1.
    10030    2    1    2    0    0  0.00000000000E+00  0.00000000000E+00  0.12244915492E+04  0.17122051033E+04  0.11967734798E+04 0.  0.
        4    1    3    3  502    0 -0.10010829838E+03  0.42207880401E+03  0.12019461872E+04  0.12778295809E+04  0.12699999809E+01 0. -1.
       -4    1    3    3    0  502  0.10010829838E+03 -0.42207880401E+03  0.22545361996E+02  0.43437552238E+03  0.12699999809E+01 0.  1.
</event>
<event>
 5   0  0.1403154E-03  0.1214250E+04  0.7818609E-02  0.9100474E-01
       -1   -1    0    0    0  501  0.00000000000E+00  0.00000000000E+00  0.27363975865E+03  0.27363975870E+03  0.50400001928E-02 0. -1.
        1   -1    0    0  501    0  0.00000000000E+00  0.00000000000E+00 -0.13470292108E+04  0.13470292108E+04  0.50400001928E-02 0.  1.
    10030    2    1    2    0    0  0.00000000000E+00  0.00000000000E+00 -0.10733894521E+04  0.16206689695E+04  0.12142499713E+04 0.  0.
        3    1    3    3  502    0 -0.24341189399E+03  0.50624351012E+03 -0.84416720041E+03  0.10139773736E+04  0.10100000352E+00 0.  1.
       -3    1    3    3    0  502  0.24341189399E+03 -0.50624351012E+03 -0.22922225172E+03  0.60669159592E+03  0.10100000352E+00 0. -1.
</event>
<event>
 5   0  0.2579442E-03  0.1018319E+04  0.7818609E-02  0.9288678E-01
       -2   -1    0    0    0  501  0.00000000000E+00  0.00000000000E+00  0.44045618687E+03  0.44045618688E+03  0.25500000920E-02 0. -1.
        2   -1    0    0  501    0  0.00000000000E+00  0.00000000000E+00 -0.58857889939E+03  0.58857889939E+03  0.25500000920E-02 0.  1.
    10030    2    1    2    0    0  0.00000000000E+00  0.00000000000E+00 -0.14812271251E+03  0.10290350863E+04  0.10183186490E+04 0.  0.
        4    1    3    3  502    0 -0.14609441794E+03  0.42652881318E+03 -0.31313339463E+03  0.54893036276E+03  0.12699999809E+01 0.  1.
       -4    1    3    3    0  502  0.14609441794E+03 -0.42652881318E+03  0.16501068211E+03  0.48010472351E+03  0.12699999809E+01 0. -1.
</event>
<event>
 5   0  0.1455076E-03  0.1194385E+04  0.7818609E-02  0.9117785E-01
       -1   -1    0    0    0  501  0.00000000000E+00  0.00000000000E+00  0.24088186378E+03  0.24088186384E+03  0.50400001928E-02 0.  1.
        1   -1    0    0  501    0  0.00000000000E+00  0.00000000000E+00 -0.14805554111E+04  0.14805554111E+04  0.50400001928E-02 0. -1.
    10030    2    1    2    0    0  0.00000000000E+00  0.00000000000E+00 -0.12396735473E+04  0.17214372749E+04  0.11943851086E+04 0.  0.
        4    1    3    3  502    0  0.38750203394E+03  0.37723089683E+03 -0.25471783787E+03  0.59778237316E+03  0.12699999809E+01 0.  1.
       -4    1    3    3    0  502 -0.38750203394E+03 -0.37723089683E+03 -0.98495570943E+03  0.11236549018E+04  0.12699999809E+01 0. -1.
</event>
<event>
 5   0  0.1404833E-03  0.1203107E+04  0.7818609E-02  0.9110141E-01
        1   -1    0    0  501    0  0.00000000000E+00  0.00000000000E+00  0.15962103865E+04  0.15962103865E+04  0.50400001928E-02 0. -1.
       -1   -1    0    0    0  501  0.00000000000E+00  0.00000000000E+00 -0.22670353696E+03  0.22670353702E+03  0.50400001928E-02 0.  1.
    10030    2    1    2    0    0  0.00000000000E+00  0.00000000000E+00  0.13695068495E+04  0.18229139235E+04  0.12031068787E+04 0.  0.
        1    1    3    3  502    0 -0.18566835948E+03 -0.19897431951E+03 -0.12809510827E+03  0.30078543237E+03  0.50400001928E-02 0.  1.
       -1    1    3    3    0  502  0.18566835948E+03  0.19897431951E+03  0.14976019578E+04  0.15221284911E+04  0.50400001928E-02 0. -1.
</event>
<event>
 5   0  0.1469851E-03  0.1069291E+04  0.7818609E-02  0.9235650E-01
        1   -1    0    0  501    0  0.00000000000E+00  0.00000000000E+00  0.66932338612E+03  0.66932338614E+03  0.50400001928E-02 0. -1.
       -1   -1    0    0    0  501  0.00000000000E+00  0.00000000000E+00 -0.42706720465E+03  0.42706720468E+03  0.50400001928E-02 0.  1.
    10030    2    1    2    0    0  0.00000000000E+00  0.00000000000E+00  0.24225618147E+03  0.10963905908E+04  0.10692914805E+04 0.  0.
        5    1    3    3  502    0  0.12917161291E+03 -0.30941685855E+03 -0.30583820043E+03  0.45385371297E+03  0.46999998093E+01 0.  1.
       -5    1    3    3    0  502 -0.12917161291E+03  0.30941685855E+03  0.54809438189E+03  0.64253687785E+03  0.46999998093E+01 0. -1.
</event>
<event>
 5   0  0.2579442E-03  0.1199159E+04  0.7818609E-02  0.9113593E-01
       -2   -1    0    0    0  501  0.00000000000E+00  0.00000000000E+00  0.31835833931E+03  0.31835833932E+03  0.25500000920E-02 0.  1.
        2   -1    0    0  501    0  0.00000000000E+00  0.00000000000E+00 -0.11292164221E+04  0.11292164221E+04  0.25500000920E-02 0. -1.
    10030    2    1    2    0    0  0.00000000000E+00  0.00000000000E+00 -0.81085808282E+03  0.14475747615E+04  0.11991588133E+04 0.  0.
        4    1    3    3  502    0 -0.45387675133E+03  0.13670525940E+03  0.37782978777E+02  0.47552244924E+03  0.12699999809E+01 0.  1.
       -4    1    3    3    0  502  0.45387675133E+03 -0.13670525940E+03 -0.84864106160E+03  0.97205231221E+03  0.12699999809E+01 0. -1.
</event>
<event>
 5   0  0.2484507E-03  0.1188693E+04  0.7818609E-02  0.9122811E-01
        2   -1    0    0  501    0  0.00000000000E+00  0.00000000000E+00  0.22994157637E+04  0.22994157637E+04  0.25500000920E-02 0. -1.
       -2   -1    0    0    0  501  0.00000000000E+00  0.00000000000E+00 -0.15362501207E+03  0.15362501209E+03  0.25500000920E-02 0.  1.
    10030    2    1    2    0    0  0.00000000000E+00  0.00000000000E+00  0.21457907516E+04  0.24530407758E+04  0.11886930209E+04 0.  0.
        2    1    3    3  502    0 -0.27190641433E+03 -0.14877074874E+02  0.21631044638E+04  0.21801778246E+04  0.25500000920E-02 0. -1.
       -2    1    3    3    0  502  0.27190641433E+03  0.14877074874E+02 -0.17313712161E+02  0.27286295122E+03  0.25500000920E-02 0.  1.
</event>
<event>
 5   0  0.1469851E-03  0.1198902E+04  0.7818609E-02  0.9113818E-01
        1   -1    0    0  501    0  0.00000000000E+00  0.00000000000E+00  0.33541894360E+03  0.33541894363E+03  0.50400001928E-02 0.  1.
       -1   -1    0    0    0  501  0.00000000000E+00  0.00000000000E+00 -0.10713220701E+04  0.10713220701E+04  0.50400001928E-02 0. -1.
    10030    2    1    2    0    0  0.00000000000E+00  0.00000000000E+00 -0.73590312647E+03  0.14067410137E+04  0.11989023597E+04 0.  0.
        5    1    3    3  502    0  0.40118776589E+03  0.19692110046E+03 -0.83669293414E+03  0.94858141419E+03  0.46999998093E+01 0. -1.
       -5    1    3    3    0  502 -0.40118776589E+03 -0.19692110046E+03  0.10078980767E+03  0.45815959953E+03  0.46999998093E+01 0.  1.
</event>
<event>
 5   0  0.1404833E-03  0.1187771E+04  0.7818609E-02  0.9123629E-01
       -1   -1    0    0    0  501  0.00000000000E+00  0.00000000000E+00  0.32763581750E+03  0.32763581754E+03  0.50400001928E-02 0. -1.
        1   -1    0    0  501    0  0.00000000000E+00  0.00000000000E+00 -0.10764997267E+04  0.10764997267E+04  0.50400001928E-02 0.  1.
    10030    2    1    2    0    0  0.00000000000E+00  0.00000000000E+00 -0.74886390919E+03  0.14041355442E+04  0.11877707995E+04 0.  0.
        1    1    3    3  502    0  0.41731598334E+02  0.46702028972E+03 -0.80531341389E+03  0.93186864521E+03  0.50400001928E-02 0.  1.
       -1    1    3    3    0  502 -0.41731598334E+02 -0.46702028972E+03  0.56449504703E+02  0.47226689903E+03  0.50400001928E-02 0. -1.
</event>
<event>
 5   0  0.2517023E-03  0.1215503E+04  0.7818609E-02  0.9099394E-01
        2   -1    0    0  501    0  0.00000000000E+00  0.00000000000E+00  0.40394625172E+03  0.40394625173E+03  0.25500000920E-02 0.  1.
       -2   -1    0    0    0  501  0.00000000000E+00  0.00000000000E+00 -0.91438441813E+03  0.91438441814E+03  0.25500000920E-02 0. -1.
    10030    2    1    2    0    0  0.00000000000E+00  0.00000000000E+00 -0.51043816642E+03  0.13183306699E+04  0.12155034485E+04 0.  0.
        3    1    3    3  502    0  0.45458113615E+03  0.36112567804E+03 -0.45016418707E+03  0.73464520022E+03  0.10100000352E+00 0.  1.
       -3    1    3    3    0  502 -0.45458113615E+03 -0.36112567804E+03 -0.60273979350E+02  0.58368546965E+03  0.10100000352E+00 0. -1.
</event>
<event>
 5   0  0.2579442E-03  0.1183839E+04  0.7818609E-02  0.9127121E-01
       -2   -1    0    0    0  501  0.00000000000E+00  0.00000000000E+00  0.39272813634E+03  0.39272813635E+03  0.25500000920E-02 0.  1.
        2   -1    0    0  501    0  0.00000000000E+00  0.00000000000E+00 -0.89214069196E+03  0.89214069196E+03  0.25500000920E-02 0. -1.
    10030    2    1    2    0    0  0.00000000000E+00  0.00000000000E+00 -0.49941255562E+03  0.12848688283E+04  0.11838390960E+04 0.  0.
        4    1    3    3  502    0 -0.62563812629E+02  0.63709210569E+01 -0.88850314657E+03  0.89072682325E+03  0.12699999809E+01 0. -1.
       -4    1    3    3    0  502  0.62563812629E+02 -0.63709210569E+01  0.38909059095E+03  0.39414200506E+03  0.12699999809E+01 0.  1.
</event>
<event>
 5   0  0.2579442E-03  0.1184012E+04  0.7818609E-02  0.9126967E-01
       -2   -1    0    0    0  501  0.00000000000E+00  0.00000000000E+00  0.13865337237E+04  0.13865337237E+04  0.25500000920E-02 0.  1.
        2   -1    0    0  501    0  0.00000000000E+00  0.00000000000E+00 -0.25276778037E+03  0.25276778038E+03  0.25500000920E-02 0. -1.
    10030    2    1    2    0    0  0.00000000000E+00  0.00000000000E+00  0.11337659434E+04  0.16393015041E+04  0.11840119117E+04 0.  0.
        4    1    3    3  502    0  0.29326650548E+03 -0.37590918320E+03  0.10527656339E+04  0.11556946180E+04  0.12699999809E+01 0.  1.
       -4    1    3    3    0  502 -0.29326650548E+03  0.37590918320E+03  0.81000309440E+02  0.48360688609E+03  0.12699999809E+01 0. -1.
</event>
<event>
 5   0  0.1403154E-03  0.1184742E+04  0.7818609E-02  0.9126318E-01
       -1   -1    0    0    0  501  0.00000000000E+00  0.00000000000E+00  0.27557937028E+03  0.27557937033E+03  0.50400001928E-02 0.  1.
        1   -1    0    0  501    0  0.00000000000E+00  0.00000000000E+00 -0.12733296857E+04  0.12733296857E+04  0.50400001928E-02 0. -1.
    10030    2    1    2    0    0  0.00000000000E+00  0.00000000000E+00 -0.99775031543E+03  0.15489090560E+04  0.11847419854E+04 0.  0.
        3    1    3    3  502    0 -0.45449608945E+03  0.27427755673E+03 -0.15518436149E+03  0.55306154242E+03  0.10100000352E+00 0.  1.
       -3    1    3    3    0  502  0.45449608945E+03 -0.27427755673E+03 -0.84256595394E+03  0.99584751363E+03  0.10100000352E+00 0. -1.
</event>
<event>
 5   0  0.1403154E-03  0.1184714E+04  0.7818609E-02  0.9126343E-01
        1   -1    0    0  501    0  0.00000000000E+00  0.00000000000E+00  0.33950476504E+03  0.33950476508E+03  0.50400001928E-02 0. -1.
       -1   -1    0    0    0  501  0.00000000000E+00  0.00000000000E+00 -0.10335248925E+04  0.10335248925E+04  0.50400001928E-02 0.  1.
    10030    2    1    2    0    0  0.00000000000E+00  0.00000000000E+00 -0.69402012745E+03  0.13730296576E+04  0.11847136799E+04 0.  0.
        3    1    3    3  502    0 -0.44682403574E+03 -0.37573974989E+03 -0.46322114837E+03  0.74525560787E+03  0.10100000352E+00 0.  1.
       -3    1    3    3    0  502  0.44682403574E+03  0.37573974989E+03 -0.23079897908E+03  0.62777404972E+03  0.10100000352E+00 0. -1.
</event>
<event>
 5   0  0.1404833E-03  0.1207231E+04  0.7818609E-02  0.9106551E-01
        1   -1    0    0  501    0  0.00000000000E+00  0.00000000000E+00  0.12257361133E+04  0.12257361133E+04  0.50400001928E-02 0. -1.
       -1   -1    0    0    0  501  0.00000000000E+00  0.00000000000E+00 -0.29725127685E+03  0.29725127689E+03  0.50400001928E-02 0.  1.
    10030    2    1    2    0    0  0.00000000000E+00  0.00000000000E+00  0.92848483641E+03  0.15229873902E+04  0.12072309221E+04 0.  0.
        1    1    3    3  502    0  0.25133257875E+02  0.42933133453E+02 -0.29466056729E+03  0.29883069545E+03  0.50400001928E-02 0.  1.
       -1    1    3    3    0  502 -0.25133257875E+02 -0.42933133453E+02  0.12231454037E+04  0.12241566947E+04  0.50400001928E-02 0. -1.
</event>
<event>
 5   0  0.1423024E-03  0.1177183E+04  0.7818609E-02  0.9133066E-01
       -1   -1    0    0    0  501  0.00000000000E+00  0.00000000000E+00  0.57628899883E+03  0.57628899885E+03  0.50400001928E-02 0. -1.
        1   -1    0    0  501    0  0.00000000000E+00  0.00000000000E+00 -0.60115707181E+03  0.60115707183E+03  0.50400001928E-02 0.  1.
    10030    2    1    2    0    0  0.00000000000E+00  0.00000000000E+00 -0.24868072980E+02  0.11774460707E+04  0.11771834302E+04 0.  0.
        2    1    3    3  502    0 -0.41335294321E+03 -0.41887823548E+03 -0.23417162645E+02  0.58895500281E+03  0.25500000920E-02 0. -1.
       -2    1    3    3    0  502  0.41335294321E+03  0.41887823548E+03 -0.14509103348E+01  0.58849106787E+03  0.25500000920E-02 0.  1.
</event>
<event>
 5   0  0.2517023E-03  0.1197958E+04  0.7818609E-02  0.9114646E-01
        2   -1    0    0  501    0  0.00000000000E+00  0.00000000000E+00  0.10293928766E+04  0.10293928766E+04  0.25500000920E-02 0. -1.
       -2   -1    0    0    0  501  0.00000000000E+00  0.00000000000E+00 -0.34853147633E+03  0.34853147634E+03  0.25500000920E-02 0.  1.
    10030    2    1    2    0    0  0.00000000000E+00  0.00000000000E+00  0.68086140029E+03  0.13779243530E+04  0.11979579609E+04 0.  0.
        3    1    3    3  502    0 -0.44101932428E+03 -0.21913835195E+03  0.73261640605E+03  0.88274938136E+03  0.10100000352E+00 0. -1.
       -3    1    3    3    0  502  0.44101932428E+03  0.21913835195E+03 -0.51755005758E+02  0.49517497160E+03  0.10100000352E+00 0.  1.
</event>
<event>
 5   0  0.2517023E-03  0.1182059E+04  0.7818609E-02  0.9128707E-01
       -2   -1    0    0    0  501  0.00000000000E+00  0.00000000000E+00  0.42357750400E+03  0.42357750401E+03  0.25500000920E-02 0.  1.
        2   -1    0    0  501    0  0.00000000000E+00  0.00000000000E+00 -0.82468025608E+03  0.82468025609E+03  0.25500000920E-02 0. -1.
    10030    2    1    2    0    0  0.00000000000E+00  0.00000000000E+00 -0.40110275208E+03  0.12482577601E+04  0.11820592278E+04 0.  0.
        3    1    3    3  502    0 -0.43840936942E+03  0.28740469227E+03 -0.48880677714E+03  0.71675400795E+03  0.10100000352E+00 0. -1.
       -3    1    3    3    0  502  0.43840936942E+03 -0.28740469227E+03  0.87704025062E+02  0.53150375215E+03  0.10100000352E+00 0.  1.
</event>
<event>
 5   0  0.1403154E-03  0.1191347E+04  0.7818609E-02  0.9120465E-01
        1   -1    0    0  501    0  0.00000000000E+00  0.00000000000E+00  0.22386447490E+03  0.22386447496E+03  0.50400001928E-02 0.  1.
       -1   -1    0    0    0  501  0.00000000000E+00  0.00000000000E+00 -0.15850064213E+04  0.15850064213E+04  0.50400001928E-02 0. -1.
    10030    2    1    2    0    0  0.00000000000E+00  0.00000000000E+00 -0.13611419464E+04  0.18088708963E+04  0.11913465160E+04 0.  0.
        3    1    3    3  502    0  0.31386717347E+03  0.16752466502E+03 -0.14059656989E+04  0.14502815839E+04  0.10100000352E+00 0. -1.
       -3    1    3    3    0  502 -0.31386717347E+03 -0.16752466502E+03  0.44823752456E+02  0.35858931239E+03  0.10100000352E+00 0.  1.
</event>
<event>
 5   0  0.2484507E-03  0.1192329E+04  0.7818609E-02  0.9119597E-01
        2   -1    0    0  501    0  0.00000000000E+00  0.00000000000E+00  0.82254450546E+03  0.82254450547E+03  0.25500000920E-02 0. -1.
       -2   -1    0    0    0  501  0.00000000000E+00  0.00000000000E+00 -0.43208870790E+03  0.43208870791E+03  0.25500000920E-02 0.  1.
    10030    2    1    2    0    0  0.00000000000E+00  0.00000000000E+00  0.39045579756E+03  0.12546332134E+04  0.11923291367E+04 0.  0.
        2    1    3    3  502    0 -0.15791918383E+03 -0.48703017912E+03 -0.12614112768E+03  0.52730299458E+03  0.25500000920E-02 0.  1.
       -2    1    3    3    0  502  0.15791918383E+03  0.48703017912E+03  0.51659692525E+03  0.72733021880E+03  0.25500000920E-02 0. -1.
</event>
<event>
 5   0  0.2580244E-03  0.1238718E+04  0.7818609E-02  0.9079626E-01
       -2   -1    0    0    0  501  0.00000000000E+00  0.00000000000E+00  0.11248230339E+04  0.11248230339E+04  0.25500000920E-02 0.  1.
        2   -1    0    0  501    0  0.00000000000E+00  0.00000000000E+00 -0.34103636801E+03  0.34103636802E+03  0.25500000920E-02 0. -1.
    10030    2    1    2    0    0  0.00000000000E+00  0.00000000000E+00  0.78378666590E+03  0.14658594019E+04  0.12387179859E+04 0.  0.
        1    1    3    3  502    0  0.23889438754E+03 -0.43642917255E+03  0.82840159243E+03  0.96632817894E+03  0.50400001928E-02 0.  1.
       -1    1    3    3    0  502 -0.23889438754E+03  0.43642917255E+03 -0.44614926532E+02  0.49953122299E+03  0.50400001928E-02 0. -1.
</event>
<event>
 5   0  0.2579442E-03  0.1205758E+04  0.7818609E-02  0.9107831E-01
        2   -1    0    0  501    0  0.00000000000E+00  0.00000000000E+00  0.19617657962E+04  0.19617657962E+04  0.25500000920E-02 0.  1.
       -2   -1    0    0    0  501  0.00000000000E+00  0.00000000000E+00 -0.18527349213E+03  0.18527349215E+03  0.25500000920E-02 0. -1.
    10030    2    1    2    0    0  0.00000000000E+00  0.00000000000E+00  0.17764923041E+04  0.21470392884E+04  0.12057581844E+04 0.  0.
        4    1    3    3  502    0  0.74615252528E+02 -0.35752799342E+03  0.17423442861E+04  0.17802131688E+04  0.12699999809E+01 0.  1.
       -4    1    3    3    0  502 -0.74615252528E+02  0.35752799342E+03  0.34148017971E+02  0.36682611960E+03  0.12699999809E+01 0. -1.
</event>
<event>
 5   0  0.1469851E-03  0.1251704E+04  0.7818609E-02  0.9068766E-01
       -1   -1    0    0    0  501  0.00000000000E+00  0.00000000000E+00  0.51503901935E+03  0.51503901938E+03  0.50400001928E-02 0. -1.
        1   -1    0    0  501    0  0.00000000000E+00  0.00000000000E+00 -0.76050674825E+03  0.76050674827E+03  0.50400001928E-02 0.  1.
    10030    2    1    2    0    0  0.00000000000E+00  0.00000000000E+00 -0.24546772890E+03  0.12755457676E+04  0.12517038785E+04 0.  0.
        5    1    3    3  502    0 -0.33760572937E+02 -0.27118507088E+03 -0.69647432279E+03  0.74818426290E+03  0.46999998093E+01 0.  1.
       -5    1    3    3    0  502  0.33760572937E+02  0.27118507088E+03  0.45100659389E+03  0.52736150474E+03  0.46999998093E+01 0. -1.
</event>
<event>
 5   0  0.2580244E-03  0.1199917E+04  0.7818609E-02  0.9112929E-01
       -2   -1    0    0    0  501  0.00000000000E+00  0.00000000000E+00  0.35039668581E+03  0.35039668582E+03  0.25500000920E-02 0.  1.
        2   -1    0    0  501    0  0.00000000000E+00  0.00000000000E+00 -0.10272654700E+04  0.10272654700E+04  0.25500000920E-02 0. -1.
    10030    2    1    2    0    0  0.00000000000E+00  0.00000000000E+00 -0.67686878417E+03  0.13776621558E+04  0.11999173574E+04 0.  0.
        1    1    3    3  502    0  0.24307484303E+03  0.54833687385E+03 -0.32253746100E+03  0.68102064603E+03  0.50400001928E-02 0.  1.
       -1    1    3    3    0  502 -0.24307484303E+03 -0.54833687385E+03 -0.35433132317E+03  0.69664150978E+03  0.50400001928E-02 0. -1.
</event>
<event>
 5   0  0.2517023E-03  0.1201523E+04  0.7818609E-02  0.9111525E-01
       -2   -1    0    0    0  501  0.00000000000E+00  0.00000000000E+00  0.14873619676E+03  0.14873619679E+03  0.25500000920E-02 0. -1.
        2   -1    0    0  501    0  0.00000000000E+00  0.00000000000E+00 -0.24265389429E+04  0.24265389429E+04  0.25500000920E-02 0.  1.
    10030    2    1    2    0    0  0.00000000000E+00  0.00000000000E+00 -0.22778027461E+04  0.25752751397E+04  0.12015226568E+04 0.  0.
        3    1    3    3  502    0 -0.48003617645E+03 -0.32090132802E+03 -0.14943460358E+04  0.16020244935E+04  0.10100000352E+00 0.  1.
       -3    1    3    3    0  502  0.48003617645E+03  0.32090132802E+03 -0.78345671035E+03  0.97325064614E+03  0.10100000352E+00 0. -1.
</event>
<event>
 5   0  0.1455076E-03  0.1148013E+04  0.7818609E-02  0.9159619E-01
        1   -1    0    0  501    0  0.00000000000E+00  0.00000000000E+00  0.72788385158E+03  0.72788385160E+03  0.50400001928E-02 0. -1.
       -1   -1    0    0    0  501  0.00000000000E+00  0.00000000000E+00 -0.45265924468E+03  0.45265924471E+03  0.50400001928E-02 0.  1.
    10030    2    1    2    0    0  0.00000000000E+00  0.00000000000E+00  0.27522460690E+03  0.11805430963E+04  0.11480128126E+04 0.  0.
        4    1    3    3  502    0 -0.46067961227E+03  0.14543859489E+03  0.45640257190E+03  0.66459236422E+03  0.12699999809E+01 0. -1.
       -4    1    3    3    0  502  0.46067961227E+03 -0.14543859489E+03 -0.18117796500E+03  0.51595073209E+03  0.12699999809E+01 0.  1.
</event>
<event>
 5   0  0.2499890E-03  0.1200988E+04  0.7818609E-02  0.9111992E-01
        2   -1    0    0  501    0  0.00000000000E+00  0.00000000000E+00  0.89984084656E+03  0.89984084656E+03  0.25500000920E-02 0. -1.
       -2   -1    0    0    0  501  0.00000000000E+00  0.00000000000E+00 -0.40072964838E+03  0.40072964839E+03  0.25500000920E-02 0.  1.
    10030    2    1    2    0    0  0.00000000000E+00  0.00000000000E+00  0.49911119817E+03  0.13005704950E+04  0.12009877702E+04 0.  0.
        5    1    3    3  502    0 -0.35590549818E+03  0.32351943873E+03  0.63885989126E+03  0.79968593931E+03  0.46999998093E+01 0.  1.
       -5    1    3    3    0  502  0.35590549818E+03 -0.32351943873E+03 -0.13974869308E+03  0.50088455565E+03  0.46999998093E+01 0. -1.
</event>
<event>
 5   0  0.2484507E-03  0.1200120E+04  0.7818609E-02  0.9112751E-01
        2   -1    0    0  501    0  0.00000000000E+00  0.00000000000E+00  0.46722903420E+03  0.46722903421E+03  0.25500000920E-02 0. -1.
       -2   -1    0    0    0  501  0.00000000000E+00  0.00000000000E+00 -0.77065432450E+03  0.77065432450E+03  0.25500000920E-02 0.  1.
    10030    2    1    2    0    0  0.00000000000E+00  0.00000000000E+00 -0.30342529029E+03  0.12378833587E+04  0.12001201202E+04 0.  0.
        2    1    3    3  502    0 -0.14636927335E+03  0.13334502254E+03 -0.73598815250E+03  0.76215708344E+03  0.25500000920E-02 0.  1.
       -2    1    3    3    0  502  0.14636927335E+03 -0.13334502254E+03  0.43256286221E+03  0.47572627527E+03  0.25500000920E-02 0. -1.
</event>
<event>
 5   0  0.2484507E-03  0.1217097E+04  0.7818609E-02  0.9098022E-01
       -2   -1    0    0    0  501  0.00000000000E+00  0.00000000000E+00  0.34702424053E+03  0.34702424054E+03  0.25500000920E-02 0.  1.
        2   -1    0    0  501    0  0.00000000000E+00  0.00000000000E+00 -0.10671617149E+04  0.10671617149E+04  0.25500000920E-02 0. -1.
    10030    2    1    2    0    0  0.00000000000E+00  0.00000000000E+00 -0.72013747432E+03  0.14141859554E+04  0.12170965182E+04 0.  0.
        2    1    3    3  502    0 -0.27877957468E+03 -0.14678412367E+03 -0.96501960990E+03  0.10151485003E+04  0.25500000920E-02 0. -1.
       -2    1    3    3    0  502  0.27877957468E+03  0.14678412367E+03  0.24488213558E+03  0.39903745507E+03  0.25500000920E-02 0.  1.
</event>
<event>
 5   0  0.1403154E-03  0.1193670E+04  0.7818609E-02  0.9118415E-01
       -1   -1    0    0    0  501  0.00000000000E+00  0.00000000000E+00  0.28411730326E+03  0.28411730331E+03  0.50400001928E-02 0.  1.
        1   -1    0    0  501    0  0.00000000000E+00  0.00000000000E+00 -0.12537494269E+04  0.12537494269E+04  0.50400001928E-02 0. -1.
    10030    2    1    2    0    0  0.00000000000E+00  0.00000000000E+00 -0.96963212361E+03  0.15378667302E+04  0.11936698139E+04 0.  0.
        3    1    3    3  502    0 -0.59593363370E+03 -0.30269268714E+02 -0.46858223693E+03  0.75869786303E+03  0.10100000352E+00 0.  1.
       -3    1    3    3    0  502  0.59593363370E+03  0.30269268714E+02 -0.50104988668E+03  0.77916886716E+03  0.10100000352E+00 0. -1.
</event>
<event>
 5   0  0.1423024E-03  0.1205838E+04  0.7818609E-02  0.9107762E-01
        1   -1    0    0  501    0  0.00000000000E+00  0.00000000000E+00  0.10146227011E+04  0.10146227011E+04  0.50400001928E-02 0.  1.
       -1   -1    0    0    0  501  0.00000000000E+00  0.00000000000E+00 -0.35827226785E+03  0.35827226789E+03  0.50400001928E-02 0. -1.
    10030    2    1    2    0    0  0.00000000000E+00  0.00000000000E+00  0.65635043323E+03  0.13728949690E+04  0.12058377605E+04 0.  0.
        2    1    3    3  502    0  0.26797413448E+03  0.51216860142E+03  0.52334230139E+03  0.77975251039E+03  0.25500000920E-02 0.  1.
       -2    1    3    3    0  502 -0.26797413448E+03 -0.51216860142E+03  0.13300813184E+03  0.59314245858E+03  0.25500000920E-02 0. -1.
</event>
<event>
 5   0  0.2580244E-03  0.1195424E+04  0.7818609E-02  0.9116872E-01
       -2   -1    0    0    0  501  0.00000000000E+00  0.00000000000E+00  0.43178987022E+03  0.43178987023E+03  0.25500000920E-02 0. -1.
        2   -1    0    0  501    0  0.00000000000E+00  0.00000000000E+00 -0.82739186505E+03  0.82739186505E+03  0.25500000920E-02 0.  1.
    10030    2    1    2    0    0  0.00000000000E+00  0.00000000000E+00 -0.39560199482E+03  0.12591817353E+04  0.11954236505E+04 0.  0.
        1    1    3    3  502    0  0.14502788177E+03  0.55504638609E+03 -0.37452868914E+03  0.68511408993E+03  0.50400001928E-02 0.  1.
       -1    1    3    3    0  502 -0.14502788177E+03 -0.55504638609E+03 -0.21073305681E+02  0.57406764535E+03  0.50400001928E-02 0. -1.
</event>
<event>
 5   0  0.9678750E-04  0.1200389E+04  0.7818609E-02  0.9112516E-01
       -4   -1    0    0    0  501  0.00000000000E+00  0.00000000000E+00  0.11183497530E+04  0.11183504741E+04  0.12699999809E+01 0. -1.
        4   -1    0    0  501    0  0.00000000000E+00  0.00000000000E+00 -0.32210939321E+03  0.32211189686E+03  0.12699999809E+01 0.  1.
    10030    2    1    2    0    0  0.00000000000E+00  0.00000000000E+00  0.79624035978E+03  0.14404623710E+04  0.12003887419E+04 0.  0.
        3    1    3    3  502    0 -0.10566438394E+02  0.58571709353E+03  0.24139718510E+03  0.63359985357E+03  0.10100000352E+00 0.  1.
       -3    1    3    3    0  502  0.10566438394E+02 -0.58571709353E+03  0.55484317469E+03  0.80686251739E+03  0.10100000352E+00 0. -1.
</event>
<event>
 5   0  0.1469851E-03  0.1206772E+04  0.7818609E-02  0.9106949E-01
       -1   -1    0    0    0  501  0.00000000000E+00  0.00000000000E+00  0.13404572761E+04  0.13404572761E+04  0.50400001928E-02 0. -1.
        1   -1    0    0  501    0  0.00000000000E+00  0.00000000000E+00 -0.27160501394E+03  0.27160501399E+03  0.50400001928E-02 0.  1.
    10030    2    1    2    0    0  0.00000000000E+00  0.00000000000E+00  0.10688522621E+04  0.16120622901E+04  0.12067724180E+04 0.  0.
        5    1    3    3  502    0 -0.18069543741E+03 -0.27862729120E+03  0.12073649360E+04  0.12522125168E+04  0.46999998093E+01 0. -1.
       -5    1    3    3    0  502  0.18069543741E+03  0.27862729120E+03 -0.13851267388E+03  0.35984977327E+03  0.46999998093E+01 0.  1.
</event>
<event>
 5   0  0.2499890E-03  0.1223559E+04  0.7818609E-02  0.9092481E-01
        2   -1    0    0  501    0  0.00000000000E+00  0.00000000000E+00  0.91329849407E+03  0.91329849408E+03  0.25500000920E-02 0.  1.
       -2   -1    0    0    0  501  0.00000000000E+00  0.00000000000E+00 -0.40980511434E+03  0.40980511435E+03  0.25500000920E-02 0. -1.
    10030    2    1    2    0    0  0.00000000000E+00  0.00000000000E+00  0.50349337973E+03  0.13231036084E+04  0.12235593877E+04 0.  0.
        5    1    3    3  502    0 -0.39355852257E+02 -0.98069441789E+01 -0.40833007819E+03  0.41036642409E+03  0.46999998093E+01 0. -1.
       -5    1    3    3    0  502  0.39355852257E+02  0.98069441789E+01  0.91182345792E+03  0.91273718434E+03  0.46999998093E+01 0.  1.
</event>
<event>
 5   0  0.1423024E-03  0.1217207E+04  0.7818609E-02  0.9097927E-01
        1   -1    0    0  501    0  0.00000000000E+00  0.00000000000E+00  0.10951475148E+04  0.10951475148E+04  0.50400001928E-02 0. -1.
       -1   -1    0    0    0  501  0.00000000000E+00  0.00000000000E+00 -0.33821758826E+03  0.33821758830E+03  0.50400001928E-02 0.  1.
    10030    2    1    2    0    0  0.00000000000E+00  0.00000000000E+00  0.75692992654E+03  0.14333651031E+04  0.12172068868E+04 0.  0.
        2    1    3    3  502    0  0.16585151650E+03 -0.14204823247E+03  0.10474264948E+04  0.10699470491E+04  0.25500000920E-02 0. -1.
       -2    1    3    3    0  502 -0.16585151650E+03  0.14204823247E+03 -0.29049656821E+03  0.36341805407E+03  0.25500000920E-02 0.  1.
</event>
<event>
 5   0  0.1403154E-03  0.1196536E+04  0.7818609E-02  0.9115894E-01
       -1   -1    0    0    0  501  0.00000000000E+00  0.00000000000E+00  0.20877614244E+03  0.20877614250E+03  0.50400001928E-02 0.  1.
        1   -1    0    0  501    0  0.00000000000E+00  0.00000000000E+00 -0.17143936092E+04  0.17143936092E+04  0.50400001928E-02 0. -1.
    10030    2    1    2    0    0  0.00000000000E+00  0.00000000000E+00 -0.15056174668E+04  0.19231697517E+04  0.11965358071E+04 0.  0.
        3    1    3    3  502    0  0.88087258872E+02 -0.57499530132E+03 -0.52810232861E+03  0.78566598590E+03  0.10100000352E+00 0.  1.
       -3    1    3    3    0  502 -0.88087258872E+02  0.57499530132E+03 -0.97751513816E+03  0.11375037658E+04  0.10100000352E+00 0. -1.
</event>
<event>
 5   0  0.1403154E-03  0.1167182E+04  0.7818609E-02  0.9142077E-01
       -1   -1    0    0    0  501  0.00000000000E+00  0.00000000000E+00  0.24253297005E+03  0.24253297010E+03  0.50400001928E-02 0. -1.
        1   -1    0    0  501    0  0.00000000000E+00  0.00000000000E+00 -0.14042570461E+04  0.14042570461E+04  0.50400001928E-02 0.  1.
    10030    2    1    2    0    0  0.00000000000E+00  0.00000000000E+00 -0.11617240760E+04  0.16467900162E+04  0.11671823031E+04 0.  0.
        3    1    3    3  502    0 -0.57170933505E+03  0.10240127036E+03 -0.66118534710E+03  0.88005889427E+03  0.10100000352E+00 0.  1.
       -3    1    3    3    0  502  0.57170933505E+03 -0.10240127036E+03 -0.50053872891E+03  0.76673112190E+03  0.10100000352E+00 0. -1.
</event>
<event>
 5   0  0.2484507E-03  0.1190765E+04  0.7818609E-02  0.9120978E-01
       -2   -1    0    0    0  501  0.00000000000E+00  0.00000000000E+00  0.21375288497E+03  0.21375288498E+03  0.25500000920E-02 0. -1.
        2   -1    0    0  501    0  0.00000000000E+00  0.00000000000E+00 -0.16583661745E+04  0.16583661745E+04  0.25500000920E-02 0.  1.
    10030    2    1    2    0    0  0.00000000000E+00  0.00000000000E+00 -0.14446132895E+04  0.18721190595E+04  0.11907653911E+04 0.  0.
        2    1    3    3  502    0  0.46451361801E+03 -0.12931936676E+03 -0.17319712790E+03  0.51234133647E+03  0.25500000920E-02 0. -1.
       -2    1    3    3    0  502 -0.46451361801E+03  0.12931936676E+03 -0.12714161616E+04  0.13597777230E+04  0.25500000920E-02 0.  1.
</event>
<event>
 5   0  0.2580244E-03  0.1196132E+04  0.7818609E-02  0.9116249E-01
       -2   -1    0    0    0  501  0.00000000000E+00  0.00000000000E+00  0.17471861559E+03  0.17471861561E+03  0.25500000920E-02 0. -1.
        2   -1    0    0  501    0  0.00000000000E+00  0.00000000000E+00 -0.20471953698E+04  0.20471953698E+04  0.25500000920E-02 0.  1.
    10030    2    1    2    0    0  0.00000000000E+00  0.00000000000E+00 -0.18724767542E+04  0.22219139854E+04  0.11961323353E+04 0.  0.
        1    1    3    3  502    0  0.19572871171E+03  0.56466762023E+03 -0.97875594871E+03  0.11467878867E+04  0.50400001928E-02 0.  1.
       -1    1    3    3    0  502 -0.19572871171E+03 -0.56466762023E+03 -0.89372080552E+03  0.10751260987E+04  0.50400001928E-02 0. -1.
</event>
<event>
 5   0  0.1404833E-03  0.1207417E+04  0.7818609E-02  0.9106389E-01
       -1   -1    0    0    0  501  0.00000000000E+00  0.00000000000E+00  0.57241923284E+03  0.57241923286E+03  0.50400001928E-02 0.  1.
        1   -1    0    0  501    0  0.00000000000E+00  0.00000000000E+00 -0.63670798722E+03  0.63670798724E+03  0.50400001928E-02 0. -1.
    10030    2    1    2    0    0  0.00000000000E+00  0.00000000000E+00 -0.64288754384E+02  0.12091272201E+04  0.12074169083E+04 0.  0.
        1    1    3    3  502    0 -0.37337568133E+03 -0.46863012277E+03 -0.10600728782E+03  0.60849086803E+03  0.50400001928E-02 0. -1.
       -1    1    3    3    0  502  0.37337568133E+03  0.46863012277E+03  0.41718533438E+02  0.60063635207E+03  0.50400001928E-02 0.  1.
</event>
<event>
 5   0  0.2580244E-03  0.1205533E+04  0.7818609E-02  0.9108027E-01
       -2   -1    0    0    0  501  0.00000000000E+00  0.00000000000E+00  0.32261441461E+03  0.32261441462E+03  0.25500000920E-02 0. -1.
        2   -1    0    0  501    0  0.00000000000E+00  0.00000000000E+00 -0.11261975984E+04  0.11261975984E+04  0.25500000920E-02 0.  1.
    10030    2    1    2    0    0  0.00000000000E+00  0.00000000000E+00 -0.80358318383E+03  0.14488120131E+04  0.12055332081E+04 0.  0.
        1    1    3    3  502    0  0.17823459965E+03  0.39097613652E+03  0.10624185051E+03  0.44262539767E+03  0.50400001928E-02 0. -1.
       -1    1    3    3    0  502 -0.17823459965E+03 -0.39097613652E+03 -0.90982503434E+03  0.10061866154E+04  0.50400001928E-02 0.  1.
</event>
<event>
 5   0  0.2580244E-03  0.1184274E+04  0.7818609E-02  0.9126734E-01
        2   -1    0    0  501    0  0.00000000000E+00  0.00000000000E+00  0.54844493756E+03  0.54844493757E+03  0.25500000920E-02 0.  1.
       -2   -1    0    0    0  501  0.00000000000E+00  0.00000000000E+00 -0.63930930153E+03  0.63930930153E+03  0.25500000920E-02 0. -1.
    10030    2    1    2    0    0  0.00000000000E+00  0.00000000000E+00 -0.90864363968E+02  0.11877542391E+04  0.11842735325E+04 0.  0.
        1    1    3    3  502    0  0.19885058291E+03  0.55644640141E+03 -0.72177279924E+01  0.59095367635E+03  0.50400001928E-02 0.  1.
       -1    1    3    3    0  502 -0.19885058291E+03 -0.55644640141E+03 -0.83646635976E+02  0.59680056275E+03  0.50400001928E-02 0. -1.
</event>
<event>
 5   0  0.2499890E-03  0.1188040E+04  0.7818609E-02  0.9123390E-01
        2   -1    0    0  501    0  0.00000000000E+00  0.00000000000E+00  0.88131688421E+03  0.88131688421E+03  0.25500000920E-02 0.  1.
       -2   -1    0    0    0  501  0.00000000000E+00  0.00000000000E+00 -0.40037763074E+03  0.40037763075E+03  0.25500000920E-02 0. -1.
    10030    2    1    2    0    0  0.00000000000E+00  0.00000000000E+00  0.48093925347E+03  0.12816945150E+04  0.11880396728E+04 0.  0.
        5    1    3    3  502    0 -0.53811758681E+03 -0.23142684772E+03  0.13417022158E+03  0.60095978355E+03  0.46999998093E+01 0. -1.
       -5    1    3    3    0  502  0.53811758681E+03  0.23142684772E+03  0.34676903188E+03  0.68073473142E+03  0.46999998093E+01 0.  1.
</event>
<event>
 5   0  0.2517023E-03  0.1213891E+04  0.7818609E-02  0.9100784E-01
       -2   -1    0    0    0  501  0.00000000000E+00  0.00000000000E+00  0.16871622383E+03  0.16871622385E+03  0.25500000920E-02 0. -1.
        2   -1    0    0  501    0  0.00000000000E+00  0.00000000000E+00 -0.21834455285E+04  0.21834455285E+04  0.25500000920E-02 0.  1.
    10030    2    1    2    0    0  0.00000000000E+00  0.00000000000E+00 -0.20147293047E+04  0.23521617524E+04  0.12138907439E+04 0.  0.
        3    1    3    3  502    0  0.18489335877E+03 -0.52440414710E+03 -0.53591107059E+03  0.77226028604E+03  0.10100000352E+00 0. -1.
       -3    1    3    3    0  502 -0.18489335877E+03  0.52440414710E+03 -0.14788182341E+04  0.15799014663E+04  0.10100000352E+00 0.  1.
</event>
<event>
 5   0  0.1404833E-03  0.1207120E+04  0.7818609E-02  0.9106647E-01
       -1   -1    0    0    0  501  0.00000000000E+00  0.00000000000E+00  0.85849127140E+03  0.85849127142E+03  0.50400001928E-02 0.  1.
        1   -1    0    0  501    0  0.00000000000E+00  0.00000000000E+00 -0.42433135147E+03  0.42433135150E+03  0.50400001928E-02 0. -1.
    10030    2    1    2    0    0  0.00000000000E+00  0.00000000000E+00  0.43415991993E+03  0.12828226229E+04  0.12071201456E+04 0.  0.
        1    1    3    3  502    0  0.48935303777E+03 -0.13913810245E+01  0.59252985784E+03  0.76847899384E+03  0.50400001928E-02 0.  1.
       -1    1    3    3    0  502 -0.48935303777E+03  0.13913810245E+01 -0.15836993791E+03  0.51434362908E+03  0.50400001928E-02 0. -1.
</event>
<event>
 5   0  0.1404833E-03  0.1198713E+04  0.7818609E-02  0.9113984E-01
       -1   -1    0    0    0  501  0.00000000000E+00  0.00000000000E+00  0.58114613495E+03  0.58114613498E+03  0.50400001928E-02 0. -1.
        1   -1    0    0  501    0  0.00000000000E+00  0.00000000000E+00 -0.61813770106E+03  0.61813770108E+03  0.50400001928E-02 0.  1.
    10030    2    1    2    0    0  0.00000000000E+00  0.00000000000E+00 -0.36991566103E+02  0.11992838361E+04  0.11987132032E+04 0.  0.
        1    1    3    3  502    0  0.41041110546E+03 -0.43202623899E+03  0.45911793288E+02  0.59765528480E+03  0.50400001928E-02 0. -1.
       -1    1    3    3    0  502 -0.41041110546E+03  0.43202623899E+03 -0.82903359392E+02  0.60162855125E+03  0.50400001928E-02 0.  1.
</event>
<event>
 5   0  0.1404833E-03  0.1191566E+04  0.7818609E-02  0.9120271E-01
       -1   -1    0    0    0  501  0.00000000000E+00  0.00000000000E+00  0.28079843260E+03  0.28079843264E+03  0.50400001928E-02 0. -1.
        1   -1    0    0  501    0  0.00000000000E+00  0.00000000000E+00 -0.12640998421E+04  0.12640998421E+04  0.50400001928E-02 0.  1.
    10030    2    1    2    0    0  0.00000000000E+00  0.00000000000E+00 -0.98330140953E+03  0.15448982748E+04  0.11915657839E+04 0.  0.
        1    1    3    3  502    0 -0.14907978401E+03  0.55664396932E+03 -0.68776512588E+03  0.89727262244E+03  0.50400001928E-02 0. -1.
       -1    1    3    3    0  502  0.14907978401E+03 -0.55664396932E+03 -0.29553628365E+03  0.64762565233E+03  0.50400001928E-02 0.  1.
</event>
<event>
 5   0  0.2499890E-03  0.1195188E+04  0.7818609E-02  0.9117079E-01
       -2   -1    0    0    0  501  0.00000000000E+00  0.00000000000E+00  0.64921457493E+03  0.64921457493E+03  0.25500000920E-02 0. -1.
        2   -1    0    0  501    0  0.00000000000E+00  0.00000000000E+00 -0.55007783306E+03  0.55007783306E+03  0.25500000920E-02 0.  1.
    10030    2    1    2    0    0  0.00000000000E+00  0.00000000000E+00  0.99136741875E+02  0.11992924080E+04  0.11951879293E+04 0.  0.
        5    1    3    3  502    0  0.39442692276E+03  0.40793770409E+03  0.23759032443E+03  0.61518860529E+03  0.46999998093E+01 0. -1.
       -5    1    3    3    0  502 -0.39442692276E+03 -0.40793770409E+03 -0.13845358255E+03  0.58410380271E+03  0.46999998093E+01 0.  1.
</event>
<event>
 5   0  0.2580244E-03  0.1187844E+04  0.7818609E-02  0.9123564E-01
       -2   -1    0    0    0  501  0.00000000000E+00  0.00000000000E+00  0.47130756237E+03  0.47130756238E+03  0.25500000920E-02 0. -1.
        2   -1    0    0  501    0  0.00000000000E+00  0.00000000000E+00 -0.74843547895E+03  0.74843547896E+03  0.25500000920E-02 0.  1.
    10030    2    1    2    0    0  0.00000000000E+00  0.00000000000E+00 -0.27712791658E+03  0.12197430413E+04  0.11878439311E+04 0.  0.
        1    1    3    3  502    0 -0.42367631189E+03 -0.56242735350E+02  0.28491671617E+03  0.51365591373E+03  0.50400001928E-02 0. -1.
       -1    1    3    3    0  502  0.42367631189E+03  0.56242735350E+02 -0.56204463275E+03  0.70608712760E+03  0.50400001928E-02 0.  1.
</event>
<event>
 5   0  0.1469851E-03  0.1201834E+04  0.7818609E-02  0.9111253E-01
        1   -1    0    0  501    0  0.00000000000E+00  0.00000000000E+00  0.34380866695E+03  0.34380866699E+03  0.50400001928E-02 0. -1.
       -1   -1    0    0    0  501  0.00000000000E+00  0.00000000000E+00 -0.10502962257E+04  0.10502962257E+04  0.50400001928E-02 0.  1.
    10030    2    1    2    0    0  0.00000000000E+00  0.00000000000E+00 -0.70648755876E+03  0.13941048927E+04  0.12018335081E+04 0.  0.
        5    1    3    3  502    0 -0.49253050435E+03  0.15700766847E+03  0.20992519358E+01  0.51697601736E+03  0.46999998093E+01 0.  1.
       -5    1    3    3    0  502  0.49253050435E+03 -0.15700766847E+03 -0.70858681070E+03  0.87712887535E+03  0.46999998093E+01 0. -1.
</event>
<event>
 5   0  0.1403154E-03  0.1170263E+04  0.7818609E-02  0.9139291E-01
       -1   -1    0    0    0  501  0.00000000000E+00  0.00000000000E+00  0.14917033006E+03  0.14917033014E+03  0.50400001928E-02 0. -1.
        1   -1    0    0  501    0  0.00000000000E+00  0.00000000000E+00 -0.22952209106E+04  0.22952209106E+04  0.50400001928E-02 0.  1.
    10030    2    1    2    0    0  0.00000000000E+00  0.00000000000E+00 -0.21460505805E+04  0.24443912407E+04  0.11702629805E+04 0.  0.
        3    1    3    3  502    0 -0.71244958644E+02  0.32556630977E+03 -0.68446357973E+02  0.34022666020E+03  0.10100000352E+00 0. -1.
       -3    1    3    3    0  502  0.71244958644E+02 -0.32556630977E+03 -0.20776042226E+04  0.21041645805E+04  0.10100000352E+00 0.  1.
</event>
<event>
 5   0  0.2580244E-03  0.1164957E+04  0.7818609E-02  0.9144095E-01
       -2   -1    0    0    0  501  0.00000000000E+00  0.00000000000E+00  0.44848238005E+03  0.44848238006E+03  0.25500000920E-02 0. -1.
        2   -1    0    0  501    0  0.00000000000E+00  0.00000000000E+00 -0.75651004387E+03  0.75651004387E+03  0.25500000920E-02 0.  1.
    10030    2    1    2    0    0  0.00000000000E+00  0.00000000000E+00 -0.30802766381E+03  0.12049924239E+04  0.11649573812E+04 0.  0.
        1    1    3    3  502    0 -0.32483688368E+03  0.24688392742E+03  0.27597745658E+03  0.49257916235E+03  0.50400001928E-02 0. -1.
       -1    1    3    3    0  502  0.32483688368E+03 -0.24688392742E+03 -0.58400512039E+03  0.71241326159E+03  0.50400001928E-02 0.  1.
</event>
<event>
 5   0  0.1404833E-03  0.1127611E+04  0.7818609E-02  0.9178691E-01
       -1   -1    0    0    0  501  0.00000000000E+00  0.00000000000E+00  0.72051865724E+03  0.72051865726E+03  0.50400001928E-02 0.  1.
        1   -1    0    0  501    0  0.00000000000E+00  0.00000000000E+00 -0.44117722096E+03  0.44117722099E+03  0.50400001928E-02 0. -1.
    10030    2    1    2    0    0  0.00000000000E+00  0.00000000000E+00  0.27934143628E+03  0.11616958782E+04  0.11276106046E+04 0.  0.
        1    1    3    3  502    0  0.80513649452E+02 -0.48606650118E+03 -0.14271947385E+03  0.51294438252E+03  0.50400001928E-02 0. -1.
       -1    1    3    3    0  502 -0.80513649452E+02  0.48606650118E+03  0.42206091014E+03  0.64875149573E+03  0.50400001928E-02 0.  1.
</event>
<event>
 5   0  0.1423024E-03  0.1203692E+04  0.7818609E-02  0.9109631E-01
       -1   -1    0    0    0  501  0.00000000000E+00  0.00000000000E+00  0.23807336793E+03  0.23807336799E+03  0.50400001928E-02 0. -1.
        1   -1    0    0  501    0  0.00000000000E+00  0.00000000000E+00 -0.15214588878E+04  0.15214588878E+04  0.50400001928E-02 0.  1.
    10030    2    1    2    0    0  0.00000000000E+00  0.00000000000E+00 -0.12833855199E+04  0.17595322558E+04  0.12036923887E+04 0.  0.
        2    1    3    3  502    0 -0.23369402801E+03  0.42461088638E+03 -0.11632663598E+04  0.12601967812E+04  0.25500000920E-02 0.  1.
       -2    1    3    3    0  502  0.23369402801E+03 -0.42461088638E+03 -0.12011916010E+03  0.49933547460E+03  0.25500000920E-02 0. -1.
</event>
<event>
 5   0  0.1455076E-03  0.1232852E+04  0.7818609E-02  0.9084578E-01
        1   -1    0    0  501    0  0.00000000000E+00  0.00000000000E+00  0.67039247719E+03  0.67039247721E+03  0.50400001928E-02 0. -1.
       -1   -1    0    0    0  501  0.00000000000E+00  0.00000000000E+00 -0.56680350588E+03  0.56680350591E+03  0.50400001928E-02 0.  1.
    10030    2    1    2    0    0  0.00000000000E+00  0.00000000000E+00  0.10358897131E+03  0.12371959831E+04  0.12328516641E+04 0.  0.
        4    1    3    3  502    0 -0.30899609247E+03 -0.51161706030E+03  0.20315233077E+03  0.63127100674E+03  0.12699999809E+01 0. -1.
       -4    1    3    3    0  502  0.30899609247E+03  0.51161706030E+03 -0.99563359463E+02  0.60592497638E+03  0.12699999809E+01 0.  1.
</event>
<event>
 5   0  0.1423024E-03  0.1192355E+04  0.7818609E-02  0.9119575E-01
        1   -1    0    0  501    0  0.00000000000E+00  0.00000000000E+00  0.41229772707E+03  0.41229772710E+03  0.50400001928E-02 0.  1.
       -1   -1    0    0    0  501  0.00000000000E+00  0.00000000000E+00 -0.86206527496E+03  0.86206527497E+03  0.50400001928E-02 0. -1.
    10030    2    1    2    0    0  0.00000000000E+00  0.00000000000E+00 -0.44976754789E+03  0.12743630021E+04  0.11923549027E+04 0.  0.
        2    1    3    3  502    0  0.21586835186E+03 -0.50617430983E+03 -0.47004197664E+03  0.72370645781E+03  0.25500000920E-02 0.  1.
       -2    1    3    3    0  502 -0.21586835186E+03  0.50617430983E+03  0.20274428756E+02  0.55065654426E+03  0.25500000920E-02 0. -1.
</event>
<event>
 5   0  0.1404833E-03  0.1199441E+04  0.7818609E-02  0.9113346E-01
        1   -1    0    0  501    0  0.00000000000E+00  0.00000000000E+00  0.20873812515E+04  0.20873812515E+04  0.50400001928E-02 0. -1.
       -1   -1    0    0    0  501  0.00000000000E+00  0.00000000000E+00 -0.17230431872E+03  0.17230431879E+03  0.50400001928E-02 0.  1.
    10030    2    1    2    0    0  0.00000000000E+00  0.00000000000E+00  0.19150769328E+04  0.22596855703E+04  0.11994412108E+04 0.  0.
        1    1    3    3  502    0  0.22492494257E+03  0.66540458397E+01  0.20048330897E+04  0.20174219250E+04  0.50400001928E-02 0. -1.
       -1    1    3    3    0  502 -0.22492494257E+03 -0.66540458397E+01 -0.89756156860E+02  0.24226364530E+03  0.50400001928E-02 0.  1.
</event>
<event>
 5   0  0.1403154E-03  0.1201435E+04  0.7818609E-02  0.9111602E-01
        1   -1    0    0  501    0  0.00000000000E+00  0.00000000000E+00  0.33101139984E+03  0.33101139988E+03  0.50400001928E-02 0. -1.
       -1   -1    0    0    0  501  0.00000000000E+00  0.00000000000E+00 -0.10901779868E+04  0.10901779868E+04  0.50400001928E-02 0.  1.
    10030    2    1    2    0    0  0.00000000000E+00  0.00000000000E+00 -0.75916658695E+03  0.14211893867E+04  0.12014347115E+04 0.  0.
        3    1    3    3  502    0  0.18844558929E+03 -0.26189012944E+03  0.21981862529E+03  0.39040801509E+03  0.10100000352E+00 0. -1.
       -3    1    3    3    0  502 -0.18844558929E+03  0.26189012944E+03 -0.97898521224E+03  0.10307813716E+04  0.10100000352E+00 0.  1.
</event>
<event>
 5   0  0.1455076E-03  0.1180978E+04  0.7818609E-02  0.9129672E-01
        1   -1    0    0  501    0  0.00000000000E+00  0.00000000000E+00  0.99379788087E+03  0.99379788088E+03  0.50400001928E-02 0. -1.
       -1   -1    0    0    0  501  0.00000000000E+00  0.00000000000E+00 -0.35085312525E+03  0.35085312529E+03  0.50400001928E-02 0.  1.
    10030    2    1    2    0    0  0.00000000000E+00  0.00000000000E+00  0.64294475562E+03  0.13446510062E+04  0.11809777177E+04 0.  0.
        4    1    3    3  502    0  0.28264421667E+03 -0.47691889533E+02  0.90926921874E+03  0.95338050881E+03  0.12699999809E+01 0. -1.
       -4    1    3    3    0  502 -0.28264421667E+03  0.47691889533E+02 -0.26632446312E+03  0.39127049735E+03  0.12699999809E+01 0.  1.
</event>
<event>
 5   0  0.2517023E-03  0.1210082E+04  0.7818609E-02  0.9104077E-01
        2   -1    0    0  501    0  0.00000000000E+00  0.00000000000E+00  0.23726370641E+04  0.23726370641E+04  0.25500000920E-02 0.  1.
       -2   -1    0    0    0  501  0.00000000000E+00  0.00000000000E+00 -0.15429022140E+03  0.15429022142E+03  0.25500000920E-02 0. -1.
    10030    2    1    2    0    0  0.00000000000E+00  0.00000000000E+00  0.22183468427E+04  0.25269272855E+04  0.12100821426E+04 0.  0.
        3    1    3    3  502    0  0.18106756431E+03  0.35967411366E+03  0.20521736643E+04  0.20913076507E+04  0.10100000352E+00 0.  1.
       -3    1    3    3    0  502 -0.18106756431E+03 -0.35967411366E+03  0.16617317838E+03  0.43561963488E+03  0.10100000352E+00 0. -1.
</event>
<event>
 5   0  0.1423024E-03  0.1199595E+04  0.7818609E-02  0.9113211E-01
        1   -1    0    0  501    0  0.00000000000E+00  0.00000000000E+00  0.15284462045E+04  0.15284462045E+04  0.50400001928E-02 0.  1.
       -1   -1    0    0    0  501  0.00000000000E+00  0.00000000000E+00 -0.23537435939E+03  0.23537435945E+03  0.50400001928E-02 0. -1.
    10030    2    1    2    0    0  0.00000000000E+00  0.00000000000E+00  0.12930718451E+04  0.17638205640E+04  0.11995950088E+04 0.  0.
        2    1    3    3  502    0 -0.24183533061E+03 -0.26850790841E+03 -0.57353646862E+02  0.36588285670E+03  0.25500000920E-02 0. -1.
       -2    1    3    3    0  502  0.24183533061E+03  0.26850790841E+03  0.13504254920E+04  0.13979377073E+04  0.25500000920E-02 0.  1.
</event>
<event>
 5   0  0.1403154E-03  0.1277629E+04  0.7818609E-02  0.9047496E-01
        1   -1    0    0  501    0  0.00000000000E+00  0.00000000000E+00  0.55962076450E+03  0.55962076452E+03  0.50400001928E-02 0. -1.
       -1   -1    0    0    0  501  0.00000000000E+00  0.00000000000E+00 -0.72921502417E+03  0.72921502419E+03  0.50400001928E-02 0.  1.
    10030    2    1    2    0    0  0.00000000000E+00  0.00000000000E+00 -0.16959425968E+03  0.12888357887E+04  0.12776288496E+04 0.  0.
        3    1    3    3  502    0 -0.49769480160E+03 -0.39662661996E+03 -0.14070044833E+03  0.65177405407E+03  0.10100000352E+00 0.  1.
       -3    1    3    3    0  502  0.49769480160E+03  0.39662661996E+03 -0.28893811349E+02  0.63706173464E+03  0.10100000352E+00 0. -1.
</event>
<event>
 5   0  0.1423024E-03  0.1171731E+04  0.7818609E-02  0.9137966E-01
        1   -1    0    0  501    0  0.00000000000E+00  0.00000000000E+00  0.17958973281E+04  0.17958973281E+04  0.50400001928E-02 0.  1.
       -1   -1    0    0    0  501  0.00000000000E+00  0.00000000000E+00 -0.19112365730E+03  0.19112365736E+03  0.50400001928E-02 0. -1.
    10030    2    1    2    0    0  0.00000000000E+00  0.00000000000E+00  0.16047736708E+04  0.19870209855E+04  0.11717311390E+04 0.  0.
        2    1    3    3  502    0  0.39866197489E+03  0.17447563033E+03  0.13719808412E+03  0.45628546996E+03  0.25500000920E-02 0. -1.
       -2    1    3    3    0  502 -0.39866197489E+03 -0.17447563033E+03  0.14675755867E+04  0.15307355155E+04  0.25500000920E-02 0.  1.
</event>
<event>
 5   0  0.2580244E-03  0.1194013E+04  0.7818609E-02  0.9118113E-01
        2   -1    0    0  501    0  0.00000000000E+00  0.00000000000E+00  0.72848599682E+03  0.72848599682E+03  0.25500000920E-02 0. -1.
       -2   -1    0    0    0  501  0.00000000000E+00  0.00000000000E+00 -0.48925699171E+03  0.48925699172E+03  0.25500000920E-02 0.  1.
    10030    2    1    2    0    0  0.00000000000E+00  0.00000000000E+00  0.23922900511E+03  0.12177429885E+04  0.11940131780E+04 0.  0.
        1    1    3    3  502    0 -0.30996347243E+03  0.50611527010E+03  0.18560631149E+03  0.62183576912E+03  0.50400001928E-02 0.  1.
       -1    1    3    3    0  502  0.30996347243E+03 -0.50611527010E+03  0.53622693620E+02  0.59590721942E+03  0.50400001928E-02 0. -1.
</event>
<event>
 5   0  0.1404833E-03  0.1188966E+04  0.7818609E-02  0.9122569E-01
       -1   -1    0    0    0  501  0.00000000000E+00  0.00000000000E+00  0.49026912614E+03  0.49026912617E+03  0.50400001928E-02 0.  1.
        1   -1    0    0  501    0  0.00000000000E+00  0.00000000000E+00 -0.72084955567E+03  0.72084955568E+03  0.50400001928E-02 0. -1.
    10030    2    1    2    0    0  0.00000000000E+00  0.00000000000E+00 -0.23058042952E+03  0.12111186819E+04  0.11889664112E+04 0.  0.
        1    1    3    3  502    0  0.14296100902E+03 -0.30850976966E+03  0.38143671308E+03  0.51098932884E+03  0.50400001928E-02 0.  1.
       -1    1    3    3    0  502 -0.14296100902E+03  0.30850976966E+03 -0.61201714261E+03  0.70012935301E+03  0.50400001928E-02 0. -1.
</event>
<event>
 5   0  0.2484507E-03  0.1224801E+04  0.7818609E-02  0.9091421E-01
       -2   -1    0    0    0  501  0.00000000000E+00  0.00000000000E+00  0.11649073265E+04  0.11649073265E+04  0.25500000920E-02 0.  1.
        2   -1    0    0  501    0  0.00000000000E+00  0.00000000000E+00 -0.32194356656E+03  0.32194356657E+03  0.25500000920E-02 0. -1.
    10030    2    1    2    0    0  0.00000000000E+00  0.00000000000E+00  0.84296375997E+03  0.14868508931E+04  0.12248010768E+04 0.  0.
        2    1    3    3  502    0 -0.35500935668E+03 -0.18605795238E+03 -0.14059959684E+03  0.42475575525E+03  0.25500000920E-02 0. -1.
       -2    1    3    3    0  502  0.35500935668E+03  0.18605795238E+03  0.98356335680E+03  0.10620951378E+04  0.25500000920E-02 0.  1.
</event>
<event>
 5   0  0.1469851E-03  0.1201836E+04  0.7818609E-02  0.9111251E-01
        1   -1    0    0  501    0  0.00000000000E+00  0.00000000000E+00  0.67520998871E+03  0.67520998873E+03  0.50400001928E-02 0.  1.
       -1   -1    0    0    0  501  0.00000000000E+00  0.00000000000E+00 -0.53480063215E+03  0.53480063218E+03  0.50400001928E-02 0. -1.
    10030    2    1    2    0    0  0.00000000000E+00  0.00000000000E+00  0.14040935655E+03  0.12100106209E+04  0.12018364761E+04 0.  0.
        5    1    3    3  502    0  0.29632032562E+03  0.46271479227E+03  0.31510779319E+03  0.63342381207E+03  0.46999998093E+01 0.  1.
       -5    1    3    3    0  502 -0.29632032562E+03 -0.46271479227E+03 -0.17469843664E+03  0.57658680884E+03  0.46999998093E+01 0. -1.
</event>
<event>
 5   0  0.1455076E-03  0.1190133E+04  0.7818609E-02  0.9121537E-01
        1   -1    0    0  501    0  0.00000000000E+00  0.00000000000E+00  0.18760172393E+04  0.18760172393E+04  0.50400001928E-02 0. -1.
       -1   -1    0    0    0  501  0.00000000000E+00  0.00000000000E+00 -0.18875313494E+03  0.18875313501E+03  0.50400001928E-02 0.  1.
    10030    2    1    2    0    0  0.00000000000E+00  0.00000000000E+00  0.16872641043E+04  0.20647703743E+04  0.11901329929E+04 0.  0.
        4    1    3    3  502    0 -0.18438772604E+03 -0.38100886021E+03  0.11800112691E+03  0.43942287598E+03  0.12699999809E+01 0.  1.
       -4    1    3    3    0  502  0.18438772604E+03  0.38100886021E+03  0.15692629774E+04  0.16253474983E+04  0.12699999809E+01 0. -1.
</event>
<event>
 5   0  0.1403154E-03  0.1209680E+04  0.7818609E-02  0.9104426E-01
        1   -1    0    0  501    0  0.00000000000E+00  0.00000000000E+00  0.13535829982E+04  0.13535829982E+04  0.50400001928E-02 0. -1.
       -1   -1    0    0    0  501  0.00000000000E+00  0.00000000000E+00 -0.27026884057E+03  0.27026884061E+03  0.50400001928E-02 0.  1.
    10030    2    1    2    0    0  0.00000000000E+00  0.00000000000E+00  0.10833141576E+04  0.16238518388E+04  0.12096798049E+04 0.  0.
        3    1    3    3  502    0 -0.49209832121E+03  0.26568256531E+03  0.23237483627E+03  0.60559562250E+03  0.10100000352E+00 0.  1.
       -3    1    3    3    0  502  0.49209832121E+03 -0.26568256531E+03  0.85093932137E+03  0.10182562163E+04  0.10100000352E+00 0. -1.
</event>
<event>
 5   0  0.9678750E-04  0.1204804E+04  0.7818609E-02  0.9108662E-01
        3   -1    0    0  501    0  0.00000000000E+00  0.00000000000E+00  0.40659377937E+03  0.40659379192E+03  0.10100000352E+00 0. -1.
       -3   -1    0    0    0  501  0.00000000000E+00  0.00000000000E+00 -0.89250821059E+03  0.89250821630E+03  0.10100000352E+00 0.  1.
    10030    2    1    2    0    0  0.00000000000E+00  0.00000000000E+00 -0.48591443121E+03  0.12991020082E+04  0.12048042137E+04 0.  0.
        3    1    3    3  502    0 -0.32459177823E+03  0.45658376382E+03 -0.48178748206E+03  0.73888276740E+03  0.10100000352E+00 0. -1.
       -3    1    3    3    0  502  0.32459177823E+03 -0.45658376382E+03 -0.41269491497E+01  0.56021924082E+03  0.10100000352E+00 0.  1.
</event>
<event>
 5   0  0.2517023E-03  0.1194195E+04  0.7818609E-02  0.9117953E-01
        2   -1    0    0  501    0  0.00000000000E+00  0.00000000000E+00  0.71967316335E+03  0.71967316335E+03  0.25500000920E-02 0. -1.
       -2   -1    0    0    0  501  0.00000000000E+00  0.00000000000E+00 -0.49539885151E+03  0.49539885152E+03  0.25500000920E-02 0.  1.
    10030    2    1    2    0    0  0.00000000000E+00  0.00000000000E+00  0.22427431183E+03  0.12150720149E+04  0.11941947221E+04 0.  0.
        3    1    3    3  502    0  0.23908715496E+03 -0.31390926134E+03  0.56810498066E+03  0.69169716732E+03  0.10100000352E+00 0. -1.
       -3    1    3    3    0  502 -0.23908715496E+03  0.31390926134E+03 -0.34383066883E+03  0.52337484755E+03  0.10100000352E+00 0.  1.
</event>
<event>
 5   0  0.2579442E-03  0.1203535E+04  0.7818609E-02  0.9109768E-01
       -2   -1    0    0    0  501  0.00000000000E+00  0.00000000000E+00  0.50580353189E+03  0.50580353189E+03  0.25500000920E-02 0. -1.
        2   -1    0    0  501    0  0.00000000000E+00  0.00000000000E+00 -0.71593826547E+03  0.71593826547E+03  0.25500000920E-02 0.  1.
    10030    2    1    2    0    0  0.00000000000E+00  0.00000000000E+00 -0.21013473358E+03  0.12217417974E+04  0.12035349655E+04 0.  0.
        4    1    3    3  502    0 -0.27228233878E+03 -0.51397368336E+03 -0.26172586402E+03  0.63781553760E+03  0.12699999809E+01 0.  1.
       -4    1    3    3    0  502  0.27228233878E+03  0.51397368336E+03  0.51591130443E+02  0.58392625977E+03  0.12699999809E+01 0. -1.
</event>
<event>
 5   0  0.1455076E-03  0.1206320E+04  0.7818609E-02  0.9107342E-01
       -1   -1    0    0    0  501  0.00000000000E+00  0.00000000000E+00  0.20928877272E+03  0.20928877278E+03  0.50400001928E-02 0.  1.
        1   -1    0    0  501    0  0.00000000000E+00  0.00000000000E+00 -0.17382782594E+04  0.17382782594E+04  0.50400001928E-02 0. -1.
    10030    2    1    2    0    0  0.00000000000E+00  0.00000000000E+00 -0.15289894867E+04  0.19475670322E+04  0.12063202288E+04 0.  0.
        4    1    3    3  502    0  0.49806387917E+03  0.29134008473E+03 -0.48090899516E+03  0.75114695448E+03  0.12699999809E+01 0.  1.
       -4    1    3    3    0  502 -0.49806387917E+03 -0.29134008473E+03 -0.10480804915E+04  0.11964200777E+04  0.12699999809E+01 0. -1.
</event>
<event>
 5   0  0.1469851E-03  0.1220275E+04  0.7818609E-02  0.9095292E-01
       -1   -1    0    0    0  501  0.00000000000E+00  0.00000000000E+00  0.31304617439E+04  0.31304617439E+04  0.50400001928E-02 0.  1.
        1   -1    0    0  501    0  0.00000000000E+00  0.00000000000E+00 -0.11891793729E+03  0.11891793739E+03  0.50400001928E-02 0. -1.
    10030    2    1    2    0    0  0.00000000000E+00  0.00000000000E+00  0.30115438066E+04  0.32493796813E+04  0.12202754665E+04 0.  0.
        5    1    3    3  502    0 -0.99917809443E+01 -0.47555952399E+03  0.48834540470E+03  0.68173310088E+03  0.46999998093E+01 0. -1.
       -5    1    3    3    0  502  0.99917809443E+01  0.47555952399E+03  0.25231984019E+04  0.25676465804E+04  0.46999998093E+01 0.  1.
</event>
<event>
 5   0  0.2517023E-03  0.1202527E+04  0.7818609E-02  0.9110647E-01
        2   -1    0    0  501    0  0.00000000000E+00  0.00000000000E+00  0.10931651602E+04  0.10931651602E+04  0.25500000920E-02 0.  1.
       -2   -1    0    0    0  501  0.00000000000E+00  0.00000000000E+00 -0.33070764478E+03  0.33070764479E+03  0.25500000920E-02 0. -1.
    10030    2    1    2    0    0  0.00000000000E+00  0.00000000000E+00  0.76245751546E+03  0.14238728050E+04  0.12025274641E+04 0.  0.
        3    1    3    3  502    0  0.20297089354E+03  0.34883604655E+03  0.90894845837E+03  0.99452052828E+03  0.10100000352E+00 0.  1.
       -3    1    3    3    0  502 -0.20297089354E+03 -0.34883604655E+03 -0.14649094290E+03  0.42935227675E+03  0.10100000352E+00 0. -1.
</event>
<event>
 5   0  0.1455076E-03  0.1201881E+04  0.7818609E-02  0.9111212E-01
        1   -1    0    0  501    0  0.00000000000E+00  0.00000000000E+00  0.72513538098E+03  0.72513538100E+03  0.50400001928E-02 0.  1.
       -1   -1    0    0    0  501  0.00000000000E+00  0.00000000000E+00 -0.49801622505E+03  0.49801622507E+03  0.50400001928E-02 0. -1.
    10030    2    1    2    0    0  0.00000000000E+00  0.00000000000E+00  0.22711915594E+03  0.12231516061E+04  0.12018805017E+04 0.  0.
        4    1    3    3  502    0  0.37287341433E+03  0.29576474292E+03 -0.25983471288E+03  0.54224261838E+03  0.12699999809E+01 0. -1.
       -4    1    3    3    0  502 -0.37287341433E+03 -0.29576474292E+03  0.48695386881E+03  0.68090898769E+03  0.12699999809E+01 0.  1.
</event>
<event>
 5   0  0.2517023E-03  0.1198390E+04  0.7818609E-02  0.9114267E-01
        2   -1    0    0  501    0  0.00000000000E+00  0.00000000000E+00  0.59824521302E+03  0.59824521303E+03  0.25500000920E-02 0. -1.
       -2   -1    0    0    0  501  0.00000000000E+00  0.00000000000E+00 -0.60014620298E+03  0.60014620298E+03  0.25500000920E-02 0.  1.
    10030    2    1    2    0    0  0.00000000000E+00  0.00000000000E+00 -0.19009899577E+01  0.11983914160E+04  0.11983899083E+04 0.  0.
        3    1    3    3  502    0  0.15102389743E+03  0.10503001188E+03 -0.57120997990E+03  0.60010030190E+03  0.10100000352E+00 0.  1.
       -3    1    3    3    0  502 -0.15102389743E+03 -0.10503001188E+03  0.56930898995E+03  0.59829111411E+03  0.10100000352E+00 0. -1.
</event>
<event>
 5   0  0.1469851E-03  0.1208499E+04  0.7818609E-02  0.9105449E-01
        1   -1    0    0  501    0  0.00000000000E+00  0.00000000000E+00  0.50028976940E+03  0.50028976943E+03  0.50400001928E-02 0.  1.
       -1   -1    0    0    0  501  0.00000000000E+00  0.00000000000E+00 -0.72981245219E+03  0.72981245221E+03  0.50400001928E-02 0. -1.
    10030    2    1    2    0    0  0.00000000000E+00  0.00000000000E+00 -0.22952268279E+03  0.12301022216E+04  0.12084994058E+04 0.  0.
        5    1    3    3  502    0  0.14280377741E+03  0.42551399160E+03  0.29699491847E+03  0.53822221013E+03  0.46999998093E+01 0. -1.
       -5    1    3    3    0  502 -0.14280377741E+03 -0.42551399160E+03 -0.52651760125E+03  0.69188001150E+03  0.46999998093E+01 0.  1.
</event>
<event>
 5   0  0.1423024E-03  0.1218276E+04  0.7818609E-02  0.9097009E-01
       -1   -1    0    0    0  501  0.00000000000E+00  0.00000000000E+00  0.57491003477E+03  0.57491003479E+03  0.50400001928E-02 0. -1.
        1   -1    0    0  501    0  0.00000000000E+00  0.00000000000E+00 -0.64540330625E+03  0.64540330627E+03  0.50400001928E-02 0.  1.
    10030    2    1    2    0    0  0.00000000000E+00  0.00000000000E+00 -0.70493271489E+02  0.12203133411E+04  0.12182755637E+04 0.  0.
        2    1    3    3  502    0 -0.42686125907E+03  0.30939999852E+03  0.27040298273E+03  0.59250035161E+03  0.25500000920E-02 0. -1.
       -2    1    3    3    0  502  0.42686125907E+03 -0.30939999852E+03 -0.34089625422E+03  0.62781298945E+03  0.25500000920E-02 0.  1.
</event>
<event>
 5   0  0.2499890E-03  0.1194057E+04  0.7818609E-02  0.9118075E-01
        2   -1    0    0  501    0  0.00000000000E+00  0.00000000000E+00  0.98303030229E+03  0.98303030229E+03  0.25500000920E-02 0. -1.
       -2   -1    0    0    0  501  0.00000000000E+00  0.00000000000E+00 -0.36259589345E+03  0.36259589346E+03  0.25500000920E-02 0.  1.
    10030    2    1    2    0    0  0.00000000000E+00  0.00000000000E+00  0.62043440884E+03  0.13456261958E+04  0.11940565326E+04 0.  0.
        5    1    3    3  502    0 -0.35132441277E+03  0.31423740309E+03 -0.10268890489E+03  0.48243247164E+03  0.46999998093E+01 0.  1.
       -5    1    3    3    0  502  0.35132441277E+03 -0.31423740309E+03  0.72312331373E+03  0.86319372412E+03  0.46999998093E+01 0. -1.
</event>
<event>
 5   0  0.1404833E-03  0.1199257E+04  0.7818609E-02  0.9113507E-01
       -1   -1    0    0    0  501  0.00000000000E+00  0.00000000000E+00  0.42092164543E+03  0.42092164546E+03  0.50400001928E-02 0.  1.
        1   -1    0    0  501    0  0.00000000000E+00  0.00000000000E+00 -0.85420723057E+03  0.85420723058E+03  0.50400001928E-02 0. -1.
    10030    2    1    2    0    0  0.00000000000E+00  0.00000000000E+00 -0.43328558514E+03  0.12751288760E+04  0.11992569584E+04 0.  0.
        1    1    3    3  502    0  0.43527071548E+03 -0.10521657740E+03  0.20736326681E+03  0.49348824542E+03  0.50400001928E-02 0.  1.
       -1    1    3    3    0  502 -0.43527071548E+03  0.10521657740E+03 -0.64064885195E+03  0.78164063062E+03  0.50400001928E-02 0. -1.
</event>
<event>
 5   0  0.1404833E-03  0.1219859E+04  0.7818609E-02  0.9095649E-01
        1   -1    0    0  501    0  0.00000000000E+00  0.00000000000E+00  0.81577960769E+03  0.81577960771E+03  0.50400001928E-02 0. -1.
       -1   -1    0    0    0  501  0.00000000000E+00  0.00000000000E+00 -0.45602291892E+03  0.45602291895E+03  0.50400001928E-02 0.  1.
    10030    2    1    2    0    0  0.00000000000E+00  0.00000000000E+00  0.35975668877E+03  0.12718025267E+04  0.12198593328E+04 0.  0.
        1    1    3    3  502    0  0.10387851804E+03 -0.44662867039E+03  0.59918048903E+03  0.75450989005E+03  0.50400001928E-02 0. -1.
       -1    1    3    3    0  502 -0.10387851804E+03  0.44662867039E+03 -0.23942380026E+03  0.51729263660E+03  0.50400001928E-02 0.  1.
</event>
<event>
 5   0  0.2517023E-03  0.1206204E+04  0.7818609E-02  0.9107443E-01
       -2   -1    0    0    0  501  0.00000000000E+00  0.00000000000E+00  0.21092799437E+03  0.21092799438E+03  0.25500000920E-02 0.  1.
        2   -1    0    0  501    0  0.00000000000E+00  0.00000000000E+00 -0.17244370768E+04  0.17244370768E+04  0.25500000920E-02 0. -1.
    10030    2    1    2    0    0  0.00000000000E+00  0.00000000000E+00 -0.15135090824E+04  0.19353650712E+04  0.12062040524E+04 0.  0.
        3    1    3    3  502    0  0.37422832758E+03 -0.32008127160E+03 -0.13154213475E+04  0.14045754494E+04  0.10100000352E+00 0. -1.
       -3    1    3    3    0  502 -0.37422832758E+03  0.32008127160E+03 -0.19808773494E+03  0.53078962172E+03  0.10100000352E+00 0.  1.
</event>
<event>
 5   0  0.1455076E-03  0.1233138E+04  0.7818609E-02  0.9084335E-01
        1   -1    0    0  501    0  0.00000000000E+00  0.00000000000E+00  0.75213760509E+03  0.75213760511E+03  0.50400001928E-02 0. -1.
       -1   -1    0    0    0  501  0.00000000000E+00  0.00000000000E+00 -0.50543607845E+03  0.50543607848E+03  0.50400001928E-02 0.  1.
    10030    2    1    2    0    0  0.00000000000E+00  0.00000000000E+00  0.24670152664E+03  0.12575736836E+04  0.12331382430E+04 0.  0.
        4    1    3    3  502    0 -0.34358625421E+03  0.24621860566E+03 -0.33440988594E+03  0.53898673506E+03  0.12699999809E+01 0.  1.
       -4    1    3    3    0  502  0.34358625421E+03 -0.24621860566E+03  0.58111141258E+03  0.71858694852E+03  0.12699999809E+01 0. -1.
</event>
<event>
 5   0  0.1404833E-03  0.1201199E+04  0.7818609E-02  0.9111808E-01
       -1   -1    0    0    0  501  0.00000000000E+00  0.00000000000E+00  0.51641519277E+03  0.51641519279E+03  0.50400001928E-02 0. -1.
        1   -1    0    0  501    0  0.00000000000E+00  0.00000000000E+00 -0.69850671915E+03  0.69850671916E+03  0.50400001928E-02 0.  1.
    10030    2    1    2    0    0  0.00000000000E+00  0.00000000000E+00 -0.18209152638E+03  0.12149219120E+04  0.12011985382E+04 0.  0.
        1    1    3    3  502    0  0.32237516365E+03  0.29557116810E+03  0.32527737242E+03  0.54506277674E+03  0.50400001928E-02 0.  1.
       -1    1    3    3    0  502 -0.32237516365E+03 -0.29557116810E+03 -0.50736889880E+03  0.66985913522E+03  0.50400001928E-02 0. -1.
</event>
<event>
 5   0  0.2499890E-03  0.1206129E+04  0.7818609E-02  0.9107508E-01
        2   -1    0    0  501    0  0.00000000000E+00  0.00000000000E+00  0.71540961256E+03  0.71540961257E+03  0.25500000920E-02 0.  1.
       -2   -1    0    0    0  501  0.00000000000E+00  0.00000000000E+00 -0.50836195979E+03  0.50836195980E+03  0.25500000920E-02 0. -1.
    10030    2    1    2    0    0  0.00000000000E+00  0.00000000000E+00  0.20704765277E+03  0.12237715724E+04  0.12061294005E+04 0.  0.
        5    1    3    3  502    0 -0.59353447109E+03  0.31740594555E+02  0.20686801170E+03  0.62937039808E+03  0.46999998093E+01 0. -1.
       -5    1    3    3    0  502  0.59353447109E+03 -0.31740594555E+02  0.17964106717E+00  0.59440117428E+03  0.46999998093E+01 0.  1.
</event>
<event>
 5   0  0.1469851E-03  0.1148994E+04  0.7818609E-02  0.9158713E-01
        1   -1    0    0  501    0  0.00000000000E+00  0.00000000000E+00  0.65655126809E+03  0.65655126811E+03  0.50400001928E-02 0. -1.
       -1   -1    0    0    0  501  0.00000000000E+00  0.00000000000E+00 -0.50269729868E+03  0.50269729871E+03  0.50400001928E-02 0.  1.
    10030    2    1    2    0    0  0.00000000000E+00  0.00000000000E+00  0.15385396941E+03  0.11592485668E+04  0.11489935578E+04 0.  0.
        5    1    3    3  502    0  0.19847292564E+03  0.59358851357E+01 -0.46695550477E+03  0.50744090334E+03  0.46999998093E+01 0.  1.
       -5    1    3    3    0  502 -0.19847292564E+03 -0.59358851357E+01  0.62080947418E+03  0.65180766348E+03  0.46999998093E+01 0. -1.
</event>
<event>
 5   0  0.2517023E-03  0.1191322E+04  0.7818609E-02  0.9120486E-01
        2   -1    0    0  501    0  0.00000000000E+00  0.00000000000E+00  0.95176175459E+03  0.95176175459E+03  0.25500000920E-02 0. -1.
       -2   -1    0    0    0  501  0.00000000000E+00  0.00000000000E+00 -0.37279529442E+03  0.37279529443E+03  0.25500000920E-02 0.  1.
    10030    2    1    2    0    0  0.00000000000E+00  0.00000000000E+00  0.57896646017E+03  0.13245570490E+04  0.11913224644E+04 0.  0.
        3    1    3    3  502    0 -0.33854589126E+03 -0.19209388826E+03  0.79079611031E+03  0.88140335867E+03  0.10100000352E+00 0. -1.
       -3    1    3    3    0  502  0.33854589126E+03  0.19209388826E+03 -0.21182965014E+03  0.44315369036E+03  0.10100000352E+00 0.  1.
</event>
<event>
 5   0  0.1423024E-03  0.1190440E+04  0.7818609E-02  0.9121266E-01
        1   -1    0    0  501    0  0.00000000000E+00  0.00000000000E+00  0.36550826214E+03  0.36550826218E+03  0.50400001928E-02 0. -1.
       -1   -1    0    0    0  501  0.00000000000E+00  0.00000000000E+00 -0.96929906017E+03  0.96929906019E+03  0.50400001928E-02 0.  1.
    10030    2    1    2    0    0  0.00000000000E+00  0.00000000000E+00 -0.60379079803E+03  0.13348073224E+04  0.11904399439E+04 0.  0.
        2    1    3    3  502    0 -0.27415777287E+03  0.52401477157E+03 -0.37738667257E+03  0.70155161313E+03  0.25500000920E-02 0.  1.
       -2    1    3    3    0  502  0.27415777287E+03 -0.52401477157E+03 -0.22640412546E+03  0.63325570923E+03  0.25500000920E-02 0. -1.
</event>
<event>
 5   0  0.1455076E-03  0.1199924E+04  0.7818609E-02  0.9112923E-01
        1   -1    0    0  501    0  0.00000000000E+00  0.00000000000E+00  0.64235605547E+03  0.64235605549E+03  0.50400001928E-02 0. -1.
       -1   -1    0    0    0  501  0.00000000000E+00  0.00000000000E+00 -0.56036632085E+03  0.56036632087E+03  0.50400001928E-02 0.  1.
    10030    2    1    2    0    0  0.00000000000E+00  0.00000000000E+00  0.81989734622E+02  0.12027223764E+04  0.11999244968E+04 0.  0.
        4    1    3    3  502    0  0.37166784057E+03 -0.35979673678E+03 -0.26362561546E+03  0.58059517182E+03  0.12699999809E+01 0.  1.
       -4    1    3    3    0  502 -0.37166784057E+03  0.35979673678E+03  0.34561535009E+03  0.62212720454E+03  0.12699999809E+01 0. -1.
</event>
<event>
 5   0  0.1404833E-03  0.1195978E+04  0.7818609E-02  0.9116384E-01
       -1   -1    0    0    0  501  0.00000000000E+00  0.00000000000E+00  0.26386769901E+03  0.26386769905E+03  0.50400001928E-02 0. -1.
        1   -1    0    0  501    0  0.00000000000E+00  0.00000000000E+00 -0.13551897559E+04  0.13551897559E+04  0.50400001928E-02 0.  1.
    10030    2    1    2    0    0  0.00000000000E+00  0.00000000000E+00 -0.10913220569E+04  0.16190574549E+04  0.11959779306E+04 0.  0.
        1    1    3    3  502    0 -0.68767526319E+02 -0.14601196830E+03 -0.13251475157E+04  0.13349398511E+04  0.50400001928E-02 0.  1.
       -1    1    3    3    0  502  0.68767526319E+02  0.14601196830E+03  0.23382545887E+03  0.28411760383E+03  0.50400001928E-02 0. -1.
</event>
<event>
 5   0  0.1455076E-03  0.1203720E+04  0.7818609E-02  0.9109607E-01
        1   -1    0    0  501    0  0.00000000000E+00  0.00000000000E+00  0.18574860184E+04  0.18574860184E+04  0.50400001928E-02 0. -1.
       -1   -1    0    0    0  501  0.00000000000E+00  0.00000000000E+00 -0.19501369252E+03  0.19501369259E+03  0.50400001928E-02 0.  1.
    10030    2    1    2    0    0  0.00000000000E+00  0.00000000000E+00  0.16624723259E+04  0.20524997110E+04  0.12037195808E+04 0.  0.
        4    1    3    3  502    0  0.83391832836E+01  0.40930421881E+03  0.15834949250E+04  0.16355602330E+04  0.12699999809E+01 0. -1.
       -4    1    3    3    0  502 -0.83391832836E+01 -0.40930421881E+03  0.78977400873E+02  0.41693947794E+03  0.12699999809E+01 0.  1.
</event>
<event>
 5   0  0.2484507E-03  0.1340215E+04  0.7818609E-02  0.8998268E-01
       -2   -1    0    0    0  501  0.00000000000E+00  0.00000000000E+00  0.22626110295E+03  0.22626110296E+03  0.25500000920E-02 0.  1.
        2   -1    0    0  501    0  0.00000000000E+00  0.00000000000E+00 -0.19846285171E+04  0.19846285171E+04  0.25500000920E-02 0. -1.
    10030    2    1    2    0    0  0.00000000000E+00  0.00000000000E+00 -0.17583674142E+04  0.22108896201E+04  0.13402152622E+04 0.  0.
        2    1    3    3  502    0 -0.44860555120E+03 -0.39546564158E+03 -0.38044206366E+03  0.70878500129E+03  0.25500000920E-02 0.  1.
       -2    1    3    3    0  502  0.44860555120E+03  0.39546564158E+03 -0.13779253505E+04  0.15021046188E+04  0.25500000920E-02 0. -1.
</event>
<event>
 5   0  0.2580244E-03  0.1200348E+04  0.7818609E-02  0.9112552E-01
        2   -1    0    0  501    0  0.00000000000E+00  0.00000000000E+00  0.40334827385E+03  0.40334827386E+03  0.25500000920E-02 0.  1.
       -2   -1    0    0    0  501  0.00000000000E+00  0.00000000000E+00 -0.89304642799E+03  0.89304642799E+03  0.25500000920E-02 0. -1.
    10030    2    1    2    0    0  0.00000000000E+00  0.00000000000E+00 -0.48969815414E+03  0.12963947018E+04  0.12003478416E+04 0.  0.
        1    1    3    3  502    0 -0.37012471410E+03  0.35924802054E+03 -0.57625259091E+03  0.77338120795E+03  0.50400001928E-02 0. -1.
       -1    1    3    3    0  502  0.37012471410E+03 -0.35924802054E+03  0.86554436777E+02  0.52301349390E+03  0.50400001928E-02 0.  1.
</event>
<event>
 5   0  0.2517023E-03  0.1188703E+04  0.7818609E-02  0.9122803E-01
       -2   -1    0    0    0  501  0.00000000000E+00  0.00000000000E+00  0.14412468699E+03  0.14412468702E+03  0.25500000920E-02 0.  1.
        2   -1    0    0  501    0  0.00000000000E+00  0.00000000000E+00 -0.24510281144E+04  0.24510281144E+04  0.25500000920E-02 0. -1.
    10030    2    1    2    0    0  0.00000000000E+00  0.00000000000E+00 -0.23069034274E+04  0.25951528014E+04  0.11887029231E+04 0.  0.
        3    1    3    3  502    0  0.19097895883E+03 -0.24488932021E+03 -0.47094197166E+02  0.31410446586E+03  0.10100000352E+00 0.  1.
       -3    1    3    3    0  502 -0.19097895883E+03  0.24488932021E+03 -0.22598092302E+04  0.22810483355E+04  0.10100000352E+00 0. -1.
</event>
<event>
 5   0  0.2580244E-03  0.1211556E+04  0.7818609E-02  0.9102801E-01
        2   -1    0    0  501    0  0.00000000000E+00  0.00000000000E+00  0.44003779598E+03  0.44003779598E+03  0.25500000920E-02 0.  1.
       -2   -1    0    0    0  501  0.00000000000E+00  0.00000000000E+00 -0.83394436605E+03  0.83394436605E+03  0.25500000920E-02 0. -1.
    10030    2    1    2    0    0  0.00000000000E+00  0.00000000000E+00 -0.39390657007E+03  0.12739821620E+04  0.12115560917E+04 0.  0.
        1    1    3    3  502    0 -0.36292088588E+03 -0.24135009867E+03  0.24544488963E+03  0.50020459155E+03  0.50400001928E-02 0.  1.
       -1    1    3    3    0  502  0.36292088588E+03  0.24135009867E+03 -0.63935145970E+03  0.77377757048E+03  0.50400001928E-02 0. -1.
</event>
<event>
 5   0  0.2579442E-03  0.1182394E+04  0.7818609E-02  0.9128408E-01
       -2   -1    0    0    0  501  0.00000000000E+00  0.00000000000E+00  0.91319534500E+03  0.91319534501E+03  0.25500000920E-02 0. -1.
        2   -1    0    0  501    0  0.00000000000E+00  0.00000000000E+00 -0.38273733590E+03  0.38273733591E+03  0.25500000920E-02 0.  1.
    10030    2    1    2    0    0  0.00000000000E+00  0.00000000000E+00  0.53045800910E+03  0.12959326809E+04  0.11823941027E+04 0.  0.
        4    1    3    3  502    0 -0.17452346288E+03 -0.44254376734E+03  0.64994589567E+03  0.80544069012E+03  0.12699999809E+01 0.  1.
       -4    1    3    3    0  502  0.17452346288E+03  0.44254376734E+03 -0.11948788656E+03  0.49049199080E+03  0.12699999809E+01 0. -1.
</event>
<event>
 5   0  0.1403154E-03  0.1210678E+04  0.7818609E-02  0.9103561E-01
       -1   -1    0    0    0  501  0.00000000000E+00  0.00000000000E+00  0.42470271804E+03  0.42470271807E+03  0.50400001928E-02 0.  1.
        1   -1    0    0  501    0  0.00000000000E+00  0.00000000000E+00 -0.86280372647E+03  0.86280372649E+03  0.50400001928E-02 0. -1.
    10030    2    1    2    0    0  0.00000000000E+00  0.00000000000E+00 -0.43810100844E+03  0.12875064446E+04  0.12106776413E+04 0.  0.
        3    1    3    3  502    0 -0.49458038457E+03 -0.33532832173E+03 -0.11605273815E+03  0.60870607718E+03  0.10100000352E+00 0.  1.
       -3    1    3    3    0  502  0.49458038457E+03  0.33532832173E+03 -0.32204827028E+03  0.67880036738E+03  0.10100000352E+00 0. -1.
</event>
<event>
 5   0  0.1404833E-03  0.1192112E+04  0.7818609E-02  0.9119789E-01
        1   -1    0    0  501    0  0.00000000000E+00  0.00000000000E+00  0.19601505726E+04  0.19601505726E+04  0.50400001928E-02 0. -1.
       -1   -1    0    0    0  501  0.00000000000E+00  0.00000000000E+00 -0.18125270503E+03  0.18125270510E+03  0.50400001928E-02 0.  1.
    10030    2    1    2    0    0  0.00000000000E+00  0.00000000000E+00  0.17788978676E+04  0.21414032777E+04  0.11921117291E+04 0.  0.
        1    1    3    3  502    0 -0.19738111937E+03  0.53505291131E+03  0.57810275959E+03  0.81206140461E+03  0.50400001928E-02 0.  1.
       -1    1    3    3    0  502  0.19738111937E+03 -0.53505291131E+03  0.12007951080E+04  0.13293418731E+04  0.50400001928E-02 0. -1.
</event>
<event>
 5   0  0.1469851E-03  0.1193764E+04  0.7818609E-02  0.9118332E-01
        1   -1    0    0  501    0  0.00000000000E+00  0.00000000000E+00  0.71676111453E+03  0.71676111455E+03  0.50400001928E-02 0. -1.
       -1   -1    0    0    0  501  0.00000000000E+00  0.00000000000E+00 -0.49705317591E+03  0.49705317594E+03  0.50400001928E-02 0.  1.
    10030    2    1    2    0    0  0.00000000000E+00  0.00000000000E+00  0.21970793862E+03  0.12138142905E+04  0.11937644464E+04 0.  0.
        5    1    3    3  502    0 -0.53336556401E+03 -0.23886932108E+03 -0.13463332282E+02  0.58458594641E+03  0.46999998093E+01 0.  1.
       -5    1    3    3    0  502  0.53336556401E+03  0.23886932108E+03  0.23317127090E+03  0.62922834408E+03  0.46999998093E+01 0. -1.
</event>
<event>
 5   0  0.1404833E-03  0.1183987E+04  0.7818609E-02  0.9126989E-01
        1   -1    0    0  501    0  0.00000000000E+00  0.00000000000E+00  0.79044227442E+03  0.79044227444E+03  0.50400001928E-02 0.  1.
       -1   -1    0    0    0  501  0.00000000000E+00  0.00000000000E+00 -0.44336767836E+03  0.44336767839E+03  0.50400001928E-02 0. -1.
    10030    2    1    2    0    0  0.00000000000E+00  0.00000000000E+00  0.34707459605E+03  0.12338099528E+04  0.11839874258E+04 0.  0.
        1    1    3    3  502    0  0.18965338692E+03  0.56070602951E+03  0.18379516908E+03  0.61979054760E+03  0.50400001928E-02 0.  1.
       -1    1    3    3    0  502 -0.18965338692E+03 -0.56070602951E+03  0.16327942697E+03  0.61401940522E+03  0.50400001928E-02 0. -1.
</event>
<event>
 5   0  0.1455076E-03  0.1202635E+04  0.7818609E-02  0.9110553E-01
        1   -1    0    0  501    0  0.00000000000E+00  0.00000000000E+00  0.13791839501E+04  0.13791839501E+04  0.50400001928E-02 0.  1.
       -1   -1    0    0    0  501  0.00000000000E+00  0.00000000000E+00 -0.26217159660E+03  0.26217159664E+03  0.50400001928E-02 0. -1.
    10030    2    1    2    0    0  0.00000000000E+00  0.00000000000E+00  0.11170123535E+04  0.16413555468E+04  0.12026352036E+04 0.  0.
        4    1    3    3  502    0  0.18249612824E+03  0.56085154751E+03  0.39863260645E+03  0.71187699990E+03  0.12699999809E+01 0.  1.
       -4    1    3    3    0  502 -0.18249612824E+03 -0.56085154751E+03  0.71837974706E+03  0.92947854685E+03  0.12699999809E+01 0. -1.
</event>
<event>
 5   0  0.1403154E-03  0.1194801E+04  0.7818609E-02  0.9117420E-01
        1   -1    0    0  501    0  0.00000000000E+00  0.00000000000E+00  0.19773366431E+03  0.19773366438E+03  0.50400001928E-02 0. -1.
       -1   -1    0    0    0  501  0.00000000000E+00  0.00000000000E+00 -0.18048878020E+04  0.18048878021E+04  0.50400001928E-02 0.  1.
    10030    2    1    2    0    0  0.00000000000E+00  0.00000000000E+00 -0.16071541377E+04  0.20026214664E+04  0.11948005337E+04 0.  0.
        3    1    3    3  502    0  0.11731807388E+03  0.32493100088E+03 -0.16204884143E+04  0.16569026516E+04  0.10100000352E+00 0.  1.
       -3    1    3    3    0  502 -0.11731807388E+03 -0.32493100088E+03  0.13334276575E+02  0.34571881483E+03  0.10100000352E+00 0. -1.
</event>
<event>
 5   0  0.2579442E-03  0.1204630E+04  0.7818609E-02  0.9108814E-01
       -2   -1    0    0    0  501  0.00000000000E+00  0.00000000000E+00  0.25405019728E+03  0.25405019729E+03  0.25500000920E-02 0. -1.
        2   -1    0    0  501    0  0.00000000000E+00  0.00000000000E+00 -0.14279986096E+04  0.14279986096E+04  0.25500000920E-02 0.  1.
    10030    2    1    2    0    0  0.00000000000E+00  0.00000000000E+00 -0.11739484123E+04  0.16820488069E+04  0.12046299490E+04 0.  0.
        4    1    3    3  502    0 -0.11660516756E+03 -0.14788065705E+03  0.21188221123E+03  0.28348040174E+03  0.12699999809E+01 0. -1.
       -4    1    3    3    0  502  0.11660516756E+03  0.14788065705E+03 -0.13858306235E+04  0.13985684051E+04  0.12699999809E+01 0.  1.
</event>
<event>
 5   0  0.1423024E-03  0.1211968E+04  0.7818609E-02  0.9102445E-01
       -1   -1    0    0    0  501  0.00000000000E+00  0.00000000000E+00  0.74803782852E+03  0.74803782854E+03  0.50400001928E-02 0. -1.
        1   -1    0    0  501    0  0.00000000000E+00  0.00000000000E+00 -0.49090622839E+03  0.49090622842E+03  0.50400001928E-02 0.  1.
    10030    2    1    2    0    0  0.00000000000E+00  0.00000000000E+00  0.25713160013E+03  0.12389440570E+04  0.12119677044E+04 0.  0.
        2    1    3    3  502    0  0.38895241580E+03 -0.23436674207E+03 -0.28161931481E+03  0.53434182882E+03  0.25500000920E-02 0.  1.
       -2    1    3    3    0  502 -0.38895241580E+03  0.23436674207E+03  0.53875091494E+03  0.70460222814E+03  0.25500000920E-02 0. -1.
</event>
<event>
 5   0  0.1403154E-03  0.1232799E+04  0.7818609E-02  0.9084622E-01
        1   -1    0    0  501    0  0.00000000000E+00  0.00000000000E+00  0.82756235486E+03  0.82756235488E+03  0.50400001928E-02 0. -1.
       -1   -1    0    0    0  501  0.00000000000E+00  0.00000000000E+00 -0.45911774845E+03  0.45911774848E+03  0.50400001928E-02 0.  1.
    10030    2    1    2    0    0  0.00000000000E+00  0.00000000000E+00  0.36844460641E+03  0.12866801034E+04  0.12327993593E+04 0.  0.
        3    1    3    3  502    0  0.50033003531E+02 -0.34299091568E+03 -0.34776324660E+03  0.49100443538E+03  0.10100000352E+00 0.  1.
       -3    1    3    3    0  502 -0.50033003531E+02  0.34299091568E+03  0.71620785302E+03  0.79567566797E+03  0.10100000352E+00 0. -1.
</event>
<event>
 5   0  0.2499890E-03  0.1258566E+04  0.7818609E-02  0.9063084E-01
       -2   -1    0    0    0  501  0.00000000000E+00  0.00000000000E+00  0.12152578659E+04  0.12152578659E+04  0.25500000920E-02 0. -1.
        2   -1    0    0  501    0  0.00000000000E+00  0.00000000000E+00 -0.32585425939E+03  0.32585425940E+03  0.25500000920E-02 0.  1.
    10030    2    1    2    0    0  0.00000000000E+00  0.00000000000E+00  0.88940360647E+03  0.15411121253E+04  0.12585657740E+04 0.  0.
        5    1    3    3  502    0 -0.53543257653E+03  0.13897388630E+03  0.81199645650E+03  0.98252843239E+03  0.46999998093E+01 0. -1.
       -5    1    3    3    0  502  0.53543257653E+03 -0.13897388630E+03  0.77407149972E+02  0.55858369288E+03  0.46999998093E+01 0.  1.
</event>
<event>
 5   0  0.1423024E-03  0.1201868E+04  0.7818609E-02  0.9111223E-01
        1   -1    0    0  501    0  0.00000000000E+00  0.00000000000E+00  0.52693644529E+03  0.52693644532E+03  0.50400001928E-02 0.  1.
       -1   -1    0    0    0  501  0.00000000000E+00  0.00000000000E+00 -0.68532256051E+03  0.68532256053E+03  0.50400001928E-02 0. -1.
    10030    2    1    2    0    0  0.00000000000E+00  0.00000000000E+00 -0.15838611522E+03  0.12122590058E+04  0.12018676033E+04 0.  0.
        2    1    3    3  502    0  0.42318481530E+03  0.41707715141E+03 -0.16987418428E+03  0.61797732695E+03  0.25500000920E-02 0. -1.
       -2    1    3    3    0  502 -0.42318481530E+03 -0.41707715141E+03  0.11488069057E+02  0.59428167889E+03  0.25500000920E-02 0.  1.
</event>
<event>
 5   0  0.1403154E-03  0.1203848E+04  0.7818609E-02  0.9109495E-01
       -1   -1    0    0    0  501  0.00000000000E+00  0.00000000000E+00  0.73035815730E+03  0.73035815732E+03  0.50400001928E-02 0. -1.
        1   -1    0    0  501    0  0.00000000000E+00  0.00000000000E+00 -0.49607488732E+03  0.49607488734E+03  0.50400001928E-02 0.  1.
    10030    2    1    2    0    0  0.00000000000E+00  0.00000000000E+00  0.23428326998E+03  0.12264330447E+04  0.12038477322E+04 0.  0.
        3    1    3    3  502    0 -0.32905886268E+03  0.40466519129E+02  0.62895627743E+03  0.71098754096E+03  0.10100000352E+00 0. -1.
       -3    1    3    3    0  502  0.32905886268E+03 -0.40466519129E+02 -0.39467300745E+03  0.51544550370E+03  0.10100000352E+00 0.  1.
</event>
<event>
 5   0  0.1469851E-03  0.1203086E+04  0.7818609E-02  0.9110160E-01
       -1   -1    0    0    0  501  0.00000000000E+00  0.00000000000E+00  0.49578352963E+03  0.49578352966E+03  0.50400001928E-02 0.  1.
        1   -1    0    0  501    0  0.00000000000E+00  0.00000000000E+00 -0.72986274964E+03  0.72986274966E+03  0.50400001928E-02 0. -1.
    10030    2    1    2    0    0  0.00000000000E+00  0.00000000000E+00 -0.23407922001E+03  0.12256462793E+04  0.12030859158E+04 0.  0.
        5    1    3    3  502    0  0.18859171233E+03 -0.41072324599E+03 -0.52143596729E+03  0.69005650257E+03  0.46999998093E+01 0. -1.
       -5    1    3    3    0  502 -0.18859171233E+03  0.41072324599E+03  0.28735674728E+03  0.53558977675E+03  0.46999998093E+01 0.  1.
</event>
<event>
 5   0  0.2484507E-03  0.1207223E+04  0.7818609E-02  0.9106557E-01
       -2   -1    0    0    0  501  0.00000000000E+00  0.00000000000E+00  0.12194654669E+04  0.12194654669E+04  0.25500000920E-02 0. -1.
        2   -1    0    0  501    0  0.00000000000E+00  0.00000000000E+00 -0.29877603143E+03  0.29877603144E+03  0.25500000920E-02 0.  1.
    10030    2    1    2    0    0  0.00000000000E+00  0.00000000000E+00  0.92068943544E+03  0.15182414983E+04  0.12072233475E+04 0.  0.
        2    1    3    3  502    0  0.19769130644E+03  0.32157702052E+03  0.10527054970E+04  0.11183391686E+04  0.25500000920E-02 0. -1.
       -2    1    3    3    0  502 -0.19769130644E+03 -0.32157702052E+03 -0.13201606152E+03  0.39990232967E+03  0.25500000920E-02 0.  1.
</event>
<event>
 5   0  0.2484507E-03  0.1138572E+04  0.7818609E-02  0.9168392E-01
       -2   -1    0    0    0  501  0.00000000000E+00  0.00000000000E+00  0.36923662188E+03  0.36923662189E+03  0.25500000920E-02 0. -1.
        2   -1    0    0  501    0  0.00000000000E+00  0.00000000000E+00 -0.87772054934E+03  0.87772054934E+03  0.25500000920E-02 0.  1.
    10030    2    1    2    0    0  0.00000000000E+00  0.00000000000E+00 -0.50848392746E+03  0.12469571712E+04  0.11385720365E+04 0.  0.
        2    1    3    3  502    0 -0.28575388400E+03 -0.51599126504E+02 -0.79051674637E+03  0.84216060130E+03  0.25500000920E-02 0.  1.
       -2    1    3    3    0  502  0.28575388400E+03  0.51599126504E+02  0.28203281892E+03  0.40479656993E+03  0.25500000920E-02 0. -1.
</event>
<event>
 5   0  0.2499890E-03  0.1192057E+04  0.7818609E-02  0.9119837E-01
        2   -1    0    0  501    0  0.00000000000E+00  0.00000000000E+00  0.15817621482E+04  0.15817621482E+04  0.25500000920E-02 0. -1.
       -2   -1    0    0    0  501  0.00000000000E+00  0.00000000000E+00 -0.22459140491E+03  0.22459140492E+03  0.25500000920E-02 0.  1.
    10030    2    1    2    0    0  0.00000000000E+00  0.00000000000E+00  0.13571707433E+04  0.18063535531E+04  0.11920573528E+04 0.  0.
        5    1    3    3  502    0 -0.47937669403E+02  0.21755806174E+03  0.15162713779E+04  0.15325568543E+04  0.46999998093E+01 0. -1.
       -5    1    3    3    0  502  0.47937669403E+02 -0.21755806174E+03 -0.15910063456E+03  0.27379669883E+03  0.46999998093E+01 0.  1.
</event>
<event>
 5   0  0.2579442E-03  0.1197806E+04  0.7818609E-02  0.9114779E-01
        2   -1    0    0  501    0  0.00000000000E+00  0.00000000000E+00  0.11456966885E+04  0.11456966885E+04  0.25500000920E-02 0.  1.
       -2   -1    0    0    0  501  0.00000000000E+00  0.00000000000E+00 -0.31307151106E+03  0.31307151107E+03  0.25500000920E-02 0. -1.
    10030    2    1    2    0    0  0.00000000000E+00  0.00000000000E+00  0.83262517748E+03  0.14587681996E+04  0.11978063174E+04 0.  0.
        4    1    3    3  502    0 -0.48585279124E+03 -0.30872089759E+03  0.21500749457E+03  0.61448463202E+03  0.12699999809E+01 0. -1.
       -4    1    3    3    0  502  0.48585279124E+03  0.30872089759E+03  0.61761768291E+03  0.84428356759E+03  0.12699999809E+01 0.  1.
</event>
<event>
 5   0  0.1404833E-03  0.1198860E+04  0.7818609E-02  0.9113855E-01
       -1   -1    0    0    0  501  0.00000000000E+00  0.00000000000E+00  0.75869373629E+03  0.75869373630E+03  0.50400001928E-02 0.  1.
        1   -1    0    0  501    0  0.00000000000E+00  0.00000000000E+00 -0.47359850796E+03  0.47359850799E+03  0.50400001928E-02 0. -1.
    10030    2    1    2    0    0  0.00000000000E+00  0.00000000000E+00  0.28509522833E+03  0.12322922443E+04  0.11988598276E+04 0.  0.
        1    1    3    3  502    0 -0.16433316802E+03  0.12545710157E+03 -0.43578956122E+03  0.48234574336E+03  0.50400001928E-02 0. -1.
       -1    1    3    3    0  502  0.16433316802E+03 -0.12545710157E+03  0.72088478954E+03  0.74994650093E+03  0.50400001928E-02 0.  1.
</event>
<event>
 5   0  0.2579442E-03  0.1204368E+04  0.7818609E-02  0.9109042E-01
       -2   -1    0    0    0  501  0.00000000000E+00  0.00000000000E+00  0.21410780166E+03  0.21410780168E+03  0.25500000920E-02 0. -1.
        2   -1    0    0  501    0  0.00000000000E+00  0.00000000000E+00 -0.16936597743E+04  0.16936597743E+04  0.25500000920E-02 0.  1.
    10030    2    1    2    0    0  0.00000000000E+00  0.00000000000E+00 -0.14795519727E+04  0.19077675760E+04  0.12043683341E+04 0.  0.
        4    1    3    3  502    0 -0.12186079809E+03  0.35005860177E+01 -0.16739055215E+04  0.16783395414E+04  0.12699999809E+01 0.  1.
       -4    1    3    3    0  502  0.12186079809E+03 -0.35005860177E+01  0.19435354887E+03  0.22942803463E+03  0.12699999809E+01 0. -1.
</event>
<event>
 5   0  0.1455076E-03  0.1137526E+04  0.7818609E-02  0.9169369E-01
        1   -1    0    0  501    0  0.00000000000E+00  0.00000000000E+00  0.81910065200E+03  0.81910065201E+03  0.50400001928E-02 0. -1.
       -1   -1    0    0    0  501  0.00000000000E+00  0.00000000000E+00 -0.39493500774E+03  0.39493500777E+03  0.50400001928E-02 0.  1.
    10030    2    1    2    0    0  0.00000000000E+00  0.00000000000E+00  0.42416564426E+03  0.12140356598E+04  0.11375263028E+04 0.  0.
        4    1    3    3  502    0 -0.23224154186E+03  0.87129729085E+02  0.75833011644E+03  0.79786834869E+03  0.12699999809E+01 0. -1.
       -4    1    3    3    0  502  0.23224154186E+03 -0.87129729085E+02 -0.33416447217E+03  0.41616731109E+03  0.12699999809E+01 0.  1.
</event>
<event>
 5   0  0.2580244E-03  0.1127844E+04  0.7818609E-02  0.9178470E-01
       -2   -1    0    0    0  501  0.00000000000E+00  0.00000000000E+00  0.12325255056E+04  0.12325255056E+04  0.25500000920E-02 0. -1.
        2   -1    0    0  501    0  0.00000000000E+00  0.00000000000E+00 -0.25801339405E+03  0.25801339406E+03  0.25500000920E-02 0.  1.
    10030    2    1    2    0    0  0.00000000000E+00  0.00000000000E+00  0.97451211155E+03  0.14905388997E+04  0.11278441186E+04 0.  0.
        1    1    3    3  502    0  0.39877916636E+02  0.53486985870E+03  0.71742424218E+03  0.89575306713E+03  0.50400001928E-02 0.  1.
       -1    1    3    3    0  502 -0.39877916636E+02 -0.53486985870E+03  0.25708786937E+03  0.59478583254E+03  0.50400001928E-02 0. -1.
</event>
<event>
 5   0  0.1403154E-03  0.1205854E+04  0.7818609E-02  0.9107748E-01
       -1   -1    0    0    0  501  0.00000000000E+00  0.00000000000E+00  0.66546803408E+03  0.66546803410E+03  0.50400001928E-02 0. -1.
        1   -1    0    0  501    0  0.00000000000E+00  0.00000000000E+00 -0.54626404642E+03  0.54626404644E+03  0.50400001928E-02 0.  1.
    10030    2    1    2    0    0  0.00000000000E+00  0.00000000000E+00  0.11920398766E+03  0.12117320805E+04  0.12058544872E+04 0.  0.
        3    1    3    3  502    0 -0.46955723673E+03 -0.97083779929E+02  0.42691340577E+03  0.64200025321E+03  0.10100000352E+00 0. -1.
       -3    1    3    3    0  502  0.46955723673E+03  0.97083779929E+02 -0.30770941811E+03  0.56973182734E+03  0.10100000352E+00 0.  1.
</event>
<event>
 5   0  0.2517023E-03  0.1206516E+04  0.7818609E-02  0.9107172E-01
       -2   -1    0    0    0  501  0.00000000000E+00  0.00000000000E+00  0.51271631597E+03  0.51271631598E+03  0.25500000920E-02 0.  1.
        2   -1    0    0  501    0  0.00000000000E+00  0.00000000000E+00 -0.70978840201E+03  0.70978840201E+03  0.25500000920E-02 0. -1.
    10030    2    1    2    0    0  0.00000000000E+00  0.00000000000E+00 -0.19707208604E+03  0.12225047180E+04  0.12065158011E+04 0.  0.
        3    1    3    3  502    0 -0.23804958668E+03 -0.50418349444E+02  0.46078507547E+03  0.52108781569E+03  0.10100000352E+00 0.  1.
       -3    1    3    3    0  502  0.23804958668E+03  0.50418349444E+02 -0.65785716151E+03  0.70141690230E+03  0.10100000352E+00 0. -1.
</event>
<event>
 5   0  0.1469851E-03  0.1198483E+04  0.7818609E-02  0.9114186E-01
        1   -1    0    0  501    0  0.00000000000E+00  0.00000000000E+00  0.10344883953E+04  0.10344883953E+04  0.50400001928E-02 0.  1.
       -1   -1    0    0    0  501  0.00000000000E+00  0.00000000000E+00 -0.34711871134E+03  0.34711871137E+03  0.50400001928E-02 0. -1.
    10030    2    1    2    0    0  0.00000000000E+00  0.00000000000E+00  0.68736968398E+03  0.13816071067E+04  0.11984828388E+04 0.  0.
        5    1    3    3  502    0  0.38450005898E+03  0.23782196890E+01  0.87349777827E+03  0.95439321557E+03  0.46999998093E+01 0.  1.
       -5    1    3    3    0  502 -0.38450005898E+03 -0.23782196890E+01 -0.18612809430E+03  0.42721389113E+03  0.46999998093E+01 0. -1.
</event>
<event>
 5   0  0.2580244E-03  0.1198072E+04  0.7818609E-02  0.9114546E-01
        2   -1    0    0  501    0  0.00000000000E+00  0.00000000000E+00  0.76319937820E+03  0.76319937820E+03  0.25500000920E-02 0.  1.
       -2   -1    0    0    0  501  0.00000000000E+00  0.00000000000E+00 -0.47018407726E+03  0.47018407727E+03  0.25500000920E-02 0. -1.
    10030    2    1    2    0    0  0.00000000000E+00  0.00000000000E+00  0.29301530093E+03  0.12333834555E+04  0.11980721104E+04 0.  0.
        1    1    3    3  502    0  0.15012352361E+02 -0.11334858485E+03  0.75186162013E+03  0.76050586340E+03  0.50400001928E-02 0.  1.
       -1    1    3    3    0  502 -0.15012352361E+02  0.11334858485E+03 -0.45884631920E+03  0.47287759207E+03  0.50400001928E-02 0. -1.
</event>
<event>
 5   0  0.2517023E-03  0.1208248E+04  0.7818609E-02  0.9105668E-01
       -2   -1    0    0    0  501  0.00000000000E+00  0.00000000000E+00  0.57019666334E+03  0.57019666335E+03  0.25500000920E-02 0.  1.
        2   -1    0    0  501    0  0.00000000000E+00  0.00000000000E+00 -0.64006968190E+03  0.64006968191E+03  0.25500000920E-02 0. -1.
    10030    2    1    2    0    0  0.00000000000E+00  0.00000000000E+00 -0.69873018561E+02  0.12102663453E+04  0.12082476517E+04 0.  0.
        3    1    3    3  502    0 -0.24931348576E+03  0.19656786744E+03  0.47989638760E+03  0.57541002227E+03  0.10100000352E+00 0.  1.
       -3    1    3    3    0  502  0.24931348576E+03 -0.19656786744E+03 -0.54976940616E+03  0.63485632299E+03  0.10100000352E+00 0. -1.
</event>
<event>
 5   0  0.1469851E-03  0.1194254E+04  0.7818609E-02  0.9117901E-01
        1   -1    0    0  501    0  0.00000000000E+00  0.00000000000E+00  0.12390276299E+04  0.12390276299E+04  0.50400001928E-02 0. -1.
       -1   -1    0    0    0  501  0.00000000000E+00  0.00000000000E+00 -0.28777444334E+03  0.28777444338E+03  0.50400001928E-02 0.  1.
    10030    2    1    2    0    0  0.00000000000E+00  0.00000000000E+00  0.95125318659E+03  0.15268020733E+04  0.11942537193E+04 0.  0.
        5    1    3    3  502    0  0.14927250357E+03 -0.24613444561E+03  0.11444367650E+04  0.11800940830E+04  0.46999998093E+01 0. -1.
       -5    1    3    3    0  502 -0.14927250357E+03  0.24613444561E+03 -0.19318357836E+03  0.34670799037E+03  0.46999998093E+01 0.  1.
</event>
<event>
 5   0  0.1455076E-03  0.1195044E+04  0.7818609E-02  0.9117206E-01
        1   -1    0    0  501    0  0.00000000000E+00  0.00000000000E+00  0.72178402594E+03  0.72178402596E+03  0.50400001928E-02 0.  1.
       -1   -1    0    0    0  501  0.00000000000E+00  0.00000000000E+00 -0.49465255725E+03  0.49465255727E+03  0.50400001928E-02 0. -1.
    10030    2    1    2    0    0  0.00000000000E+00  0.00000000000E+00  0.22713146869E+03  0.12164365832E+04  0.11950436214E+04 0.  0.
        4    1    3    3  502    0 -0.32998289944E+03 -0.40903282295E+03 -0.17583732511E+03  0.55418132590E+03  0.12699999809E+01 0.  1.
       -4    1    3    3    0  502  0.32998289944E+03  0.40903282295E+03  0.40296879380E+03  0.66225525733E+03  0.12699999809E+01 0. -1.
</event>
<event>
 5   0  0.1423024E-03  0.1207432E+04  0.7818609E-02  0.9106376E-01
       -1   -1    0    0    0  501  0.00000000000E+00  0.00000000000E+00  0.61024479523E+03  0.61024479525E+03  0.50400001928E-02 0. -1.
        1   -1    0    0  501    0  0.00000000000E+00  0.00000000000E+00 -0.59725721726E+03  0.59725721728E+03  0.50400001928E-02 0.  1.
    10030    2    1    2    0    0  0.00000000000E+00  0.00000000000E+00  0.12987577968E+02  0.12075020125E+04  0.12074321650E+04 0.  0.
        2    1    3    3  502    0  0.24715766097E+03  0.34617899401E+03  0.43494161449E+03  0.60835927978E+03  0.25500000920E-02 0. -1.
       -2    1    3    3    0  502 -0.24715766097E+03 -0.34617899401E+03 -0.42195403652E+03  0.59914273276E+03  0.25500000920E-02 0.  1.
</event>
<event>
 5   0  0.2579442E-03  0.1194358E+04  0.7818609E-02  0.9117809E-01
        2   -1    0    0  501    0  0.00000000000E+00  0.00000000000E+00  0.84704674439E+03  0.84704674440E+03  0.25500000920E-02 0. -1.
       -2   -1    0    0    0  501  0.00000000000E+00  0.00000000000E+00 -0.42101915554E+03  0.42101915555E+03  0.25500000920E-02 0.  1.
    10030    2    1    2    0    0  0.00000000000E+00  0.00000000000E+00  0.42602758885E+03  0.12680658999E+04  0.11943582462E+04 0.  0.
        4    1    3    3  502    0 -0.48317906139E+03  0.41011843214E+02  0.58305901942E+03  0.75835572766E+03  0.12699999809E+01 0. -1.
       -4    1    3    3    0  502  0.48317906139E+03 -0.41011843214E+02 -0.15703143057E+03  0.50971017229E+03  0.12699999809E+01 0.  1.
</event>
<event>
 5   0  0.2580244E-03  0.1197718E+04  0.7818609E-02  0.9114856E-01
       -2   -1    0    0    0  501  0.00000000000E+00  0.00000000000E+00  0.79977856425E+03  0.79977856425E+03  0.25500000920E-02 0.  1.
        2   -1    0    0  501    0  0.00000000000E+00  0.00000000000E+00 -0.44841458550E+03  0.44841458551E+03  0.25500000920E-02 0. -1.
    10030    2    1    2    0    0  0.00000000000E+00  0.00000000000E+00  0.35136397875E+03  0.12481931498E+04  0.11977184534E+04 0.  0.
        1    1    3    3  502    0  0.58012699410E+03  0.89599209244E+02  0.29924081580E+03  0.65887814764E+03  0.50400001928E-02 0.  1.
       -1    1    3    3    0  502 -0.58012699410E+03 -0.89599209244E+02  0.52123162952E+02  0.58931500212E+03  0.50400001928E-02 0. -1.
</event>
<event>
 5   0  0.1404833E-03  0.1196573E+04  0.7818609E-02  0.9115862E-01
       -1   -1    0    0    0  501  0.00000000000E+00  0.00000000000E+00  0.29555497623E+03  0.29555497627E+03  0.50400001928E-02 0. -1.
        1   -1    0    0  501    0  0.00000000000E+00  0.00000000000E+00 -0.12111001091E+04  0.12111001091E+04  0.50400001928E-02 0.  1.
    10030    2    1    2    0    0  0.00000000000E+00  0.00000000000E+00 -0.91554513288E+03  0.15066550854E+04  0.11965728795E+04 0.  0.
        1    1    3    3  502    0  0.30495416695E+03  0.39465028903E+03 -0.41682319958E+02  0.50048307703E+03  0.50400001928E-02 0. -1.
       -1    1    3    3    0  502 -0.30495416695E+03 -0.39465028903E+03 -0.87386281293E+03  0.10061720084E+04  0.50400001928E-02 0.  1.
</event>
<event>
 5   0  0.2499890E-03  0.1193333E+04  0.7818609E-02  0.9118712E-01
       -2   -1    0    0    0  501  0.00000000000E+00  0.00000000000E+00  0.23300407060E+03  0.23300407062E+03  0.25500000920E-02 0. -1.
        2   -1    0    0  501    0  0.00000000000E+00  0.00000000000E+00 -0.15279171930E+04  0.15279171930E+04  0.25500000920E-02 0.  1.
    10030    2    1    2    0    0  0.00000000000E+00  0.00000000000E+00 -0.12949131224E+04  0.17609212636E+04  0.11933330223E+04 0.  0.
        5    1    3    3  502    0 -0.48670019805E+03  0.25735687869E+03 -0.30812779743E+03  0.63093143474E+03  0.46999998093E+01 0. -1.
       -5    1    3    3    0  502  0.48670019805E+03 -0.25735687869E+03 -0.98678532492E+03  0.11299898288E+04  0.46999998093E+01 0.  1.
</event>
<event>
 5   0  0.1455076E-03  0.1254306E+04  0.7818609E-02  0.9066607E-01
        1   -1    0    0  501    0  0.00000000000E+00  0.00000000000E+00  0.65421841806E+03  0.65421841807E+03  0.50400001928E-02 0. -1.
       -1   -1    0    0    0  501  0.00000000000E+00  0.00000000000E+00 -0.60120710057E+03  0.60120710059E+03  0.50400001928E-02 0.  1.
    10030    2    1    2    0    0  0.00000000000E+00  0.00000000000E+00  0.53011317490E+02  0.12554255187E+04  0.12543057973E+04 0.  0.
        4    1    3    3  502    0 -0.14160118084E+03  0.54096287000E+03 -0.25769750985E+03  0.61571205982E+03  0.12699999809E+01 0.  1.
       -4    1    3    3    0  502  0.14160118084E+03 -0.54096287000E+03  0.31070882734E+03  0.63971345884E+03  0.12699999809E+01 0. -1.
</event>
<event>
 5   0  0.1403154E-03  0.1197382E+04  0.7818609E-02  0.9115151E-01
       -1   -1    0    0    0  501  0.00000000000E+00  0.00000000000E+00  0.55579074445E+03  0.55579074448E+03  0.50400001928E-02 0. -1.
        1   -1    0    0  501    0  0.00000000000E+00  0.00000000000E+00 -0.64490275049E+03  0.64490275051E+03  0.50400001928E-02 0.  1.
    10030    2    1    2    0    0  0.00000000000E+00  0.00000000000E+00 -0.89112006038E+02  0.12006934950E+04  0.11973821108E+04 0.  0.
        3    1    3    3  502    0  0.41017343157E+03 -0.22852727366E+03  0.32790627759E+03  0.57270367194E+03  0.10100000352E+00 0. -1.
       -3    1    3    3    0  502 -0.41017343157E+03  0.22852727366E+03 -0.41701828363E+03  0.62798982305E+03  0.10100000352E+00 0.  1.
</event>
<event>
 5   0  0.9678750E-04  0.1198786E+04  0.7818609E-02  0.9113919E-01
        3   -1    0    0  501    0  0.00000000000E+00  0.00000000000E+00  0.46687112119E+03  0.46687113211E+03  0.10100000352E+00 0. -1.
       -3   -1    0    0    0  501  0.00000000000E+00  0.00000000000E+00 -0.76953196588E+03  0.76953197251E+03  0.10100000352E+00 0.  1.
    10030    2    1    2    0    0  0.00000000000E+00  0.00000000000E+00 -0.30266084470E+03  0.12364031046E+04  0.11987864907E+04 0.  0.
        3    1    3    3  502    0  0.12261280866E+02 -0.11127712269E+03  0.45599266398E+03  0.46953408486E+03  0.10100000352E+00 0. -1.
       -3    1    3    3    0  502 -0.12261280866E+02  0.11127712269E+03 -0.75865350868E+03  0.76686901976E+03  0.10100000352E+00 0.  1.
</event>
<event>
 5   0  0.1423024E-03  0.1215640E+04  0.7818609E-02  0.9099276E-01
       -1   -1    0    0    0  501  0.00000000000E+00  0.00000000000E+00  0.13390076145E+04  0.13390076145E+04  0.50400001928E-02 0. -1.
        1   -1    0    0  501    0  0.00000000000E+00  0.00000000000E+00 -0.27590981473E+03  0.27590981478E+03  0.50400001928E-02 0.  1.
    10030    2    1    2    0    0  0.00000000000E+00  0.00000000000E+00  0.10630977998E+04  0.16149174293E+04  0.12156403134E+04 0.  0.
        2    1    3    3  502    0  0.33331085189E+03 -0.74289828799E+02 -0.13642537406E+03  0.36773221962E+03  0.25500000920E-02 0.  1.
       -2    1    3    3    0  502 -0.33331085189E+03  0.74289828799E+02  0.11995231739E+04  0.12471852097E+04  0.25500000920E-02 0. -1.
</event>
<event>
 5   0  0.2579442E-03  0.1143633E+04  0.7818609E-02  0.9163677E-01
       -2   -1    0    0    0  501  0.00000000000E+00  0.00000000000E+00  0.19237198127E+03  0.19237198129E+03  0.25500000920E-02 0.  1.
        2   -1    0    0  501    0  0.00000000000E+00  0.00000000000E+00 -0.16996974400E+04  0.16996974400E+04  0.25500000920E-02 0. -1.
    10030    2    1    2    0    0  0.00000000000E+00  0.00000000000E+00 -0.15073254587E+04  0.18920694213E+04  0.11436330952E+04 0.  0.
        4    1    3    3  502    0 -0.23457000898E+03 -0.52108060239E+03 -0.71957698460E+03  0.91888015158E+03  0.12699999809E+01 0.  1.
       -4    1    3    3    0  502  0.23457000898E+03  0.52108060239E+03 -0.78774847410E+03  0.97318926970E+03  0.12699999809E+01 0. -1.
</event>
<event>
 5   0  0.1404833E-03  0.1207037E+04  0.7818609E-02  0.9106720E-01
        1   -1    0    0  501    0  0.00000000000E+00  0.00000000000E+00  0.10595522482E+04  0.10595522482E+04  0.50400001928E-02 0. -1.
       -1   -1    0    0    0  501  0.00000000000E+00  0.00000000000E+00 -0.34376249140E+03  0.34376249144E+03  0.50400001928E-02 0.  1.
    10030    2    1    2    0    0  0.00000000000E+00  0.00000000000E+00  0.71578975678E+03  0.14033147396E+04  0.12070365705E+04 0.  0.
        1    1    3    3  502    0  0.47560059316E+02 -0.25769159357E+03  0.98996160241E+03  0.10240560975E+04  0.50400001928E-02 0. -1.
       -1    1    3    3    0  502 -0.47560059316E+02  0.25769159357E+03 -0.27417184563E+03  0.37925864209E+03  0.50400001928E-02 0.  1.
</event>
<event>
 5   0  0.1403154E-03  0.1198494E+04  0.7818609E-02  0.9114175E-01
        1   -1    0    0  501    0  0.00000000000E+00  0.00000000000E+00  0.10028198214E+04  0.10028198214E+04  0.50400001928E-02 0.  1.
       -1   -1    0    0    0  501  0.00000000000E+00  0.00000000000E+00 -0.35808748438E+03  0.35808748442E+03  0.50400001928E-02 0. -1.
    10030    2    1    2    0    0  0.00000000000E+00  0.00000000000E+00  0.64473233700E+03  0.13609073058E+04  0.11984944341E+04 0.  0.
        3    1    3    3  502    0 -0.45254260500E+03 -0.38803249197E+03  0.39174591900E+03  0.71332243720E+03  0.10100000352E+00 0.  1.
       -3    1    3    3    0  502  0.45254260500E+03  0.38803249197E+03  0.25298641799E+03  0.64758486861E+03  0.10100000352E+00 0. -1.
</event>
<event>
 5   0  0.2484507E-03  0.1189253E+04  0.7818609E-02  0.9122316E-01
       -2   -1    0    0    0  501  0.00000000000E+00  0.00000000000E+00  0.26819350798E+03  0.26819350799E+03  0.25500000920E-02 0.  1.
        2   -1    0    0  501    0  0.00000000000E+00  0.00000000000E+00 -0.13183790124E+04  0.13183790124E+04  0.25500000920E-02 0. -1.
    10030    2    1    2    0    0  0.00000000000E+00  0.00000000000E+00 -0.10501855044E+04  0.15865725204E+04  0.11892530297E+04 0.  0.
        2    1    3    3  502    0 -0.17013669727E+03 -0.50884291620E+03 -0.18310418853E+03  0.56691688367E+03  0.25500000920E-02 0.  1.
       -2    1    3    3    0  502  0.17013669727E+03  0.50884291620E+03 -0.86708131587E+03  0.10196556367E+04  0.25500000920E-02 0. -1.
</event>
<event>
 5   0  0.2579442E-03  0.1154145E+04  0.7818609E-02  0.9153968E-01
        2   -1    0    0  501    0  0.00000000000E+00  0.00000000000E+00  0.25016173835E+04  0.25016173835E+04  0.25500000920E-02 0.  1.
       -2   -1    0    0    0  501  0.00000000000E+00  0.00000000000E+00 -0.13311887724E+03  0.13311887726E+03  0.25500000920E-02 0. -1.
    10030    2    1    2    0    0  0.00000000000E+00  0.00000000000E+00  0.23684985063E+04  0.26347362608E+04  0.11541447005E+04 0.  0.
        4    1    3    3  502    0 -0.48976009776E+03 -0.19196619916E+03  0.64260835504E+03  0.83045956304E+03  0.12699999809E+01 0. -1.
       -4    1    3    3    0  502  0.48976009776E+03  0.19196619916E+03  0.17258901512E+04  0.18042766977E+04  0.12699999809E+01 0.  1.
</event>
<event>
 5   0  0.1469851E-03  0.1197431E+04  0.7818609E-02  0.9115109E-01
       -1   -1    0    0    0  501  0.00000000000E+00  0.00000000000E+00  0.50783650947E+03  0.50783650949E+03  0.50400001928E-02 0.  1.
        1   -1    0    0  501    0  0.00000000000E+00  0.00000000000E+00 -0.70585709955E+03  0.70585709956E+03  0.50400001928E-02 0. -1.
    10030    2    1    2    0    0  0.00000000000E+00  0.00000000000E+00 -0.19802059008E+03  0.12136936091E+04  0.11974305920E+04 0.  0.
        5    1    3    3  502    0 -0.24013168617E+03 -0.36178108210E+03 -0.51678440402E+03  0.67500888016E+03  0.46999998093E+01 0. -1.
       -5    1    3    3    0  502  0.24013168617E+03  0.36178108210E+03  0.31876381394E+03  0.53868472889E+03  0.46999998093E+01 0.  1.
</event>
<event>
 5   0  0.2579442E-03  0.1212888E+04  0.7818609E-02  0.9101650E-01
       -2   -1    0    0    0  501  0.00000000000E+00  0.00000000000E+00  0.30416524819E+03  0.30416524820E+03  0.25500000920E-02 0.  1.
        2   -1    0    0  501    0  0.00000000000E+00  0.00000000000E+00 -0.12091261451E+04  0.12091261451E+04  0.25500000920E-02 0. -1.
    10030    2    1    2    0    0  0.00000000000E+00  0.00000000000E+00 -0.90496089689E+03  0.15132913933E+04  0.12128877178E+04 0.  0.
        4    1    3    3  502    0 -0.25720141573E+03  0.50853130692E+03 -0.71125191295E+03  0.91139319448E+03  0.12699999809E+01 0. -1.
       -4    1    3    3    0  502  0.25720141573E+03 -0.50853130692E+03 -0.19370898394E+03  0.60189819881E+03  0.12699999809E+01 0.  1.
</event>
<event>
 5   0  0.1423024E-03  0.1136183E+04  0.7818609E-02  0.9170626E-01
       -1   -1    0    0    0  501  0.00000000000E+00  0.00000000000E+00  0.77740774534E+03  0.77740774536E+03  0.50400001928E-02 0.  1.
        1   -1    0    0  501    0  0.00000000000E+00  0.00000000000E+00 -0.41513327892E+03  0.41513327895E+03  0.50400001928E-02 0. -1.
    10030    2    1    2    0    0  0.00000000000E+00  0.00000000000E+00  0.36227446642E+03  0.11925410243E+04  0.11361827783E+04 0.  0.
        2    1    3    3  502    0 -0.28664718306E+03 -0.15084161083E+02 -0.33341853419E+03  0.43995688246E+03  0.25500000920E-02 0. -1.
       -2    1    3    3    0  502  0.28664718306E+03  0.15084161083E+02  0.69569300061E+03  0.75258414186E+03  0.25500000920E-02 0.  1.
</event>
<event>
 5   0  0.2499890E-03  0.1200653E+04  0.7818609E-02  0.9112285E-01
       -2   -1    0    0    0  501  0.00000000000E+00  0.00000000000E+00  0.46780116025E+03  0.46780116025E+03  0.25500000920E-02 0. -1.
        2   -1    0    0  501    0  0.00000000000E+00  0.00000000000E+00 -0.77039533223E+03  0.77039533223E+03  0.25500000920E-02 0.  1.
    10030    2    1    2    0    0  0.00000000000E+00  0.00000000000E+00 -0.30259417198E+03  0.12381964925E+04  0.12006528728E+04 0.  0.
        5    1    3    3  502    0  0.31104313445E+03  0.50366585242E+03 -0.48466459997E+02  0.59396818949E+03  0.46999998093E+01 0.  1.
       -5    1    3    3    0  502 -0.31104313445E+03 -0.50366585242E+03 -0.25412771199E+03  0.64422830299E+03  0.46999998093E+01 0. -1.
</event>
<event>
 5   0  0.1423024E-03  0.1201873E+04  0.7818609E-02  0.9111218E-01
       -1   -1    0    0    0  501  0.00000000000E+00  0.00000000000E+00  0.23913099995E+03  0.23913100001E+03  0.50400001928E-02 0.  1.
        1   -1    0    0  501    0  0.00000000000E+00  0.00000000000E+00 -0.15101554134E+04  0.15101554134E+04  0.50400001928E-02 0. -1.
    10030    2    1    2    0    0  0.00000000000E+00  0.00000000000E+00 -0.12710244135E+04  0.17492864134E+04  0.12018734944E+04 0.  0.
        2    1    3    3  502    0 -0.35644838789E+03 -0.26394277644E+03 -0.12256562135E+04  0.13034394486E+04  0.25500000920E-02 0. -1.
       -2    1    3    3    0  502  0.35644838789E+03  0.26394277644E+03 -0.45368199936E+02  0.44584696481E+03  0.25500000920E-02 0.  1.
</event>
<event>
 5   0  0.2517023E-03  0.1202901E+04  0.7818609E-02  0.9110321E-01
        2   -1    0    0  501    0  0.00000000000E+00  0.00000000000E+00  0.68265925801E+03  0.68265925802E+03  0.25500000920E-02 0.  1.
       -2   -1    0    0    0  501  0.00000000000E+00  0.00000000000E+00 -0.52990258952E+03  0.52990258952E+03  0.25500000920E-02 0. -1.
    10030    2    1    2    0    0  0.00000000000E+00  0.00000000000E+00  0.15275666850E+03  0.12125618475E+04  0.12029013402E+04 0.  0.
        3    1    3    3  502    0  0.15764257983E+03 -0.34989289491E+03  0.54320300809E+03  0.66509077507E+03  0.10100000352E+00 0.  1.
       -3    1    3    3    0  502 -0.15764257983E+03  0.34989289491E+03 -0.39044633960E+03  0.54747107247E+03  0.10100000352E+00 0. -1.
</event>
<event>
 5   0  0.9678750E-04  0.1028048E+04  0.7818609E-02  0.9278306E-01
       -4   -1    0    0    0  501  0.00000000000E+00  0.00000000000E+00  0.38102272973E+03  0.38102484627E+03  0.12699999809E+01 0. -1.
        4   -1    0    0  501    0  0.00000000000E+00  0.00000000000E+00 -0.69344674711E+03  0.69344791006E+03  0.12699999809E+01 0.  1.
    10030    2    1    2    0    0  0.00000000000E+00  0.00000000000E+00 -0.31242401737E+03  0.10744727563E+04  0.10280481202E+04 0.  0.
        4    1    3    3  502    0 -0.13056453460E+03 -0.49290201923E+03 -0.88319977652E+02  0.51749543922E+03  0.12699999809E+01 0. -1.
       -4    1    3    3    0  502  0.13056453460E+03  0.49290201923E+03 -0.22410403972E+03  0.55697731711E+03  0.12699999809E+01 0.  1.
</event>
<event>
 5   0  0.2484507E-03  0.1200864E+04  0.7818609E-02  0.9112101E-01
       -2   -1    0    0    0  501  0.00000000000E+00  0.00000000000E+00  0.23355428708E+03  0.23355428709E+03  0.25500000920E-02 0. -1.
        2   -1    0    0  501    0  0.00000000000E+00  0.00000000000E+00 -0.15436178206E+04  0.15436178206E+04  0.25500000920E-02 0.  1.
    10030    2    1    2    0    0  0.00000000000E+00  0.00000000000E+00 -0.13100635335E+04  0.17771721077E+04  0.12008639550E+04 0.  0.
        2    1    3    3  502    0 -0.50104336596E+03  0.33079504311E+03 -0.64469943149E+03  0.88096945014E+03  0.25500000920E-02 0. -1.
       -2    1    3    3    0  502  0.50104336596E+03 -0.33079504311E+03 -0.66536410201E+03  0.89620265753E+03  0.25500000920E-02 0.  1.
</event>
<event>
 5   0  0.9678750E-04  0.1199325E+04  0.7818609E-02  0.9113447E-01
       -3   -1    0    0    0  501  0.00000000000E+00  0.00000000000E+00  0.15588100056E+04  0.15588100089E+04  0.10100000352E+00 0. -1.
        3   -1    0    0  501    0  0.00000000000E+00  0.00000000000E+00 -0.23068578778E+03  0.23068580989E+03  0.10100000352E+00 0.  1.
    10030    2    1    2    0    0  0.00000000000E+00  0.00000000000E+00  0.13281242178E+04  0.17894958188E+04  0.11993253718E+04 0.  0.
        2    1    3    3  502    0  0.40455904682E+03  0.73256357928E+02  0.13154061942E+04  0.13781610835E+04  0.25500000920E-02 0. -1.
       -2    1    3    3    0  502 -0.40455904682E+03 -0.73256357928E+02  0.12718023682E+02  0.41133473531E+03  0.25500000920E-02 0.  1.
</event>
<event>
 5   0  0.2579442E-03  0.1206087E+04  0.7818609E-02  0.9107545E-01
       -2   -1    0    0    0  501  0.00000000000E+00  0.00000000000E+00  0.85821815963E+03  0.85821815963E+03  0.25500000920E-02 0.  1.
        2   -1    0    0  501    0  0.00000000000E+00  0.00000000000E+00 -0.42374024914E+03  0.42374024915E+03  0.25500000920E-02 0. -1.
    10030    2    1    2    0    0  0.00000000000E+00  0.00000000000E+00  0.43447791049E+03  0.12819584088E+04  0.12060871889E+04 0.  0.
        4    1    3    3  502    0 -0.18621084840E+03  0.34911977484E+03 -0.26647229580E+03  0.47704108269E+03  0.12699999809E+01 0. -1.
       -4    1    3    3    0  502  0.18621084840E+03 -0.34911977484E+03  0.70095020629E+03  0.80491732609E+03  0.12699999809E+01 0.  1.
</event>
<event>
 5   0  0.2499890E-03  0.1230036E+04  0.7818609E-02  0.9086965E-01
        2   -1    0    0  501    0  0.00000000000E+00  0.00000000000E+00  0.11174232781E+04  0.11174232781E+04  0.25500000920E-02 0.  1.
       -2   -1    0    0    0  501  0.00000000000E+00  0.00000000000E+00 -0.33849957385E+03  0.33849957386E+03  0.25500000920E-02 0. -1.
    10030    2    1    2    0    0  0.00000000000E+00  0.00000000000E+00  0.77892370425E+03  0.14559228520E+04  0.12300362653E+04 0.  0.
        5    1    3    3  502    0  0.25977432038E+03  0.14854386425E+03  0.10254173354E+04  0.10681997841E+04  0.46999998093E+01 0.  1.
       -5    1    3    3    0  502 -0.25977432038E+03 -0.14854386425E+03 -0.24649363114E+03  0.38772306783E+03  0.46999998093E+01 0. -1.
</event>
<event>
 5   0  0.1455076E-03  0.1200965E+04  0.7818609E-02  0.9112013E-01
        1   -1    0    0  501    0  0.00000000000E+00  0.00000000000E+00  0.68380832172E+03  0.68380832174E+03  0.50400001928E-02 0.  1.
       -1   -1    0    0    0  501  0.00000000000E+00  0.00000000000E+00 -0.52731009132E+03  0.52731009134E+03  0.50400001928E-02 0. -1.
    10030    2    1    2    0    0  0.00000000000E+00  0.00000000000E+00  0.15649823041E+03  0.12111184131E+04  0.12009646599E+04 0.  0.
        4    1    3    3  502    0 -0.76465352701E+02 -0.52386253189E+03 -0.20751660533E+03  0.56863314788E+03  0.12699999809E+01 0.  1.
       -4    1    3    3    0  502  0.76465352701E+02  0.52386253189E+03  0.36401483573E+03  0.64248526521E+03  0.12699999809E+01 0. -1.
</event>
<event>
 5   0  0.9678750E-04  0.1195414E+04  0.7818609E-02  0.9116880E-01
        4   -1    0    0  501    0  0.00000000000E+00  0.00000000000E+00  0.58233746850E+03  0.58233885335E+03  0.12699999809E+01 0. -1.
       -4   -1    0    0    0  501  0.00000000000E+00  0.00000000000E+00 -0.61347975472E+03  0.61348106927E+03  0.12699999809E+01 0.  1.
    10030    2    1    2    0    0  0.00000000000E+00  0.00000000000E+00 -0.31142286218E+02  0.11958199226E+04  0.11954143404E+04 0.  0.
        3    1    3    3  502    0 -0.28158118317E+03 -0.42837437911E+03  0.29187867162E+03  0.58990316200E+03  0.10100000352E+00 0. -1.
       -3    1    3    3    0  502  0.28158118317E+03  0.42837437911E+03 -0.32302095784E+03  0.60591676061E+03  0.10100000352E+00 0.  1.
</event>
<event>
 5   0  0.2499890E-03  0.1168724E+04  0.7818609E-02  0.9140681E-01
        2   -1    0    0  501    0  0.00000000000E+00  0.00000000000E+00  0.98725563752E+03  0.98725563752E+03  0.25500000920E-02 0.  1.
       -2   -1    0    0    0  501  0.00000000000E+00  0.00000000000E+00 -0.34588710689E+03  0.34588710690E+03  0.25500000920E-02 0. -1.
    10030    2    1    2    0    0  0.00000000000E+00  0.00000000000E+00  0.64136853063E+03  0.13331427444E+04  0.11687240842E+04 0.  0.
        5    1    3    3  502    0 -0.25459886484E+02  0.10644986375E+03  0.97543696043E+03  0.98156972910E+03  0.46999998093E+01 0.  1.
       -5    1    3    3    0  502  0.25459886484E+02 -0.10644986375E+03 -0.33406842980E+03  0.35157301532E+03  0.46999998093E+01 0. -1.
</event>
<event>
 5   0  0.1403154E-03  0.1208817E+04  0.7818609E-02  0.9105174E-01
       -1   -1    0    0    0  501  0.00000000000E+00  0.00000000000E+00  0.37628344367E+03  0.37628344370E+03  0.50400001928E-02 0. -1.
        1   -1    0    0  501    0  0.00000000000E+00  0.00000000000E+00 -0.97083643094E+03  0.97083643095E+03  0.50400001928E-02 0.  1.
    10030    2    1    2    0    0  0.00000000000E+00  0.00000000000E+00 -0.59455298727E+03  0.13471198746E+04  0.12088170672E+04 0.  0.
        3    1    3    3  502    0 -0.30000171830E+03 -0.50251989261E+03 -0.12906900800E+03  0.59932135994E+03  0.10100000352E+00 0. -1.
       -3    1    3    3    0  502  0.30000171830E+03  0.50251989261E+03 -0.46548397927E+03  0.74779851471E+03  0.10100000352E+00 0.  1.
</event>
<event>
 5   0  0.2580244E-03  0.1200805E+04  0.7818609E-02  0.9112152E-01
        2   -1    0    0  501    0  0.00000000000E+00  0.00000000000E+00  0.81711831801E+03  0.81711831802E+03  0.25500000920E-02 0.  1.
       -2   -1    0    0    0  501  0.00000000000E+00  0.00000000000E+00 -0.44116418652E+03  0.44116418652E+03  0.25500000920E-02 0. -1.
    10030    2    1    2    0    0  0.00000000000E+00  0.00000000000E+00  0.37595413150E+03  0.12582825045E+04  0.12008052932E+04 0.  0.
        1    1    3    3  502    0  0.54141427141E+03  0.22181242186E+03  0.32915988593E+03  0.67132435849E+03  0.50400001928E-02 0.  1.
       -1    1    3    3    0  502 -0.54141427141E+03 -0.22181242186E+03  0.46794245574E+02  0.58695814605E+03  0.50400001928E-02 0. -1.
</event>
<event>
 5   0  0.1404833E-03  0.1202487E+04  0.7818609E-02  0.9110682E-01
       -1   -1    0    0    0  501  0.00000000000E+00  0.00000000000E+00  0.26437815716E+03  0.26437815721E+03  0.50400001928E-02 0.  1.
        1   -1    0    0  501    0  0.00000000000E+00  0.00000000000E+00 -0.13673366811E+04  0.13673366811E+04  0.50400001928E-02 0. -1.
    10030    2    1    2    0    0  0.00000000000E+00  0.00000000000E+00 -0.11029585239E+04  0.16317148383E+04  0.12024873422E+04 0.  0.
        1    1    3    3  502    0 -0.11667340025E+03  0.15611583120E+03 -0.13232832378E+04  0.13375587324E+04  0.50400001928E-02 0. -1.
       -1    1    3    3    0  502  0.11667340025E+03 -0.15611583120E+03  0.22032471389E+03  0.29415610592E+03  0.50400001928E-02 0.  1.
</event>
<event>
 5   0  0.2580244E-03  0.1200865E+04  0.7818609E-02  0.9112100E-01
       -2   -1    0    0    0  501  0.00000000000E+00  0.00000000000E+00  0.10301625376E+04  0.10301625376E+04  0.25500000920E-02 0.  1.
        2   -1    0    0  501    0  0.00000000000E+00  0.00000000000E+00 -0.34996331830E+03  0.34996331831E+03  0.25500000920E-02 0. -1.
    10030    2    1    2    0    0  0.00000000000E+00  0.00000000000E+00  0.68019921928E+03  0.13801258559E+04  0.12008648551E+04 0.  0.
        1    1    3    3  502    0  0.28334096008E+03 -0.38589736600E+03  0.75657597789E+03  0.89532457081E+03  0.50400001928E-02 0.  1.
       -1    1    3    3    0  502 -0.28334096008E+03  0.38589736600E+03 -0.76376758616E+02  0.48480128509E+03  0.50400001928E-02 0. -1.
</event>
<event>
 5   0  0.2580244E-03  0.1183992E+04  0.7818609E-02  0.9126985E-01
        2   -1    0    0  501    0  0.00000000000E+00  0.00000000000E+00  0.82428823636E+03  0.82428823636E+03  0.25500000920E-02 0.  1.
       -2   -1    0    0    0  501  0.00000000000E+00  0.00000000000E+00 -0.42516614894E+03  0.42516614895E+03  0.25500000920E-02 0. -1.
    10030    2    1    2    0    0  0.00000000000E+00  0.00000000000E+00  0.39912208742E+03  0.12494543853E+04  0.11839923227E+04 0.  0.
        1    1    3    3  502    0  0.58418054956E+03  0.50240523689E+02  0.28573644790E+03  0.65225481400E+03  0.50400001928E-02 0. -1.
       -1    1    3    3    0  502 -0.58418054956E+03 -0.50240523689E+02  0.11338563952E+03  0.59719957131E+03  0.50400001928E-02 0.  1.
</event>
<event>
 5   0  0.2499890E-03  0.1195470E+04  0.7818609E-02  0.9116831E-01
        2   -1    0    0  501    0  0.00000000000E+00  0.00000000000E+00  0.10408484170E+04  0.10408484170E+04  0.25500000920E-02 0. -1.
       -2   -1    0    0    0  501  0.00000000000E+00  0.00000000000E+00 -0.34326552790E+03  0.34326552791E+03  0.25500000920E-02 0.  1.
    10030    2    1    2    0    0  0.00000000000E+00  0.00000000000E+00  0.69758288908E+03  0.13841139449E+04  0.11954704201E+04 0.  0.
        5    1    3    3  502    0  0.18163542259E+03  0.23055760598E+03 -0.25406155842E+03  0.38822364930E+03  0.46999998093E+01 0.  1.
       -5    1    3    3    0  502 -0.18163542259E+03 -0.23055760598E+03  0.95164444749E+03  0.99589029559E+03  0.46999998093E+01 0. -1.
</event>
<event>
 5   0  0.2517023E-03  0.1198027E+04  0.7818609E-02  0.9114585E-01
        2   -1    0    0  501    0  0.00000000000E+00  0.00000000000E+00  0.11335977789E+04  0.11335977789E+04  0.25500000920E-02 0.  1.
       -2   -1    0    0    0  501  0.00000000000E+00  0.00000000000E+00 -0.31652969249E+03  0.31652969250E+03  0.25500000920E-02 0. -1.
    10030    2    1    2    0    0  0.00000000000E+00  0.00000000000E+00  0.81706808644E+03  0.14501274714E+04  0.11980273058E+04 0.  0.
        3    1    3    3  502    0  0.65046737820E+02 -0.27918255162E+03 -0.22811427646E+03  0.36634697837E+03  0.10100000352E+00 0. -1.
       -3    1    3    3    0  502 -0.65046737820E+02  0.27918255162E+03  0.10451823629E+04  0.10837804931E+04  0.10100000352E+00 0.  1.
</event>
<event>
 5   0  0.1423024E-03  0.1197876E+04  0.7818609E-02  0.9114717E-01
        1   -1    0    0  501    0  0.00000000000E+00  0.00000000000E+00  0.16651435580E+04  0.16651435580E+04  0.50400001928E-02 0. -1.
       -1   -1    0    0    0  501  0.00000000000E+00  0.00000000000E+00 -0.21543300613E+03  0.21543300619E+03  0.50400001928E-02 0.  1.
    10030    2    1    2    0    0  0.00000000000E+00  0.00000000000E+00  0.14497105519E+04  0.18805765642E+04  0.11978762581E+04 0.  0.
        2    1    3    3  502    0 -0.10888061192E+03 -0.99768789814E+02  0.16361130010E+04  0.16427643018E+04  0.25500000920E-02 0. -1.
       -2    1    3    3    0  502  0.10888061192E+03  0.99768789814E+02 -0.18640244919E+03  0.23781226239E+03  0.25500000920E-02 0.  1.
</event>
<event>
 5   0  0.1403154E-03  0.1205638E+04  0.7818609E-02  0.9107936E-01
        1   -1    0    0  501    0  0.00000000000E+00  0.00000000000E+00  0.14245576457E+04  0.14245576457E+04  0.50400001928E-02 0. -1.
       -1   -1    0    0    0  501  0.00000000000E+00  0.00000000000E+00 -0.25509007106E+03  0.25509007111E+03  0.50400001928E-02 0.  1.
    10030    2    1    2    0    0  0.00000000000E+00  0.00000000000E+00  0.11694675746E+04  0.16796477168E+04  0.12056376091E+04 0.  0.
        3    1    3    3  502    0  0.15942476153E+03  0.41108159433E+03  0.11574335422E+04  0.12385704447E+04  0.10100000352E+00 0. -1.
       -3    1    3    3    0  502 -0.15942476153E+03 -0.41108159433E+03  0.12034032412E+02  0.44107727205E+03  0.10100000352E+00 0.  1.
</event>
<event>
 5   0  0.9678750E-04  0.1172030E+04  0.7818609E-02  0.9137697E-01
        3   -1    0    0  501    0  0.00000000000E+00  0.00000000000E+00  0.41575033194E+03  0.41575034421E+03  0.10100000352E+00 0.  1.
       -3   -1    0    0    0  501  0.00000000000E+00  0.00000000000E+00 -0.82600975354E+03  0.82600975972E+03  0.10100000352E+00 0. -1.
    10030    2    1    2    0    0  0.00000000000E+00  0.00000000000E+00 -0.41025942160E+03  0.12417601039E+04  0.11720304444E+04 0.  0.
        4    1    3    3  502    0 -0.26370905481E+03  0.46599989094E+03 -0.45744491858E+03  0.70424131544E+03  0.12699999809E+01 0. -1.
       -4    1    3    3    0  502  0.26370905481E+03 -0.46599989094E+03  0.47185496973E+02  0.53751878848E+03  0.12699999809E+01 0.  1.
</event>
<event>
 5   0  0.1423024E-03  0.1203149E+04  0.7818609E-02  0.9110105E-01
        1   -1    0    0  501    0  0.00000000000E+00  0.00000000000E+00  0.74128442898E+03  0.74128442900E+03  0.50400001928E-02 0.  1.
       -1   -1    0    0    0  501  0.00000000000E+00  0.00000000000E+00 -0.48819533644E+03  0.48819533646E+03  0.50400001928E-02 0. -1.
    10030    2    1    2    0    0  0.00000000000E+00  0.00000000000E+00  0.25308909255E+03  0.12294797655E+04  0.12031485382E+04 0.  0.
        2    1    3    3  502    0  0.55300222771E+03  0.19963376626E+02 -0.11458920071E+03  0.56510236700E+03  0.25500000920E-02 0. -1.
       -2    1    3    3    0  502 -0.55300222771E+03 -0.19963376626E+02  0.36767829325E+03  0.66437739847E+03  0.25500000920E-02 0.  1.
</event>
<event>
 5   0  0.1404833E-03  0.1221575E+04  0.7818609E-02  0.9094179E-01
        1   -1    0    0  501    0  0.00000000000E+00  0.00000000000E+00  0.10775467379E+04  0.10775467379E+04  0.50400001928E-02 0. -1.
       -1   -1    0    0    0  501  0.00000000000E+00  0.00000000000E+00 -0.34621374129E+03  0.34621374132E+03  0.50400001928E-02 0.  1.
    10030    2    1    2    0    0  0.00000000000E+00  0.00000000000E+00  0.73133299660E+03  0.14237604792E+04  0.12215751922E+04 0.  0.
        1    1    3    3  502    0 -0.24882274170E+03  0.18677331576E+03 -0.24693666909E+03  0.39720869431E+03  0.50400001928E-02 0.  1.
       -1    1    3    3    0  502  0.24882274170E+03 -0.18677331576E+03  0.97826966570E+03  0.10265517849E+04  0.50400001928E-02 0. -1.
</event>
<event>
 5   0  0.2580244E-03  0.1187791E+04  0.7818609E-02  0.9123610E-01
       -2   -1    0    0    0  501  0.00000000000E+00  0.00000000000E+00  0.76536208809E+03  0.76536208810E+03  0.25500000920E-02 0. -1.
        2   -1    0    0  501    0  0.00000000000E+00  0.00000000000E+00 -0.46084329371E+03  0.46084329372E+03  0.25500000920E-02 0.  1.
    10030    2    1    2    0    0  0.00000000000E+00  0.00000000000E+00  0.30451879438E+03  0.12262053818E+04  0.11877912031E+04 0.  0.
        1    1    3    3  502    0 -0.31197495700E+03  0.50310995898E+03  0.10313926870E+03  0.60090408003E+03  0.50400001928E-02 0.  1.
       -1    1    3    3    0  502  0.31197495700E+03 -0.50310995898E+03  0.20137952568E+03  0.62530130178E+03  0.50400001928E-02 0. -1.
</event>
<event>
 5   0  0.1403154E-03  0.1207188E+04  0.7818609E-02  0.9106588E-01
       -1   -1    0    0    0  501  0.00000000000E+00  0.00000000000E+00  0.36655446819E+03  0.36655446822E+03  0.50400001928E-02 0.  1.
        1   -1    0    0  501    0  0.00000000000E+00  0.00000000000E+00 -0.99391895965E+03  0.99391895967E+03  0.50400001928E-02 0. -1.
    10030    2    1    2    0    0  0.00000000000E+00  0.00000000000E+00 -0.62736449146E+03  0.13604734279E+04  0.12071875342E+04 0.  0.
        3    1    3    3  502    0 -0.49857090442E+03 -0.33810677353E+03 -0.27097159794E+03  0.66054125846E+03  0.10100000352E+00 0. -1.
       -3    1    3    3    0  502  0.49857090442E+03  0.33810677353E+03 -0.35639289353E+03  0.69993216943E+03  0.10100000352E+00 0.  1.
</event>
<event>
 5   0  0.2484507E-03  0.1197558E+04  0.7818609E-02  0.9114997E-01
        2   -1    0    0  501    0  0.00000000000E+00  0.00000000000E+00  0.70209042464E+03  0.70209042465E+03  0.25500000920E-02 0. -1.
       -2   -1    0    0    0  501  0.00000000000E+00  0.00000000000E+00 -0.51066942948E+03  0.51066942949E+03  0.25500000920E-02 0.  1.
    10030    2    1    2    0    0  0.00000000000E+00  0.00000000000E+00  0.19142099516E+03  0.12127598541E+04  0.11975577090E+04 0.  0.
        2    1    3    3  502    0  0.49251787122E+03 -0.28962375293E+03 -0.85673043224E+02  0.57775050158E+03  0.25500000920E-02 0.  1.
       -2    1    3    3    0  502 -0.49251787122E+03  0.28962375293E+03  0.27709403838E+03  0.63500935256E+03  0.25500000920E-02 0. -1.
</event>
<event>
 5   0  0.1469851E-03  0.1194941E+04  0.7818609E-02  0.9117296E-01
       -1   -1    0    0    0  501  0.00000000000E+00  0.00000000000E+00  0.37500750214E+03  0.37500750217E+03  0.50400001928E-02 0. -1.
        1   -1    0    0  501    0  0.00000000000E+00  0.00000000000E+00 -0.95190433245E+03  0.95190433247E+03  0.50400001928E-02 0.  1.
    10030    2    1    2    0    0  0.00000000000E+00  0.00000000000E+00 -0.57689683031E+03  0.13269118346E+04  0.11949414480E+04 0.  0.
        5    1    3    3  502    0  0.31014645501E+03 -0.66719834921E+02  0.27373175162E+03  0.41903880699E+03  0.46999998093E+01 0. -1.
       -5    1    3    3    0  502 -0.31014645501E+03  0.66719834921E+02 -0.85062858193E+03  0.90787302764E+03  0.46999998093E+01 0.  1.
</event>
<event>
 5   0  0.2579442E-03  0.1203299E+04  0.7818609E-02  0.9109974E-01
        2   -1    0    0  501    0  0.00000000000E+00  0.00000000000E+00  0.11149258041E+04  0.11149258041E+04  0.25500000920E-02 0.  1.
       -2   -1    0    0    0  501  0.00000000000E+00  0.00000000000E+00 -0.32466905768E+03  0.32466905769E+03  0.25500000920E-02 0. -1.
    10030    2    1    2    0    0  0.00000000000E+00  0.00000000000E+00  0.79025674637E+03  0.14395948618E+04  0.12032986499E+04 0.  0.
        4    1    3    3  502    0  0.51538116365E+02  0.48320387209E+03 -0.29269305689E+02  0.48682693495E+03  0.12699999809E+01 0. -1.
       -4    1    3    3    0  502 -0.51538116365E+02 -0.48320387209E+03  0.81952605206E+03  0.95276792680E+03  0.12699999809E+01 0.  1.
</event>
<event>
 5   0  0.2580244E-03  0.1199873E+04  0.7818609E-02  0.9112968E-01
        2   -1    0    0  501    0  0.00000000000E+00  0.00000000000E+00  0.10496981660E+04  0.10496981660E+04  0.25500000920E-02 0. -1.
       -2   -1    0    0    0  501  0.00000000000E+00  0.00000000000E+00 -0.34288321780E+03  0.34288321781E+03  0.25500000920E-02 0.  1.
    10030    2    1    2    0    0  0.00000000000E+00  0.00000000000E+00  0.70681494822E+03  0.13925813838E+04  0.11998731348E+04 0.  0.
        1    1    3    3  502    0  0.52788358213E+03 -0.23500575200E+03  0.54067605670E+03  0.79134024166E+03  0.50400001928E-02 0.  1.
       -1    1    3    3    0  502 -0.52788358213E+03  0.23500575200E+03  0.16613889152E+03  0.60124114218E+03  0.50400001928E-02 0. -1.
</event>
<event>
 5   0  0.2580244E-03  0.1207202E+04  0.7818609E-02  0.9106576E-01
        2   -1    0    0  501    0  0.00000000000E+00  0.00000000000E+00  0.17554416787E+04  0.17554416787E+04  0.25500000920E-02 0. -1.
       -2   -1    0    0    0  501  0.00000000000E+00  0.00000000000E+00 -0.20754547779E+03  0.20754547781E+03  0.25500000920E-02 0.  1.
    10030    2    1    2    0    0  0.00000000000E+00  0.00000000000E+00  0.15478962009E+04  0.19629871565E+04  0.12072016931E+04 0.  0.
        1    1    3    3  502    0 -0.41981097770E+03  0.88741468706E+02  0.14642456243E+04  0.15258215995E+04  0.50400001928E-02 0. -1.
       -1    1    3    3    0  502  0.41981097770E+03 -0.88741468706E+02  0.83650576657E+02  0.43716555704E+03  0.50400001928E-02 0.  1.
</event>
<event>
 5   0  0.1455076E-03  0.1205150E+04  0.7818609E-02  0.9108361E-01
        1   -1    0    0  501    0  0.00000000000E+00  0.00000000000E+00  0.13117540704E+04  0.13117540704E+04  0.50400001928E-02 0. -1.
       -1   -1    0    0    0  501  0.00000000000E+00  0.00000000000E+00 -0.27680231526E+03  0.27680231530E+03  0.50400001928E-02 0.  1.
    10030    2    1    2    0    0  0.00000000000E+00  0.00000000000E+00  0.10349517551E+04  0.15885563857E+04  0.12051498891E+04 0.  0.
        4    1    3    3  502    0 -0.44712216326E+03  0.13857365862E+03  0.10176298243E+04  0.11201307780E+04  0.12699999809E+01 0. -1.
       -4    1    3    3    0  502  0.44712216326E+03 -0.13857365862E+03  0.17321930870E+02  0.46842560768E+03  0.12699999809E+01 0.  1.
</event>
<event>
 5   0  0.2579442E-03  0.1218616E+04  0.7818609E-02  0.9096716E-01
        2   -1    0    0  501    0  0.00000000000E+00  0.00000000000E+00  0.26985954389E+04  0.26985954389E+04  0.25500000920E-02 0. -1.
       -2   -1    0    0    0  501  0.00000000000E+00  0.00000000000E+00 -0.13757389631E+03  0.13757389633E+03  0.25500000920E-02 0.  1.
    10030    2    1    2    0    0  0.00000000000E+00  0.00000000000E+00  0.25610215426E+04  0.28361693352E+04  0.12186160825E+04 0.  0.
        4    1    3    3  502    0  0.43389537913E+01 -0.30498676874E+03  0.25081155841E+04  0.25265947740E+04  0.12699999809E+01 0. -1.
       -4    1    3    3    0  502 -0.43389537913E+01  0.30498676874E+03  0.52905958442E+02  0.30957456124E+03  0.12699999809E+01 0.  1.
</event>
<event>
 5   0  0.2579442E-03  0.1198084E+04  0.7818609E-02  0.9114535E-01
       -2   -1    0    0    0  501  0.00000000000E+00  0.00000000000E+00  0.25024078571E+03  0.25024078572E+03  0.25500000920E-02 0. -1.
        2   -1    0    0  501    0  0.00000000000E+00  0.00000000000E+00 -0.14340243486E+04  0.14340243486E+04  0.25500000920E-02 0.  1.
    10030    2    1    2    0    0  0.00000000000E+00  0.00000000000E+00 -0.11837835629E+04  0.16842651343E+04  0.11980841034E+04 0.  0.
        4    1    3    3  502    0  0.27767425547E+03 -0.14683506240E+03  0.12518442862E+03  0.33813648394E+03  0.12699999809E+01 0. -1.
       -4    1    3    3    0  502 -0.27767425547E+03  0.14683506240E+03 -0.13089679915E+04  0.13461286504E+04  0.12699999809E+01 0.  1.
</event>
<event>
 5   0  0.9678750E-04  0.1088684E+04  0.7818609E-02  0.9216291E-01
        4   -1    0    0  501    0  0.00000000000E+00  0.00000000000E+00  0.14475697566E+04  0.14475703137E+04  0.12699999809E+01 0. -1.
       -4   -1    0    0    0  501  0.00000000000E+00  0.00000000000E+00 -0.20469116602E+03  0.20469510582E+03  0.12699999809E+01 0.  1.
    10030    2    1    2    0    0  0.00000000000E+00  0.00000000000E+00  0.12428785906E+04  0.16522654195E+04  0.10886844472E+04 0.  0.
        5    1    3    3  502    0 -0.28704484375E+03  0.65241980288E+01 -0.80389958425E+02  0.29819782510E+03  0.46999998093E+01 0.  1.
       -5    1    3    3    0  502  0.28704484375E+03 -0.65241980288E+01  0.13232685490E+04  0.13540675944E+04  0.46999998093E+01 0. -1.
</event>
<event>
 5   0  0.2580244E-03  0.1241396E+04  0.7818609E-02  0.9077375E-01
       -2   -1    0    0    0  501  0.00000000000E+00  0.00000000000E+00  0.43614710438E+03  0.43614710439E+03  0.25500000920E-02 0. -1.
        2   -1    0    0  501    0  0.00000000000E+00  0.00000000000E+00 -0.88333993094E+03  0.88333993094E+03  0.25500000920E-02 0.  1.
    10030    2    1    2    0    0  0.00000000000E+00  0.00000000000E+00 -0.44719282656E+03  0.13194870353E+04  0.12413962350E+04 0.  0.
        1    1    3    3  502    0 -0.27540562697E+02  0.52941993553E+03  0.11954633598E+03  0.54344758459E+03  0.50400001928E-02 0. -1.
       -1    1    3    3    0  502  0.27540562697E+02 -0.52941993553E+03 -0.56673916254E+03  0.77603945074E+03  0.50400001928E-02 0.  1.
</event>
<event>
 5   0  0.1403154E-03  0.1202927E+04  0.7818609E-02  0.9110298E-01
       -1   -1    0    0    0  501  0.00000000000E+00  0.00000000000E+00  0.82489875984E+03  0.82489875986E+03  0.50400001928E-02 0. -1.
        1   -1    0    0  501    0  0.00000000000E+00  0.00000000000E+00 -0.43854889956E+03  0.43854889959E+03  0.50400001928E-02 0.  1.
    10030    2    1    2    0    0  0.00000000000E+00  0.00000000000E+00  0.38634986028E+03  0.12634476594E+04  0.12029271689E+04 0.  0.
        3    1    3    3  502    0 -0.44197579809E+03 -0.29814500133E+03 -0.99267165932E+02  0.54229791476E+03  0.10100000352E+00 0.  1.
       -3    1    3    3    0  502  0.44197579809E+03  0.29814500133E+03  0.48561702621E+03  0.72114974469E+03  0.10100000352E+00 0. -1.
</event>
<event>
 5   0  0.1469851E-03  0.1209187E+04  0.7818609E-02  0.9104853E-01
        1   -1    0    0  501    0  0.00000000000E+00  0.00000000000E+00  0.99716882195E+03  0.99716882196E+03  0.50400001928E-02 0.  1.
       -1   -1    0    0    0  501  0.00000000000E+00  0.00000000000E+00 -0.36657137361E+03  0.36657137365E+03  0.50400001928E-02 0. -1.
    10030    2    1    2    0    0  0.00000000000E+00  0.00000000000E+00  0.63059744834E+03  0.13637401956E+04  0.12091874045E+04 0.  0.
        5    1    3    3  502    0  0.10212596137E+03  0.38921497527E+03  0.82418404449E+03  0.91718015578E+03  0.46999998093E+01 0.  1.
       -5    1    3    3    0  502 -0.10212596137E+03 -0.38921497527E+03 -0.19358659615E+03  0.44656003983E+03  0.46999998093E+01 0. -1.
</event>
<event>
 5   0  0.1469851E-03  0.1160327E+04  0.7818609E-02  0.9148309E-01
       -1   -1    0    0    0  501  0.00000000000E+00  0.00000000000E+00  0.40793817634E+03  0.40793817638E+03  0.50400001928E-02 0.  1.
        1   -1    0    0  501    0  0.00000000000E+00  0.00000000000E+00 -0.82509920394E+03  0.82509920396E+03  0.50400001928E-02 0. -1.
    10030    2    1    2    0    0  0.00000000000E+00  0.00000000000E+00 -0.41716102760E+03  0.12330373803E+04  0.11603266171E+04 0.  0.
        5    1    3    3  502    0  0.93308394017E+02 -0.14609739181E+03 -0.79691308963E+03  0.81556328185E+03  0.46999998093E+01 0. -1.
       -5    1    3    3    0  502 -0.93308394017E+02  0.14609739181E+03  0.37975206203E+03  0.41747409848E+03  0.46999998093E+01 0.  1.
</event>
<event>
 5   0  0.1423024E-03  0.1203019E+04  0.7818609E-02  0.9110218E-01
        1   -1    0    0  501    0  0.00000000000E+00  0.00000000000E+00  0.52599116507E+03  0.52599116509E+03  0.50400001928E-02 0. -1.
       -1   -1    0    0    0  501  0.00000000000E+00  0.00000000000E+00 -0.68786989985E+03  0.68786989987E+03  0.50400001928E-02 0.  1.
    10030    2    1    2    0    0  0.00000000000E+00  0.00000000000E+00 -0.16187873479E+03  0.12138610650E+04  0.12030186866E+04 0.  0.
        2    1    3    3  502    0  0.31250255674E+03  0.39008751863E+03  0.25672181016E+03  0.56190053211E+03  0.25500000920E-02 0. -1.
       -2    1    3    3    0  502 -0.31250255674E+03 -0.39008751863E+03 -0.41860054495E+03  0.65196053285E+03  0.25500000920E-02 0.  1.
</event>
<event>
 5   0  0.2517023E-03  0.1199103E+04  0.7818609E-02  0.9113642E-01
       -2   -1    0    0    0  501  0.00000000000E+00  0.00000000000E+00  0.23335508375E+03  0.23335508376E+03  0.25500000920E-02 0. -1.
        2   -1    0    0  501    0  0.00000000000E+00  0.00000000000E+00 -0.15404075948E+04  0.15404075948E+04  0.25500000920E-02 0.  1.
    10030    2    1    2    0    0  0.00000000000E+00  0.00000000000E+00 -0.13070525111E+04  0.17737626786E+04  0.11991029035E+04 0.  0.
        3    1    3    3  502    0  0.20692301962E+03 -0.24890253714E+03 -0.14000557766E+04  0.14369849675E+04  0.10100000352E+00 0.  1.
       -3    1    3    3    0  502 -0.20692301962E+03  0.24890253714E+03  0.93003265568E+02  0.33677771104E+03  0.10100000352E+00 0. -1.
</event>
<event>
 5   0  0.2499890E-03  0.1212581E+04  0.7818609E-02  0.9101915E-01
        2   -1    0    0  501    0  0.00000000000E+00  0.00000000000E+00  0.16617355198E+04  0.16617355198E+04  0.25500000920E-02 0. -1.
       -2   -1    0    0    0  501  0.00000000000E+00  0.00000000000E+00 -0.22120733418E+03  0.22120733419E+03  0.25500000920E-02 0.  1.
    10030    2    1    2    0    0  0.00000000000E+00  0.00000000000E+00  0.14405281856E+04  0.18829428539E+04  0.12125808583E+04 0.  0.
        5    1    3    3  502    0 -0.15365031559E+03  0.53461784255E+03  0.34583555648E+03  0.65501830446E+03  0.46999998093E+01 0.  1.
       -5    1    3    3    0  502  0.15365031559E+03 -0.53461784255E+03  0.10946926291E+04  0.12279245495E+04  0.46999998093E+01 0. -1.
</event>
<event>
 5   0  0.2484507E-03  0.1206710E+04  0.7818609E-02  0.9107003E-01
       -2   -1    0    0    0  501  0.00000000000E+00  0.00000000000E+00  0.51538289455E+03  0.51538289456E+03  0.25500000920E-02 0.  1.
        2   -1    0    0  501    0  0.00000000000E+00  0.00000000000E+00 -0.70634329316E+03  0.70634329316E+03  0.25500000920E-02 0. -1.
    10030    2    1    2    0    0  0.00000000000E+00  0.00000000000E+00 -0.19096039861E+03  0.12217261877E+04  0.12067099916E+04 0.  0.
        2    1    3    3  502    0  0.49407308165E+03  0.26613256833E+03 -0.31982848917E+03  0.64592957544E+03  0.25500000920E-02 0. -1.
       -2    1    3    3    0  502 -0.49407308165E+03 -0.26613256833E+03  0.12886809057E+03  0.57579661228E+03  0.25500000920E-02 0.  1.
</event>
<event>
 5   0  0.1423024E-03  0.1168861E+04  0.7818609E-02  0.9140558E-01
        1   -1    0    0  501    0  0.00000000000E+00  0.00000000000E+00  0.11158008441E+04  0.11158008441E+04  0.50400001928E-02 0. -1.
       -1   -1    0    0    0  501  0.00000000000E+00  0.00000000000E+00 -0.30611098262E+03  0.30611098266E+03  0.50400001928E-02 0.  1.
    10030    2    1    2    0    0  0.00000000000E+00  0.00000000000E+00  0.80968986146E+03  0.14219118268E+04  0.11688608007E+04 0.  0.
        2    1    3    3  502    0  0.27787161389E+03 -0.23664816800E+01 -0.22060400270E+03  0.35480186027E+03  0.25500000920E-02 0.  1.
       -2    1    3    3    0  502 -0.27787161389E+03  0.23664816800E+01  0.10302938642E+04  0.10671099665E+04  0.25500000920E-02 0. -1.
</event>
<event>
 5   0  0.2580244E-03  0.1194225E+04  0.7818609E-02  0.9117927E-01
       -2   -1    0    0    0  501  0.00000000000E+00  0.00000000000E+00  0.24186261879E+03  0.24186261881E+03  0.25500000920E-02 0. -1.
        2   -1    0    0  501    0  0.00000000000E+00  0.00000000000E+00 -0.14741559760E+04  0.14741559760E+04  0.25500000920E-02 0.  1.
    10030    2    1    2    0    0  0.00000000000E+00  0.00000000000E+00 -0.12322933572E+04  0.17160185948E+04  0.11942248111E+04 0.  0.
        1    1    3    3  502    0  0.37711637782E+03  0.42656474571E+03 -0.35762295183E+03  0.67236033524E+03  0.50400001928E-02 0. -1.
       -1    1    3    3    0  502 -0.37711637782E+03 -0.42656474571E+03 -0.87467040539E+03  0.10436582596E+04  0.50400001928E-02 0.  1.
</event>
<event>
 5   0  0.9678750E-04  0.1205504E+04  0.7818609E-02  0.9108052E-01
        3   -1    0    0  501    0  0.00000000000E+00  0.00000000000E+00  0.11503184590E+04  0.11503184634E+04  0.10100000352E+00 0. -1.
       -3   -1    0    0    0  501  0.00000000000E+00  0.00000000000E+00 -0.31583429524E+03  0.31583431139E+03  0.10100000352E+00 0.  1.
    10030    2    1    2    0    0  0.00000000000E+00  0.00000000000E+00  0.83448416375E+03  0.14661527748E+04  0.12055041018E+04 0.  0.
        1    1    3    3  502    0 -0.46622838608E+03  0.13377486448E+03 -0.17961585082E+02  0.48537330059E+03  0.50400001928E-02 0.  1.
       -1    1    3    3    0  502  0.46622838608E+03 -0.13377486448E+03  0.85244574884E+03  0.98077947424E+03  0.50400001928E-02 0. -1.
</event>
<event>
 5   0  0.9678750E-04  0.1205529E+04  0.7818609E-02  0.9108030E-01
       -4   -1    0    0    0  501  0.00000000000E+00  0.00000000000E+00  0.70963605907E+03  0.70963719550E+03  0.12699999809E+01 0.  1.
        4   -1    0    0  501    0  0.00000000000E+00  0.00000000000E+00 -0.51198578628E+03  0.51198736142E+03  0.12699999809E+01 0. -1.
    10030    2    1    2    0    0  0.00000000000E+00  0.00000000000E+00  0.19765027279E+03  0.12216245569E+04  0.12055293143E+04 0.  0.
        1    1    3    3  502    0  0.52430039517E+03 -0.24792332955E+03 -0.67587832372E+02  0.58388782897E+03  0.50400001928E-02 0. -1.
       -1    1    3    3    0  502 -0.52430039517E+03  0.24792332955E+03  0.26523810517E+03  0.63773672795E+03  0.50400001928E-02 0.  1.
</event>
<event>
 5   0  0.1404833E-03  0.1204580E+04  0.7818609E-02  0.9108857E-01
       -1   -1    0    0    0  501  0.00000000000E+00  0.00000000000E+00  0.81238862310E+03  0.81238862311E+03  0.50400001928E-02 0. -1.
        1   -1    0    0  501    0  0.00000000000E+00  0.00000000000E+00 -0.44652688078E+03  0.44652688081E+03  0.50400001928E-02 0.  1.
    10030    2    1    2    0    0  0.00000000000E+00  0.00000000000E+00  0.36586174232E+03  0.12589155039E+04  0.12045801889E+04 0.  0.
        1    1    3    3  502    0  0.26567107977E+03  0.44868159799E+03 -0.13209063443E+03  0.53790727336E+03  0.50400001928E-02 0.  1.
       -1    1    3    3    0  502 -0.26567107977E+03 -0.44868159799E+03  0.49795237675E+03  0.72100823056E+03  0.50400001928E-02 0. -1.
</event>
<event>
 5   0  0.1403154E-03  0.1146781E+04  0.7818609E-02  0.9160758E-01
        1   -1    0    0  501    0  0.00000000000E+00  0.00000000000E+00  0.49162388509E+03  0.49162388511E+03  0.50400001928E-02 0. -1.
       -1   -1    0    0    0  501  0.00000000000E+00  0.00000000000E+00 -0.66875632731E+03  0.66875632733E+03  0.50400001928E-02 0.  1.
    10030    2    1    2    0    0  0.00000000000E+00  0.00000000000E+00 -0.17713244222E+03  0.11603802124E+04  0.11467808576E+04 0.  0.
        3    1    3    3  502    0  0.11806092415E+03 -0.46940183755E+03  0.22248794959E+03  0.53270757909E+03  0.10100000352E+00 0.  1.
       -3    1    3    3    0  502 -0.11806092415E+03  0.46940183755E+03 -0.39962039182E+03  0.62767263336E+03  0.10100000352E+00 0. -1.
</event>
<event>
 5   0  0.1423024E-03  0.1201140E+04  0.7818609E-02  0.9111860E-01
        1   -1    0    0  501    0  0.00000000000E+00  0.00000000000E+00  0.13631308376E+04  0.13631308376E+04  0.50400001928E-02 0.  1.
       -1   -1    0    0    0  501  0.00000000000E+00  0.00000000000E+00 -0.26459976037E+03  0.26459976042E+03  0.50400001928E-02 0. -1.
    10030    2    1    2    0    0  0.00000000000E+00  0.00000000000E+00  0.10985310772E+04  0.16277305980E+04  0.12011396139E+04 0.  0.
        2    1    3    3  502    0  0.45118366658E+03  0.25181636604E+03  0.13443327346E+03  0.53390119705E+03  0.25500000920E-02 0. -1.
       -2    1    3    3    0  502 -0.45118366658E+03 -0.25181636604E+03  0.96409780372E+03  0.10938294009E+04  0.25500000920E-02 0.  1.
</event>
<event>
 5   0  0.1403154E-03  0.1205016E+04  0.7818609E-02  0.9108478E-01
       -1   -1    0    0    0  501  0.00000000000E+00  0.00000000000E+00  0.36373871230E+03  0.36373871234E+03  0.50400001928E-02 0.  1.
        1   -1    0    0  501    0  0.00000000000E+00  0.00000000000E+00 -0.99801218891E+03  0.99801218892E+03  0.50400001928E-02 0. -1.
    10030    2    1    2    0    0  0.00000000000E+00  0.00000000000E+00 -0.63427347661E+03  0.13617509013E+04  0.12050156322E+04 0.  0.
        3    1    3    3  502    0 -0.36867021133E+03  0.43906136994E+02 -0.85337825225E+03  0.93064489748E+03  0.10100000352E+00 0. -1.
       -3    1    3    3    0  502  0.36867021133E+03 -0.43906136994E+02  0.21910477564E+03  0.43110600378E+03  0.10100000352E+00 0.  1.
</event>
<event>
 5   0  0.1455076E-03  0.1210751E+04  0.7818609E-02  0.9103498E-01
        1   -1    0    0  501    0  0.00000000000E+00  0.00000000000E+00  0.81937681857E+03  0.81937681859E+03  0.50400001928E-02 0. -1.
       -1   -1    0    0    0  501  0.00000000000E+00  0.00000000000E+00 -0.44726641120E+03  0.44726641123E+03  0.50400001928E-02 0.  1.
    10030    2    1    2    0    0  0.00000000000E+00  0.00000000000E+00  0.37211040737E+03  0.12666432298E+04  0.12107513850E+04 0.  0.
        4    1    3    3  502    0  0.33078864035E+03 -0.37361761428E+03  0.54461123306E+03  0.73865706140E+03  0.12699999809E+01 0. -1.
       -4    1    3    3    0  502 -0.33078864035E+03  0.37361761428E+03 -0.17250082569E+03  0.52798616842E+03  0.12699999809E+01 0.  1.
</event>
<event>
 5   0  0.1423024E-03  0.1194783E+04  0.7818609E-02  0.9117435E-01
        1   -1    0    0  501    0  0.00000000000E+00  0.00000000000E+00  0.29886274770E+03  0.29886274774E+03  0.50400001928E-02 0.  1.
       -1   -1    0    0    0  501  0.00000000000E+00  0.00000000000E+00 -0.11941156997E+04  0.11941156997E+04  0.50400001928E-02 0. -1.
    10030    2    1    2    0    0  0.00000000000E+00  0.00000000000E+00 -0.89525295200E+03  0.14929784475E+04  0.11947831588E+04 0.  0.
        2    1    3    3  502    0  0.25647210199E+03 -0.36939404795E+03 -0.93902620340E+03  0.10411532608E+04  0.25500000920E-02 0. -1.
       -2    1    3    3    0  502 -0.25647210199E+03  0.36939404795E+03  0.43773251397E+02  0.45182518667E+03  0.25500000920E-02 0.  1.
</event>
<event>
 5   0  0.2484507E-03  0.1200969E+04  0.7818609E-02  0.9112008E-01
        2   -1    0    0  501    0  0.00000000000E+00  0.00000000000E+00  0.12518971949E+04  0.12518971949E+04  0.25500000920E-02 0. -1.
       -2   -1    0    0    0  501  0.00000000000E+00  0.00000000000E+00 -0.28802838363E+03  0.28802838364E+03  0.25500000920E-02 0.  1.
    10030    2    1    2    0    0  0.00000000000E+00  0.00000000000E+00  0.96386881131E+03  0.15399255786E+04  0.12009694843E+04 0.  0.
        2    1    3    3  502    0 -0.41996089760E+03  0.73049591537E+02 -0.60374661320E+02  0.43052119352E+03  0.25500000920E-02 0.  1.
       -2    1    3    3    0  502  0.41996089760E+03 -0.73049591537E+02  0.10242434726E+04  0.11094043850E+04  0.25500000920E-02 0. -1.
</event>
<event>
 5   0  0.1423024E-03  0.1199146E+04  0.7818609E-02  0.9113604E-01
       -1   -1    0    0    0  501  0.00000000000E+00  0.00000000000E+00  0.29015302954E+03  0.29015302959E+03  0.50400001928E-02 0.  1.
        1   -1    0    0  501    0  0.00000000000E+00  0.00000000000E+00 -0.12389592007E+04  0.12389592008E+04  0.50400001928E-02 0. -1.
    10030    2    1    2    0    0  0.00000000000E+00  0.00000000000E+00 -0.94880617120E+03  0.15291122303E+04  0.11991459721E+04 0.  0.
        2    1    3    3  502    0 -0.56474736698E+03 -0.19865085377E+03 -0.51642591594E+03  0.79063106243E+03  0.25500000920E-02 0. -1.
       -2    1    3    3    0  502  0.56474736698E+03  0.19865085377E+03 -0.43238025526E+03  0.73848116791E+03  0.25500000920E-02 0.  1.
</event>
<event>
 5   0  0.1469851E-03  0.1195083E+04  0.7818609E-02  0.9117171E-01
        1   -1    0    0  501    0  0.00000000000E+00  0.00000000000E+00  0.93043774724E+03  0.93043774726E+03  0.50400001928E-02 0. -1.
       -1   -1    0    0    0  501  0.00000000000E+00  0.00000000000E+00 -0.38375023956E+03  0.38375023960E+03  0.50400001928E-02 0.  1.
    10030    2    1    2    0    0  0.00000000000E+00  0.00000000000E+00  0.54668750768E+03  0.13141879869E+04  0.11950827728E+04 0.  0.
        5    1    3    3  502    0  0.16584197886E+03  0.31510240918E+03  0.80099916152E+03  0.87659274294E+03  0.46999998093E+01 0. -1.
       -5    1    3    3    0  502 -0.16584197886E+03 -0.31510240918E+03 -0.25431165384E+03  0.43759524392E+03  0.46999998093E+01 0.  1.
</event>
<event>
 5   0  0.9678750E-04  0.1191595E+04  0.7818609E-02  0.9120245E-01
       -3   -1    0    0    0  501  0.00000000000E+00  0.00000000000E+00  0.52436409908E+03  0.52436410881E+03  0.10100000352E+00 0. -1.
        3   -1    0    0  501    0  0.00000000000E+00  0.00000000000E+00 -0.67696254282E+03  0.67696255035E+03  0.10100000352E+00 0.  1.
    10030    2    1    2    0    0  0.00000000000E+00  0.00000000000E+00 -0.15259844374E+03  0.12013266592E+04  0.11915953411E+04 0.  0.
        4    1    3    3  502    0  0.51509710041E+03 -0.28450069558E+03  0.17777271772E+02  0.58871326886E+03  0.12699999809E+01 0.  1.
       -4    1    3    3    0  502 -0.51509710041E+03  0.28450069558E+03 -0.17037571551E+03  0.61261339030E+03  0.12699999809E+01 0. -1.
</event>
<event>
 5   0  0.2517023E-03  0.1191142E+04  0.7818609E-02  0.9120645E-01
        2   -1    0    0  501    0  0.00000000000E+00  0.00000000000E+00  0.76589348267E+03  0.76589348268E+03  0.25500000920E-02 0. -1.
       -2   -1    0    0    0  501  0.00000000000E+00  0.00000000000E+00 -0.46312560641E+03  0.46312560642E+03  0.25500000920E-02 0.  1.
    10030    2    1    2    0    0  0.00000000000E+00  0.00000000000E+00  0.30276787626E+03  0.12290190891E+04  0.11911421135E+04 0.  0.
        3    1    3    3  502    0  0.26494640161E+03 -0.13912817816E+03 -0.37991897547E+03  0.48362349385E+03  0.10100000352E+00 0.  1.
       -3    1    3    3    0  502 -0.26494640161E+03  0.13912817816E+03  0.68268685173E+03  0.74539559524E+03  0.10100000352E+00 0. -1.
</event>
<event>
 5   0  0.2517023E-03  0.1206700E+04  0.7818609E-02  0.9107012E-01
       -2   -1    0    0    0  501  0.00000000000E+00  0.00000000000E+00  0.52665433070E+03  0.52665433070E+03  0.25500000920E-02 0. -1.
        2   -1    0    0  501    0  0.00000000000E+00  0.00000000000E+00 -0.69121485485E+03  0.69121485485E+03  0.25500000920E-02 0.  1.
    10030    2    1    2    0    0  0.00000000000E+00  0.00000000000E+00 -0.16456052415E+03  0.12178691856E+04  0.12067001231E+04 0.  0.
        3    1    3    3  502    0  0.48780631802E+03  0.34072744685E+03 -0.18311037705E+03  0.62255892679E+03  0.10100000352E+00 0. -1.
       -3    1    3    3    0  502 -0.48780631802E+03 -0.34072744685E+03  0.18549852906E+02  0.59531025876E+03  0.10100000352E+00 0.  1.
</event>
<event>
 5   0  0.2579442E-03  0.1199704E+04  0.7818609E-02  0.9113116E-01
        2   -1    0    0  501    0  0.00000000000E+00  0.00000000000E+00  0.74519347191E+03  0.74519347191E+03  0.25500000920E-02 0. -1.
       -2   -1    0    0    0  501  0.00000000000E+00  0.00000000000E+00 -0.48285743839E+03  0.48285743840E+03  0.25500000920E-02 0.  1.
    10030    2    1    2    0    0  0.00000000000E+00  0.00000000000E+00  0.26233603352E+03  0.12280509103E+04  0.11997036483E+04 0.  0.
        4    1    3    3  502    0 -0.33330640260E+03  0.48190760546E+03 -0.28956413463E+00  0.58594350834E+03  0.12699999809E+01 0.  1.
       -4    1    3    3    0  502  0.33330640260E+03 -0.48190760546E+03  0.26262559766E+03  0.64210740197E+03  0.12699999809E+01 0. -1.
</event>
<event>
 5   0  0.2517023E-03  0.1322675E+04  0.7818609E-02  0.9011774E-01
        2   -1    0    0  501    0  0.00000000000E+00  0.00000000000E+00  0.26165962301E+04  0.26165962301E+04  0.25500000920E-02 0.  1.
       -2   -1    0    0    0  501  0.00000000000E+00  0.00000000000E+00 -0.16715123834E+03  0.16715123835E+03  0.25500000920E-02 0. -1.
    10030    2    1    2    0    0  0.00000000000E+00  0.00000000000E+00  0.24494449917E+04  0.27837474684E+04  0.13226750169E+04 0.  0.
        3    1    3    3  502    0 -0.37082425920E+03 -0.54182689152E+03  0.10579339856E+04  0.12451149905E+04  0.10100000352E+00 0. -1.
       -3    1    3    3    0  502  0.37082425920E+03  0.54182689152E+03  0.13915110062E+04  0.15386324779E+04  0.10100000352E+00 0.  1.
</event>
<event>
 5   0  0.2580244E-03  0.1198344E+04  0.7818609E-02  0.9114307E-01
       -2   -1    0    0    0  501  0.00000000000E+00  0.00000000000E+00  0.32455812239E+03  0.32455812240E+03  0.25500000920E-02 0.  1.
        2   -1    0    0  501    0  0.00000000000E+00  0.00000000000E+00 -0.11061417063E+04  0.11061417063E+04  0.25500000920E-02 0. -1.
    10030    2    1    2    0    0  0.00000000000E+00  0.00000000000E+00 -0.78158358388E+03  0.14306998287E+04  0.11983443166E+04 0.  0.
        1    1    3    3  502    0 -0.88654541995E+02  0.46713089997E+03  0.44508353297E+02  0.47754779767E+03  0.50400001928E-02 0.  1.
       -1    1    3    3    0  502  0.88654541995E+02 -0.46713089997E+03 -0.82609193718E+03  0.95315203101E+03  0.50400001928E-02 0. -1.
</event>
<event>
 5   0  0.2517023E-03  0.1201738E+04  0.7818609E-02  0.9111337E-01
       -2   -1    0    0    0  501  0.00000000000E+00  0.00000000000E+00  0.86377222302E+03  0.86377222302E+03  0.25500000920E-02 0.  1.
        2   -1    0    0  501    0  0.00000000000E+00  0.00000000000E+00 -0.41798464631E+03  0.41798464631E+03  0.25500000920E-02 0. -1.
    10030    2    1    2    0    0  0.00000000000E+00  0.00000000000E+00  0.44578757671E+03  0.12817568693E+04  0.12017379534E+04 0.  0.
        3    1    3    3  502    0  0.16942091155E+03 -0.50866820148E+03 -0.66457315064E+02  0.54024380551E+03  0.10100000352E+00 0. -1.
       -3    1    3    3    0  502 -0.16942091155E+03  0.50866820148E+03  0.51224489177E+03  0.74151306382E+03  0.10100000352E+00 0.  1.
</event>
<event>
 5   0  0.2499890E-03  0.1176006E+04  0.7818609E-02  0.9134122E-01
       -2   -1    0    0    0  501  0.00000000000E+00  0.00000000000E+00  0.13015226923E+04  0.13015226923E+04  0.25500000920E-02 0.  1.
        2   -1    0    0  501    0  0.00000000000E+00  0.00000000000E+00 -0.26564840429E+03  0.26564840430E+03  0.25500000920E-02 0. -1.
    10030    2    1    2    0    0  0.00000000000E+00  0.00000000000E+00  0.10358742880E+04  0.15671710966E+04  0.11760058271E+04 0.  0.
        5    1    3    3  502    0 -0.57241063164E+03  0.10898131853E+03  0.41305313601E+03  0.71425894616E+03  0.46999998093E+01 0.  1.
       -5    1    3    3    0  502  0.57241063164E+03 -0.10898131853E+03  0.62282115201E+03  0.85291215046E+03  0.46999998093E+01 0. -1.
</event>
<event>
 5   0  0.1403154E-03  0.1193551E+04  0.7818609E-02  0.9118520E-01
       -1   -1    0    0    0  501  0.00000000000E+00  0.00000000000E+00  0.21164305288E+03  0.21164305294E+03  0.50400001928E-02 0. -1.
        1   -1    0    0  501    0  0.00000000000E+00  0.00000000000E+00 -0.16827437210E+04  0.16827437210E+04  0.50400001928E-02 0.  1.
    10030    2    1    2    0    0  0.00000000000E+00  0.00000000000E+00 -0.14711006681E+04  0.18943867739E+04  0.11935510352E+04 0.  0.
        3    1    3    3  502    0  0.83436143351E+02  0.40457726750E+03 -0.51960338949E+02  0.41634630107E+03  0.10100000352E+00 0. -1.
       -3    1    3    3    0  502 -0.83436143351E+02 -0.40457726750E+03 -0.14191403292E+04  0.14780404729E+04  0.10100000352E+00 0.  1.
</event>
<event>
 5   0  0.1404833E-03  0.1204694E+04  0.7818609E-02  0.9108758E-01
        1   -1    0    0  501    0  0.00000000000E+00  0.00000000000E+00  0.93950276014E+03  0.93950276016E+03  0.50400001928E-02 0.  1.
       -1   -1    0    0    0  501  0.00000000000E+00  0.00000000000E+00 -0.38618498226E+03  0.38618498229E+03  0.50400001928E-02 0. -1.
    10030    2    1    2    0    0  0.00000000000E+00  0.00000000000E+00  0.55331777788E+03  0.13256877424E+04  0.12046939143E+04 0.  0.
        1    1    3    3  502    0  0.11357268384E+03  0.20570385408E+03 -0.33367018968E+03  0.40810369467E+03  0.50400001928E-02 0. -1.
       -1    1    3    3    0  502 -0.11357268384E+03 -0.20570385408E+03  0.88698796757E+03  0.91758404778E+03  0.50400001928E-02 0.  1.
</event>
<event>
 5   0  0.1403154E-03  0.1229335E+04  0.7818609E-02  0.9087560E-01
       -1   -1    0    0    0  501  0.00000000000E+00  0.00000000000E+00  0.20411006944E+03  0.20411006951E+03  0.50400001928E-02 0.  1.
        1   -1    0    0  501    0  0.00000000000E+00  0.00000000000E+00 -0.18510405131E+04  0.18510405131E+04  0.50400001928E-02 0. -1.
    10030    2    1    2    0    0  0.00000000000E+00  0.00000000000E+00 -0.16469304437E+04  0.20551505826E+04  0.12293347921E+04 0.  0.
        3    1    3    3  502    0  0.60565698255E+03 -0.92618002426E+02 -0.90566274896E+03  0.10934457005E+04  0.10100000352E+00 0.  1.
       -3    1    3    3    0  502 -0.60565698255E+03  0.92618002426E+02 -0.74126769470E+03  0.96170488212E+03  0.10100000352E+00 0. -1.
</event>
<event>
 5   0  0.1404833E-03  0.1247009E+04  0.7818609E-02  0.9072676E-01
        1   -1    0    0  501    0  0.00000000000E+00  0.00000000000E+00  0.54608474751E+03  0.54608474754E+03  0.50400001928E-02 0.  1.
       -1   -1    0    0    0  501  0.00000000000E+00  0.00000000000E+00 -0.71190065610E+03  0.71190065612E+03  0.50400001928E-02 0. -1.
    10030    2    1    2    0    0  0.00000000000E+00  0.00000000000E+00 -0.16581590859E+03  0.12579854037E+04  0.12470093666E+04 0.  0.
        1    1    3    3  502    0 -0.41422991090E+03 -0.40034825093E+03  0.15771392207E+03  0.59727616924E+03  0.50400001928E-02 0. -1.
       -1    1    3    3    0  502  0.41422991090E+03  0.40034825093E+03 -0.32352983065E+03  0.66070923442E+03  0.50400001928E-02 0.  1.
</event>
<event>
 5   0  0.1455076E-03  0.1198787E+04  0.7818609E-02  0.9113919E-01
       -1   -1    0    0    0  501  0.00000000000E+00  0.00000000000E+00  0.62375299712E+03  0.62375299714E+03  0.50400001928E-02 0.  1.
        1   -1    0    0  501    0  0.00000000000E+00  0.00000000000E+00 -0.57598504667E+03  0.57598504670E+03  0.50400001928E-02 0. -1.
    10030    2    1    2    0    0  0.00000000000E+00  0.00000000000E+00  0.47767950444E+02  0.11997380438E+04  0.11987867186E+04 0.  0.
        4    1    3    3  502    0  0.25919242352E+03  0.20491112586E+03  0.52438233652E+03  0.61979652279E+03  0.12699999809E+01 0.  1.
       -4    1    3    3    0  502 -0.25919242352E+03 -0.20491112586E+03 -0.47661438608E+03  0.57994152104E+03  0.12699999809E+01 0. -1.
</event>
<event>
 5   0  0.2579442E-03  0.1196114E+04  0.7818609E-02  0.9116265E-01
       -2   -1    0    0    0  501  0.00000000000E+00  0.00000000000E+00  0.73934377231E+03  0.73934377232E+03  0.25500000920E-02 0.  1.
        2   -1    0    0  501    0  0.00000000000E+00  0.00000000000E+00 -0.48376990568E+03  0.48376990569E+03  0.25500000920E-02 0. -1.
    10030    2    1    2    0    0  0.00000000000E+00  0.00000000000E+00  0.25557386663E+03  0.12231136780E+04  0.11961141534E+04 0.  0.
        4    1    3    3  502    0 -0.49583986261E+03 -0.32742481538E+03  0.58383883746E+02  0.59705482986E+03  0.12699999809E+01 0. -1.
       -4    1    3    3    0  502  0.49583986261E+03  0.32742481538E+03  0.19718998288E+03  0.62605884814E+03  0.12699999809E+01 0.  1.
</event>
<event>
 5   0  0.2499890E-03  0.1203053E+04  0.7818609E-02  0.9110189E-01
       -2   -1    0    0    0  501  0.00000000000E+00  0.00000000000E+00  0.63017386887E+03  0.63017386887E+03  0.25500000920E-02 0. -1.
        2   -1    0    0  501    0  0.00000000000E+00  0.00000000000E+00 -0.57418130039E+03  0.57418130039E+03  0.25500000920E-02 0.  1.
    10030    2    1    2    0    0  0.00000000000E+00  0.00000000000E+00  0.55992568482E+02  0.12043551693E+04  0.12030528692E+04 0.  0.
        5    1    3    3  502    0 -0.42649089292E+03 -0.31075263302E+03 -0.26102072429E+03  0.58874068076E+03  0.46999998093E+01 0.  1.
       -5    1    3    3    0  502  0.42649089292E+03  0.31075263302E+03  0.31701329277E+03  0.61561448851E+03  0.46999998093E+01 0. -1.
</event>
<event>
 5   0  0.1404833E-03  0.1224849E+04  0.7818609E-02  0.9091380E-01
       -1   -1    0    0    0  501  0.00000000000E+00  0.00000000000E+00  0.68905789624E+03  0.68905789626E+03  0.50400001928E-02 0.  1.
        1   -1    0    0  501    0  0.00000000000E+00  0.00000000000E+00 -0.54431390478E+03  0.54431390481E+03  0.50400001928E-02 0. -1.
    10030    2    1    2    0    0  0.00000000000E+00  0.00000000000E+00  0.14474399146E+03  0.12333718011E+04  0.12248490424E+04 0.  0.
        1    1    3    3  502    0 -0.90230947231E+02  0.33663945278E+03 -0.43471525248E+03  0.55717600071E+03  0.50400001928E-02 0. -1.
       -1    1    3    3    0  502  0.90230947231E+02 -0.33663945278E+03  0.57945924394E+03  0.67619580035E+03  0.50400001928E-02 0.  1.
</event>
<event>
 5   0  0.2517023E-03  0.1203099E+04  0.7818609E-02  0.9110148E-01
       -2   -1    0    0    0  501  0.00000000000E+00  0.00000000000E+00  0.34420876688E+03  0.34420876689E+03  0.25500000920E-02 0.  1.
        2   -1    0    0  501    0  0.00000000000E+00  0.00000000000E+00 -0.10512865658E+04  0.10512865658E+04  0.25500000920E-02 0. -1.
    10030    2    1    2    0    0  0.00000000000E+00  0.00000000000E+00 -0.70707779892E+03  0.13954953327E+04  0.12030994181E+04 0.  0.
        3    1    3    3  502    0  0.46207876618E+03 -0.24121736075E+03 -0.70182205986E+03  0.87421783051E+03  0.10100000352E+00 0. -1.
       -3    1    3    3    0  502 -0.46207876618E+03  0.24121736075E+03 -0.52557390563E+01  0.52127750217E+03  0.10100000352E+00 0.  1.
</event>
<event>
 5   0  0.2580244E-03  0.1185618E+04  0.7818609E-02  0.9125539E-01
        2   -1    0    0  501    0  0.00000000000E+00  0.00000000000E+00  0.14305488460E+04  0.14305488460E+04  0.25500000920E-02 0.  1.
       -2   -1    0    0    0  501  0.00000000000E+00  0.00000000000E+00 -0.24565582075E+03  0.24565582076E+03  0.25500000920E-02 0. -1.
    10030    2    1    2    0    0  0.00000000000E+00  0.00000000000E+00  0.11848930253E+04  0.16762046668E+04  0.11856182369E+04 0.  0.
        1    1    3    3  502    0  0.32733995986E+03  0.30426436716E+03  0.41807543212E+02  0.44886091960E+03  0.50400001928E-02 0. -1.
       -1    1    3    3    0  502 -0.32733995986E+03 -0.30426436716E+03  0.11430854821E+04  0.12273437472E+04  0.50400001928E-02 0.  1.
</event>
<event>
 5   0  0.2484507E-03  0.1184385E+04  0.7818609E-02  0.9126635E-01
       -2   -1    0    0    0  501  0.00000000000E+00  0.00000000000E+00  0.37718504867E+03  0.37718504868E+03  0.25500000920E-02 0.  1.
        2   -1    0    0  501    0  0.00000000000E+00  0.00000000000E+00 -0.92976163314E+03  0.92976163314E+03  0.25500000920E-02 0. -1.
    10030    2    1    2    0    0  0.00000000000E+00  0.00000000000E+00 -0.55257658446E+03  0.13069466818E+04  0.11843853881E+04 0.  0.
        2    1    3    3  502    0  0.22439251052E+03  0.48369895508E+03  0.80064066749E+01  0.53327364502E+03  0.25500000920E-02 0.  1.
       -2    1    3    3    0  502 -0.22439251052E+03 -0.48369895508E+03 -0.56058299114E+03  0.77367303680E+03  0.25500000920E-02 0. -1.
</event>
<event>
 5   0  0.9678750E-04  0.1199605E+04  0.7818609E-02  0.9113202E-01
        4   -1    0    0  501    0  0.00000000000E+00  0.00000000000E+00  0.22997885199E+04  0.22997888706E+04  0.12699999809E+01 0.  1.
       -4   -1    0    0    0  501  0.00000000000E+00  0.00000000000E+00 -0.15643017015E+03  0.15643532540E+03  0.12699999809E+01 0. -1.
    10030    2    1    2    0    0  0.00000000000E+00  0.00000000000E+00  0.21433583498E+04  0.24562241960E+04  0.11996050539E+04 0.  0.
        5    1    3    3  502    0 -0.54139995806E+03 -0.41818098174E+02  0.15932094135E+04  0.16832115118E+04  0.46999998093E+01 0.  1.
       -5    1    3    3    0  502  0.54139995806E+03  0.41818098174E+02  0.55014893622E+03  0.77301268421E+03  0.46999998093E+01 0. -1.
</event>
<event>
 5   0  0.1455076E-03  0.1200387E+04  0.7818609E-02  0.9112518E-01
        1   -1    0    0  501    0  0.00000000000E+00  0.00000000000E+00  0.30081622062E+03  0.30081622066E+03  0.50400001928E-02 0. -1.
       -1   -1    0    0    0  501  0.00000000000E+00  0.00000000000E+00 -0.11975160954E+04  0.11975160954E+04  0.50400001928E-02 0.  1.
    10030    2    1    2    0    0  0.00000000000E+00  0.00000000000E+00 -0.89669987473E+03  0.14983323160E+04  0.12003870475E+04 0.  0.
        4    1    3    3  502    0 -0.17086863055E+03 -0.51867445038E+03 -0.75917965891E+03  0.93518695553E+03  0.12699999809E+01 0.  1.
       -4    1    3    3    0  502  0.17086863055E+03  0.51867445038E+03 -0.13752021583E+03  0.56314536050E+03  0.12699999809E+01 0. -1.
</event>
<event>
 5   0  0.2499890E-03  0.1204049E+04  0.7818609E-02  0.9109320E-01
        2   -1    0    0  501    0  0.00000000000E+00  0.00000000000E+00  0.74292636254E+03  0.74292636255E+03  0.25500000920E-02 0. -1.
       -2   -1    0    0    0  501  0.00000000000E+00  0.00000000000E+00 -0.48784606651E+03  0.48784606651E+03  0.25500000920E-02 0.  1.
    10030    2    1    2    0    0  0.00000000000E+00  0.00000000000E+00  0.25508029604E+03  0.12307724291E+04  0.12040493406E+04 0.  0.
        5    1    3    3  502    0  0.35330338764E+02  0.39777286394E+03  0.58802721928E+03  0.71082317402E+03  0.46999998093E+01 0. -1.
       -5    1    3    3    0  502 -0.35330338764E+02 -0.39777286394E+03 -0.33294692324E+03  0.51994925504E+03  0.46999998093E+01 0.  1.
</event>
<event>
 5   0  0.9678750E-04  0.1188736E+04  0.7818609E-02  0.9122773E-01
        4   -1    0    0  501    0  0.00000000000E+00  0.00000000000E+00  0.24387822948E+03  0.24388153623E+03  0.12699999809E+01 0. -1.
       -4   -1    0    0    0  501  0.00000000000E+00  0.00000000000E+00 -0.14485519824E+04  0.14485525391E+04  0.12699999809E+01 0.  1.
    10030    2    1    2    0    0  0.00000000000E+00  0.00000000000E+00 -0.12046737529E+04  0.16924340754E+04  0.11887364083E+04 0.  0.
        4    1    3    3  502    0  0.25776605435E+03  0.22480846994E+02  0.15948682954E+03  0.30395129372E+03  0.12699999809E+01 0. -1.
       -4    1    3    3    0  502 -0.25776605435E+03 -0.22480846994E+02 -0.13641605825E+04  0.13884827817E+04  0.12699999809E+01 0.  1.
</event>
<event>
 5   0  0.1469851E-03  0.1219200E+04  0.7818609E-02  0.9096215E-01
       -1   -1    0    0    0  501  0.00000000000E+00  0.00000000000E+00  0.59632992908E+03  0.59632992910E+03  0.50400001928E-02 0.  1.
        1   -1    0    0  501    0  0.00000000000E+00  0.00000000000E+00 -0.62316537844E+03  0.62316537846E+03  0.50400001928E-02 0. -1.
    10030    2    1    2    0    0  0.00000000000E+00  0.00000000000E+00 -0.26835449358E+02  0.12194953076E+04  0.12192000098E+04 0.  0.
        5    1    3    3  502    0 -0.38629279933E+03  0.32785182654E+03  0.32560555705E+03  0.60228731994E+03  0.46999998093E+01 0.  1.
       -5    1    3    3    0  502  0.38629279933E+03 -0.32785182654E+03 -0.35244100641E+03  0.61720798762E+03  0.46999998093E+01 0. -1.
</event>
<event>
 5   0  0.1455076E-03  0.1213765E+04  0.7818609E-02  0.9100893E-01
        1   -1    0    0  501    0  0.00000000000E+00  0.00000000000E+00  0.30996900874E+03  0.30996900878E+03  0.50400001928E-02 0.  1.
       -1   -1    0    0    0  501  0.00000000000E+00  0.00000000000E+00 -0.11882032482E+04  0.11882032482E+04  0.50400001928E-02 0. -1.
    10030    2    1    2    0    0  0.00000000000E+00  0.00000000000E+00 -0.87823423945E+03  0.14981722570E+04  0.12137646939E+04 0.  0.
        4    1    3    3  502    0 -0.20262953593E+03  0.12159160162E+03  0.25084521673E+03  0.34462759912E+03  0.12699999809E+01 0.  1.
       -4    1    3    3    0  502  0.20262953593E+03 -0.12159160162E+03 -0.11290794562E+04  0.11535446579E+04  0.12699999809E+01 0. -1.
</event>
<event>
 5   0  0.1403154E-03  0.1196769E+04  0.7818609E-02  0.9115689E-01
       -1   -1    0    0    0  501  0.00000000000E+00  0.00000000000E+00  0.33840101443E+03  0.33840101447E+03  0.50400001928E-02 0. -1.
        1   -1    0    0  501    0  0.00000000000E+00  0.00000000000E+00 -0.10581052521E+04  0.10581052521E+04  0.50400001928E-02 0.  1.
    10030    2    1    2    0    0  0.00000000000E+00  0.00000000000E+00 -0.71970423769E+03  0.13965062666E+04  0.11967688009E+04 0.  0.
        3    1    3    3  502    0  0.10741792192E+03 -0.45053403868E+02 -0.10447477285E+04  0.10512213114E+04  0.10100000352E+00 0.  1.
       -3    1    3    3    0  502 -0.10741792192E+03  0.45053403868E+02  0.32504349082E+03  0.34528495518E+03  0.10100000352E+00 0. -1.
</event>
<event>
 5   0  0.9678750E-04  0.1190303E+04  0.7818609E-02  0.9121387E-01
        3   -1    0    0  501    0  0.00000000000E+00  0.00000000000E+00  0.51419668133E+03  0.51419669125E+03  0.10100000352E+00 0.  1.
       -3   -1    0    0    0  501  0.00000000000E+00  0.00000000000E+00 -0.68885189225E+03  0.68885189966E+03  0.10100000352E+00 0. -1.
    10030    2    1    2    0    0  0.00000000000E+00  0.00000000000E+00 -0.17465521092E+03  0.12030485909E+04  0.11903030998E+04 0.  0.
        3    1    3    3  502    0  0.54811957423E+03  0.16524090955E+03  0.77097282132E+02  0.57765355271E+03  0.10100000352E+00 0.  1.
       -3    1    3    3    0  502 -0.54811957423E+03 -0.16524090955E+03 -0.25175249305E+03  0.62539503820E+03  0.10100000352E+00 0. -1.
</event>
<event>
 5   0  0.1469851E-03  0.1212587E+04  0.7818609E-02  0.9101910E-01
       -1   -1    0    0    0  501  0.00000000000E+00  0.00000000000E+00  0.25782555045E+03  0.25782555049E+03  0.50400001928E-02 0. -1.
        1   -1    0    0  501    0  0.00000000000E+00  0.00000000000E+00 -0.14257374908E+04  0.14257374908E+04  0.50400001928E-02 0.  1.
    10030    2    1    2    0    0  0.00000000000E+00  0.00000000000E+00 -0.11679119403E+04  0.16835630413E+04  0.12125865798E+04 0.  0.
        5    1    3    3  502    0  0.16709429967E+02  0.34994679988E+03 -0.12709401260E+04  0.13183523283E+04  0.46999998093E+01 0.  1.
       -5    1    3    3    0  502 -0.16709429967E+02 -0.34994679988E+03  0.10302818567E+03  0.36521071293E+03  0.46999998093E+01 0. -1.
</event>
<event>
 5   0  0.1404833E-03  0.1201942E+04  0.7818609E-02  0.9111158E-01
       -1   -1    0    0    0  501  0.00000000000E+00  0.00000000000E+00  0.36818292058E+03  0.36818292061E+03  0.50400001928E-02 0.  1.
        1   -1    0    0  501    0  0.00000000000E+00  0.00000000000E+00 -0.98094286079E+03  0.98094286080E+03  0.50400001928E-02 0. -1.
    10030    2    1    2    0    0  0.00000000000E+00  0.00000000000E+00 -0.61275994021E+03  0.13491257814E+04  0.12019424403E+04 0.  0.
        1    1    3    3  502    0 -0.21033998204E+03 -0.51894250706E+03 -0.61432262788E+02  0.56331000046E+03  0.50400001928E-02 0.  1.
       -1    1    3    3    0  502  0.21033998204E+03  0.51894250706E+03 -0.55132767742E+03  0.78581578095E+03  0.50400001928E-02 0. -1.
</event>
<event>
 5   0  0.9678750E-04  0.1174314E+04  0.7818609E-02  0.9135641E-01
       -3   -1    0    0    0  501  0.00000000000E+00  0.00000000000E+00  0.55095966959E+03  0.55095967885E+03  0.10100000352E+00 0.  1.
        3   -1    0    0  501    0  0.00000000000E+00  0.00000000000E+00 -0.62573263149E+03  0.62573263964E+03  0.10100000352E+00 0. -1.
    10030    2    1    2    0    0  0.00000000000E+00  0.00000000000E+00 -0.74772961902E+02  0.11766923185E+04  0.11743141899E+04 0.  0.
        4    1    3    3  502    0 -0.38988739852E+03  0.53002403072E+02  0.39930614104E+03  0.56059650857E+03  0.12699999809E+01 0.  1.
       -4    1    3    3    0  502  0.38988739852E+03 -0.53002403072E+02 -0.47407910294E+03  0.61609580992E+03  0.12699999809E+01 0. -1.
</event>
<event>
 5   0  0.2580244E-03  0.1190058E+04  0.7818609E-02  0.9121603E-01
        2   -1    0    0  501    0  0.00000000000E+00  0.00000000000E+00  0.10779851484E+04  0.10779851484E+04  0.25500000920E-02 0. -1.
       -2   -1    0    0    0  501  0.00000000000E+00  0.00000000000E+00 -0.32844580159E+03  0.32844580160E+03  0.25500000920E-02 0.  1.
    10030    2    1    2    0    0  0.00000000000E+00  0.00000000000E+00  0.74953934679E+03  0.14064309500E+04  0.11900583115E+04 0.  0.
        1    1    3    3  502    0  0.36834109535E+03  0.19294013134E+03  0.87778323968E+03  0.97129010738E+03  0.50400001928E-02 0. -1.
       -1    1    3    3    0  502 -0.36834109535E+03 -0.19294013134E+03 -0.12824389289E+03  0.43514084260E+03  0.50400001928E-02 0.  1.
</event>
<event>
 5   0  0.1404833E-03  0.1202020E+04  0.7818609E-02  0.9111090E-01
        1   -1    0    0  501    0  0.00000000000E+00  0.00000000000E+00  0.13255495568E+04  0.13255495569E+04  0.50400001928E-02 0.  1.
       -1   -1    0    0    0  501  0.00000000000E+00  0.00000000000E+00 -0.27250061036E+03  0.27250061041E+03  0.50400001928E-02 0. -1.
    10030    2    1    2    0    0  0.00000000000E+00  0.00000000000E+00  0.10530489465E+04  0.15980501673E+04  0.12020200720E+04 0.  0.
        1    1    3    3  502    0  0.26595182481E+02  0.51259686674E+03  0.11086513424E+03  0.52512277568E+03  0.50400001928E-02 0. -1.
       -1    1    3    3    0  502 -0.26595182481E+02 -0.51259686674E+03  0.94218381225E+03  0.10729273916E+04  0.50400001928E-02 0.  1.
</event>
<event>
 5   0  0.2579442E-03  0.1205091E+04  0.7818609E-02  0.9108412E-01
        2   -1    0    0  501    0  0.00000000000E+00  0.00000000000E+00  0.16383622138E+04  0.16383622138E+04  0.25500000920E-02 0.  1.
       -2   -1    0    0    0  501  0.00000000000E+00  0.00000000000E+00 -0.22160010113E+03  0.22160010114E+03  0.25500000920E-02 0. -1.
    10030    2    1    2    0    0  0.00000000000E+00  0.00000000000E+00  0.14167621126E+04  0.18599623149E+04  0.12050912534E+04 0.  0.
        4    1    3    3  502    0  0.54391900895E+03  0.38952743550E+02  0.11039739076E+04  0.12313103614E+04  0.12699999809E+01 0. -1.
       -4    1    3    3    0  502 -0.54391900895E+03 -0.38952743550E+02  0.31278820501E+03  0.62865195348E+03  0.12699999809E+01 0.  1.
</event>
<event>
 5   0  0.2499890E-03  0.1185420E+04  0.7818609E-02  0.9125715E-01
        2   -1    0    0  501    0  0.00000000000E+00  0.00000000000E+00  0.16921705277E+04  0.16921705277E+04  0.25500000920E-02 0.  1.
       -2   -1    0    0    0  501  0.00000000000E+00  0.00000000000E+00 -0.20760623399E+03  0.20760623401E+03  0.25500000920E-02 0. -1.
    10030    2    1    2    0    0  0.00000000000E+00  0.00000000000E+00  0.14845642937E+04  0.18997767617E+04  0.11854200109E+04 0.  0.
        5    1    3    3  502    0  0.15343069357E+03 -0.18820592562E+03  0.16087651274E+04  0.16269940914E+04  0.46999998093E+01 0.  1.
       -5    1    3    3    0  502 -0.15343069357E+03  0.18820592562E+03 -0.12420083368E+03  0.27278267036E+03  0.46999998093E+01 0. -1.
</event>
<event>
 5   0  0.1423024E-03  0.1213172E+04  0.7818609E-02  0.9101404E-01
        1   -1    0    0  501    0  0.00000000000E+00  0.00000000000E+00  0.82847576623E+03  0.82847576624E+03  0.50400001928E-02 0. -1.
       -1   -1    0    0    0  501  0.00000000000E+00  0.00000000000E+00 -0.44412501165E+03  0.44412501168E+03  0.50400001928E-02 0.  1.
    10030    2    1    2    0    0  0.00000000000E+00  0.00000000000E+00  0.38435075458E+03  0.12726007779E+04  0.12131723857E+04 0.  0.
        2    1    3    3  502    0 -0.38591241552E+03  0.35190964543E+03  0.51579734727E+03  0.73404066267E+03  0.25500000920E-02 0. -1.
       -2    1    3    3    0  502  0.38591241552E+03 -0.35190964543E+03 -0.13144659269E+03  0.53856011525E+03  0.25500000920E-02 0.  1.
</event>
<event>
 5   0  0.1404833E-03  0.1176819E+04  0.7818609E-02  0.9133392E-01
        1   -1    0    0  501    0  0.00000000000E+00  0.00000000000E+00  0.15447847124E+04  0.15447847124E+04  0.50400001928E-02 0. -1.
       -1   -1    0    0    0  501  0.00000000000E+00  0.00000000000E+00 -0.22412562349E+03  0.22412562354E+03  0.50400001928E-02 0.  1.
    10030    2    1    2    0    0  0.00000000000E+00  0.00000000000E+00  0.13206590889E+04  0.17689103360E+04  0.11768191652E+04 0.  0.
        1    1    3    3  502    0  0.27640103184E+03 -0.17114556105E+03 -0.76874122081E+02  0.33406281467E+03  0.50400001928E-02 0.  1.
       -1    1    3    3    0  502 -0.27640103184E+03  0.17114556105E+03  0.13975332110E+04  0.14348475213E+04  0.50400001928E-02 0. -1.
</event>
<event>
 5   0  0.2484507E-03  0.1169819E+04  0.7818609E-02  0.9139692E-01
       -2   -1    0    0    0  501  0.00000000000E+00  0.00000000000E+00  0.16482662926E+03  0.16482662928E+03  0.25500000920E-02 0. -1.
        2   -1    0    0  501    0  0.00000000000E+00  0.00000000000E+00 -0.20756300231E+04  0.20756300231E+04  0.25500000920E-02 0.  1.
    10030    2    1    2    0    0  0.00000000000E+00  0.00000000000E+00 -0.19108033938E+04  0.22404566524E+04  0.11698189609E+04 0.  0.
        2    1    3    3  502    0 -0.17072499037E+03  0.18930683657E+03 -0.19636408949E+04  0.19801185986E+04  0.25500000920E-02 0.  1.
       -2    1    3    3    0  502  0.17072499037E+03 -0.18930683657E+03  0.52837501021E+02  0.26033805375E+03  0.25500000920E-02 0. -1.
</event>
<event>
 5   0  0.1403154E-03  0.1214080E+04  0.7818609E-02  0.9100621E-01
       -1   -1    0    0    0  501  0.00000000000E+00  0.00000000000E+00  0.48113813703E+03  0.48113813705E+03  0.50400001928E-02 0.  1.
        1   -1    0    0  501    0  0.00000000000E+00  0.00000000000E+00 -0.76588737602E+03  0.76588737604E+03  0.50400001928E-02 0. -1.
    10030    2    1    2    0    0  0.00000000000E+00  0.00000000000E+00 -0.28474923899E+03  0.12470255131E+04  0.12140801049E+04 0.  0.
        3    1    3    3  502    0  0.46959586207E+03  0.31848653031E+03 -0.36396878200E+03  0.67411217771E+03  0.10100000352E+00 0. -1.
       -3    1    3    3    0  502 -0.46959586207E+03 -0.31848653031E+03  0.79219543008E+02  0.57291333538E+03  0.10100000352E+00 0.  1.
</event>
<event>
 5   0  0.1403154E-03  0.1200152E+04  0.7818609E-02  0.9112724E-01
        1   -1    0    0  501    0  0.00000000000E+00  0.00000000000E+00  0.11772370421E+04  0.11772370421E+04  0.50400001928E-02 0. -1.
       -1   -1    0    0    0  501  0.00000000000E+00  0.00000000000E+00 -0.30587809019E+03  0.30587809023E+03  0.50400001928E-02 0.  1.
    10030    2    1    2    0    0  0.00000000000E+00  0.00000000000E+00  0.87135895191E+03  0.14831151323E+04  0.12001516874E+04 0.  0.
        3    1    3    3  502    0  0.46383905989E+02  0.48110139820E+03 -0.38129015007E+01  0.48334725664E+03  0.10100000352E+00 0.  1.
       -3    1    3    3    0  502 -0.46383905989E+02 -0.48110139820E+03  0.87517185341E+03  0.99976787570E+03  0.10100000352E+00 0. -1.
</event>
<event>
 5   0  0.2484507E-03  0.1200650E+04  0.7818609E-02  0.9112288E-01
        2   -1    0    0  501    0  0.00000000000E+00  0.00000000000E+00  0.10326650849E+04  0.10326650849E+04  0.25500000920E-02 0. -1.
       -2   -1    0    0    0  501  0.00000000000E+00  0.00000000000E+00 -0.34899010930E+03  0.34899010931E+03  0.25500000920E-02 0.  1.
    10030    2    1    2    0    0  0.00000000000E+00  0.00000000000E+00  0.68367497564E+03  0.13816551942E+04  0.12006496589E+04 0.  0.
        2    1    3    3  502    0 -0.18817135601E+02  0.53637252753E+03  0.32328254858E+02  0.53767526347E+03  0.25500000920E-02 0.  1.
       -2    1    3    3    0  502  0.18817135601E+02 -0.53637252753E+03  0.65134672078E+03  0.84397993078E+03  0.25500000920E-02 0. -1.
</event>
<event>
 5   0  0.1469851E-03  0.1201720E+04  0.7818609E-02  0.9111352E-01
       -1   -1    0    0    0  501  0.00000000000E+00  0.00000000000E+00  0.12504017750E+04  0.12504017750E+04  0.50400001928E-02 0. -1.
        1   -1    0    0  501    0  0.00000000000E+00  0.00000000000E+00 -0.28873346179E+03  0.28873346183E+03  0.50400001928E-02 0.  1.
    10030    2    1    2    0    0  0.00000000000E+00  0.00000000000E+00  0.96166831318E+03  0.15391352368E+04  0.12017201557E+04 0.  0.
        5    1    3    3  502    0  0.43554325010E+03  0.32044362346E+03  0.81636027790E+03  0.97920796150E+03  0.46999998093E+01 0. -1.
       -5    1    3    3    0  502 -0.43554325010E+03 -0.32044362346E+03  0.14530803528E+03  0.55992727531E+03  0.46999998093E+01 0.  1.
</event>
<event>
 5   0  0.2517023E-03  0.1203077E+04  0.7818609E-02  0.9110167E-01
       -2   -1    0    0    0  501  0.00000000000E+00  0.00000000000E+00  0.57731285439E+03  0.57731285440E+03  0.25500000920E-02 0.  1.
        2   -1    0    0  501    0  0.00000000000E+00  0.00000000000E+00 -0.62678103830E+03  0.62678103831E+03  0.25500000920E-02 0. -1.
    10030    2    1    2    0    0  0.00000000000E+00  0.00000000000E+00 -0.49468183908E+02  0.12040938927E+04  0.12030773048E+04 0.  0.
        3    1    3    3  502    0  0.69132725623E+02  0.32659622288E+03 -0.52556107853E+03  0.62262258554E+03  0.10100000352E+00 0. -1.
       -3    1    3    3    0  502 -0.69132725623E+02 -0.32659622288E+03  0.47609289462E+03  0.58147130717E+03  0.10100000352E+00 0.  1.
</event>
<event>
 5   0  0.2517023E-03  0.1197197E+04  0.7818609E-02  0.9115313E-01
        2   -1    0    0  501    0  0.00000000000E+00  0.00000000000E+00  0.17240837049E+04  0.17240837049E+04  0.25500000920E-02 0. -1.
       -2   -1    0    0    0  501  0.00000000000E+00  0.00000000000E+00 -0.20783229443E+03  0.20783229445E+03  0.25500000920E-02 0.  1.
    10030    2    1    2    0    0  0.00000000000E+00  0.00000000000E+00  0.15162514105E+04  0.19319159993E+04  0.11971971804E+04 0.  0.
        3    1    3    3  502    0 -0.11249139519E+03 -0.14446067631E+03 -0.16153705116E+03  0.24416680792E+03  0.10100000352E+00 0.  1.
       -3    1    3    3    0  502  0.11249139519E+03  0.14446067631E+03  0.16777884616E+04  0.16877491914E+04  0.10100000352E+00 0. -1.
</event>
<event>
 5   0  0.2484507E-03  0.1161288E+04  0.7818609E-02  0.9147433E-01
       -2   -1    0    0    0  501  0.00000000000E+00  0.00000000000E+00  0.14181878520E+03  0.14181878522E+03  0.25500000920E-02 0. -1.
        2   -1    0    0  501    0  0.00000000000E+00  0.00000000000E+00 -0.23773112343E+04  0.23773112343E+04  0.25500000920E-02 0.  1.
    10030    2    1    2    0    0  0.00000000000E+00  0.00000000000E+00 -0.22354924491E+04  0.25191300195E+04  0.11612878908E+04 0.  0.
        2    1    3    3  502    0 -0.44318071589E+03 -0.10641084286E+02 -0.19312170306E+04  0.19814443214E+04  0.25500000920E-02 0.  1.
       -2    1    3    3    0  502  0.44318071589E+03  0.10641084286E+02 -0.30427541848E+03  0.53768569807E+03  0.25500000920E-02 0. -1.
</event>
<event>
 5   0  0.1455076E-03  0.1210381E+04  0.7818609E-02  0.9103818E-01
       -1   -1    0    0    0  501  0.00000000000E+00  0.00000000000E+00  0.87017393997E+03  0.87017393999E+03  0.50400001928E-02 0. -1.
        1   -1    0    0  501    0  0.00000000000E+00  0.00000000000E+00 -0.42089919152E+03  0.42089919155E+03  0.50400001928E-02 0.  1.
    10030    2    1    2    0    0  0.00000000000E+00  0.00000000000E+00  0.44927474845E+03  0.12910731315E+04  0.12103809447E+04 0.  0.
        4    1    3    3  502    0  0.36515089303E+03  0.33530151855E+03 -0.14562294603E+03  0.51669133758E+03  0.12699999809E+01 0.  1.
       -4    1    3    3    0  502 -0.36515089303E+03 -0.33530151855E+03  0.59489769448E+03  0.77438179396E+03  0.12699999809E+01 0. -1.
</event>
<event>
 5   0  0.2580244E-03  0.1197968E+04  0.7818609E-02  0.9114637E-01
        2   -1    0    0  501    0  0.00000000000E+00  0.00000000000E+00  0.14455414959E+04  0.14455414959E+04  0.25500000920E-02 0.  1.
       -2   -1    0    0    0  501  0.00000000000E+00  0.00000000000E+00 -0.24819886242E+03  0.24819886243E+03  0.25500000920E-02 0. -1.
    10030    2    1    2    0    0  0.00000000000E+00  0.00000000000E+00  0.11973426335E+04  0.16937403583E+04  0.11979678708E+04 0.  0.
        1    1    3    3  502    0  0.53972951116E+02 -0.39183724929E+03  0.12346377825E+04  0.12964489822E+04  0.50400001928E-02 0.  1.
       -1    1    3    3    0  502 -0.53972951116E+02  0.39183724929E+03 -0.37295149049E+02  0.39729137613E+03  0.50400001928E-02 0. -1.
</event>
<event>
 5   0  0.2484507E-03  0.1195006E+04  0.7818609E-02  0.9117239E-01
       -2   -1    0    0    0  501  0.00000000000E+00  0.00000000000E+00  0.40988263008E+03  0.40988263008E+03  0.25500000920E-02 0.  1.
        2   -1    0    0  501    0  0.00000000000E+00  0.00000000000E+00 -0.87100477997E+03  0.87100477997E+03  0.25500000920E-02 0. -1.
    10030    2    1    2    0    0  0.00000000000E+00  0.00000000000E+00 -0.46112214989E+03  0.12808874101E+04  0.11950058243E+04 0.  0.
        2    1    3    3  502    0  0.21685164372E+03  0.37867436815E+02 -0.82595516708E+03  0.85478682500E+03  0.25500000920E-02 0. -1.
       -2    1    3    3    0  502 -0.21685164372E+03 -0.37867436815E+02  0.36483301719E+03  0.42610058506E+03  0.25500000920E-02 0.  1.
</event>
<event>
 5   0  0.2580244E-03  0.1202090E+04  0.7818609E-02  0.9111029E-01
        2   -1    0    0  501    0  0.00000000000E+00  0.00000000000E+00  0.38739989756E+03  0.38739989757E+03  0.25500000920E-02 0.  1.
       -2   -1    0    0    0  501  0.00000000000E+00  0.00000000000E+00 -0.93251219572E+03  0.93251219572E+03  0.25500000920E-02 0. -1.
    10030    2    1    2    0    0  0.00000000000E+00  0.00000000000E+00 -0.54511229816E+03  0.13199120933E+04  0.12020900617E+04 0.  0.
        1    1    3    3  502    0 -0.21120456607E+03 -0.20080089955E+03  0.30463474782E+03  0.42158118980E+03  0.50400001928E-02 0.  1.
       -1    1    3    3    0  502  0.21120456607E+03  0.20080089955E+03 -0.84974704598E+03  0.89833090349E+03  0.50400001928E-02 0. -1.
</event>
<event>
 5   0  0.2517023E-03  0.1192986E+04  0.7818609E-02  0.9119018E-01
       -2   -1    0    0    0  501  0.00000000000E+00  0.00000000000E+00  0.24112558444E+03  0.24112558446E+03  0.25500000920E-02 0. -1.
        2   -1    0    0  501    0  0.00000000000E+00  0.00000000000E+00 -0.14755949391E+04  0.14755949391E+04  0.25500000920E-02 0.  1.
    10030    2    1    2    0    0  0.00000000000E+00  0.00000000000E+00 -0.12344693546E+04  0.17167205235E+04  0.11929856531E+04 0.  0.
        3    1    3    3  502    0  0.22737272874E+03 -0.13094088364E+03 -0.13880936213E+04  0.14126739838E+04  0.10100000352E+00 0.  1.
       -3    1    3    3    0  502 -0.22737272874E+03  0.13094088364E+03  0.15362426671E+03  0.30404653970E+03  0.10100000352E+00 0. -1.
</event>
<event>
 5   0  0.1423024E-03  0.1261052E+04  0.7818609E-02  0.9061035E-01
       -1   -1    0    0    0  501  0.00000000000E+00  0.00000000000E+00  0.62506098790E+03  0.62506098792E+03  0.50400001928E-02 0. -1.
        1   -1    0    0  501    0  0.00000000000E+00  0.00000000000E+00 -0.63603856225E+03  0.63603856227E+03  0.50400001928E-02 0.  1.
    10030    2    1    2    0    0  0.00000000000E+00  0.00000000000E+00 -0.10977574350E+02  0.12610995502E+04  0.12610517707E+04 0.  0.
        2    1    3    3  502    0 -0.10149800540E+03 -0.51821622656E+03 -0.35004935576E+03  0.63354909364E+03  0.25500000920E-02 0.  1.
       -2    1    3    3    0  502  0.10149800540E+03  0.51821622656E+03  0.33907178142E+03  0.62755045656E+03  0.25500000920E-02 0. -1.
</event>
<event>
 5   0  0.2580244E-03  0.9921469E+03  0.7818609E-02  0.9317200E-01
       -2   -1    0    0    0  501  0.00000000000E+00  0.00000000000E+00  0.22378019240E+03  0.22378019241E+03  0.25500000920E-02 0.  1.
        2   -1    0    0  501    0  0.00000000000E+00  0.00000000000E+00 -0.10996901279E+04  0.10996901279E+04  0.25500000920E-02 0. -1.
    10030    2    1    2    0    0  0.00000000000E+00  0.00000000000E+00 -0.87590993553E+03  0.13234703203E+04  0.99214690126E+03 0.  0.
        1    1    3    3  502    0 -0.58437955955E+02 -0.37344214533E+03 -0.86651265860E+03  0.94536671094E+03  0.50400001928E-02 0. -1.
       -1    1    3    3    0  502  0.58437955955E+02  0.37344214533E+03 -0.93972769280E+01  0.37810360941E+03  0.50400001928E-02 0.  1.
</event>
<event>
 5   0  0.2579442E-03  0.1203902E+04  0.7818609E-02  0.9109448E-01
       -2   -1    0    0    0  501  0.00000000000E+00  0.00000000000E+00  0.54269313384E+03  0.54269313385E+03  0.25500000920E-02 0.  1.
        2   -1    0    0  501    0  0.00000000000E+00  0.00000000000E+00 -0.66767901519E+03  0.66767901519E+03  0.25500000920E-02 0. -1.
    10030    2    1    2    0    0  0.00000000000E+00  0.00000000000E+00 -0.12498588135E+03  0.12103721490E+04  0.12039016856E+04 0.  0.
        4    1    3    3  502    0  0.83590110354E+02 -0.30159448198E+03 -0.57945168613E+03  0.65856845322E+03  0.12699999809E+01 0. -1.
       -4    1    3    3    0  502 -0.83590110354E+02  0.30159448198E+03  0.45446580478E+03  0.55180369583E+03  0.12699999809E+01 0.  1.
</event>
<event>
 5   0  0.1404833E-03  0.1211379E+04  0.7818609E-02  0.9102955E-01
        1   -1    0    0  501    0  0.00000000000E+00  0.00000000000E+00  0.55033745972E+03  0.55033745974E+03  0.50400001928E-02 0.  1.
       -1   -1    0    0    0  501  0.00000000000E+00  0.00000000000E+00 -0.66660825848E+03  0.66660825850E+03  0.50400001928E-02 0. -1.
    10030    2    1    2    0    0  0.00000000000E+00  0.00000000000E+00 -0.11627079876E+03  0.12169457182E+04  0.12113785463E+04 0.  0.
        1    1    3    3  502    0  0.35446110889E+03  0.42484285383E+03  0.18942228097E+03  0.58482042434E+03  0.50400001928E-02 0.  1.
       -1    1    3    3    0  502 -0.35446110889E+03 -0.42484285383E+03 -0.30569307974E+03  0.63212529390E+03  0.50400001928E-02 0. -1.
</event>
<event>
 5   0  0.1423024E-03  0.1209696E+04  0.7818609E-02  0.9104412E-01
        1   -1    0    0  501    0  0.00000000000E+00  0.00000000000E+00  0.55646226757E+03  0.55646226759E+03  0.50400001928E-02 0.  1.
       -1   -1    0    0    0  501  0.00000000000E+00  0.00000000000E+00 -0.65744080228E+03  0.65744080229E+03  0.50400001928E-02 0. -1.
    10030    2    1    2    0    0  0.00000000000E+00  0.00000000000E+00 -0.10097853471E+03  0.12139030699E+04  0.12096958290E+04 0.  0.
        2    1    3    3  502    0 -0.48209936645E+03 -0.31837521071E+03  0.12918212047E+03  0.59200556939E+03  0.25500000920E-02 0.  1.
       -2    1    3    3    0  502  0.48209936645E+03  0.31837521071E+03 -0.23016065518E+03  0.62189750050E+03  0.25500000920E-02 0. -1.
</event>
<event>
 5   0  0.1469851E-03  0.1198053E+04  0.7818609E-02  0.9114562E-01
        1   -1    0    0  501    0  0.00000000000E+00  0.00000000000E+00  0.11603511022E+04  0.11603511022E+04  0.50400001928E-02 0. -1.
       -1   -1    0    0    0  501  0.00000000000E+00  0.00000000000E+00 -0.30924502798E+03  0.30924502802E+03  0.50400001928E-02 0.  1.
    10030    2    1    2    0    0  0.00000000000E+00  0.00000000000E+00  0.85110607421E+03  0.14695961302E+04  0.11980531025E+04 0.  0.
        5    1    3    3  502    0 -0.60098316388E+02  0.26692193516E+03 -0.22809518691E+03  0.35624237732E+03  0.46999998093E+01 0.  1.
       -5    1    3    3    0  502  0.60098316388E+02 -0.26692193516E+03  0.10792012611E+04  0.11133537529E+04  0.46999998093E+01 0. -1.
</event>
<event>
 5   0  0.9678750E-04  0.1208041E+04  0.7818609E-02  0.9105847E-01
       -3   -1    0    0    0  501  0.00000000000E+00  0.00000000000E+00  0.31412460684E+03  0.31412462308E+03  0.10100000352E+00 0. -1.
        3   -1    0    0  501    0  0.00000000000E+00  0.00000000000E+00 -0.11614529226E+04  0.11614529270E+04  0.10100000352E+00 0.  1.
    10030    2    1    2    0    0  0.00000000000E+00  0.00000000000E+00 -0.84732831578E+03  0.14755775501E+04  0.12080413203E+04 0.  0.
        2    1    3    3  502    0 -0.13582779503E+03  0.11009035123E+03 -0.11298681584E+04  0.11433158490E+04  0.25500000920E-02 0.  1.
       -2    1    3    3    0  502  0.13582779503E+03 -0.11009035123E+03  0.28253984259E+03  0.33226170106E+03  0.25500000920E-02 0. -1.
</event>
<event>
 5   0  0.1403154E-03  0.1203328E+04  0.7818609E-02  0.9109948E-01
       -1   -1    0    0    0  501  0.00000000000E+00  0.00000000000E+00  0.27505243484E+03  0.27505243489E+03  0.50400001928E-02 0. -1.
        1   -1    0    0  501    0  0.00000000000E+00  0.00000000000E+00 -0.13161116971E+04  0.13161116971E+04  0.50400001928E-02 0.  1.
    10030    2    1    2    0    0  0.00000000000E+00  0.00000000000E+00 -0.10410592622E+04  0.15911641320E+04  0.12033282625E+04 0.  0.
        3    1    3    3  502    0 -0.54893461138E+03 -0.16927227580E+03 -0.75713463925E+03  0.95038685969E+03  0.10100000352E+00 0. -1.
       -3    1    3    3    0  502  0.54893461138E+03  0.16927227580E+03 -0.28392462298E+03  0.64077727227E+03  0.10100000352E+00 0.  1.
</event>
<event>
 5   0  0.2579442E-03  0.1185648E+04  0.7818609E-02  0.9125512E-01
       -2   -1    0    0    0  501  0.00000000000E+00  0.00000000000E+00  0.43158693431E+03  0.43158693431E+03  0.25500000920E-02 0.  1.
        2   -1    0    0  501    0  0.00000000000E+00  0.00000000000E+00 -0.81429836625E+03  0.81429836625E+03  0.25500000920E-02 0. -1.
    10030    2    1    2    0    0  0.00000000000E+00  0.00000000000E+00 -0.38271143194E+03  0.12458853006E+04  0.11856484057E+04 0.  0.
        4    1    3    3  502    0  0.10318349134E+03 -0.40074027227E+03 -0.63742130212E+03  0.75996521499E+03  0.12699999809E+01 0. -1.
       -4    1    3    3    0  502 -0.10318349134E+03  0.40074027227E+03  0.25470987018E+03  0.48592008558E+03  0.12699999809E+01 0.  1.
</event>
<event>
 5   0  0.1404833E-03  0.1196160E+04  0.7818609E-02  0.9116224E-01
       -1   -1    0    0    0  501  0.00000000000E+00  0.00000000000E+00  0.68536762918E+03  0.68536762920E+03  0.50400001928E-02 0.  1.
        1   -1    0    0  501    0  0.00000000000E+00  0.00000000000E+00 -0.52190963465E+03  0.52190963467E+03  0.50400001928E-02 0. -1.
    10030    2    1    2    0    0  0.00000000000E+00  0.00000000000E+00  0.16345799454E+03  0.12072772639E+04  0.11961604725E+04 0.  0.
        1    1    3    3  502    0 -0.28680608096E+03 -0.35601300404E+03  0.47092525140E+03  0.65633343626E+03  0.50400001928E-02 0.  1.
       -1    1    3    3    0  502  0.28680608096E+03  0.35601300404E+03 -0.30746725687E+03  0.55094382762E+03  0.50400001928E-02 0. -1.
</event>
<event>
 5   0  0.2499890E-03  0.1203498E+04  0.7818609E-02  0.9109800E-01
       -2   -1    0    0    0  501  0.00000000000E+00  0.00000000000E+00  0.24009646695E+03  0.24009646696E+03  0.25500000920E-02 0.  1.
        2   -1    0    0  501    0  0.00000000000E+00  0.00000000000E+00 -0.15081510682E+04  0.15081510682E+04  0.25500000920E-02 0. -1.
    10030    2    1    2    0    0  0.00000000000E+00  0.00000000000E+00 -0.12680546012E+04  0.17482475352E+04  0.12034978074E+04 0.  0.
        5    1    3    3  502    0  0.19412177200E+03 -0.46859641061E+03 -0.11043184910E+04  0.12152395970E+04  0.46999998093E+01 0.  1.
       -5    1    3    3    0  502 -0.19412177200E+03  0.46859641061E+03 -0.16373611023E+03  0.53300793821E+03  0.46999998093E+01 0. -1.
</event>
<event>
 5   0  0.2499890E-03  0.1192469E+04  0.7818609E-02  0.9119474E-01
       -2   -1    0    0    0  501  0.00000000000E+00  0.00000000000E+00  0.30333761292E+03  0.30333761293E+03  0.25500000920E-02 0.  1.
        2   -1    0    0  501    0  0.00000000000E+00  0.00000000000E+00 -0.11719459304E+04  0.11719459304E+04  0.25500000920E-02 0. -1.
    10030    2    1    2    0    0  0.00000000000E+00  0.00000000000E+00 -0.86860831745E+03  0.14752835433E+04  0.11924685002E+04 0.  0.
        5    1    3    3  502    0 -0.22945707078E+03  0.30713674810E+03 -0.99920320883E+03  0.10702395395E+04  0.46999998093E+01 0. -1.
       -5    1    3    3    0  502  0.22945707078E+03 -0.30713674810E+03  0.13059489138E+03  0.40504400380E+03  0.46999998093E+01 0.  1.
</event>
<event>
 5   0  0.2499890E-03  0.1195877E+04  0.7818609E-02  0.9116473E-01
       -2   -1    0    0    0  501  0.00000000000E+00  0.00000000000E+00  0.62974733111E+03  0.62974733112E+03  0.25500000920E-02 0. -1.
        2   -1    0    0  501    0  0.00000000000E+00  0.00000000000E+00 -0.56773644116E+03  0.56773644117E+03  0.25500000920E-02 0.  1.
    10030    2    1    2    0    0  0.00000000000E+00  0.00000000000E+00  0.62010889947E+02  0.11974837723E+04  0.11958770984E+04 0.  0.
        5    1    3    3  502    0  0.59158705289E+03 -0.89774914794E+00 -0.55900393451E+02  0.59424152588E+03  0.46999998093E+01 0.  1.
       -5    1    3    3    0  502 -0.59158705289E+03  0.89774914794E+00  0.11791128340E+03  0.60324224640E+03  0.46999998093E+01 0. -1.
</event>
<event>
 5   0  0.2484507E-03  0.1192358E+04  0.7818609E-02  0.9119572E-01
        2   -1    0    0  501    0  0.00000000000E+00  0.00000000000E+00  0.62444893976E+03  0.62444893977E+03  0.25500000920E-02 0.  1.
       -2   -1    0    0    0  501  0.00000000000E+00  0.00000000000E+00 -0.56918852162E+03  0.56918852162E+03  0.25500000920E-02 0. -1.
    10030    2    1    2    0    0  0.00000000000E+00  0.00000000000E+00  0.55260418145E+02  0.11936374614E+04  0.11923576122E+04 0.  0.
        2    1    3    3  502    0  0.66924873695E+02  0.54515691836E+03 -0.20446809636E+03  0.58607355067E+03  0.25500000920E-02 0. -1.
       -2    1    3    3    0  502 -0.66924873695E+02 -0.54515691836E+03  0.25972851450E+03  0.60756391072E+03  0.25500000920E-02 0.  1.
</event>
<event>
 5   0  0.1455076E-03  0.1184026E+04  0.7818609E-02  0.9126954E-01
        1   -1    0    0  501    0  0.00000000000E+00  0.00000000000E+00  0.62427942666E+03  0.62427942668E+03  0.50400001928E-02 0.  1.
       -1   -1    0    0    0  501  0.00000000000E+00  0.00000000000E+00 -0.56141446741E+03  0.56141446744E+03  0.50400001928E-02 0. -1.
    10030    2    1    2    0    0  0.00000000000E+00  0.00000000000E+00  0.62864959247E+02  0.11856938941E+04  0.11840261853E+04 0.  0.
        4    1    3    3  502    0 -0.59104902067E+03  0.14027532621E+02  0.62170541382E+02  0.59447666533E+03  0.12699999809E+01 0.  1.
       -4    1    3    3    0  502  0.59104902067E+03 -0.14027532621E+02  0.69441786462E+00  0.59121722879E+03  0.12699999809E+01 0. -1.
</event>
<event>
 5   0  0.2580244E-03  0.1176247E+04  0.7818609E-02  0.9133906E-01
        2   -1    0    0  501    0  0.00000000000E+00  0.00000000000E+00  0.13126074914E+03  0.13126074916E+03  0.25500000920E-02 0.  1.
       -2   -1    0    0    0  501  0.00000000000E+00  0.00000000000E+00 -0.26351295157E+04  0.26351295157E+04  0.25500000920E-02 0. -1.
    10030    2    1    2    0    0  0.00000000000E+00  0.00000000000E+00 -0.25038687665E+04  0.27663902648E+04  0.11762466992E+04 0.  0.
        1    1    3    3  502    0  0.47106560985E+03  0.33792388669E+03 -0.10191849129E+04  0.11725328348E+04  0.50400001928E-02 0.  1.
       -1    1    3    3    0  502 -0.47106560985E+03 -0.33792388669E+03 -0.14846838537E+04  0.15938574301E+04  0.50400001928E-02 0. -1.
</event>
<event>
 5   0  0.2499890E-03  0.1147563E+04  0.7818609E-02  0.9160035E-01
        2   -1    0    0  501    0  0.00000000000E+00  0.00000000000E+00  0.20959613508E+04  0.20959613508E+04  0.25500000920E-02 0. -1.
       -2   -1    0    0    0  501  0.00000000000E+00  0.00000000000E+00 -0.15707590634E+03  0.15707590636E+03  0.25500000920E-02 0.  1.
    10030    2    1    2    0    0  0.00000000000E+00  0.00000000000E+00  0.19388854445E+04  0.22530372572E+04  0.11475626848E+04 0.  0.
        5    1    3    3  502    0  0.28474914424E+02 -0.55311286515E+03  0.12636681263E+04  0.13797187705E+04  0.46999998093E+01 0. -1.
       -5    1    3    3    0  502 -0.28474914424E+02  0.55311286515E+03  0.67521731818E+03  0.87331848664E+03  0.46999998093E+01 0.  1.
</event>
<event>
 5   0  0.2579442E-03  0.1185662E+04  0.7818609E-02  0.9125500E-01
       -2   -1    0    0    0  501  0.00000000000E+00  0.00000000000E+00  0.17837076193E+03  0.17837076194E+03  0.25500000920E-02 0.  1.
        2   -1    0    0  501    0  0.00000000000E+00  0.00000000000E+00 -0.19703262714E+04  0.19703262714E+04  0.25500000920E-02 0. -1.
    10030    2    1    2    0    0  0.00000000000E+00  0.00000000000E+00 -0.17919555095E+04  0.21486970334E+04  0.11856620063E+04 0.  0.
        4    1    3    3  502    0 -0.19149570369E+03 -0.48301633282E+03 -0.37870761150E+03  0.64295913573E+03  0.12699999809E+01 0.  1.
       -4    1    3    3    0  502  0.19149570369E+03  0.48301633282E+03 -0.14132478980E+04  0.15057378976E+04  0.12699999809E+01 0. -1.
</event>
<event>
 5   0  0.2517023E-03  0.1196444E+04  0.7818609E-02  0.9115974E-01
        2   -1    0    0  501    0  0.00000000000E+00  0.00000000000E+00  0.83530980198E+03  0.83530980198E+03  0.25500000920E-02 0.  1.
       -2   -1    0    0    0  501  0.00000000000E+00  0.00000000000E+00 -0.42842761589E+03  0.42842761589E+03  0.25500000920E-02 0. -1.
    10030    2    1    2    0    0  0.00000000000E+00  0.00000000000E+00  0.40688218610E+03  0.12637374179E+04  0.11964443773E+04 0.  0.
        3    1    3    3  502    0 -0.25992749525E+03 -0.19046590653E+03  0.73580305547E+03  0.80327187861E+03  0.10100000352E+00 0.  1.
       -3    1    3    3    0  502  0.25992749525E+03  0.19046590653E+03 -0.32892086937E+03  0.46046553926E+03  0.10100000352E+00 0. -1.
</event>
<event>
 5   0  0.2499890E-03  0.1208940E+04  0.7818609E-02  0.9105068E-01
        2   -1    0    0  501    0  0.00000000000E+00  0.00000000000E+00  0.25924696024E+04  0.25924696024E+04  0.25500000920E-02 0. -1.
       -2   -1    0    0    0  501  0.00000000000E+00  0.00000000000E+00 -0.14094041630E+03  0.14094041633E+03  0.25500000920E-02 0.  1.
    10030    2    1    2    0    0  0.00000000000E+00  0.00000000000E+00  0.24515291861E+04  0.27334100187E+04  0.12089396098E+04 0.  0.
        5    1    3    3  502    0 -0.21602981875E+03  0.49828206001E+03  0.62582096911E+03  0.82863011609E+03  0.46999998093E+01 0.  1.
       -5    1    3    3    0  502  0.21602981875E+03 -0.49828206001E+03  0.18257082170E+04  0.19047799026E+04  0.46999998093E+01 0. -1.
</event>
<event>
 5   0  0.1455076E-03  0.1124542E+04  0.7818609E-02  0.9181596E-01
       -1   -1    0    0    0  501  0.00000000000E+00  0.00000000000E+00  0.41231297346E+03  0.41231297349E+03  0.50400001928E-02 0.  1.
        1   -1    0    0  501    0  0.00000000000E+00  0.00000000000E+00 -0.76676907645E+03  0.76676907646E+03  0.50400001928E-02 0. -1.
    10030    2    1    2    0    0  0.00000000000E+00  0.00000000000E+00 -0.35445610299E+03  0.11790820500E+04  0.11245422854E+04 0.  0.
        4    1    3    3  502    0  0.28806715190E+03  0.42181062428E+03  0.69203551374E+02  0.51545866098E+03  0.12699999809E+01 0.  1.
       -4    1    3    3    0  502 -0.28806715190E+03 -0.42181062428E+03 -0.42365965436E+03  0.66362338897E+03  0.12699999809E+01 0. -1.
</event>
<event>
 5   0  0.1403154E-03  0.1214222E+04  0.7818609E-02  0.9100498E-01
       -1   -1    0    0    0  501  0.00000000000E+00  0.00000000000E+00  0.33689096654E+03  0.33689096658E+03  0.50400001928E-02 0. -1.
        1   -1    0    0  501    0  0.00000000000E+00  0.00000000000E+00 -0.10940743024E+04  0.10940743024E+04  0.50400001928E-02 0.  1.
    10030    2    1    2    0    0  0.00000000000E+00  0.00000000000E+00 -0.75718333587E+03  0.14309652690E+04  0.12142219719E+04 0.  0.
        3    1    3    3  502    0  0.48130086054E+03 -0.32077923248E+03 -0.59600536188E+03  0.83052527713E+03  0.10100000352E+00 0.  1.
       -3    1    3    3    0  502 -0.48130086054E+03  0.32077923248E+03 -0.16117797399E+03  0.60043999188E+03  0.10100000352E+00 0. -1.
</event>
<event>
 5   0  0.1469851E-03  0.1199343E+04  0.7818609E-02  0.9113431E-01
        1   -1    0    0  501    0  0.00000000000E+00  0.00000000000E+00  0.13914030454E+04  0.13914030454E+04  0.50400001928E-02 0.  1.
       -1   -1    0    0    0  501  0.00000000000E+00  0.00000000000E+00 -0.25844857180E+03  0.25844857185E+03  0.50400001928E-02 0. -1.
    10030    2    1    2    0    0  0.00000000000E+00  0.00000000000E+00  0.11329544736E+04  0.16498516172E+04  0.11993433702E+04 0.  0.
        5    1    3    3  502    0 -0.59712752358E+03  0.32089747416E+02  0.62788961779E+03  0.86709774157E+03  0.46999998093E+01 0.  1.
       -5    1    3    3    0  502  0.59712752358E+03 -0.32089747416E+02  0.50506485576E+03  0.78275387564E+03  0.46999998093E+01 0. -1.
</event>
<event>
 5   0  0.2580244E-03  0.1221613E+04  0.7818609E-02  0.9094147E-01
       -2   -1    0    0    0  501  0.00000000000E+00  0.00000000000E+00  0.51237725867E+03  0.51237725868E+03  0.25500000920E-02 0. -1.
        2   -1    0    0  501    0  0.00000000000E+00  0.00000000000E+00 -0.72814387136E+03  0.72814387136E+03  0.25500000920E-02 0.  1.
    10030    2    1    2    0    0  0.00000000000E+00  0.00000000000E+00 -0.21576661269E+03  0.12405211300E+04  0.12216126403E+04 0.  0.
        1    1    3    3  502    0 -0.55075035400E+03 -0.25872100557E+03 -0.16182661443E+03  0.62964304516E+03  0.50400001928E-02 0.  1.
       -1    1    3    3    0  502  0.55075035400E+03  0.25872100557E+03 -0.53939998261E+02  0.61087808488E+03  0.50400001928E-02 0. -1.
</event>
<event>
 5   0  0.2499890E-03  0.1185381E+04  0.7818609E-02  0.9125750E-01
        2   -1    0    0  501    0  0.00000000000E+00  0.00000000000E+00  0.54272112864E+03  0.54272112865E+03  0.25500000920E-02 0.  1.
       -2   -1    0    0    0  501  0.00000000000E+00  0.00000000000E+00 -0.64726024300E+03  0.64726024300E+03  0.25500000920E-02 0. -1.
    10030    2    1    2    0    0  0.00000000000E+00  0.00000000000E+00 -0.10453911435E+03  0.11899813716E+04  0.11853806302E+04 0.  0.
        5    1    3    3  502    0 -0.38048517149E+03  0.23789901763E+03  0.33639562451E+03  0.56084669430E+03  0.46999998093E+01 0.  1.
       -5    1    3    3    0  502  0.38048517149E+03 -0.23789901763E+03 -0.44093473886E+03  0.62913467735E+03  0.46999998093E+01 0. -1.
</event>
<event>
 5   0  0.1469851E-03  0.1203949E+04  0.7818609E-02  0.9109407E-01
        1   -1    0    0  501    0  0.00000000000E+00  0.00000000000E+00  0.14166948507E+04  0.14166948507E+04  0.50400001928E-02 0.  1.
       -1   -1    0    0    0  501  0.00000000000E+00  0.00000000000E+00 -0.25578774307E+03  0.25578774312E+03  0.50400001928E-02 0. -1.
    10030    2    1    2    0    0  0.00000000000E+00  0.00000000000E+00  0.11609071076E+04  0.16724825938E+04  0.12039488005E+04 0.  0.
        5    1    3    3  502    0 -0.15445054798E+03 -0.45463081511E+03  0.10847927535E+04  0.11863142745E+04  0.46999998093E+01 0. -1.
       -5    1    3    3    0  502  0.15445054798E+03  0.45463081511E+03  0.76114354115E+02  0.48616831933E+03  0.46999998093E+01 0.  1.
</event>
<event>
 5   0  0.1404833E-03  0.1208795E+04  0.7818609E-02  0.9105193E-01
       -1   -1    0    0    0  501  0.00000000000E+00  0.00000000000E+00  0.33110592282E+03  0.33110592286E+03  0.50400001928E-02 0. -1.
        1   -1    0    0  501    0  0.00000000000E+00  0.00000000000E+00 -0.11032617606E+04  0.11032617606E+04  0.50400001928E-02 0.  1.
    10030    2    1    2    0    0  0.00000000000E+00  0.00000000000E+00 -0.77215583778E+03  0.14343676835E+04  0.12087952736E+04 0.  0.
        1    1    3    3  502    0  0.87740043494E+02  0.27750697008E+03 -0.10146315496E+04  0.10555499113E+04  0.50400001928E-02 0.  1.
       -1    1    3    3    0  502 -0.87740043494E+02 -0.27750697008E+03  0.24247571184E+03  0.37881777220E+03  0.50400001928E-02 0. -1.
</event>
<event>
 5   0  0.2484507E-03  0.1184053E+04  0.7818609E-02  0.9126930E-01
       -2   -1    0    0    0  501  0.00000000000E+00  0.00000000000E+00  0.23556741280E+03  0.23556741281E+03  0.25500000920E-02 0.  1.
        2   -1    0    0  501    0  0.00000000000E+00  0.00000000000E+00 -0.14878776968E+04  0.14878776968E+04  0.25500000920E-02 0. -1.
    10030    2    1    2    0    0  0.00000000000E+00  0.00000000000E+00 -0.12523102840E+04  0.17234451097E+04  0.11840532076E+04 0.  0.
        2    1    3    3  502    0 -0.31970974649E+03 -0.28536453692E+03 -0.12207033530E+04  0.12937402819E+04  0.25500000920E-02 0.  1.
       -2    1    3    3    0  502  0.31970974649E+03  0.28536453692E+03 -0.31606931062E+02  0.42970482779E+03  0.25500000920E-02 0. -1.
</event>
<event>
 5   0  0.1404833E-03  0.1197796E+04  0.7818609E-02  0.9114788E-01
       -1   -1    0    0    0  501  0.00000000000E+00  0.00000000000E+00  0.76498430646E+03  0.76498430647E+03  0.50400001928E-02 0.  1.
        1   -1    0    0  501    0  0.00000000000E+00  0.00000000000E+00 -0.46887044018E+03  0.46887044020E+03  0.50400001928E-02 0. -1.
    10030    2    1    2    0    0  0.00000000000E+00  0.00000000000E+00  0.29611386628E+03  0.12338547467E+04  0.11977955227E+04 0.  0.
        1    1    3    3  502    0  0.19315659009E+03 -0.25598068654E+03  0.66909334743E+03  0.74197135240E+03  0.50400001928E-02 0.  1.
       -1    1    3    3    0  502 -0.19315659009E+03  0.25598068654E+03 -0.37297948115E+03  0.49188339428E+03  0.50400001928E-02 0. -1.
</event>
<event>
 5   0  0.2579442E-03  0.1209024E+04  0.7818609E-02  0.9104994E-01
       -2   -1    0    0    0  501  0.00000000000E+00  0.00000000000E+00  0.12706227915E+03  0.12706227917E+03  0.25500000920E-02 0.  1.
        2   -1    0    0  501    0  0.00000000000E+00  0.00000000000E+00 -0.28760284297E+04  0.28760284297E+04  0.25500000920E-02 0. -1.
    10030    2    1    2    0    0  0.00000000000E+00  0.00000000000E+00 -0.27489661505E+04  0.30030907089E+04  0.12090239488E+04 0.  0.
        4    1    3    3  502    0 -0.24215697945E+03 -0.15239999015E+03 -0.51782134108E+02  0.29077269818E+03  0.12699999809E+01 0.  1.
       -4    1    3    3    0  502  0.24215697945E+03  0.15239999015E+03 -0.26971840164E+04  0.27123180107E+04  0.12699999809E+01 0. -1.
</event>
<event>
 5   0  0.2580244E-03  0.1182754E+04  0.7818609E-02  0.9128087E-01
        2   -1    0    0  501    0  0.00000000000E+00  0.00000000000E+00  0.29472506294E+03  0.29472506295E+03  0.25500000920E-02 0.  1.
       -2   -1    0    0    0  501  0.00000000000E+00  0.00000000000E+00 -0.11866200908E+04  0.11866200908E+04  0.25500000920E-02 0. -1.
    10030    2    1    2    0    0  0.00000000000E+00  0.00000000000E+00 -0.89189502790E+03  0.14813451538E+04  0.11827538729E+04 0.  0.
        1    1    3    3  502    0 -0.16805704713E+03  0.15297391053E+02  0.26392949738E+03  0.31326659713E+03  0.50400001928E-02 0.  1.
       -1    1    3    3    0  502  0.16805704713E+03 -0.15297391053E+02 -0.11558245253E+04  0.11680785567E+04  0.50400001928E-02 0. -1.
</event>
<event>
 5   0  0.9678750E-04  0.1201907E+04  0.7818609E-02  0.9111189E-01
        4   -1    0    0  501    0  0.00000000000E+00  0.00000000000E+00  0.18328066817E+03  0.18328506820E+03  0.12699999809E+01 0.  1.
       -4   -1    0    0    0  501  0.00000000000E+00  0.00000000000E+00 -0.19704196691E+04  0.19704200784E+04  0.12699999809E+01 0. -1.
    10030    2    1    2    0    0  0.00000000000E+00  0.00000000000E+00 -0.17871390009E+04  0.21537051466E+04  0.12019068390E+04 0.  0.
        4    1    3    3  502    0  0.38231204269E+03  0.41720524775E+03 -0.53108714165E+03  0.77606564263E+03  0.12699999809E+01 0.  1.
       -4    1    3    3    0  502 -0.38231204269E+03 -0.41720524775E+03 -0.12560518593E+04  0.13776395039E+04  0.12699999809E+01 0. -1.
</event>
<event>
 5   0  0.1404833E-03  0.1188784E+04  0.7818609E-02  0.9122731E-01
       -1   -1    0    0    0  501  0.00000000000E+00  0.00000000000E+00  0.66336809524E+03  0.66336809526E+03  0.50400001928E-02 0.  1.
        1   -1    0    0  501    0  0.00000000000E+00  0.00000000000E+00 -0.53258775530E+03  0.53258775532E+03  0.50400001928E-02 0. -1.
    10030    2    1    2    0    0  0.00000000000E+00  0.00000000000E+00  0.13078033994E+03  0.11959558506E+04  0.11887837899E+04 0.  0.
        1    1    3    3  502    0  0.18196704847E+03  0.33468328278E+03  0.52440683842E+03  0.64817238348E+03  0.50400001928E-02 0.  1.
       -1    1    3    3    0  502 -0.18196704847E+03 -0.33468328278E+03 -0.39362649848E+03  0.54778346710E+03  0.50400001928E-02 0. -1.
</event>
<event>
 5   0  0.1469851E-03  0.1221718E+04  0.7818609E-02  0.9094056E-01
        1   -1    0    0  501    0  0.00000000000E+00  0.00000000000E+00  0.10521537685E+04  0.10521537685E+04  0.50400001928E-02 0. -1.
       -1   -1    0    0    0  501  0.00000000000E+00  0.00000000000E+00 -0.35465239815E+03  0.35465239819E+03  0.50400001928E-02 0.  1.
    10030    2    1    2    0    0  0.00000000000E+00  0.00000000000E+00  0.69750137035E+03  0.14068061667E+04  0.12217182282E+04 0.  0.
        5    1    3    3  502    0  0.17617726440E+03  0.42831588679E+03 -0.10987790892E+03  0.47601278579E+03  0.46999998093E+01 0.  1.
       -5    1    3    3    0  502 -0.17617726440E+03 -0.42831588679E+03  0.80737927927E+03  0.93079338092E+03  0.46999998093E+01 0. -1.
</event>
<event>
 5   0  0.2579442E-03  0.1196687E+04  0.7818609E-02  0.9115761E-01
       -2   -1    0    0    0  501  0.00000000000E+00  0.00000000000E+00  0.42765772208E+03  0.42765772209E+03  0.25500000920E-02 0.  1.
        2   -1    0    0  501    0  0.00000000000E+00  0.00000000000E+00 -0.83715305238E+03  0.83715305238E+03  0.25500000920E-02 0. -1.
    10030    2    1    2    0    0  0.00000000000E+00  0.00000000000E+00 -0.40949533030E+03  0.12648107745E+04  0.11966870392E+04 0.  0.
        4    1    3    3  502    0  0.25258167231E+03  0.39275072559E+03 -0.60016085993E+03  0.76042442381E+03  0.12699999809E+01 0. -1.
       -4    1    3    3    0  502 -0.25258167231E+03 -0.39275072559E+03  0.19066552963E+03  0.50438635066E+03  0.12699999809E+01 0.  1.
</event>
<event>
 5   0  0.1455076E-03  0.1211406E+04  0.7818609E-02  0.9102931E-01
       -1   -1    0    0    0  501  0.00000000000E+00  0.00000000000E+00  0.56936853735E+03  0.56936853737E+03  0.50400001928E-02 0. -1.
        1   -1    0    0  501    0  0.00000000000E+00  0.00000000000E+00 -0.64435647039E+03  0.64435647041E+03  0.50400001928E-02 0.  1.
    10030    2    1    2    0    0  0.00000000000E+00  0.00000000000E+00 -0.74987933042E+02  0.12137250078E+04  0.12114062920E+04 0.  0.
        4    1    3    3  502    0 -0.15860525016E+03 -0.24857846718E+02 -0.62265051183E+03  0.64301540472E+03  0.12699999809E+01 0.  1.
       -4    1    3    3    0  502  0.15860525016E+03  0.24857846718E+02  0.54766257879E+03  0.57070960306E+03  0.12699999809E+01 0. -1.
</event>
<event>
 5   0  0.2579442E-03  0.1248647E+04  0.7818609E-02  0.9071310E-01
        2   -1    0    0  501    0  0.00000000000E+00  0.00000000000E+00  0.76745563689E+03  0.76745563689E+03  0.25500000920E-02 0. -1.
       -2   -1    0    0    0  501  0.00000000000E+00  0.00000000000E+00 -0.50788552319E+03  0.50788552320E+03  0.25500000920E-02 0.  1.
    10030    2    1    2    0    0  0.00000000000E+00  0.00000000000E+00  0.25957011370E+03  0.12753411601E+04  0.12486466396E+04 0.  0.
        4    1    3    3  502    0 -0.17659167869E+03 -0.32921730374E+03 -0.38111809601E+03  0.53368649043E+03  0.12699999809E+01 0.  1.
       -4    1    3    3    0  502  0.17659167869E+03  0.32921730374E+03  0.64068820970E+03  0.74165466965E+03  0.12699999809E+01 0. -1.
</event>
<event>
 5   0  0.1423024E-03  0.9965564E+03  0.7818609E-02  0.9312330E-01
        1   -1    0    0  501    0  0.00000000000E+00  0.00000000000E+00  0.10893315998E+04  0.10893315999E+04  0.50400001928E-02 0.  1.
       -1   -1    0    0    0  501  0.00000000000E+00  0.00000000000E+00 -0.22792064408E+03  0.22792064413E+03  0.50400001928E-02 0. -1.
    10030    2    1    2    0    0  0.00000000000E+00  0.00000000000E+00  0.86141095576E+03  0.13172522440E+04  0.99655639057E+03 0.  0.
        2    1    3    3  502    0  0.14534435658E+03 -0.42686570321E+03  0.15048973020E+03  0.47538034190E+03  0.25500000920E-02 0. -1.
       -2    1    3    3    0  502 -0.14534435658E+03  0.42686570321E+03  0.71092122556E+03  0.84187190209E+03  0.25500000920E-02 0.  1.
</event>
<event>
 5   0  0.2580244E-03  0.1156051E+04  0.7818609E-02  0.9152219E-01
       -2   -1    0    0    0  501  0.00000000000E+00  0.00000000000E+00  0.49934743075E+03  0.49934743076E+03  0.25500000920E-02 0. -1.
        2   -1    0    0  501    0  0.00000000000E+00  0.00000000000E+00 -0.66910017550E+03  0.66910017550E+03  0.25500000920E-02 0.  1.
    10030    2    1    2    0    0  0.00000000000E+00  0.00000000000E+00 -0.16975274475E+03  0.11684476063E+04  0.11560509566E+04 0.  0.
        1    1    3    3  502    0 -0.62642004384E+02  0.48081732683E+03 -0.40289966079E+03  0.63042641060E+03  0.50400001928E-02 0.  1.
       -1    1    3    3    0  502  0.62642004384E+02 -0.48081732683E+03  0.23314691604E+03  0.53802119566E+03  0.50400001928E-02 0. -1.
</event>
<event>
 5   0  0.1404833E-03  0.1201767E+04  0.7818609E-02  0.9111311E-01
        1   -1    0    0  501    0  0.00000000000E+00  0.00000000000E+00  0.66831755894E+03  0.66831755896E+03  0.50400001928E-02 0. -1.
       -1   -1    0    0    0  501  0.00000000000E+00  0.00000000000E+00 -0.54025364916E+03  0.54025364918E+03  0.50400001928E-02 0.  1.
    10030    2    1    2    0    0  0.00000000000E+00  0.00000000000E+00  0.12806390978E+03  0.12085712081E+04  0.12017670324E+04 0.  0.
        1    1    3    3  502    0  0.13902730160E+03  0.17684148164E+03  0.62437557881E+03  0.66366133205E+03  0.50400001928E-02 0. -1.
       -1    1    3    3    0  502 -0.13902730160E+03 -0.17684148164E+03 -0.49631166903E+03  0.54490987609E+03  0.50400001928E-02 0.  1.
</event>
<event>
 5   0  0.1404833E-03  0.1152799E+04  0.7818609E-02  0.9155205E-01
       -1   -1    0    0    0  501  0.00000000000E+00  0.00000000000E+00  0.19018142739E+03  0.19018142746E+03  0.50400001928E-02 0. -1.
        1   -1    0    0  501    0  0.00000000000E+00  0.00000000000E+00 -0.17469455150E+04  0.17469455150E+04  0.50400001928E-02 0.  1.
    10030    2    1    2    0    0  0.00000000000E+00  0.00000000000E+00 -0.15567640876E+04  0.19371269425E+04  0.11527993610E+04 0.  0.
        1    1    3    3  502    0  0.28244607244E+03  0.39163197727E+03 -0.13073248981E+04  0.13936462172E+04  0.50400001928E-02 0.  1.
       -1    1    3    3    0  502 -0.28244607244E+03 -0.39163197727E+03 -0.24943918949E+03  0.54348072527E+03  0.50400001928E-02 0. -1.
</event>
<event>
 5   0  0.1403154E-03  0.1237168E+04  0.7818609E-02  0.9080931E-01
       -1   -1    0    0    0  501  0.00000000000E+00  0.00000000000E+00  0.49720163873E+03  0.49720163875E+03  0.50400001928E-02 0. -1.
        1   -1    0    0  501    0  0.00000000000E+00  0.00000000000E+00 -0.76959957061E+03  0.76959957063E+03  0.50400001928E-02 0.  1.
    10030    2    1    2    0    0  0.00000000000E+00  0.00000000000E+00 -0.27239793188E+03  0.12668012094E+04  0.12371680043E+04 0.  0.
        3    1    3    3  502    0  0.17496335929E+03  0.57716903457E+03 -0.27700596549E+03  0.66367807458E+03  0.10100000352E+00 0. -1.
       -3    1    3    3    0  502 -0.17496335929E+03 -0.57716903457E+03  0.46080336100E+01  0.60312313480E+03  0.10100000352E+00 0.  1.
</event>
<event>
 5   0  0.2517023E-03  0.1187506E+04  0.7818609E-02  0.9123864E-01
        2   -1    0    0  501    0  0.00000000000E+00  0.00000000000E+00  0.11315424658E+04  0.11315424658E+04  0.25500000920E-02 0.  1.
       -2   -1    0    0    0  501  0.00000000000E+00  0.00000000000E+00 -0.31155912605E+03  0.31155912606E+03  0.25500000920E-02 0. -1.
    10030    2    1    2    0    0  0.00000000000E+00  0.00000000000E+00  0.81998333975E+03  0.14431015919E+04  0.11875055903E+04 0.  0.
        3    1    3    3  502    0  0.15619037901E+02  0.49334436916E+03  0.89452675500E+01  0.49367261312E+03  0.10100000352E+00 0. -1.
       -3    1    3    3    0  502 -0.15619037901E+02 -0.49334436916E+03  0.81103807220E+03  0.94942897875E+03  0.10100000352E+00 0.  1.
</event>
<event>
 5   0  0.2484507E-03  0.1210032E+04  0.7818609E-02  0.9104121E-01
       -2   -1    0    0    0  501  0.00000000000E+00  0.00000000000E+00  0.26881025755E+03  0.26881025756E+03  0.25500000920E-02 0. -1.
        2   -1    0    0  501    0  0.00000000000E+00  0.00000000000E+00 -0.13617203985E+04  0.13617203985E+04  0.25500000920E-02 0.  1.
    10030    2    1    2    0    0  0.00000000000E+00  0.00000000000E+00 -0.10929101410E+04  0.16305306561E+04  0.12100320840E+04 0.  0.
        2    1    3    3  502    0 -0.43783403847E+03  0.17786924114E+03 -0.37409459435E+02  0.47406284377E+03  0.25500000920E-02 0. -1.
       -2    1    3    3    0  502  0.43783403847E+03 -0.17786924114E+03 -0.10555006815E+04  0.11564678123E+04  0.25500000920E-02 0.  1.
</event>
<event>
 5   0  0.1423024E-03  0.1199146E+04  0.7818609E-02  0.9113604E-01
        1   -1    0    0  501    0  0.00000000000E+00  0.00000000000E+00  0.20325510267E+03  0.20325510273E+03  0.50400001928E-02 0. -1.
       -1   -1    0    0    0  501  0.00000000000E+00  0.00000000000E+00 -0.17686539214E+04  0.17686539214E+04  0.50400001928E-02 0.  1.
    10030    2    1    2    0    0  0.00000000000E+00  0.00000000000E+00 -0.15653988187E+04  0.19719090241E+04  0.11991462537E+04 0.  0.
        2    1    3    3  502    0  0.51828053691E+03 -0.16430618318E+03 -0.11983093698E+04  0.13158862347E+04  0.25500000920E-02 0.  1.
       -2    1    3    3    0  502 -0.51828053691E+03  0.16430618318E+03 -0.36708944887E+03  0.65602278943E+03  0.25500000920E-02 0. -1.
</event>
<event>
 5   0  0.2580244E-03  0.1208461E+04  0.7818609E-02  0.9105482E-01
       -2   -1    0    0    0  501  0.00000000000E+00  0.00000000000E+00  0.39735707274E+03  0.39735707275E+03  0.25500000920E-02 0.  1.
        2   -1    0    0  501    0  0.00000000000E+00  0.00000000000E+00 -0.91880757815E+03  0.91880757815E+03  0.25500000920E-02 0. -1.
    10030    2    1    2    0    0  0.00000000000E+00  0.00000000000E+00 -0.52145050541E+03  0.13161646509E+04  0.12084613187E+04 0.  0.
        1    1    3    3  502    0 -0.18147724256E+03  0.10405302714E+02 -0.88832216753E+03  0.90672958110E+03  0.50400001928E-02 0. -1.
       -1    1    3    3    0  502  0.18147724256E+03 -0.10405302714E+02  0.36687166212E+03  0.40943506980E+03  0.50400001928E-02 0.  1.
</event>
<event>
 5   0  0.2499890E-03  0.1199436E+04  0.7818609E-02  0.9113351E-01
       -2   -1    0    0    0  501  0.00000000000E+00  0.00000000000E+00  0.92476175319E+03  0.92476175320E+03  0.25500000920E-02 0. -1.
        2   -1    0    0  501    0  0.00000000000E+00  0.00000000000E+00 -0.38892345780E+03  0.38892345781E+03  0.25500000920E-02 0.  1.
    10030    2    1    2    0    0  0.00000000000E+00  0.00000000000E+00  0.53583829539E+03  0.13136852110E+04  0.11994357652E+04 0.  0.
        5    1    3    3  502    0 -0.53198958811E+01 -0.32095475331E+03  0.82272618342E+03  0.88314252409E+03  0.46999998093E+01 0. -1.
       -5    1    3    3    0  502  0.53198958811E+01  0.32095475331E+03 -0.28688788803E+03  0.43054268692E+03  0.46999998093E+01 0.  1.
</event>
<event>
 5   0  0.1455076E-03  0.1261642E+04  0.7818609E-02  0.9060549E-01
       -1   -1    0    0    0  501  0.00000000000E+00  0.00000000000E+00  0.60329320583E+03  0.60329320585E+03  0.50400001928E-02 0. -1.
        1   -1    0    0  501    0  0.00000000000E+00  0.00000000000E+00 -0.65960529839E+03  0.65960529841E+03  0.50400001928E-02 0.  1.
    10030    2    1    2    0    0  0.00000000000E+00  0.00000000000E+00 -0.56312092559E+02  0.12628985043E+04  0.12616424138E+04 0.  0.
        4    1    3    3  502    0  0.52625587245E+03 -0.26832963686E+03  0.19339606445E+03  0.62157034031E+03  0.12699999809E+01 0. -1.
       -4    1    3    3    0  502 -0.52625587245E+03  0.26832963686E+03 -0.24970815700E+03  0.64132816396E+03  0.12699999809E+01 0.  1.
</event>
<event>
 5   0  0.2580244E-03  0.1167229E+04  0.7818609E-02  0.9142035E-01
        2   -1    0    0  501    0  0.00000000000E+00  0.00000000000E+00  0.12400994970E+04  0.12400994970E+04  0.25500000920E-02 0. -1.
       -2   -1    0    0    0  501  0.00000000000E+00  0.00000000000E+00 -0.27466002287E+03  0.27466002288E+03  0.25500000920E-02 0.  1.
    10030    2    1    2    0    0  0.00000000000E+00  0.00000000000E+00  0.96543947418E+03  0.15147595199E+04  0.11672287800E+04 0.  0.
        1    1    3    3  502    0 -0.56148179073E+03  0.58423371524E+02  0.29053734297E+03  0.63489136027E+03  0.50400001928E-02 0.  1.
       -1    1    3    3    0  502  0.56148179073E+03 -0.58423371524E+02  0.67490213120E+03  0.87986815966E+03  0.50400001928E-02 0. -1.
</event>
<event>
 5   0  0.1404833E-03  0.1216940E+04  0.7818609E-02  0.9098157E-01
        1   -1    0    0  501    0  0.00000000000E+00  0.00000000000E+00  0.39085902449E+03  0.39085902452E+03  0.50400001928E-02 0.  1.
       -1   -1    0    0    0  501  0.00000000000E+00  0.00000000000E+00 -0.94723661420E+03  0.94723661422E+03  0.50400001928E-02 0. -1.
    10030    2    1    2    0    0  0.00000000000E+00  0.00000000000E+00 -0.55637758972E+03  0.13380956387E+04  0.12169403913E+04 0.  0.
        1    1    3    3  502    0 -0.29985010945E+03  0.62172833693E+02  0.29995296289E+03  0.42865758987E+03  0.50400001928E-02 0.  1.
       -1    1    3    3    0  502  0.29985010945E+03 -0.62172833693E+02 -0.85633055260E+03  0.90943804887E+03  0.50400001928E-02 0. -1.
</event>
<event>
 5   0  0.2580244E-03  0.1184932E+04  0.7818609E-02  0.9126149E-01
        2   -1    0    0  501    0  0.00000000000E+00  0.00000000000E+00  0.19468319235E+04  0.19468319235E+04  0.25500000920E-02 0.  1.
       -2   -1    0    0    0  501  0.00000000000E+00  0.00000000000E+00 -0.18030111816E+03  0.18030111818E+03  0.25500000920E-02 0. -1.
    10030    2    1    2    0    0  0.00000000000E+00  0.00000000000E+00  0.17665308053E+04  0.21271330416E+04  0.11849320195E+04 0.  0.
        1    1    3    3  502    0  0.21564742701E+02 -0.19482064001E+03  0.18869397504E+04  0.18970929712E+04  0.50400001928E-02 0.  1.
       -1    1    3    3    0  502 -0.21564742701E+02  0.19482064001E+03 -0.12040894510E+03  0.23004007039E+03  0.50400001928E-02 0. -1.
</event>
<event>
 5   0  0.1455076E-03  0.1198234E+04  0.7818609E-02  0.9114403E-01
       -1   -1    0    0    0  501  0.00000000000E+00  0.00000000000E+00  0.32952294658E+03  0.32952294661E+03  0.50400001928E-02 0.  1.
        1   -1    0    0  501    0  0.00000000000E+00  0.00000000000E+00 -0.10892756806E+04  0.10892756807E+04  0.50400001928E-02 0. -1.
    10030    2    1    2    0    0  0.00000000000E+00  0.00000000000E+00 -0.75975273407E+03  0.14187986273E+04  0.11982342542E+04 0.  0.
        4    1    3    3  502    0 -0.95429821743E+02  0.35839961612E+03  0.17724620498E+03  0.41106564657E+03  0.12699999809E+01 0.  1.
       -4    1    3    3    0  502  0.95429821743E+02 -0.35839961612E+03 -0.93699893904E+03  0.10077329807E+04  0.12699999809E+01 0. -1.
</event>
<event>
 5   0  0.2484507E-03  0.1229702E+04  0.7818609E-02  0.9087248E-01
        2   -1    0    0  501    0  0.00000000000E+00  0.00000000000E+00  0.95067094659E+03  0.95067094660E+03  0.25500000920E-02 0. -1.
       -2   -1    0    0    0  501  0.00000000000E+00  0.00000000000E+00 -0.39765806033E+03  0.39765806034E+03  0.25500000920E-02 0.  1.
    10030    2    1    2    0    0  0.00000000000E+00  0.00000000000E+00  0.55301288626E+03  0.13483290069E+04  0.12297023455E+04 0.  0.
        2    1    3    3  502    0  0.52713186750E+03 -0.25264482932E+03  0.48553976346E+03  0.75989886000E+03  0.25500000920E-02 0.  1.
       -2    1    3    3    0  502 -0.52713186750E+03  0.25264482932E+03  0.67473122801E+02  0.58843014694E+03  0.25500000920E-02 0. -1.
</event>
<event>
 5   0  0.2484507E-03  0.1201443E+04  0.7818609E-02  0.9111595E-01
       -2   -1    0    0    0  501  0.00000000000E+00  0.00000000000E+00  0.62818895176E+03  0.62818895176E+03  0.25500000920E-02 0. -1.
        2   -1    0    0  501    0  0.00000000000E+00  0.00000000000E+00 -0.57445463064E+03  0.57445463064E+03  0.25500000920E-02 0.  1.
    10030    2    1    2    0    0  0.00000000000E+00  0.00000000000E+00  0.53734321123E+02  0.12026435824E+04  0.12014425534E+04 0.  0.
        2    1    3    3  502    0 -0.19828606259E+03  0.45629376947E+03  0.36387073650E+03  0.61637916866E+03  0.25500000920E-02 0. -1.
       -2    1    3    3    0  502  0.19828606259E+03 -0.45629376947E+03 -0.31013641538E+03  0.58626441374E+03  0.25500000920E-02 0.  1.
</event>
<event>
 5   0  0.1455076E-03  0.1305651E+04  0.7818609E-02  0.9025096E-01
       -1   -1    0    0    0  501  0.00000000000E+00  0.00000000000E+00  0.58114390071E+03  0.58114390073E+03  0.50400001928E-02 0. -1.
        1   -1    0    0  501    0  0.00000000000E+00  0.00000000000E+00 -0.73334905161E+03  0.73334905163E+03  0.50400001928E-02 0.  1.
    10030    2    1    2    0    0  0.00000000000E+00  0.00000000000E+00 -0.15220515090E+03  0.13144929524E+04  0.13056512987E+04 0.  0.
        4    1    3    3  502    0  0.58793749823E+03  0.26970179431E+03 -0.16484799005E+03  0.66752230854E+03  0.12699999809E+01 0.  1.
       -4    1    3    3    0  502 -0.58793749823E+03 -0.26970179431E+03  0.12642839150E+02  0.64697064381E+03  0.12699999809E+01 0. -1.
</event>
<event>
 5   0  0.1469851E-03  0.1186557E+04  0.7818609E-02  0.9124706E-01
       -1   -1    0    0    0  501  0.00000000000E+00  0.00000000000E+00  0.29270265542E+03  0.29270265546E+03  0.50400001928E-02 0.  1.
        1   -1    0    0  501    0  0.00000000000E+00  0.00000000000E+00 -0.12025141533E+04  0.12025141533E+04  0.50400001928E-02 0. -1.
    10030    2    1    2    0    0  0.00000000000E+00  0.00000000000E+00 -0.90981149785E+03  0.14952168087E+04  0.11865565067E+04 0.  0.
        5    1    3    3  502    0 -0.45277836624E+02 -0.49219613554E+03 -0.41456206622E+02  0.49603208101E+03  0.46999998093E+01 0.  1.
       -5    1    3    3    0  502  0.45277836624E+02  0.49219613554E+03 -0.86835529123E+03  0.99918472773E+03  0.46999998093E+01 0. -1.
</event>
<event>
 5   0  0.1423024E-03  0.1161066E+04  0.7818609E-02  0.9147635E-01
       -1   -1    0    0    0  501  0.00000000000E+00  0.00000000000E+00  0.29402635377E+03  0.29402635382E+03  0.50400001928E-02 0.  1.
        1   -1    0    0  501    0  0.00000000000E+00  0.00000000000E+00 -0.11462192685E+04  0.11462192685E+04  0.50400001928E-02 0. -1.
    10030    2    1    2    0    0  0.00000000000E+00  0.00000000000E+00 -0.85219291474E+03  0.14402456223E+04  0.11610661862E+04 0.  0.
        2    1    3    3  502    0 -0.73891136024E+02  0.28595622199E+03  0.19386573859E+03  0.35329136061E+03  0.25500000920E-02 0.  1.
       -2    1    3    3    0  502  0.73891136024E+02 -0.28595622199E+03 -0.10460586533E+04  0.10869542617E+04  0.25500000920E-02 0. -1.
</event>
<event>
 5   0  0.2517023E-03  0.1205660E+04  0.7818609E-02  0.9107917E-01
        2   -1    0    0  501    0  0.00000000000E+00  0.00000000000E+00  0.40478711454E+03  0.40478711455E+03  0.25500000920E-02 0. -1.
       -2   -1    0    0    0  501  0.00000000000E+00  0.00000000000E+00 -0.89776595371E+03  0.89776595372E+03  0.25500000920E-02 0.  1.
    10030    2    1    2    0    0  0.00000000000E+00  0.00000000000E+00 -0.49297883918E+03  0.13025530683E+04  0.12056601344E+04 0.  0.
        3    1    3    3  502    0  0.41778599744E+03 -0.85501070509E+01 -0.71590254472E+03  0.82893588879E+03  0.10100000352E+00 0.  1.
       -3    1    3    3    0  502 -0.41778599744E+03  0.85501070509E+01  0.22292370555E+03  0.47361717947E+03  0.10100000352E+00 0. -1.
</event>
<event>
 5   0  0.1423024E-03  0.1199430E+04  0.7818609E-02  0.9113356E-01
       -1   -1    0    0    0  501  0.00000000000E+00  0.00000000000E+00  0.62810395622E+03  0.62810395624E+03  0.50400001928E-02 0. -1.
        1   -1    0    0  501    0  0.00000000000E+00  0.00000000000E+00 -0.57260888320E+03  0.57260888323E+03  0.50400001928E-02 0.  1.
    10030    2    1    2    0    0  0.00000000000E+00  0.00000000000E+00  0.55495073016E+02  0.12007128395E+04  0.11994297060E+04 0.  0.
        2    1    3    3  502    0 -0.29794845271E+03  0.49488496846E+03 -0.13358781096E+03  0.59289975183E+03  0.25500000920E-02 0.  1.
       -2    1    3    3    0  502  0.29794845271E+03 -0.49488496846E+03  0.18908288398E+03  0.60781308763E+03  0.25500000920E-02 0. -1.
</event>
<event>
 5   0  0.1404833E-03  0.1216332E+04  0.7818609E-02  0.9098680E-01
        1   -1    0    0  501    0  0.00000000000E+00  0.00000000000E+00  0.62905941877E+03  0.62905941879E+03  0.50400001928E-02 0. -1.
       -1   -1    0    0    0  501  0.00000000000E+00  0.00000000000E+00 -0.58796669404E+03  0.58796669406E+03  0.50400001928E-02 0.  1.
    10030    2    1    2    0    0  0.00000000000E+00  0.00000000000E+00  0.41092724734E+02  0.12170261129E+04  0.12163321698E+04 0.  0.
        1    1    3    3  502    0  0.24540756001E+03  0.13219985094E+03 -0.52028427892E+03  0.59025198180E+03  0.50400001928E-02 0.  1.
       -1    1    3    3    0  502 -0.24540756001E+03 -0.13219985094E+03  0.56137700366E+03  0.62677413105E+03  0.50400001928E-02 0. -1.
</event>
<event>
 5   0  0.2580244E-03  0.1134407E+04  0.7818609E-02  0.9172291E-01
       -2   -1    0    0    0  501  0.00000000000E+00  0.00000000000E+00  0.68307784459E+03  0.68307784460E+03  0.25500000920E-02 0. -1.
        2   -1    0    0  501    0  0.00000000000E+00  0.00000000000E+00 -0.47098532640E+03  0.47098532640E+03  0.25500000920E-02 0.  1.
    10030    2    1    2    0    0  0.00000000000E+00  0.00000000000E+00  0.21209251820E+03  0.11540631710E+04  0.11344067024E+04 0.  0.
        1    1    3    3  502    0  0.16120647405E+03  0.48691286496E+03  0.35241596966E+03  0.62230915230E+03  0.50400001928E-02 0.  1.
       -1    1    3    3    0  502 -0.16120647405E+03 -0.48691286496E+03 -0.14032345146E+03  0.53175401870E+03  0.50400001928E-02 0. -1.
</event>
<event>
 5   0  0.1469851E-03  0.1196909E+04  0.7818609E-02  0.9115566E-01
        1   -1    0    0  501    0  0.00000000000E+00  0.00000000000E+00  0.43057236199E+03  0.43057236202E+03  0.50400001928E-02 0.  1.
       -1   -1    0    0    0  501  0.00000000000E+00  0.00000000000E+00 -0.83179462684E+03  0.83179462685E+03  0.50400001928E-02 0. -1.
    10030    2    1    2    0    0  0.00000000000E+00  0.00000000000E+00 -0.40122226485E+03  0.12623669889E+04  0.11969089810E+04 0.  0.
        5    1    3    3  502    0  0.46434016030E+03 -0.68547496609E+02  0.19092601656E+03  0.50673995062E+03  0.46999998093E+01 0.  1.
       -5    1    3    3    0  502 -0.46434016030E+03  0.68547496609E+02 -0.59214828140E+03  0.75562703825E+03  0.46999998093E+01 0. -1.
</event>
<event>
 5   0  0.1469851E-03  0.1196828E+04  0.7818609E-02  0.9115637E-01
        1   -1    0    0  501    0  0.00000000000E+00  0.00000000000E+00  0.11371086433E+04  0.11371086434E+04  0.50400001928E-02 0. -1.
       -1   -1    0    0    0  501  0.00000000000E+00  0.00000000000E+00 -0.31492114698E+03  0.31492114702E+03  0.50400001928E-02 0.  1.
    10030    2    1    2    0    0  0.00000000000E+00  0.00000000000E+00  0.82218749637E+03  0.14520297904E+04  0.11968284058E+04 0.  0.
        5    1    3    3  502    0 -0.47521052570E+03 -0.36133915274E+03  0.46091667531E+03  0.75422629139E+03  0.46999998093E+01 0. -1.
       -5    1    3    3    0  502  0.47521052570E+03  0.36133915274E+03  0.36127082105E+03  0.69780349898E+03  0.46999998093E+01 0.  1.
</event>
<event>
 5   0  0.2484507E-03  0.1199932E+04  0.7818609E-02  0.9112916E-01
        2   -1    0    0  501    0  0.00000000000E+00  0.00000000000E+00  0.76258048878E+03  0.76258048878E+03  0.25500000920E-02 0.  1.
       -2   -1    0    0    0  501  0.00000000000E+00  0.00000000000E+00 -0.47202794675E+03  0.47202794676E+03  0.25500000920E-02 0. -1.
    10030    2    1    2    0    0  0.00000000000E+00  0.00000000000E+00  0.29055254203E+03  0.12346084355E+04  0.11999321687E+04 0.  0.
        2    1    3    3  502    0 -0.40721993547E+03  0.43103976672E+03  0.23921614872E+03  0.63941201283E+03  0.25500000920E-02 0.  1.
       -2    1    3    3    0  502  0.40721993547E+03 -0.43103976672E+03  0.51336393310E+02  0.59519642272E+03  0.25500000920E-02 0. -1.
</event>
<event>
 5   0  0.2484507E-03  0.1189102E+04  0.7818609E-02  0.9122449E-01
        2   -1    0    0  501    0  0.00000000000E+00  0.00000000000E+00  0.64343900253E+03  0.64343900254E+03  0.25500000920E-02 0.  1.
       -2   -1    0    0    0  501  0.00000000000E+00  0.00000000000E+00 -0.54937777338E+03  0.54937777339E+03  0.25500000920E-02 0. -1.
    10030    2    1    2    0    0  0.00000000000E+00  0.00000000000E+00  0.94061229148E+02  0.11928167759E+04  0.11891023279E+04 0.  0.
        2    1    3    3  502    0 -0.49759099840E+03  0.16557388468E+03 -0.23398653633E+03  0.57424838891E+03  0.25500000920E-02 0. -1.
       -2    1    3    3    0  502  0.49759099840E+03 -0.16557388468E+03  0.32804776548E+03  0.61856838702E+03  0.25500000920E-02 0.  1.
</event>
<event>
 5   0  0.1403154E-03  0.1200054E+04  0.7818609E-02  0.9112810E-01
        1   -1    0    0  501    0  0.00000000000E+00  0.00000000000E+00  0.12451955126E+04  0.12451955126E+04  0.50400001928E-02 0.  1.
       -1   -1    0    0    0  501  0.00000000000E+00  0.00000000000E+00 -0.28913706595E+03  0.28913706599E+03  0.50400001928E-02 0. -1.
    10030    2    1    2    0    0  0.00000000000E+00  0.00000000000E+00  0.95605844664E+03  0.15343325786E+04  0.12000536273E+04 0.  0.
        3    1    3    3  502    0 -0.59841247993E+03 -0.35031675327E+02  0.44402228881E+03  0.74597621784E+03  0.10100000352E+00 0. -1.
       -3    1    3    3    0  502  0.59841247993E+03  0.35031675327E+02  0.51203615783E+03  0.78835636076E+03  0.10100000352E+00 0.  1.
</event>
<event>
 5   0  0.2499890E-03  0.1196266E+04  0.7818609E-02  0.9116131E-01
       -2   -1    0    0    0  501  0.00000000000E+00  0.00000000000E+00  0.24422009193E+03  0.24422009195E+03  0.25500000920E-02 0.  1.
        2   -1    0    0  501    0  0.00000000000E+00  0.00000000000E+00 -0.14649199297E+04  0.14649199298E+04  0.25500000920E-02 0. -1.
    10030    2    1    2    0    0  0.00000000000E+00  0.00000000000E+00 -0.12206998378E+04  0.17091400217E+04  0.11962656560E+04 0.  0.
        5    1    3    3  502    0  0.24528201760E+03  0.35211703258E+03 -0.12056195933E+04  0.12797227694E+04  0.46999998093E+01 0. -1.
       -5    1    3    3    0  502 -0.24528201760E+03 -0.35211703258E+03 -0.15080244521E+02  0.42941725229E+03  0.46999998093E+01 0.  1.
</event>
<event>
 5   0  0.1455076E-03  0.1214295E+04  0.7818609E-02  0.9100435E-01
       -1   -1    0    0    0  501  0.00000000000E+00  0.00000000000E+00  0.89491339646E+03  0.89491339647E+03  0.50400001928E-02 0.  1.
        1   -1    0    0  501    0  0.00000000000E+00  0.00000000000E+00 -0.41191491667E+03  0.41191491670E+03  0.50400001928E-02 0. -1.
    10030    2    1    2    0    0  0.00000000000E+00  0.00000000000E+00  0.48299847979E+03  0.13068283132E+04  0.12142951489E+04 0.  0.
        4    1    3    3  502    0  0.18025313335E+03 -0.43544905825E+03  0.65344683709E+03  0.80566832892E+03  0.12699999809E+01 0.  1.
       -4    1    3    3    0  502 -0.18025313335E+03  0.43544905825E+03 -0.17044835730E+03  0.50115998426E+03  0.12699999809E+01 0. -1.
</event>
<event>
 5   0  0.2484507E-03  0.1197592E+04  0.7818609E-02  0.9114967E-01
       -2   -1    0    0    0  501  0.00000000000E+00  0.00000000000E+00  0.30859666852E+03  0.30859666854E+03  0.25500000920E-02 0. -1.
        2   -1    0    0  501    0  0.00000000000E+00  0.00000000000E+00 -0.11618939544E+04  0.11618939544E+04  0.25500000920E-02 0.  1.
    10030    2    1    2    0    0  0.00000000000E+00  0.00000000000E+00 -0.85329728585E+03  0.14704906229E+04  0.11975919230E+04 0.  0.
        2    1    3    3  502    0 -0.82463392284E+02  0.12664743380E+03  0.28479409629E+03  0.32240884113E+03  0.25500000920E-02 0. -1.
       -2    1    3    3    0  502  0.82463392284E+02 -0.12664743380E+03 -0.11380913821E+04  0.11480817818E+04  0.25500000920E-02 0.  1.
</event>
<event>
 5   0  0.1403154E-03  0.1206033E+04  0.7818609E-02  0.9107592E-01
       -1   -1    0    0    0  501  0.00000000000E+00  0.00000000000E+00  0.50111579678E+03  0.50111579680E+03  0.50400001928E-02 0. -1.
        1   -1    0    0  501    0  0.00000000000E+00  0.00000000000E+00 -0.72563871338E+03  0.72563871340E+03  0.50400001928E-02 0.  1.
    10030    2    1    2    0    0  0.00000000000E+00  0.00000000000E+00 -0.22452291660E+03  0.12267545102E+04  0.12060332036E+04 0.  0.
        3    1    3    3  502    0 -0.33570746472E+03 -0.32460633689E+02  0.39620289623E+03  0.52031715308E+03  0.10100000352E+00 0. -1.
       -3    1    3    3    0  502  0.33570746472E+03  0.32460633689E+02 -0.62072581284E+03  0.70643735712E+03  0.10100000352E+00 0.  1.
</event>
<event>
 5   0  0.1469851E-03  0.1196628E+04  0.7818609E-02  0.9115813E-01
       -1   -1    0    0    0  501  0.00000000000E+00  0.00000000000E+00  0.52728219169E+03  0.52728219171E+03  0.50400001928E-02 0. -1.
        1   -1    0    0  501    0  0.00000000000E+00  0.00000000000E+00 -0.67891443499E+03  0.67891443501E+03  0.50400001928E-02 0.  1.
    10030    2    1    2    0    0  0.00000000000E+00  0.00000000000E+00 -0.15163224330E+03  0.12061966267E+04  0.11966277471E+04 0.  0.
        5    1    3    3  502    0  0.29419424358E+03  0.13358208339E+02 -0.60077691228E+03  0.66909168506E+03  0.46999998093E+01 0.  1.
       -5    1    3    3    0  502 -0.29419424358E+03 -0.13358208339E+02  0.44914466898E+03  0.53710494166E+03  0.46999998093E+01 0. -1.
</event>
<event>
 5   0  0.1423024E-03  0.1211904E+04  0.7818609E-02  0.9102500E-01
        1   -1    0    0  501    0  0.00000000000E+00  0.00000000000E+00  0.15651522707E+04  0.15651522707E+04  0.50400001928E-02 0. -1.
       -1   -1    0    0    0  501  0.00000000000E+00  0.00000000000E+00 -0.23459576109E+03  0.23459576114E+03  0.50400001928E-02 0.  1.
    10030    2    1    2    0    0  0.00000000000E+00  0.00000000000E+00  0.13305565096E+04  0.17997480319E+04  0.12119044322E+04 0.  0.
        2    1    3    3  502    0 -0.14348704483E+03 -0.55518813721E+03  0.95612099311E+03  0.11148945032E+04  0.25500000920E-02 0.  1.
       -2    1    3    3    0  502  0.14348704483E+03  0.55518813721E+03  0.37443551653E+03  0.68485352870E+03  0.25500000920E-02 0. -1.
</event>
<event>
 5   0  0.1469851E-03  0.1196952E+04  0.7818609E-02  0.9115528E-01
       -1   -1    0    0    0  501  0.00000000000E+00  0.00000000000E+00  0.38133941498E+03  0.38133941501E+03  0.50400001928E-02 0. -1.
        1   -1    0    0  501    0  0.00000000000E+00  0.00000000000E+00 -0.93925187257E+03  0.93925187259E+03  0.50400001928E-02 0.  1.
    10030    2    1    2    0    0  0.00000000000E+00  0.00000000000E+00 -0.55791245759E+03  0.13205912876E+04  0.11969523961E+04 0.  0.
        5    1    3    3  502    0  0.10486821159E+03 -0.58485943885E+03 -0.20021340484E+03  0.62702902843E+03  0.46999998093E+01 0.  1.
       -5    1    3    3    0  502 -0.10486821159E+03  0.58485943885E+03 -0.35769905275E+03  0.69356225917E+03  0.46999998093E+01 0. -1.
</event>
<event>
 5   0  0.2484507E-03  0.1184362E+04  0.7818609E-02  0.9126656E-01
        2   -1    0    0  501    0  0.00000000000E+00  0.00000000000E+00  0.41247135765E+03  0.41247135766E+03  0.25500000920E-02 0. -1.
       -2   -1    0    0    0  501  0.00000000000E+00  0.00000000000E+00 -0.85018842166E+03  0.85018842166E+03  0.25500000920E-02 0.  1.
    10030    2    1    2    0    0  0.00000000000E+00  0.00000000000E+00 -0.43771706401E+03  0.12626597793E+04  0.11843620604E+04 0.  0.
        2    1    3    3  502    0 -0.54685241597E+03  0.22717593866E+03 -0.21386934580E+03  0.62960032484E+03  0.25500000920E-02 0. -1.
       -2    1    3    3    0  502  0.54685241597E+03 -0.22717593866E+03 -0.22384771821E+03  0.63305945449E+03  0.25500000920E-02 0.  1.
</event>
<event>
 5   0  0.2484507E-03  0.1213873E+04  0.7818609E-02  0.9100800E-01
        2   -1    0    0  501    0  0.00000000000E+00  0.00000000000E+00  0.89695668951E+03  0.89695668952E+03  0.25500000920E-02 0.  1.
       -2   -1    0    0    0  501  0.00000000000E+00  0.00000000000E+00 -0.41069078572E+03  0.41069078573E+03  0.25500000920E-02 0. -1.
    10030    2    1    2    0    0  0.00000000000E+00  0.00000000000E+00  0.48626590379E+03  0.13076474752E+04  0.12138728889E+04 0.  0.
        2    1    3    3  502    0 -0.46876294199E+02 -0.29075560926E+03 -0.32855793737E+03  0.44123296510E+03  0.25500000920E-02 0. -1.
       -2    1    3    3    0  502  0.46876294199E+02  0.29075560926E+03  0.81482384116E+03  0.86641451015E+03  0.25500000920E-02 0.  1.
</event>
<event>
 5   0  0.1455076E-03  0.1191354E+04  0.7818609E-02  0.9120458E-01
        1   -1    0    0  501    0  0.00000000000E+00  0.00000000000E+00  0.93163872881E+03  0.93163872883E+03  0.50400001928E-02 0.  1.
       -1   -1    0    0    0  501  0.00000000000E+00  0.00000000000E+00 -0.38086754551E+03  0.38086754554E+03  0.50400001928E-02 0. -1.
    10030    2    1    2    0    0  0.00000000000E+00  0.00000000000E+00  0.55077118330E+03  0.13125062744E+04  0.11913537778E+04 0.  0.
        4    1    3    3  502    0 -0.70736538881E+02  0.15978138916E+03 -0.35199512391E+03  0.39298337167E+03  0.12699999809E+01 0. -1.
       -4    1    3    3    0  502  0.70736538881E+02 -0.15978138916E+03  0.90276630721E+03  0.91952290270E+03  0.12699999809E+01 0.  1.
</event>
<event>
 5   0  0.2579442E-03  0.1195644E+04  0.7818609E-02  0.9116678E-01
        2   -1    0    0  501    0  0.00000000000E+00  0.00000000000E+00  0.66230798979E+03  0.66230798980E+03  0.25500000920E-02 0.  1.
       -2   -1    0    0    0  501  0.00000000000E+00  0.00000000000E+00 -0.53961493953E+03  0.53961493953E+03  0.25500000920E-02 0. -1.
    10030    2    1    2    0    0  0.00000000000E+00  0.00000000000E+00  0.12269305026E+03  0.12019229293E+04  0.11956442378E+04 0.  0.
        4    1    3    3  502    0  0.42117860965E+03  0.79523247372E+02  0.48027745897E+03  0.64372619847E+03  0.12699999809E+01 0.  1.
       -4    1    3    3    0  502 -0.42117860965E+03 -0.79523247372E+02 -0.35758440870E+03  0.55819673086E+03  0.12699999809E+01 0. -1.
</event>
<event>
 5   0  0.9678750E-04  0.1211458E+04  0.7818609E-02  0.9102886E-01
        3   -1    0    0  501    0  0.00000000000E+00  0.00000000000E+00  0.58028273121E+03  0.58028274000E+03  0.10100000352E+00 0.  1.
       -3   -1    0    0    0  501  0.00000000000E+00  0.00000000000E+00 -0.63229135055E+03  0.63229135862E+03  0.10100000352E+00 0. -1.
    10030    2    1    2    0    0  0.00000000000E+00  0.00000000000E+00 -0.52008619339E+02  0.12125740986E+04  0.12114582321E+04 0.  0.
        2    1    3    3  502    0 -0.46886725819E+03 -0.14400792405E+02  0.35757690569E+03  0.58983483461E+03  0.25500000920E-02 0.  1.
       -2    1    3    3    0  502  0.46886725819E+03  0.14400792405E+02 -0.40958552503E+03  0.62273926401E+03  0.25500000920E-02 0. -1.
</event>
<event>
 5   0  0.1469851E-03  0.1203389E+04  0.7818609E-02  0.9109895E-01
        1   -1    0    0  501    0  0.00000000000E+00  0.00000000000E+00  0.97392276760E+03  0.97392276762E+03  0.50400001928E-02 0. -1.
       -1   -1    0    0    0  501  0.00000000000E+00  0.00000000000E+00 -0.37173023719E+03  0.37173023723E+03  0.50400001928E-02 0.  1.
    10030    2    1    2    0    0  0.00000000000E+00  0.00000000000E+00  0.60219253041E+03  0.13456530048E+04  0.12033894489E+04 0.  0.
        5    1    3    3  502    0 -0.40172285271E+03 -0.25794708366E+03 -0.10838648594E+03  0.48957907297E+03  0.46999998093E+01 0.  1.
       -5    1    3    3    0  502  0.40172285271E+03  0.25794708366E+03  0.71057901635E+03  0.85607393187E+03  0.46999998093E+01 0. -1.
</event>
<event>
 5   0  0.1403154E-03  0.1192714E+04  0.7818609E-02  0.9119258E-01
        1   -1    0    0  501    0  0.00000000000E+00  0.00000000000E+00  0.55101982578E+03  0.55101982580E+03  0.50400001928E-02 0.  1.
       -1   -1    0    0    0  501  0.00000000000E+00  0.00000000000E+00 -0.64542446944E+03  0.64542446946E+03  0.50400001928E-02 0. -1.
    10030    2    1    2    0    0  0.00000000000E+00  0.00000000000E+00 -0.94404643666E+02  0.11964442953E+04  0.11927140122E+04 0.  0.
        3    1    3    3  502    0  0.36294494528E+02  0.17391113268E+03 -0.61826240639E+03  0.64328126489E+03  0.10100000352E+00 0. -1.
       -3    1    3    3    0  502 -0.36294494528E+02 -0.17391113268E+03  0.52385776272E+03  0.55316303037E+03  0.10100000352E+00 0.  1.
</event>
<event>
 5   0  0.2484507E-03  0.1208530E+04  0.7818609E-02  0.9105423E-01
        2   -1    0    0  501    0  0.00000000000E+00  0.00000000000E+00  0.15180015202E+04  0.15180015202E+04  0.25500000920E-02 0.  1.
       -2   -1    0    0    0  501  0.00000000000E+00  0.00000000000E+00 -0.24053736283E+03  0.24053736285E+03  0.25500000920E-02 0. -1.
    10030    2    1    2    0    0  0.00000000000E+00  0.00000000000E+00  0.12774641574E+04  0.17585388831E+04  0.12085298217E+04 0.  0.
        2    1    3    3  502    0 -0.82205229742E+02  0.57928392740E+03  0.41897488490E+03  0.71963012897E+03  0.25500000920E-02 0. -1.
       -2    1    3    3    0  502  0.82205229742E+02 -0.57928392740E+03  0.85848927249E+03  0.10389087541E+04  0.25500000920E-02 0.  1.
</event>
<event>
 5   0  0.1404833E-03  0.1202082E+04  0.7818609E-02  0.9111036E-01
       -1   -1    0    0    0  501  0.00000000000E+00  0.00000000000E+00  0.61122647878E+03  0.61122647880E+03  0.50400001928E-02 0. -1.
        1   -1    0    0  501    0  0.00000000000E+00  0.00000000000E+00 -0.59102504449E+03  0.59102504451E+03  0.50400001928E-02 0.  1.
    10030    2    1    2    0    0  0.00000000000E+00  0.00000000000E+00  0.20201434297E+02  0.12022515233E+04  0.12020817890E+04 0.  0.
        1    1    3    3  502    0  0.26330388525E+03  0.72698832623E+02 -0.52535894753E+03  0.59212843204E+03  0.50400001928E-02 0.  1.
       -1    1    3    3    0  502 -0.26330388525E+03 -0.72698832623E+02  0.54556038183E+03  0.61012309127E+03  0.50400001928E-02 0. -1.
</event>
<event>
 5   0  0.2484507E-03  0.1201471E+04  0.7818609E-02  0.9111570E-01
        2   -1    0    0  501    0  0.00000000000E+00  0.00000000000E+00  0.10692651575E+04  0.10692651575E+04  0.25500000920E-02 0. -1.
       -2   -1    0    0    0  501  0.00000000000E+00  0.00000000000E+00 -0.33750583576E+03  0.33750583577E+03  0.25500000920E-02 0.  1.
    10030    2    1    2    0    0  0.00000000000E+00  0.00000000000E+00  0.73175932169E+03  0.14067709932E+04  0.12014711493E+04 0.  0.
        2    1    3    3  502    0  0.48061473691E+03  0.16371207065E+03  0.74182141849E+03  0.89893892137E+03  0.25500000920E-02 0.  1.
       -2    1    3    3    0  502 -0.48061473691E+03 -0.16371207065E+03 -0.10062096797E+02  0.50783207186E+03  0.25500000920E-02 0. -1.
</event>
<event>
 5   0  0.2484507E-03  0.1196754E+04  0.7818609E-02  0.9115702E-01
       -2   -1    0    0    0  501  0.00000000000E+00  0.00000000000E+00  0.64337074050E+03  0.64337074051E+03  0.25500000920E-02 0.  1.
        2   -1    0    0  501    0  0.00000000000E+00  0.00000000000E+00 -0.55653013802E+03  0.55653013802E+03  0.25500000920E-02 0. -1.
    10030    2    1    2    0    0  0.00000000000E+00  0.00000000000E+00  0.86840602482E+02  0.11999008785E+04  0.11967542889E+04 0.  0.
        2    1    3    3  502    0 -0.13724904511E+03  0.55226979472E+03  0.22888227328E+03  0.61337290580E+03  0.25500000920E-02 0.  1.
       -2    1    3    3    0  502  0.13724904511E+03 -0.55226979472E+03 -0.14204167080E+03  0.58652797273E+03  0.25500000920E-02 0. -1.
</event>
<event>
 5   0  0.1403154E-03  0.1192853E+04  0.7818609E-02  0.9119135E-01
       -1   -1    0    0    0  501  0.00000000000E+00  0.00000000000E+00  0.22661161374E+03  0.22661161380E+03  0.50400001928E-02 0.  1.
        1   -1    0    0  501    0  0.00000000000E+00  0.00000000000E+00 -0.15697548461E+04  0.15697548461E+04  0.50400001928E-02 0. -1.
    10030    2    1    2    0    0  0.00000000000E+00  0.00000000000E+00 -0.13431432324E+04  0.17963664599E+04  0.11928531828E+04 0.  0.
        3    1    3    3  502    0 -0.90121578687E+02 -0.35400820831E+03  0.38429569837E+02  0.36731533120E+03  0.10100000352E+00 0.  1.
       -3    1    3    3    0  502  0.90121578687E+02  0.35400820831E+03 -0.13815728022E+04  0.14290511287E+04  0.10100000352E+00 0. -1.
</event>
<event>
 5   0  0.1404833E-03  0.1197551E+04  0.7818609E-02  0.9115003E-01
       -1   -1    0    0    0  501  0.00000000000E+00  0.00000000000E+00  0.21703190481E+03  0.21703190487E+03  0.50400001928E-02 0.  1.
        1   -1    0    0  501    0  0.00000000000E+00  0.00000000000E+00 -0.16519792810E+04  0.16519792810E+04  0.50400001928E-02 0. -1.
    10030    2    1    2    0    0  0.00000000000E+00  0.00000000000E+00 -0.14349473762E+04  0.18690111859E+04  0.11975511849E+04 0.  0.
        1    1    3    3  502    0 -0.34939665696E+02 -0.50899994110E+03 -0.22832491265E+03  0.55895794657E+03  0.50400001928E-02 0.  1.
       -1    1    3    3    0  502  0.34939665696E+02  0.50899994110E+03 -0.12066224636E+04  0.13100532393E+04  0.50400001928E-02 0. -1.
</event>
<event>
 5   0  0.1403154E-03  0.1183099E+04  0.7818609E-02  0.9127780E-01
       -1   -1    0    0    0  501  0.00000000000E+00  0.00000000000E+00  0.22014005726E+03  0.22014005731E+03  0.50400001928E-02 0. -1.
        1   -1    0    0  501    0  0.00000000000E+00  0.00000000000E+00 -0.15895832045E+04  0.15895832045E+04  0.50400001928E-02 0.  1.
    10030    2    1    2    0    0  0.00000000000E+00  0.00000000000E+00 -0.13694431473E+04  0.18097232618E+04  0.11830992143E+04 0.  0.
        3    1    3    3  502    0  0.12585728461E+03 -0.31479186481E+03  0.56797144999E+02  0.34374394558E+03  0.10100000352E+00 0. -1.
       -3    1    3    3    0  502 -0.12585728461E+03  0.31479186481E+03 -0.14262402923E+04  0.14659793163E+04  0.10100000352E+00 0.  1.
</event>
<event>
 5   0  0.1469851E-03  0.1193812E+04  0.7818609E-02  0.9118290E-01
       -1   -1    0    0    0  501  0.00000000000E+00  0.00000000000E+00  0.37061009455E+03  0.37061009458E+03  0.50400001928E-02 0. -1.
        1   -1    0    0  501    0  0.00000000000E+00  0.00000000000E+00 -0.96137901886E+03  0.96137901887E+03  0.50400001928E-02 0.  1.
    10030    2    1    2    0    0  0.00000000000E+00  0.00000000000E+00 -0.59076892431E+03  0.13319891135E+04  0.11938119938E+04 0.  0.
        5    1    3    3  502    0 -0.39947687416E+02 -0.59842119421E+02  0.36573323167E+03  0.37277309953E+03  0.46999998093E+01 0. -1.
       -5    1    3    3    0  502  0.39947687416E+02  0.59842119421E+02 -0.95650215598E+03  0.95921601393E+03  0.46999998093E+01 0.  1.
</event>
<event>
 5   0  0.1455076E-03  0.1202254E+04  0.7818609E-02  0.9110886E-01
       -1   -1    0    0    0  501  0.00000000000E+00  0.00000000000E+00  0.28466693624E+03  0.28466693628E+03  0.50400001928E-02 0. -1.
        1   -1    0    0  501    0  0.00000000000E+00  0.00000000000E+00 -0.12693919459E+04  0.12693919459E+04  0.50400001928E-02 0.  1.
    10030    2    1    2    0    0  0.00000000000E+00  0.00000000000E+00 -0.98472500967E+03  0.15540588822E+04  0.12022544093E+04 0.  0.
        4    1    3    3  502    0  0.16719162728E+03 -0.13138085844E+03  0.23442871298E+03  0.31650024418E+03  0.12699999809E+01 0. -1.
       -4    1    3    3    0  502 -0.16719162728E+03  0.13138085844E+03 -0.12191537227E+04  0.12375586380E+04  0.12699999809E+01 0.  1.
</event>
<event>
 5   0  0.1455076E-03  0.1213498E+04  0.7818609E-02  0.9101123E-01
        1   -1    0    0  501    0  0.00000000000E+00  0.00000000000E+00  0.12078172652E+04  0.12078172652E+04  0.50400001928E-02 0.  1.
       -1   -1    0    0    0  501  0.00000000000E+00  0.00000000000E+00 -0.30480150019E+03  0.30480150023E+03  0.50400001928E-02 0. -1.
    10030    2    1    2    0    0  0.00000000000E+00  0.00000000000E+00  0.90301576500E+03  0.15126187654E+04  0.12134982726E+04 0.  0.
        4    1    3    3  502    0  0.32716225310E+03  0.49376754704E+03  0.61546511644E+03  0.85418993954E+03  0.12699999809E+01 0. -1.
       -4    1    3    3    0  502 -0.32716225310E+03 -0.49376754704E+03  0.28755064856E+03  0.65842882588E+03  0.12699999809E+01 0.  1.
</event>
<event>
 5   0  0.2580244E-03  0.1204167E+04  0.7818609E-02  0.9109217E-01
        2   -1    0    0  501    0  0.00000000000E+00  0.00000000000E+00  0.12461667092E+04  0.12461667092E+04  0.25500000920E-02 0.  1.
       -2   -1    0    0    0  501  0.00000000000E+00  0.00000000000E+00 -0.29089559684E+03  0.29089559685E+03  0.25500000920E-02 0. -1.
    10030    2    1    2    0    0  0.00000000000E+00  0.00000000000E+00  0.95527111236E+03  0.15370623061E+04  0.12041667802E+04 0.  0.
        1    1    3    3  502    0  0.33181233642E+03  0.42767410238E+03  0.81414460404E+03  0.97766865591E+03  0.50400001928E-02 0.  1.
       -1    1    3    3    0  502 -0.33181233642E+03 -0.42767410238E+03  0.14112650832E+03  0.55939365015E+03  0.50400001928E-02 0. -1.
</event>
<event>
 5   0  0.2517023E-03  0.1198220E+04  0.7818609E-02  0.9114416E-01
        2   -1    0    0  501    0  0.00000000000E+00  0.00000000000E+00  0.75717664124E+03  0.75717664125E+03  0.25500000920E-02 0. -1.
       -2   -1    0    0    0  501  0.00000000000E+00  0.00000000000E+00 -0.47404105194E+03  0.47404105195E+03  0.25500000920E-02 0.  1.
    10030    2    1    2    0    0  0.00000000000E+00  0.00000000000E+00  0.28313558930E+03  0.12312176932E+04  0.11982200324E+04 0.  0.
        3    1    3    3  502    0  0.45643903667E+03 -0.24597912211E+03 -0.16684878669E+03  0.54468417503E+03  0.10100000352E+00 0.  1.
       -3    1    3    3    0  502 -0.45643903667E+03  0.24597912211E+03  0.44998437600E+03  0.68653351816E+03  0.10100000352E+00 0. -1.
</event>
<event>
 5   0  0.1469851E-03  0.1212669E+04  0.7818609E-02  0.9101839E-01
        1   -1    0    0  501    0  0.00000000000E+00  0.00000000000E+00  0.90003955029E+03  0.90003955030E+03  0.50400001928E-02 0. -1.
       -1   -1    0    0    0  501  0.00000000000E+00  0.00000000000E+00 -0.40847238334E+03  0.40847238337E+03  0.50400001928E-02 0.  1.
    10030    2    1    2    0    0  0.00000000000E+00  0.00000000000E+00  0.49156716695E+03  0.13085119337E+04  0.12126686278E+04 0.  0.
        5    1    3    3  502    0  0.41310606488E+03  0.19189449883E+03  0.67758516088E+03  0.81647036674E+03  0.46999998093E+01 0. -1.
       -5    1    3    3    0  502 -0.41310606488E+03 -0.19189449883E+03 -0.18601799394E+03  0.49204156693E+03  0.46999998093E+01 0.  1.
</event>
<event>
 5   0  0.2484507E-03  0.1194236E+04  0.7818609E-02  0.9117916E-01
       -2   -1    0    0    0  501  0.00000000000E+00  0.00000000000E+00  0.28117899612E+03  0.28117899613E+03  0.25500000920E-02 0. -1.
        2   -1    0    0  501    0  0.00000000000E+00  0.00000000000E+00 -0.12680538898E+04  0.12680538898E+04  0.25500000920E-02 0.  1.
    10030    2    1    2    0    0  0.00000000000E+00  0.00000000000E+00 -0.98687489373E+03  0.15492328860E+04  0.11942363582E+04 0.  0.
        2    1    3    3  502    0  0.19493232269E+03  0.50461755129E+03 -0.16547827267E+03  0.56570358159E+03  0.25500000920E-02 0. -1.
       -2    1    3    3    0  502 -0.19493232269E+03 -0.50461755129E+03 -0.82139662106E+03  0.98352930439E+03  0.25500000920E-02 0.  1.
</event>
<event>
 5   0  0.2579442E-03  0.1194587E+04  0.7818609E-02  0.9117608E-01
        2   -1    0    0  501    0  0.00000000000E+00  0.00000000000E+00  0.87298486804E+03  0.87298486805E+03  0.25500000920E-02 0.  1.
       -2   -1    0    0    0  501  0.00000000000E+00  0.00000000000E+00 -0.40866645045E+03  0.40866645046E+03  0.25500000920E-02 0. -1.
    10030    2    1    2    0    0  0.00000000000E+00  0.00000000000E+00  0.46431841759E+03  0.12816513185E+04  0.11945871711E+04 0.  0.
        4    1    3    3  502    0 -0.15006425904E+03 -0.51476721631E+03 -0.50181002356E+02  0.53853905589E+03  0.12699999809E+01 0. -1.
       -4    1    3    3    0  502  0.15006425904E+03  0.51476721631E+03  0.51449941995E+03  0.74311226262E+03  0.12699999809E+01 0.  1.
</event>
<event>
 5   0  0.1455076E-03  0.1195437E+04  0.7818609E-02  0.9116860E-01
       -1   -1    0    0    0  501  0.00000000000E+00  0.00000000000E+00  0.32768259287E+03  0.32768259290E+03  0.50400001928E-02 0.  1.
        1   -1    0    0  501    0  0.00000000000E+00  0.00000000000E+00 -0.10902843801E+04  0.10902843801E+04  0.50400001928E-02 0. -1.
    10030    2    1    2    0    0  0.00000000000E+00  0.00000000000E+00 -0.76260178725E+03  0.14179669730E+04  0.11954366778E+04 0.  0.
        4    1    3    3  502    0  0.31625222557E+03  0.26951600413E+03 -0.89094689845E+03  0.98307799050E+03  0.12699999809E+01 0. -1.
       -4    1    3    3    0  502 -0.31625222557E+03 -0.26951600413E+03  0.12834511120E+03  0.43488898253E+03  0.12699999809E+01 0.  1.
</event>
<event>
 5   0  0.2499890E-03  0.1205955E+04  0.7818609E-02  0.9107660E-01
       -2   -1    0    0    0  501  0.00000000000E+00  0.00000000000E+00  0.53803333023E+03  0.53803333023E+03  0.25500000920E-02 0.  1.
        2   -1    0    0  501    0  0.00000000000E+00  0.00000000000E+00 -0.67576075680E+03  0.67576075681E+03  0.25500000920E-02 0. -1.
    10030    2    1    2    0    0  0.00000000000E+00  0.00000000000E+00 -0.13772742657E+03  0.12137940870E+04  0.12059549087E+04 0.  0.
        5    1    3    3  502    0  0.33642563242E+03 -0.19287188520E+03  0.39584957260E+03  0.55416671171E+03  0.46999998093E+01 0.  1.
       -5    1    3    3    0  502 -0.33642563242E+03  0.19287188520E+03 -0.53357699917E+03  0.65962737533E+03  0.46999998093E+01 0. -1.
</event>
<event>
 5   0  0.2517023E-03  0.1194228E+04  0.7818609E-02  0.9117924E-01
        2   -1    0    0  501    0  0.00000000000E+00  0.00000000000E+00  0.10169880326E+04  0.10169880326E+04  0.25500000920E-02 0.  1.
       -2   -1    0    0    0  501  0.00000000000E+00  0.00000000000E+00 -0.35058913631E+03  0.35058913632E+03  0.25500000920E-02 0. -1.
    10030    2    1    2    0    0  0.00000000000E+00  0.00000000000E+00  0.66639889633E+03  0.13675771690E+04  0.11942277103E+04 0.  0.
        3    1    3    3  502    0  0.26023584226E+03 -0.10113233932E+03 -0.27123745051E+03  0.38925596773E+03  0.10100000352E+00 0. -1.
       -3    1    3    3    0  502 -0.26023584226E+03  0.10113233932E+03  0.93763634684E+03  0.97832120123E+03  0.10100000352E+00 0.  1.
</event>
<event>
 5   0  0.1455076E-03  0.1255507E+04  0.7818609E-02  0.9065612E-01
       -1   -1    0    0    0  501  0.00000000000E+00  0.00000000000E+00  0.69500850895E+03  0.69500850897E+03  0.50400001928E-02 0. -1.
        1   -1    0    0  501    0  0.00000000000E+00  0.00000000000E+00 -0.56700653094E+03  0.56700653096E+03  0.50400001928E-02 0.  1.
    10030    2    1    2    0    0  0.00000000000E+00  0.00000000000E+00  0.12800197802E+03  0.12620150399E+04  0.12555068517E+04 0.  0.
        4    1    3    3  502    0  0.16003029100E+03  0.34748171158E+03 -0.43629331184E+03  0.58026433698E+03  0.12699999809E+01 0.  1.
       -4    1    3    3    0  502 -0.16003029100E+03 -0.34748171158E+03  0.56429528986E+03  0.68175070295E+03  0.12699999809E+01 0. -1.
</event>
<event>
 5   0  0.9678750E-04  0.1194488E+04  0.7818609E-02  0.9117695E-01
       -3   -1    0    0    0  501  0.00000000000E+00  0.00000000000E+00  0.34260949732E+03  0.34260951221E+03  0.10100000352E+00 0.  1.
        3   -1    0    0  501    0  0.00000000000E+00  0.00000000000E+00 -0.10411277495E+04  0.10411277544E+04  0.10100000352E+00 0. -1.
    10030    2    1    2    0    0  0.00000000000E+00  0.00000000000E+00 -0.69851825214E+03  0.13837372666E+04  0.11944877874E+04 0.  0.
        5    1    3    3  502    0 -0.88994335360E+01 -0.44310376149E+02 -0.10391224709E+04  0.10401154786E+04  0.46999998093E+01 0. -1.
       -5    1    3    3    0  502  0.88994335360E+01  0.44310376149E+02  0.34060421873E+03  0.34362178797E+03  0.46999998093E+01 0.  1.
</event>
<event>
 5   0  0.1404833E-03  0.1178532E+04  0.7818609E-02  0.9131857E-01
       -1   -1    0    0    0  501  0.00000000000E+00  0.00000000000E+00  0.62032254840E+03  0.62032254842E+03  0.50400001928E-02 0.  1.
        1   -1    0    0  501    0  0.00000000000E+00  0.00000000000E+00 -0.55976473944E+03  0.55976473946E+03  0.50400001928E-02 0. -1.
    10030    2    1    2    0    0  0.00000000000E+00  0.00000000000E+00  0.60557808968E+02  0.11800872879E+04  0.11785324598E+04 0.  0.
        1    1    3    3  502    0 -0.52412427273E+03  0.32437832913E+01  0.29992568281E+03  0.60388094077E+03  0.50400001928E-02 0.  1.
       -1    1    3    3    0  502  0.52412427273E+03 -0.32437832913E+01 -0.23936787384E+03  0.57620634711E+03  0.50400001928E-02 0. -1.
</event>
<event>
 5   0  0.2579442E-03  0.1200547E+04  0.7818609E-02  0.9112378E-01
        2   -1    0    0  501    0  0.00000000000E+00  0.00000000000E+00  0.25466675211E+04  0.25466675211E+04  0.25500000920E-02 0.  1.
       -2   -1    0    0    0  501  0.00000000000E+00  0.00000000000E+00 -0.14149010001E+03  0.14149010003E+03  0.25500000920E-02 0. -1.
    10030    2    1    2    0    0  0.00000000000E+00  0.00000000000E+00  0.24051774211E+04  0.26881576211E+04  0.12005469458E+04 0.  0.
        4    1    3    3  502    0 -0.18330347890E+03 -0.30347617902E+02  0.24806591183E+04  0.24876077700E+04  0.12699999809E+01 0.  1.
       -4    1    3    3    0  502  0.18330347890E+03  0.30347617902E+02 -0.75481697187E+02  0.20054985115E+03  0.12699999809E+01 0. -1.
</event>
<event>
 5   0  0.2517023E-03  0.1229018E+04  0.7818609E-02  0.9087829E-01
       -2   -1    0    0    0  501  0.00000000000E+00  0.00000000000E+00  0.14807654620E+03  0.14807654622E+03  0.25500000920E-02 0.  1.
        2   -1    0    0  501    0  0.00000000000E+00  0.00000000000E+00 -0.25501776167E+04  0.25501776167E+04  0.25500000920E-02 0. -1.
    10030    2    1    2    0    0  0.00000000000E+00  0.00000000000E+00 -0.24021010705E+04  0.26982541630E+04  0.12290182972E+04 0.  0.
        3    1    3    3  502    0 -0.20525380004E+03 -0.56287829232E+03 -0.90114474208E+03  0.10821381385E+04  0.10100000352E+00 0.  1.
       -3    1    3    3    0  502  0.20525380004E+03  0.56287829232E+03 -0.15009563285E+04  0.16161160245E+04  0.10100000352E+00 0. -1.
</event>
<event>
 5   0  0.2484507E-03  0.1198070E+04  0.7818609E-02  0.9114547E-01
        2   -1    0    0  501    0  0.00000000000E+00  0.00000000000E+00  0.20105345021E+04  0.20105345021E+04  0.25500000920E-02 0.  1.
       -2   -1    0    0    0  501  0.00000000000E+00  0.00000000000E+00 -0.17848141407E+03  0.17848141409E+03  0.25500000920E-02 0. -1.
    10030    2    1    2    0    0  0.00000000000E+00  0.00000000000E+00  0.18320530880E+04  0.21890159162E+04  0.11980701832E+04 0.  0.
        2    1    3    3  502    0 -0.59370745908E+03 -0.77628201355E+02  0.88291805330E+03  0.10667984690E+04  0.25500000920E-02 0. -1.
       -2    1    3    3    0  502  0.59370745908E+03  0.77628201355E+02  0.94913503470E+03  0.11222174472E+04  0.25500000920E-02 0.  1.
</event>
<event>
 5   0  0.2484507E-03  0.1205792E+04  0.7818609E-02  0.9107802E-01
        2   -1    0    0  501    0  0.00000000000E+00  0.00000000000E+00  0.33043053997E+03  0.33043053998E+03  0.25500000920E-02 0. -1.
       -2   -1    0    0    0  501  0.00000000000E+00  0.00000000000E+00 -0.11000293828E+04  0.11000293828E+04  0.25500000920E-02 0.  1.
    10030    2    1    2    0    0  0.00000000000E+00  0.00000000000E+00 -0.76959884280E+03  0.14304599228E+04  0.12057915291E+04 0.  0.
        2    1    3    3  502    0  0.12565486332E+03  0.39416043457E+03 -0.90506957530E+03  0.99513945203E+03  0.25500000920E-02 0.  1.
       -2    1    3    3    0  502 -0.12565486332E+03 -0.39416043457E+03  0.13547073250E+03  0.43532047072E+03  0.25500000920E-02 0. -1.
</event>
<event>
 5   0  0.2579442E-03  0.1202502E+04  0.7818609E-02  0.9110669E-01
       -2   -1    0    0    0  501  0.00000000000E+00  0.00000000000E+00  0.33374226293E+03  0.33374226294E+03  0.25500000920E-02 0. -1.
        2   -1    0    0  501    0  0.00000000000E+00  0.00000000000E+00 -0.10831794292E+04  0.10831794292E+04  0.25500000920E-02 0.  1.
    10030    2    1    2    0    0  0.00000000000E+00  0.00000000000E+00 -0.74943716626E+03  0.14169216921E+04  0.12025019815E+04 0.  0.
        4    1    3    3  502    0 -0.54775767618E+03  0.13450283303E+03 -0.12932508250E+03  0.57866749845E+03  0.12699999809E+01 0.  1.
       -4    1    3    3    0  502  0.54775767618E+03 -0.13450283303E+03 -0.62011208376E+03  0.83825419368E+03  0.12699999809E+01 0. -1.
</event>
<event>
 5   0  0.2499890E-03  0.1208719E+04  0.7818609E-02  0.9105259E-01
       -2   -1    0    0    0  501  0.00000000000E+00  0.00000000000E+00  0.48633083212E+03  0.48633083213E+03  0.25500000920E-02 0. -1.
        2   -1    0    0  501    0  0.00000000000E+00  0.00000000000E+00 -0.75103272529E+03  0.75103272529E+03  0.25500000920E-02 0.  1.
    10030    2    1    2    0    0  0.00000000000E+00  0.00000000000E+00 -0.26470189316E+03  0.12373635574E+04  0.12087189421E+04 0.  0.
        5    1    3    3  502    0  0.29880541725E+01  0.15338663223E+03  0.46604594701E+03  0.49067025805E+03  0.46999998093E+01 0. -1.
       -5    1    3    3    0  502 -0.29880541725E+01 -0.15338663223E+03 -0.73074784017E+03  0.74669329937E+03  0.46999998093E+01 0.  1.
</event>
<event>
 5   0  0.2499890E-03  0.1195760E+04  0.7818609E-02  0.9116576E-01
       -2   -1    0    0    0  501  0.00000000000E+00  0.00000000000E+00  0.41971429155E+03  0.41971429156E+03  0.25500000920E-02 0. -1.
        2   -1    0    0  501    0  0.00000000000E+00  0.00000000000E+00 -0.85167538518E+03  0.85167538518E+03  0.25500000920E-02 0.  1.
    10030    2    1    2    0    0  0.00000000000E+00  0.00000000000E+00 -0.43196109363E+03  0.12713896767E+04  0.11957597266E+04 0.  0.
        5    1    3    3  502    0 -0.43059353554E+02  0.26505401012E+03 -0.78392892128E+03  0.82865818033E+03  0.46999998093E+01 0.  1.
       -5    1    3    3    0  502  0.43059353554E+02 -0.26505401012E+03  0.35196782765E+03  0.44273149641E+03  0.46999998093E+01 0. -1.
</event>
<event>
 5   0  0.2517023E-03  0.1318903E+04  0.7818609E-02  0.9014707E-01
       -2   -1    0    0    0  501  0.00000000000E+00  0.00000000000E+00  0.44365959129E+03  0.44365959130E+03  0.25500000920E-02 0. -1.
        2   -1    0    0  501    0  0.00000000000E+00  0.00000000000E+00 -0.98020333139E+03  0.98020333139E+03  0.25500000920E-02 0.  1.
    10030    2    1    2    0    0  0.00000000000E+00  0.00000000000E+00 -0.53654374010E+03  0.14238629227E+04  0.13189034982E+04 0.  0.
        3    1    3    3  502    0 -0.50174802076E+03  0.35781551674E+03 -0.52167131156E+03  0.80741809978E+03  0.10100000352E+00 0.  1.
       -3    1    3    3    0  502  0.50174802076E+03 -0.35781551674E+03 -0.14872428537E+02  0.61644482290E+03  0.10100000352E+00 0. -1.
</event>
<event>
 5   0  0.1404833E-03  0.1288042E+04  0.7818609E-02  0.9039102E-01
       -1   -1    0    0    0  501  0.00000000000E+00  0.00000000000E+00  0.52753256821E+03  0.52753256823E+03  0.50400001928E-02 0. -1.
        1   -1    0    0  501    0  0.00000000000E+00  0.00000000000E+00 -0.78623210943E+03  0.78623210944E+03  0.50400001928E-02 0.  1.
    10030    2    1    2    0    0  0.00000000000E+00  0.00000000000E+00 -0.25869954122E+03  0.13137646777E+04  0.12880419930E+04 0.  0.
        1    1    3    3  502    0  0.47853555338E+03  0.50941589712E+02  0.30718292135E+03  0.57092264678E+03  0.50400001928E-02 0. -1.
       -1    1    3    3    0  502 -0.47853555338E+03 -0.50941589712E+02 -0.56588246256E+03  0.74284203090E+03  0.50400001928E-02 0.  1.
</event>
<event>
 5   0  0.1404833E-03  0.1192843E+04  0.7818609E-02  0.9119144E-01
        1   -1    0    0  501    0  0.00000000000E+00  0.00000000000E+00  0.62356232921E+03  0.62356232923E+03  0.50400001928E-02 0.  1.
       -1   -1    0    0    0  501  0.00000000000E+00  0.00000000000E+00 -0.57046191759E+03  0.57046191762E+03  0.50400001928E-02 0. -1.
    10030    2    1    2    0    0  0.00000000000E+00  0.00000000000E+00  0.53100411619E+02  0.11940242469E+04  0.11928429269E+04 0.  0.
        1    1    3    3  502    0  0.36886512274E+03  0.33473277805E+03  0.35491631119E+03  0.61161515632E+03  0.50400001928E-02 0.  1.
       -1    1    3    3    0  502 -0.36886512274E+03 -0.33473277805E+03 -0.30181589957E+03  0.58240909053E+03  0.50400001928E-02 0. -1.
</event>
<event>
 5   0  0.2484507E-03  0.1197645E+04  0.7818609E-02  0.9114921E-01
       -2   -1    0    0    0  501  0.00000000000E+00  0.00000000000E+00  0.34323033606E+03  0.34323033607E+03  0.25500000920E-02 0.  1.
        2   -1    0    0  501    0  0.00000000000E+00  0.00000000000E+00 -0.10447448204E+04  0.10447448204E+04  0.25500000920E-02 0. -1.
    10030    2    1    2    0    0  0.00000000000E+00  0.00000000000E+00 -0.70151448438E+03  0.13879751565E+04  0.11976445480E+04 0.  0.
        2    1    3    3  502    0  0.24638718272E+03 -0.44827979222E+03 -0.71156466541E+03  0.87634792691E+03  0.25500000920E-02 0. -1.
       -2    1    3    3    0  502 -0.24638718272E+03  0.44827979222E+03  0.10050181030E+02  0.51162722960E+03  0.25500000920E-02 0.  1.
</event>
<event>
 5   0  0.2579442E-03  0.1088497E+04  0.7818609E-02  0.9216476E-01
       -2   -1    0    0    0  501  0.00000000000E+00  0.00000000000E+00  0.93375616997E+03  0.93375616997E+03  0.25500000920E-02 0. -1.
        2   -1    0    0  501    0  0.00000000000E+00  0.00000000000E+00 -0.31722056528E+03  0.31722056529E+03  0.25500000920E-02 0.  1.
    10030    2    1    2    0    0  0.00000000000E+00  0.00000000000E+00  0.61653560469E+03  0.12509767353E+04  0.10884974232E+04 0.  0.
        4    1    3    3  502    0  0.23419156072E+03  0.36767269338E+03 -0.66217964324E+02  0.44092553597E+03  0.12699999809E+01 0.  1.
       -4    1    3    3    0  502 -0.23419156072E+03 -0.36767269338E+03  0.68275356902E+03  0.81005119929E+03  0.12699999809E+01 0. -1.
</event>
<event>
 5   0  0.1469851E-03  0.1201096E+04  0.7818609E-02  0.9111898E-01
        1   -1    0    0  501    0  0.00000000000E+00  0.00000000000E+00  0.13794363124E+04  0.13794363124E+04  0.50400001928E-02 0.  1.
       -1   -1    0    0    0  501  0.00000000000E+00  0.00000000000E+00 -0.26145306130E+03  0.26145306135E+03  0.50400001928E-02 0. -1.
    10030    2    1    2    0    0  0.00000000000E+00  0.00000000000E+00  0.11179832511E+04  0.16408893737E+04  0.12010959109E+04 0.  0.
        5    1    3    3  502    0 -0.26486153232E+03 -0.50181702036E+03  0.82762124814E+03  0.10034694682E+04  0.46999998093E+01 0.  1.
       -5    1    3    3    0  502  0.26486153232E+03  0.50181702036E+03  0.29036200293E+03  0.63741990553E+03  0.46999998093E+01 0. -1.
</event>
<event>
 5   0  0.9678750E-04  0.1201147E+04  0.7818609E-02  0.9111853E-01
        3   -1    0    0  501    0  0.00000000000E+00  0.00000000000E+00  0.32367443795E+03  0.32367445371E+03  0.10100000352E+00 0. -1.
       -3   -1    0    0    0  501  0.00000000000E+00  0.00000000000E+00 -0.11143567712E+04  0.11143567758E+04  0.10100000352E+00 0.  1.
    10030    2    1    2    0    0  0.00000000000E+00  0.00000000000E+00 -0.79068233325E+03  0.14380312295E+04  0.12011474784E+04 0.  0.
        1    1    3    3  502    0 -0.11540072686E+03  0.16749758764E+03 -0.10718638388E+04  0.10909926024E+04  0.50400001928E-02 0.  1.
       -1    1    3    3    0  502  0.11540072686E+03 -0.16749758764E+03  0.28118150551E+03  0.34703862709E+03  0.50400001928E-02 0. -1.
</event>
<event>
 5   0  0.2580244E-03  0.1213583E+04  0.7818609E-02  0.9101050E-01
       -2   -1    0    0    0  501  0.00000000000E+00  0.00000000000E+00  0.41501706861E+03  0.41501706862E+03  0.25500000920E-02 0. -1.
        2   -1    0    0  501    0  0.00000000000E+00  0.00000000000E+00 -0.88718246607E+03  0.88718246608E+03  0.25500000920E-02 0.  1.
    10030    2    1    2    0    0  0.00000000000E+00  0.00000000000E+00 -0.47216539746E+03  0.13021995347E+04  0.12135829043E+04 0.  0.
        1    1    3    3  502    0 -0.60445072800E+03  0.49955787263E+02 -0.25585667090E+03  0.65826962510E+03  0.50400001928E-02 0.  1.
       -1    1    3    3    0  502  0.60445072800E+03 -0.49955787263E+02 -0.21630872656E+03  0.64392990960E+03  0.50400001928E-02 0. -1.
</event>
<event>
 5   0  0.1469851E-03  0.1246560E+04  0.7818609E-02  0.9073052E-01
        1   -1    0    0  501    0  0.00000000000E+00  0.00000000000E+00  0.33545939466E+03  0.33545939470E+03  0.50400001928E-02 0. -1.
       -1   -1    0    0    0  501  0.00000000000E+00  0.00000000000E+00 -0.11580468370E+04  0.11580468370E+04  0.50400001928E-02 0.  1.
    10030    2    1    2    0    0  0.00000000000E+00  0.00000000000E+00 -0.82258744235E+03  0.14935062317E+04  0.12465595709E+04 0.  0.
        5    1    3    3  502    0 -0.23716074812E+03 -0.14788112660E+03 -0.10787363883E+04  0.11143645424E+04  0.46999998093E+01 0.  1.
       -5    1    3    3    0  502  0.23716074812E+03  0.14788112660E+03  0.25614894593E+03  0.37914168928E+03  0.46999998093E+01 0. -1.
</event>
<event>
 5   0  0.1455076E-03  0.1208282E+04  0.7818609E-02  0.9105638E-01
        1   -1    0    0  501    0  0.00000000000E+00  0.00000000000E+00  0.77668692570E+03  0.77668692572E+03  0.50400001928E-02 0.  1.
       -1   -1    0    0    0  501  0.00000000000E+00  0.00000000000E+00 -0.46992712300E+03  0.46992712303E+03  0.50400001928E-02 0. -1.
    10030    2    1    2    0    0  0.00000000000E+00  0.00000000000E+00  0.30675980270E+03  0.12466140488E+04  0.12082818421E+04 0.  0.
        4    1    3    3  502    0  0.45053575694E+03 -0.24922096776E+03  0.47946212458E+03  0.70354751145E+03  0.12699999809E+01 0.  1.
       -4    1    3    3    0  502 -0.45053575694E+03  0.24922096776E+03 -0.17270232188E+03  0.54306653730E+03  0.12699999809E+01 0. -1.
</event>
<event>
 5   0  0.1404833E-03  0.1195189E+04  0.7818609E-02  0.9117078E-01
       -1   -1    0    0    0  501  0.00000000000E+00  0.00000000000E+00  0.34680164219E+03  0.34680164222E+03  0.50400001928E-02 0.  1.
        1   -1    0    0  501    0  0.00000000000E+00  0.00000000000E+00 -0.10297498817E+04  0.10297498817E+04  0.50400001928E-02 0. -1.
    10030    2    1    2    0    0  0.00000000000E+00  0.00000000000E+00 -0.68294823954E+03  0.13765515240E+04  0.11951886045E+04 0.  0.
        1    1    3    3  502    0 -0.15817632437E+03  0.37200276440E+03 -0.84838962162E+03  0.93977165120E+03  0.50400001928E-02 0. -1.
       -1    1    3    3    0  502  0.15817632437E+03 -0.37200276440E+03  0.16544138208E+03  0.43677987276E+03  0.50400001928E-02 0.  1.
</event>
<event>
 5   0  0.1404833E-03  0.1196356E+04  0.7818609E-02  0.9116052E-01
        1   -1    0    0  501    0  0.00000000000E+00  0.00000000000E+00  0.57769693434E+03  0.57769693436E+03  0.50400001928E-02 0.  1.
       -1   -1    0    0    0  501  0.00000000000E+00  0.00000000000E+00 -0.61938552757E+03  0.61938552759E+03  0.50400001928E-02 0. -1.
    10030    2    1    2    0    0  0.00000000000E+00  0.00000000000E+00 -0.41688593224E+02  0.11970824620E+04  0.11963563357E+04 0.  0.
        1    1    3    3  502    0  0.42942199805E+03 -0.83953872756E+02 -0.42897127096E+03  0.61275431985E+03  0.50400001928E-02 0. -1.
       -1    1    3    3    0  502 -0.42942199805E+03  0.83953872756E+02  0.38728267774E+03  0.58432814211E+03  0.50400001928E-02 0.  1.
</event>
<event>
 5   0  0.1404833E-03  0.1197954E+04  0.7818609E-02  0.9114649E-01
       -1   -1    0    0    0  501  0.00000000000E+00  0.00000000000E+00  0.38878165533E+03  0.38878165536E+03  0.50400001928E-02 0. -1.
        1   -1    0    0  501    0  0.00000000000E+00  0.00000000000E+00 -0.92281520438E+03  0.92281520439E+03  0.50400001928E-02 0.  1.
    10030    2    1    2    0    0  0.00000000000E+00  0.00000000000E+00 -0.53403354904E+03  0.13115968598E+04  0.11979542942E+04 0.  0.
        1    1    3    3  502    0 -0.91994637067E+02  0.17362786459E+03  0.35249041470E+03  0.40355810126E+03  0.50400001928E-02 0. -1.
       -1    1    3    3    0  502  0.91994637067E+02 -0.17362786459E+03 -0.88652396374E+03  0.90803875850E+03  0.50400001928E-02 0.  1.
</event>
<event>
 5   0  0.9678750E-04  0.1228983E+04  0.7818609E-02  0.9087859E-01
       -4   -1    0    0    0  501  0.00000000000E+00  0.00000000000E+00  0.29064892643E+03  0.29065170106E+03  0.12699999809E+01 0. -1.
        4   -1    0    0  501    0  0.00000000000E+00  0.00000000000E+00 -0.12991523246E+04  0.12991529454E+04  0.12699999809E+01 0.  1.
    10030    2    1    2    0    0  0.00000000000E+00  0.00000000000E+00 -0.10085033982E+04  0.15898046464E+04  0.12289832015E+04 0.  0.
        5    1    3    3  502    0 -0.43844080971E+03 -0.35254375526E+03 -0.82390384026E+03  0.99767583462E+03  0.46999998093E+01 0.  1.
       -5    1    3    3    0  502  0.43844080971E+03  0.35254375526E+03 -0.18459955792E+03  0.59212881181E+03  0.46999998093E+01 0. -1.
</event>
<event>
 5   0  0.1469851E-03  0.1121193E+04  0.7818609E-02  0.9184778E-01
        1   -1    0    0  501    0  0.00000000000E+00  0.00000000000E+00  0.60683197752E+03  0.60683197754E+03  0.50400001928E-02 0.  1.
       -1   -1    0    0    0  501  0.00000000000E+00  0.00000000000E+00 -0.51788407747E+03  0.51788407750E+03  0.50400001928E-02 0. -1.
    10030    2    1    2    0    0  0.00000000000E+00  0.00000000000E+00  0.88947900046E+02  0.11247160550E+04  0.11211933266E+04 0.  0.
        5    1    3    3  502    0  0.48665866052E+03 -0.37901687377E+02  0.32097258892E+03  0.58422485620E+03  0.46999998093E+01 0.  1.
       -5    1    3    3    0  502 -0.48665866052E+03  0.37901687377E+02 -0.23202468887E+03  0.54049119883E+03  0.46999998093E+01 0. -1.
</event>
<event>
 5   0  0.2517023E-03  0.1221864E+04  0.7818609E-02  0.9093932E-01
        2   -1    0    0  501    0  0.00000000000E+00  0.00000000000E+00  0.59288098773E+03  0.59288098774E+03  0.25500000920E-02 0. -1.
       -2   -1    0    0    0  501  0.00000000000E+00  0.00000000000E+00 -0.62953229218E+03  0.62953229219E+03  0.25500000920E-02 0.  1.
    10030    2    1    2    0    0  0.00000000000E+00  0.00000000000E+00 -0.36651304453E+02  0.12224132799E+04  0.12218637030E+04 0.  0.
        3    1    3    3  502    0 -0.35126894846E+03 -0.48337589147E+03  0.10899348524E+03  0.60738926286E+03  0.10100000352E+00 0.  1.
       -3    1    3    3    0  502  0.35126894846E+03  0.48337589147E+03 -0.14564478970E+03  0.61502401707E+03  0.10100000352E+00 0. -1.
</event>
<event>
 5   0  0.1403154E-03  0.1203453E+04  0.7818609E-02  0.9109839E-01
       -1   -1    0    0    0  501  0.00000000000E+00  0.00000000000E+00  0.52648917937E+03  0.52648917939E+03  0.50400001928E-02 0.  1.
        1   -1    0    0  501    0  0.00000000000E+00  0.00000000000E+00 -0.68771558916E+03  0.68771558918E+03  0.50400001928E-02 0. -1.
    10030    2    1    2    0    0  0.00000000000E+00  0.00000000000E+00 -0.16122640979E+03  0.12142047686E+04  0.12034530588E+04 0.  0.
        3    1    3    3  502    0  0.39474611761E+03  0.30131281821E+03  0.26221791502E+03  0.56158005390E+03  0.10100000352E+00 0.  1.
       -3    1    3    3    0  502 -0.39474611761E+03 -0.30131281821E+03 -0.42344432480E+03  0.65262471467E+03  0.10100000352E+00 0. -1.
</event>
<event>
 5   0  0.1423024E-03  0.1208941E+04  0.7818609E-02  0.9105066E-01
       -1   -1    0    0    0  501  0.00000000000E+00  0.00000000000E+00  0.73528214120E+03  0.73528214122E+03  0.50400001928E-02 0. -1.
        1   -1    0    0  501    0  0.00000000000E+00  0.00000000000E+00 -0.49693096040E+03  0.49693096042E+03  0.50400001928E-02 0.  1.
    10030    2    1    2    0    0  0.00000000000E+00  0.00000000000E+00  0.23835118081E+03  0.12322131016E+04  0.12089407936E+04 0.  0.
        2    1    3    3  502    0 -0.42957114045E+03 -0.17938825412E+03  0.51217940840E+03  0.69212661907E+03  0.25500000920E-02 0. -1.
       -2    1    3    3    0  502  0.42957114045E+03  0.17938825412E+03 -0.27382822759E+03  0.54008648257E+03  0.25500000920E-02 0.  1.
</event>
<event>
 5   0  0.2499890E-03  0.1184356E+04  0.7818609E-02  0.9126661E-01
        2   -1    0    0  501    0  0.00000000000E+00  0.00000000000E+00  0.37320195734E+03  0.37320195735E+03  0.25500000920E-02 0.  1.
       -2   -1    0    0    0  501  0.00000000000E+00  0.00000000000E+00 -0.93963777740E+03  0.93963777741E+03  0.25500000920E-02 0. -1.
    10030    2    1    2    0    0  0.00000000000E+00  0.00000000000E+00 -0.56643582006E+03  0.13128397348E+04  0.11843557873E+04 0.  0.
        5    1    3    3  502    0  0.19723415152E+03  0.16224177166E+03 -0.87543163908E+03  0.91193549536E+03  0.46999998093E+01 0. -1.
       -5    1    3    3    0  502 -0.19723415152E+03 -0.16224177166E+03  0.30899581902E+03  0.40090423940E+03  0.46999998093E+01 0.  1.
</event>
<event>
 5   0  0.2517023E-03  0.1198173E+04  0.7818609E-02  0.9114457E-01
       -2   -1    0    0    0  501  0.00000000000E+00  0.00000000000E+00  0.70331492337E+03  0.70331492337E+03  0.25500000920E-02 0.  1.
        2   -1    0    0  501    0  0.00000000000E+00  0.00000000000E+00 -0.51030429196E+03  0.51030429197E+03  0.25500000920E-02 0. -1.
    10030    2    1    2    0    0  0.00000000000E+00  0.00000000000E+00  0.19301063141E+03  0.12136192153E+04  0.11981729825E+04 0.  0.
        3    1    3    3  502    0  0.92124314112E+02 -0.34158389574E+03  0.58620264815E+03  0.68468971219E+03  0.10100000352E+00 0.  1.
       -3    1    3    3    0  502 -0.92124314112E+02  0.34158389574E+03 -0.39319201674E+03  0.52892950316E+03  0.10100000352E+00 0. -1.
</event>
<event>
 5   0  0.1404833E-03  0.1211331E+04  0.7818609E-02  0.9102996E-01
        1   -1    0    0  501    0  0.00000000000E+00  0.00000000000E+00  0.14566634349E+04  0.14566634349E+04  0.50400001928E-02 0. -1.
       -1   -1    0    0    0  501  0.00000000000E+00  0.00000000000E+00 -0.25182954204E+03  0.25182954209E+03  0.50400001928E-02 0.  1.
    10030    2    1    2    0    0  0.00000000000E+00  0.00000000000E+00  0.12048338929E+04  0.17084929770E+04  0.12113313102E+04 0.  0.
        1    1    3    3  502    0 -0.35747542053E+03 -0.37047736628E+03  0.10524040881E+04  0.11715786443E+04  0.50400001928E-02 0.  1.
       -1    1    3    3    0  502  0.35747542053E+03  0.37047736628E+03  0.15242980478E+03  0.53691433266E+03  0.50400001928E-02 0. -1.
</event>
<event>
 5   0  0.2579442E-03  0.1200205E+04  0.7818609E-02  0.9112677E-01
        2   -1    0    0  501    0  0.00000000000E+00  0.00000000000E+00  0.92590996851E+03  0.92590996851E+03  0.25500000920E-02 0. -1.
       -2   -1    0    0    0  501  0.00000000000E+00  0.00000000000E+00 -0.38893945480E+03  0.38893945481E+03  0.25500000920E-02 0.  1.
    10030    2    1    2    0    0  0.00000000000E+00  0.00000000000E+00  0.53697051371E+03  0.13148494233E+04  0.12002048464E+04 0.  0.
        4    1    3    3  502    0  0.23380177298E+03 -0.19414615661E+03 -0.29840343909E+03  0.42591340027E+03  0.12699999809E+01 0.  1.
       -4    1    3    3    0  502 -0.23380177298E+03  0.19414615661E+03  0.83537395279E+03  0.88893602305E+03  0.12699999809E+01 0. -1.
</event>
<event>
 5   0  0.2580244E-03  0.1184101E+04  0.7818609E-02  0.9126888E-01
       -2   -1    0    0    0  501  0.00000000000E+00  0.00000000000E+00  0.34555458845E+03  0.34555458846E+03  0.25500000920E-02 0. -1.
        2   -1    0    0  501    0  0.00000000000E+00  0.00000000000E+00 -0.10143807100E+04  0.10143807100E+04  0.25500000920E-02 0.  1.
    10030    2    1    2    0    0  0.00000000000E+00  0.00000000000E+00 -0.66882612156E+03  0.13599352985E+04  0.11841011930E+04 0.  0.
        1    1    3    3  502    0 -0.95710706017E+02  0.19318908696E+03 -0.96769302969E+03  0.99141936752E+03  0.50400001928E-02 0.  1.
       -1    1    3    3    0  502  0.95710706017E+02 -0.19318908696E+03  0.29886690813E+03  0.36851593095E+03  0.50400001928E-02 0. -1.
</event>
<event>
 5   0  0.2517023E-03  0.1208983E+04  0.7818609E-02  0.9105030E-01
       -2   -1    0    0    0  501  0.00000000000E+00  0.00000000000E+00  0.23745111078E+03  0.23745111079E+03  0.25500000920E-02 0. -1.
        2   -1    0    0  501    0  0.00000000000E+00  0.00000000000E+00 -0.15388850625E+04  0.15388850625E+04  0.25500000920E-02 0.  1.
    10030    2    1    2    0    0  0.00000000000E+00  0.00000000000E+00 -0.13014339518E+04  0.17763361733E+04  0.12089829899E+04 0.  0.
        3    1    3    3  502    0  0.84635325415E+02 -0.26337138665E+03 -0.14404230160E+04  0.14667467746E+04  0.10100000352E+00 0.  1.
       -3    1    3    3    0  502 -0.84635325415E+02  0.26337138665E+03  0.13898906424E+03  0.30958939871E+03  0.10100000352E+00 0. -1.
</event>
<event>
 5   0  0.1469851E-03  0.1185699E+04  0.7818609E-02  0.9125467E-01
        1   -1    0    0  501    0  0.00000000000E+00  0.00000000000E+00  0.10425502440E+04  0.10425502440E+04  0.50400001928E-02 0.  1.
       -1   -1    0    0    0  501  0.00000000000E+00  0.00000000000E+00 -0.33712587628E+03  0.33712587632E+03  0.50400001928E-02 0. -1.
    10030    2    1    2    0    0  0.00000000000E+00  0.00000000000E+00  0.70542436773E+03  0.13796761204E+04  0.11856992277E+04 0.  0.
        5    1    3    3  502    0 -0.20933406070E+03 -0.17118505131E+03 -0.26115943080E+03  0.37596729786E+03  0.46999998093E+01 0. -1.
       -5    1    3    3    0  502  0.20933406070E+03  0.17118505131E+03  0.96658379854E+03  0.10037088225E+04  0.46999998093E+01 0.  1.
</event>
<event>
 5   0  0.1423024E-03  0.1206848E+04  0.7818609E-02  0.9106884E-01
        1   -1    0    0  501    0  0.00000000000E+00  0.00000000000E+00  0.60376727362E+03  0.60376727364E+03  0.50400001928E-02 0. -1.
       -1   -1    0    0    0  501  0.00000000000E+00  0.00000000000E+00 -0.60308080406E+03  0.60308080409E+03  0.50400001928E-02 0.  1.
    10030    2    1    2    0    0  0.00000000000E+00  0.00000000000E+00  0.68646955233E+00  0.12068480777E+04  0.12068478825E+04 0.  0.
        2    1    3    3  502    0 -0.27995599586E+03  0.53250318386E+03  0.47092065043E+02  0.60345063015E+03  0.25500000920E-02 0. -1.
       -2    1    3    3    0  502  0.27995599586E+03 -0.53250318386E+03 -0.46405595491E+02  0.60339744757E+03  0.25500000920E-02 0.  1.
</event>
<event>
 5   0  0.1404833E-03  0.1200928E+04  0.7818609E-02  0.9112044E-01
        1   -1    0    0  501    0  0.00000000000E+00  0.00000000000E+00  0.62272771156E+03  0.62272771158E+03  0.50400001928E-02 0.  1.
       -1   -1    0    0    0  501  0.00000000000E+00  0.00000000000E+00 -0.57899645845E+03  0.57899645847E+03  0.50400001928E-02 0. -1.
    10030    2    1    2    0    0  0.00000000000E+00  0.00000000000E+00  0.43731253106E+02  0.12017241700E+04  0.12009282070E+04 0.  0.
        1    1    3    3  502    0 -0.24872075494E+03 -0.25717718321E+03 -0.46069358686E+03  0.58330155023E+03  0.50400001928E-02 0. -1.
       -1    1    3    3    0  502  0.24872075494E+03  0.25717718321E+03  0.50442483996E+03  0.61842261982E+03  0.50400001928E-02 0.  1.
</event>
<event>
 5   0  0.2484507E-03  0.1186917E+04  0.7818609E-02  0.9124385E-01
       -2   -1    0    0    0  501  0.00000000000E+00  0.00000000000E+00  0.55461337304E+03  0.55461337304E+03  0.25500000920E-02 0. -1.
        2   -1    0    0  501    0  0.00000000000E+00  0.00000000000E+00 -0.63502487429E+03  0.63502487430E+03  0.25500000920E-02 0.  1.
    10030    2    1    2    0    0  0.00000000000E+00  0.00000000000E+00 -0.80411501252E+02  0.11896382473E+04  0.11869174992E+04 0.  0.
        2    1    3    3  502    0  0.10322942505E+03  0.17021962517E+03  0.52014847282E+03  0.55694296725E+03  0.25500000920E-02 0. -1.
       -2    1    3    3    0  502 -0.10322942505E+03 -0.17021962517E+03 -0.60055997407E+03  0.63269528009E+03  0.25500000920E-02 0.  1.
</event>
<event>
 5   0  0.2579442E-03  0.1183591E+04  0.7818609E-02  0.9127341E-01
        2   -1    0    0  501    0  0.00000000000E+00  0.00000000000E+00  0.12076409701E+04  0.12076409701E+04  0.25500000920E-02 0. -1.
       -2   -1    0    0    0  501  0.00000000000E+00  0.00000000000E+00 -0.29000520141E+03  0.29000520142E+03  0.25500000920E-02 0.  1.
    10030    2    1    2    0    0  0.00000000000E+00  0.00000000000E+00  0.91763576864E+03  0.14976461715E+04  0.11835914206E+04 0.  0.
        4    1    3    3  502    0  0.27016993598E+03 -0.41871406783E+03  0.86275152855E+03  0.99632077054E+03  0.12699999809E+01 0. -1.
       -4    1    3    3    0  502 -0.27016993598E+03  0.41871406783E+03  0.54884240098E+02  0.50132540093E+03  0.12699999809E+01 0.  1.
</event>
<event>
 5   0  0.1423024E-03  0.1214752E+04  0.7818609E-02  0.9100041E-01
        1   -1    0    0  501    0  0.00000000000E+00  0.00000000000E+00  0.92547028702E+03  0.92547028703E+03  0.50400001928E-02 0.  1.
       -1   -1    0    0    0  501  0.00000000000E+00  0.00000000000E+00 -0.39861424567E+03  0.39861424570E+03  0.50400001928E-02 0. -1.
    10030    2    1    2    0    0  0.00000000000E+00  0.00000000000E+00  0.52685604135E+03  0.13240845327E+04  0.12147520576E+04 0.  0.
        2    1    3    3  502    0 -0.60734784825E+03  0.57440761759E+01  0.26464042192E+03  0.66252468339E+03  0.25500000920E-02 0. -1.
       -2    1    3    3    0  502  0.60734784825E+03 -0.57440761759E+01  0.26221561943E+03  0.66155984934E+03  0.25500000920E-02 0.  1.
</event>
<event>
 5   0  0.1469851E-03  0.1204681E+04  0.7818609E-02  0.9108769E-01
        1   -1    0    0  501    0  0.00000000000E+00  0.00000000000E+00  0.64503306170E+03  0.64503306172E+03  0.50400001928E-02 0. -1.
       -1   -1    0    0    0  501  0.00000000000E+00  0.00000000000E+00 -0.56247406092E+03  0.56247406094E+03  0.50400001928E-02 0.  1.
    10030    2    1    2    0    0  0.00000000000E+00  0.00000000000E+00  0.82559000781E+02  0.12075071227E+04  0.12046814777E+04 0.  0.
        5    1    3    3  502    0 -0.32596803760E+03 -0.49881800515E+03 -0.46777066308E+02  0.59773300706E+03  0.46999998093E+01 0.  1.
       -5    1    3    3    0  502  0.32596803760E+03  0.49881800515E+03  0.12933606709E+03  0.60977411559E+03  0.46999998093E+01 0. -1.
</event>
<event>
 5   0  0.1423024E-03  0.1198546E+04  0.7818609E-02  0.9114130E-01
       -1   -1    0    0    0  501  0.00000000000E+00  0.00000000000E+00  0.73168397010E+03  0.73168397012E+03  0.50400001928E-02 0.  1.
        1   -1    0    0  501    0  0.00000000000E+00  0.00000000000E+00 -0.49082445305E+03  0.49082445308E+03  0.50400001928E-02 0. -1.
    10030    2    1    2    0    0  0.00000000000E+00  0.00000000000E+00  0.24085951705E+03  0.12225084232E+04  0.11985464271E+04 0.  0.
        2    1    3    3  502    0  0.18849717156E+03 -0.50966024606E+03  0.37815431408E+03  0.66203129485E+03  0.25500000920E-02 0.  1.
       -2    1    3    3    0  502 -0.18849717156E+03  0.50966024606E+03 -0.13729479703E+03  0.56047712835E+03  0.25500000920E-02 0. -1.
</event>
<event>
 5   0  0.9678750E-04  0.1214479E+04  0.7818609E-02  0.9100277E-01
       -3   -1    0    0    0  501  0.00000000000E+00  0.00000000000E+00  0.52115316408E+03  0.52115317387E+03  0.10100000352E+00 0. -1.
        3   -1    0    0  501    0  0.00000000000E+00  0.00000000000E+00 -0.70754586339E+03  0.70754587059E+03  0.10100000352E+00 0.  1.
    10030    2    1    2    0    0  0.00000000000E+00  0.00000000000E+00 -0.18639269930E+03  0.12286990445E+04  0.12144789432E+04 0.  0.
        4    1    3    3  502    0 -0.15833857440E+03  0.33206857550E+02 -0.68533938027E+03  0.70417716420E+03  0.12699999809E+01 0.  1.
       -4    1    3    3    0  502  0.15833857440E+03 -0.33206857550E+02  0.49894668096E+03  0.52452188026E+03  0.12699999809E+01 0. -1.
</event>
<event>
 5   0  0.2484507E-03  0.1205289E+04  0.7818609E-02  0.9108240E-01
       -2   -1    0    0    0  501  0.00000000000E+00  0.00000000000E+00  0.26738799101E+03  0.26738799102E+03  0.25500000920E-02 0.  1.
        2   -1    0    0  501    0  0.00000000000E+00  0.00000000000E+00 -0.13582515023E+04  0.13582515023E+04  0.25500000920E-02 0. -1.
    10030    2    1    2    0    0  0.00000000000E+00  0.00000000000E+00 -0.10908635113E+04  0.16256394933E+04  0.12052885804E+04 0.  0.
        2    1    3    3  502    0  0.53742683313E+03 -0.23380837117E+03 -0.73467220978E+03  0.93980700744E+03  0.25500000920E-02 0.  1.
       -2    1    3    3    0  502 -0.53742683313E+03  0.23380837117E+03 -0.35619130148E+03  0.68583248585E+03  0.25500000920E-02 0. -1.
</event>
<event>
 5   0  0.2517023E-03  0.1204550E+04  0.7818609E-02  0.9108883E-01
       -2   -1    0    0    0  501  0.00000000000E+00  0.00000000000E+00  0.35433260547E+03  0.35433260548E+03  0.25500000920E-02 0.  1.
        2   -1    0    0  501    0  0.00000000000E+00  0.00000000000E+00 -0.10237144317E+04  0.10237144317E+04  0.25500000920E-02 0. -1.
    10030    2    1    2    0    0  0.00000000000E+00  0.00000000000E+00 -0.66938182622E+03  0.13780470372E+04  0.12045503756E+04 0.  0.
        3    1    3    3  502    0 -0.27038500311E+03  0.37007785131E+03 -0.78169916148E+03  0.90615630837E+03  0.10100000352E+00 0. -1.
       -3    1    3    3    0  502  0.27038500311E+03 -0.37007785131E+03  0.11231733526E+03  0.47189072881E+03  0.10100000352E+00 0.  1.
</event>
<event>
 5   0  0.2484507E-03  0.1200568E+04  0.7818609E-02  0.9112359E-01
        2   -1    0    0  501    0  0.00000000000E+00  0.00000000000E+00  0.24603985893E+03  0.24603985894E+03  0.25500000920E-02 0. -1.
       -2   -1    0    0    0  501  0.00000000000E+00  0.00000000000E+00 -0.14645635386E+04  0.14645635386E+04  0.25500000920E-02 0.  1.
    10030    2    1    2    0    0  0.00000000000E+00  0.00000000000E+00 -0.12185236797E+04  0.17106033975E+04  0.12005682095E+04 0.  0.
        2    1    3    3  502    0 -0.39009944400E+03  0.40534764152E+03 -0.31087438246E+03  0.64274969341E+03  0.25500000920E-02 0. -1.
       -2    1    3    3    0  502  0.39009944400E+03 -0.40534764152E+03 -0.90764929720E+03  0.10678537041E+04  0.25500000920E-02 0.  1.
</event>
<event>
 5   0  0.1403154E-03  0.1220531E+04  0.7818609E-02  0.9095073E-01
       -1   -1    0    0    0  501  0.00000000000E+00  0.00000000000E+00  0.33552180185E+03  0.33552180189E+03  0.50400001928E-02 0.  1.
        1   -1    0    0  501    0  0.00000000000E+00  0.00000000000E+00 -0.11099853233E+04  0.11099853233E+04  0.50400001928E-02 0. -1.
    10030    2    1    2    0    0  0.00000000000E+00  0.00000000000E+00 -0.77446352143E+03  0.14455071252E+04  0.12205314838E+04 0.  0.
        3    1    3    3  502    0 -0.54035889123E+03 -0.47780454215E+02 -0.56142084168E+02  0.54536469170E+03  0.10100000352E+00 0.  1.
       -3    1    3    3    0  502  0.54035889123E+03  0.47780454215E+02 -0.71832143726E+03  0.90014243349E+03  0.10100000352E+00 0. -1.
</event>
<event>
 5   0  0.1469851E-03  0.1243309E+04  0.7818609E-02  0.9075771E-01
       -1   -1    0    0    0  501  0.00000000000E+00  0.00000000000E+00  0.12997942007E+04  0.12997942007E+04  0.50400001928E-02 0.  1.
        1   -1    0    0  501    0  0.00000000000E+00  0.00000000000E+00 -0.29731955477E+03  0.29731955481E+03  0.50400001928E-02 0. -1.
    10030    2    1    2    0    0  0.00000000000E+00  0.00000000000E+00  0.10024746460E+04  0.15971137556E+04  0.12433088644E+04 0.  0.
        5    1    3    3  502    0 -0.20878761917E+03  0.23704905058E+03  0.11889879434E+04  0.12302434482E+04  0.46999998093E+01 0.  1.
       -5    1    3    3    0  502  0.20878761917E+03 -0.23704905058E+03 -0.18651329743E+03  0.36687030735E+03  0.46999998093E+01 0. -1.
</event>
<event>
 5   0  0.2499890E-03  0.1144216E+04  0.7818609E-02  0.9163136E-01
        2   -1    0    0  501    0  0.00000000000E+00  0.00000000000E+00  0.12218631731E+04  0.12218631731E+04  0.25500000920E-02 0.  1.
       -2   -1    0    0    0  501  0.00000000000E+00  0.00000000000E+00 -0.26787599791E+03  0.26787599792E+03  0.25500000920E-02 0. -1.
    10030    2    1    2    0    0  0.00000000000E+00  0.00000000000E+00  0.95398717523E+03  0.14897391711E+04  0.11442164425E+04 0.  0.
        5    1    3    3  502    0  0.10016251039E+02 -0.39736842986E+03  0.10126788100E+04  0.10879073750E+04  0.46999998093E+01 0.  1.
       -5    1    3    3    0  502 -0.10016251039E+02  0.39736842986E+03 -0.58691634781E+02  0.40183179606E+03  0.46999998093E+01 0. -1.
</event>
<event>
 5   0  0.1469851E-03  0.1197798E+04  0.7818609E-02  0.9114786E-01
       -1   -1    0    0    0  501  0.00000000000E+00  0.00000000000E+00  0.57061354481E+03  0.57061354484E+03  0.50400001928E-02 0.  1.
        1   -1    0    0  501    0  0.00000000000E+00  0.00000000000E+00 -0.62858663947E+03  0.62858663949E+03  0.50400001928E-02 0. -1.
    10030    2    1    2    0    0  0.00000000000E+00  0.00000000000E+00 -0.57973094657E+02  0.11992001843E+04  0.11977980641E+04 0.  0.
        5    1    3    3  502    0  0.17664463591E+03 -0.46068441010E+03  0.31085815945E+03  0.58317093412E+03  0.46999998093E+01 0.  1.
       -5    1    3    3    0  502 -0.17664463591E+03  0.46068441010E+03 -0.36883125411E+03  0.61602925021E+03  0.46999998093E+01 0. -1.
</event>
<event>
 5   0  0.1423024E-03  0.1246726E+04  0.7818609E-02  0.9072913E-01
       -1   -1    0    0    0  501  0.00000000000E+00  0.00000000000E+00  0.84313067668E+03  0.84313067669E+03  0.50400001928E-02 0. -1.
        1   -1    0    0  501    0  0.00000000000E+00  0.00000000000E+00 -0.46087911311E+03  0.46087911314E+03  0.50400001928E-02 0.  1.
    10030    2    1    2    0    0  0.00000000000E+00  0.00000000000E+00  0.38225156357E+03  0.13040097898E+04  0.12467258216E+04 0.  0.
        2    1    3    3  502    0 -0.24059949396E+03 -0.36328553764E+03  0.65738476465E+03  0.78868195564E+03  0.25500000920E-02 0. -1.
       -2    1    3    3    0  502  0.24059949396E+03  0.36328553764E+03 -0.27513320108E+03  0.51532783419E+03  0.25500000920E-02 0.  1.
</event>
<event>
 5   0  0.2499890E-03  0.1151494E+04  0.7818609E-02  0.9156406E-01
        2   -1    0    0  501    0  0.00000000000E+00  0.00000000000E+00  0.93470217510E+03  0.93470217510E+03  0.25500000920E-02 0.  1.
       -2   -1    0    0    0  501  0.00000000000E+00  0.00000000000E+00 -0.35464223554E+03  0.35464223555E+03  0.25500000920E-02 0. -1.
    10030    2    1    2    0    0  0.00000000000E+00  0.00000000000E+00  0.58005993956E+03  0.12893444107E+04  0.11514944532E+04 0.  0.
        5    1    3    3  502    0  0.33367720431E+03 -0.18129641968E+03 -0.19450211404E+03  0.42668727521E+03  0.46999998093E+01 0. -1.
       -5    1    3    3    0  502 -0.33367720431E+03  0.18129641968E+03  0.77456205359E+03  0.86265713544E+03  0.46999998093E+01 0.  1.
</event>
<event>
 5   0  0.1404833E-03  0.1195552E+04  0.7818609E-02  0.9116759E-01
        1   -1    0    0  501    0  0.00000000000E+00  0.00000000000E+00  0.71966854637E+03  0.71966854638E+03  0.50400001928E-02 0. -1.
       -1   -1    0    0    0  501  0.00000000000E+00  0.00000000000E+00 -0.49652858270E+03  0.49652858273E+03  0.50400001928E-02 0.  1.
    10030    2    1    2    0    0  0.00000000000E+00  0.00000000000E+00  0.22313996366E+03  0.12161971291E+04  0.11955517611E+04 0.  0.
        1    1    3    3  502    0  0.42695357251E+03  0.27343961759E+03  0.43370443682E+03  0.66720170570E+03  0.50400001928E-02 0. -1.
       -1    1    3    3    0  502 -0.42695357251E+03 -0.27343961759E+03 -0.21056447316E+03  0.54899542341E+03  0.50400001928E-02 0.  1.
</event>
<event>
 5   0  0.2517023E-03  0.1203208E+04  0.7818609E-02  0.9110054E-01
       -2   -1    0    0    0  501  0.00000000000E+00  0.00000000000E+00  0.33797924321E+03  0.33797924322E+03  0.25500000920E-02 0.  1.
        2   -1    0    0  501    0  0.00000000000E+00  0.00000000000E+00 -0.10708560475E+04  0.10708560475E+04  0.25500000920E-02 0. -1.
    10030    2    1    2    0    0  0.00000000000E+00  0.00000000000E+00 -0.73287680424E+03  0.14088352907E+04  0.12032075740E+04 0.  0.
        3    1    3    3  502    0 -0.25025452967E+03  0.20730912121E+03 -0.95924523890E+03  0.10127960505E+04  0.10100000352E+00 0. -1.
       -3    1    3    3    0  502  0.25025452967E+03 -0.20730912121E+03  0.22636843465E+03  0.39603924018E+03  0.10100000352E+00 0.  1.
</event>
<event>
 5   0  0.2580244E-03  0.1203234E+04  0.7818609E-02  0.9110031E-01
       -2   -1    0    0    0  501  0.00000000000E+00  0.00000000000E+00  0.25299751784E+03  0.25299751785E+03  0.25500000920E-02 0.  1.
        2   -1    0    0  501    0  0.00000000000E+00  0.00000000000E+00 -0.14306183621E+04  0.14306183621E+04  0.25500000920E-02 0. -1.
    10030    2    1    2    0    0  0.00000000000E+00  0.00000000000E+00 -0.11776208443E+04  0.16836158800E+04  0.12032338004E+04 0.  0.
        1    1    3    3  502    0 -0.19569080137E+03  0.12398322580E+03 -0.13657065620E+04  0.13852151976E+04  0.50400001928E-02 0. -1.
       -1    1    3    3    0  502  0.19569080137E+03 -0.12398322580E+03  0.18808571773E+03  0.29840068240E+03  0.50400001928E-02 0.  1.
</event>
<event>
 5   0  0.2517023E-03  0.1199449E+04  0.7818609E-02  0.9113339E-01
       -2   -1    0    0    0  501  0.00000000000E+00  0.00000000000E+00  0.19456112748E+04  0.19456112748E+04  0.25500000920E-02 0. -1.
        2   -1    0    0  501    0  0.00000000000E+00  0.00000000000E+00 -0.18486199120E+03  0.18486199122E+03  0.25500000920E-02 0.  1.
    10030    2    1    2    0    0  0.00000000000E+00  0.00000000000E+00  0.17607492836E+04  0.21304732660E+04  0.11994491642E+04 0.  0.
        3    1    3    3  502    0  0.77662840276E+02 -0.21558956985E+03  0.18647845944E+04  0.18788113192E+04  0.10100000352E+00 0. -1.
       -3    1    3    3    0  502 -0.77662840276E+02  0.21558956985E+03 -0.10403531081E+03  0.25166194683E+03  0.10100000352E+00 0.  1.
</event>
<event>
 5   0  0.9678750E-04  0.1186821E+04  0.7818609E-02  0.9124471E-01
        4   -1    0    0  501    0  0.00000000000E+00  0.00000000000E+00  0.10108882704E+04  0.10108890682E+04  0.12699999809E+01 0.  1.
       -4   -1    0    0    0  501  0.00000000000E+00  0.00000000000E+00 -0.34834084791E+03  0.34834316302E+03  0.12699999809E+01 0. -1.
    10030    2    1    2    0    0  0.00000000000E+00  0.00000000000E+00  0.66254742249E+03  0.13592322312E+04  0.11868206146E+04 0.  0.
        5    1    3    3  502    0  0.19426511061E+03  0.14842671590E+03 -0.28796184192E+03  0.37777445069E+03  0.46999998093E+01 0. -1.
       -5    1    3    3    0  502 -0.19426511061E+03 -0.14842671590E+03  0.95050926441E+03  0.98145778051E+03  0.46999998093E+01 0.  1.
</event>
<event>
 5   0  0.2579442E-03  0.1202291E+04  0.7818609E-02  0.9110854E-01
        2   -1    0    0  501    0  0.00000000000E+00  0.00000000000E+00  0.84528212343E+03  0.84528212344E+03  0.25500000920E-02 0.  1.
       -2   -1    0    0    0  501  0.00000000000E+00  0.00000000000E+00 -0.42752088641E+03  0.42752088642E+03  0.25500000920E-02 0. -1.
    10030    2    1    2    0    0  0.00000000000E+00  0.00000000000E+00  0.41776123702E+03  0.12728030099E+04  0.12022907513E+04 0.  0.
        4    1    3    3  502    0  0.44906361838E+03  0.31124365022E+03 -0.56507543704E+02  0.54929542011E+03  0.12699999809E+01 0. -1.
       -4    1    3    3    0  502 -0.44906361838E+03 -0.31124365022E+03  0.47426878073E+03  0.72350758975E+03  0.12699999809E+01 0.  1.
</event>
<event>
 5   0  0.1469851E-03  0.1194230E+04  0.7818609E-02  0.9117922E-01
       -1   -1    0    0    0  501  0.00000000000E+00  0.00000000000E+00  0.63457343035E+03  0.63457343037E+03  0.50400001928E-02 0. -1.
        1   -1    0    0  501    0  0.00000000000E+00  0.00000000000E+00 -0.56186741078E+03  0.56186741080E+03  0.50400001928E-02 0.  1.
    10030    2    1    2    0    0  0.00000000000E+00  0.00000000000E+00  0.72706019573E+02  0.11964408412E+04  0.11942296769E+04 0.  0.
        5    1    3    3  502    0 -0.26057514369E+03  0.68269470941E+00  0.57458526141E+03  0.63092803409E+03  0.46999998093E+01 0. -1.
       -5    1    3    3    0  502  0.26057514369E+03 -0.68269470941E+00 -0.50187924183E+03  0.56551280707E+03  0.46999998093E+01 0.  1.
</event>
<event>
 5   0  0.9678750E-04  0.1160059E+04  0.7818609E-02  0.9148553E-01
       -4   -1    0    0    0  501  0.00000000000E+00  0.00000000000E+00  0.54526461464E+03  0.54526609365E+03  0.12699999809E+01 0. -1.
        4   -1    0    0  501    0  0.00000000000E+00  0.00000000000E+00 -0.61700843527E+03  0.61700974231E+03  0.12699999809E+01 0.  1.
    10030    2    1    2    0    0  0.00000000000E+00  0.00000000000E+00 -0.71743820632E+02  0.11622758360E+04  0.11600594567E+04 0.  0.
        1    1    3    3  502    0 -0.28136753508E+03  0.34056513372E+03  0.34072145321E+03  0.55789193291E+03  0.50400001928E-02 0. -1.
       -1    1    3    3    0  502  0.28136753508E+03 -0.34056513372E+03 -0.41246527384E+03  0.60438390304E+03  0.50400001928E-02 0.  1.
</event>
<event>
 5   0  0.9678750E-04  0.1164086E+04  0.7818609E-02  0.9144886E-01
        3   -1    0    0  501    0  0.00000000000E+00  0.00000000000E+00  0.20350842257E+04  0.20350842282E+04  0.10100000352E+00 0.  1.
       -3   -1    0    0    0  501  0.00000000000E+00  0.00000000000E+00 -0.16646677565E+03  0.16646680629E+03  0.10100000352E+00 0. -1.
    10030    2    1    2    0    0  0.00000000000E+00  0.00000000000E+00  0.18686174501E+04  0.22015510345E+04  0.11640858142E+04 0.  0.
        5    1    3    3  502    0 -0.31704477625E+02  0.41276465280E+03  0.17080311663E+04  0.17574903663E+04  0.46999998093E+01 0.  1.
       -5    1    3    3    0  502  0.31704477625E+02 -0.41276465280E+03  0.16058628371E+03  0.44406066817E+03  0.46999998093E+01 0. -1.
</event>
<event>
 5   0  0.9678750E-04  0.1201240E+04  0.7818609E-02  0.9111772E-01
        3   -1    0    0  501    0  0.00000000000E+00  0.00000000000E+00  0.23694350952E+03  0.23694353104E+03  0.10100000352E+00 0.  1.
       -3   -1    0    0    0  501  0.00000000000E+00  0.00000000000E+00 -0.15224899780E+04  0.15224899814E+04  0.10100000352E+00 0. -1.
    10030    2    1    2    0    0  0.00000000000E+00  0.00000000000E+00 -0.12855464685E+04  0.17594335124E+04  0.12012395939E+04 0.  0.
        4    1    3    3  502    0 -0.42544335934E+03  0.31667444457E+02 -0.12620021689E+04  0.13321621396E+04  0.12699999809E+01 0. -1.
       -4    1    3    3    0  502  0.42544335934E+03 -0.31667444457E+02 -0.23544299583E+02  0.42727137277E+03  0.12699999809E+01 0.  1.
</event>
<event>
 5   0  0.1423024E-03  0.1096215E+04  0.7818609E-02  0.9208888E-01
        1   -1    0    0  501    0  0.00000000000E+00  0.00000000000E+00  0.71973784490E+03  0.71973784492E+03  0.50400001928E-02 0. -1.
       -1   -1    0    0    0  501  0.00000000000E+00  0.00000000000E+00 -0.41740482824E+03  0.41740482827E+03  0.50400001928E-02 0.  1.
    10030    2    1    2    0    0  0.00000000000E+00  0.00000000000E+00  0.30233301666E+03  0.11371426732E+04  0.10962154014E+04 0.  0.
        2    1    3    3  502    0  0.50052295734E+03  0.20557116470E+03  0.60500118563E+02  0.54446579226E+03  0.25500000920E-02 0.  1.
       -2    1    3    3    0  502 -0.50052295734E+03 -0.20557116470E+03  0.24183289810E+03  0.59267688093E+03  0.25500000920E-02 0. -1.
</event>
<event>
 5   0  0.1403154E-03  0.1219762E+04  0.7818609E-02  0.9095733E-01
        1   -1    0    0  501    0  0.00000000000E+00  0.00000000000E+00  0.81294033239E+03  0.81294033241E+03  0.50400001928E-02 0.  1.
       -1   -1    0    0    0  501  0.00000000000E+00  0.00000000000E+00 -0.45754247173E+03  0.45754247176E+03  0.50400001928E-02 0. -1.
    10030    2    1    2    0    0  0.00000000000E+00  0.00000000000E+00  0.35539786066E+03  0.12704828042E+04  0.12197618277E+04 0.  0.
        3    1    3    3  502    0 -0.52652717445E+03  0.14687643232E+03  0.45941030506E+03  0.71404579012E+03  0.10100000352E+00 0.  1.
       -3    1    3    3    0  502  0.52652717445E+03 -0.14687643232E+03 -0.10401244440E+03  0.55643701404E+03  0.10100000352E+00 0. -1.
</event>
<event>
 5   0  0.1469851E-03  0.1205601E+04  0.7818609E-02  0.9107968E-01
        1   -1    0    0  501    0  0.00000000000E+00  0.00000000000E+00  0.51073004055E+03  0.51073004058E+03  0.50400001928E-02 0.  1.
       -1   -1    0    0    0  501  0.00000000000E+00  0.00000000000E+00 -0.71146893279E+03  0.71146893280E+03  0.50400001928E-02 0. -1.
    10030    2    1    2    0    0  0.00000000000E+00  0.00000000000E+00 -0.20073889223E+03  0.12221989734E+04  0.12056011893E+04 0.  0.
        5    1    3    3  502    0  0.22393191661E+03  0.39166209715E+02 -0.66632670883E+03  0.70405459175E+03  0.46999998093E+01 0. -1.
       -5    1    3    3    0  502 -0.22393191661E+03 -0.39166209715E+02  0.46558781660E+03  0.51814438164E+03  0.46999998093E+01 0.  1.
</event>
<event>
 5   0  0.2499890E-03  0.1198674E+04  0.7818609E-02  0.9114018E-01
        2   -1    0    0  501    0  0.00000000000E+00  0.00000000000E+00  0.56724200073E+03  0.56724200073E+03  0.25500000920E-02 0. -1.
       -2   -1    0    0    0  501  0.00000000000E+00  0.00000000000E+00 -0.63324765312E+03  0.63324765312E+03  0.25500000920E-02 0.  1.
    10030    2    1    2    0    0  0.00000000000E+00  0.00000000000E+00 -0.66005652390E+02  0.12004896539E+04  0.11986737099E+04 0.  0.
        5    1    3    3  502    0 -0.49972434499E+03 -0.33338535919E+02 -0.36266208585E+03  0.61837024303E+03  0.46999998093E+01 0.  1.
       -5    1    3    3    0  502  0.49972434499E+03  0.33338535919E+02  0.29665643346E+03  0.58211941083E+03  0.46999998093E+01 0. -1.
</event>
<event>
 5   0  0.1404833E-03  0.1197283E+04  0.7818609E-02  0.9115238E-01
        1   -1    0    0  501    0  0.00000000000E+00  0.00000000000E+00  0.43330302605E+03  0.43330302608E+03  0.50400001928E-02 0. -1.
       -1   -1    0    0    0  501  0.00000000000E+00  0.00000000000E+00 -0.82706963029E+03  0.82706963030E+03  0.50400001928E-02 0.  1.
    10030    2    1    2    0    0  0.00000000000E+00  0.00000000000E+00 -0.39376660423E+03  0.12603726564E+04  0.11972832139E+04 0.  0.
        1    1    3    3  502    0 -0.15920280845E+03 -0.21697042851E+03  0.36603735305E+03  0.45431821989E+03  0.50400001928E-02 0. -1.
       -1    1    3    3    0  502  0.15920280845E+03  0.21697042851E+03 -0.75980395728E+03  0.80605443650E+03  0.50400001928E-02 0.  1.
</event>
<event>
 5   0  0.1469851E-03  0.1199092E+04  0.7818609E-02  0.9113652E-01
        1   -1    0    0  501    0  0.00000000000E+00  0.00000000000E+00  0.91372420432E+03  0.91372420434E+03  0.50400001928E-02 0.  1.
       -1   -1    0    0    0  501  0.00000000000E+00  0.00000000000E+00 -0.39339585801E+03  0.39339585804E+03  0.50400001928E-02 0. -1.
    10030    2    1    2    0    0  0.00000000000E+00  0.00000000000E+00  0.52032834632E+03  0.13071200624E+04  0.11990918520E+04 0.  0.
        5    1    3    3  502    0 -0.22495476369E+02  0.78754689063E+02 -0.38724831994E+03  0.39584302292E+03  0.46999998093E+01 0. -1.
       -5    1    3    3    0  502  0.22495476369E+02 -0.78754689063E+02  0.90757666625E+03  0.91127703945E+03  0.46999998093E+01 0.  1.
</event>
<event>
 5   0  0.1455076E-03  0.1166960E+04  0.7818609E-02  0.9142279E-01
        1   -1    0    0  501    0  0.00000000000E+00  0.00000000000E+00  0.15608008330E+04  0.15608008331E+04  0.50400001928E-02 0. -1.
       -1   -1    0    0    0  501  0.00000000000E+00  0.00000000000E+00 -0.21812434828E+03  0.21812434834E+03  0.50400001928E-02 0.  1.
    10030    2    1    2    0    0  0.00000000000E+00  0.00000000000E+00  0.13426764848E+04  0.17789251814E+04  0.11669595787E+04 0.  0.
        4    1    3    3  502    0  0.30382405360E+03  0.37414302321E+03  0.11726699336E+04  0.12678519012E+04  0.12699999809E+01 0. -1.
       -4    1    3    3    0  502 -0.30382405360E+03 -0.37414302321E+03  0.17000655113E+03  0.51107328015E+03  0.12699999809E+01 0.  1.
</event>
<event>
 5   0  0.1423024E-03  0.1203495E+04  0.7818609E-02  0.9109803E-01
        1   -1    0    0  501    0  0.00000000000E+00  0.00000000000E+00  0.58510606533E+03  0.58510606535E+03  0.50400001928E-02 0.  1.
       -1   -1    0    0    0  501  0.00000000000E+00  0.00000000000E+00 -0.61886238800E+03  0.61886238802E+03  0.50400001928E-02 0. -1.
    10030    2    1    2    0    0  0.00000000000E+00  0.00000000000E+00 -0.33756322672E+02  0.12039684534E+04  0.12034951381E+04 0.  0.
        2    1    3    3  502    0 -0.31545172517E+02 -0.20777057732E+03  0.54720211121E+03  0.58616879926E+03  0.25500000920E-02 0.  1.
       -2    1    3    3    0  502  0.31545172517E+02  0.20777057732E+03 -0.58095843388E+03  0.61779965411E+03  0.25500000920E-02 0. -1.
</event>
<event>
 5   0  0.2484507E-03  0.1194867E+04  0.7818609E-02  0.9117361E-01
        2   -1    0    0  501    0  0.00000000000E+00  0.00000000000E+00  0.79245014959E+03  0.79245014959E+03  0.25500000920E-02 0. -1.
       -2   -1    0    0    0  501  0.00000000000E+00  0.00000000000E+00 -0.45040935681E+03  0.45040935682E+03  0.25500000920E-02 0.  1.
    10030    2    1    2    0    0  0.00000000000E+00  0.00000000000E+00  0.34204079277E+03  0.12428595064E+04  0.11948672934E+04 0.  0.
        2    1    3    3  502    0  0.48788654169E+03 -0.28540695760E+03  0.37227707119E+03  0.67681653847E+03  0.25500000920E-02 0. -1.
       -2    1    3    3    0  502 -0.48788654169E+03  0.28540695760E+03 -0.30236278419E+02  0.56604296794E+03  0.25500000920E-02 0.  1.
</event>
<event>
 5   0  0.2517023E-03  0.1182509E+04  0.7818609E-02  0.9128305E-01
       -2   -1    0    0    0  501  0.00000000000E+00  0.00000000000E+00  0.53409374018E+03  0.53409374018E+03  0.25500000920E-02 0. -1.
        2   -1    0    0  501    0  0.00000000000E+00  0.00000000000E+00 -0.65453310869E+03  0.65453310870E+03  0.25500000920E-02 0.  1.
    10030    2    1    2    0    0  0.00000000000E+00  0.00000000000E+00 -0.12043936852E+03  0.11886268489E+04  0.11825092576E+04 0.  0.
        3    1    3    3  502    0 -0.12063710449E+03  0.13833686367E+03  0.50473035596E+03  0.53706902840E+03  0.10100000352E+00 0. -1.
       -3    1    3    3    0  502  0.12063710449E+03 -0.13833686367E+03 -0.62516972448E+03  0.65155782049E+03  0.10100000352E+00 0.  1.
</event>
<event>
 5   0  0.2579442E-03  0.1194965E+04  0.7818609E-02  0.9117275E-01
        2   -1    0    0  501    0  0.00000000000E+00  0.00000000000E+00  0.66807392056E+03  0.66807392056E+03  0.25500000920E-02 0.  1.
       -2   -1    0    0    0  501  0.00000000000E+00  0.00000000000E+00 -0.53435033111E+03  0.53435033112E+03  0.25500000920E-02 0. -1.
    10030    2    1    2    0    0  0.00000000000E+00  0.00000000000E+00  0.13372358944E+03  0.12024242517E+04  0.11949653061E+04 0.  0.
        4    1    3    3  502    0  0.33416962984E+02 -0.56823322769E+03 -0.11587078773E+03  0.58089013317E+03  0.12699999809E+01 0. -1.
       -4    1    3    3    0  502 -0.33416962984E+02  0.56823322769E+03  0.24959437717E+03  0.62153411852E+03  0.12699999809E+01 0.  1.
</event>
<event>
 5   0  0.1403154E-03  0.1201816E+04  0.7818609E-02  0.9111268E-01
       -1   -1    0    0    0  501  0.00000000000E+00  0.00000000000E+00  0.43754056349E+03  0.43754056352E+03  0.50400001928E-02 0.  1.
        1   -1    0    0  501    0  0.00000000000E+00  0.00000000000E+00 -0.82527329802E+03  0.82527329803E+03  0.50400001928E-02 0. -1.
    10030    2    1    2    0    0  0.00000000000E+00  0.00000000000E+00 -0.38773273453E+03  0.12628138616E+04  0.12018161987E+04 0.  0.
        3    1    3    3  502    0  0.35810676771E+03  0.75440546799E+02 -0.69466838545E+03  0.78517253462E+03  0.10100000352E+00 0. -1.
       -3    1    3    3    0  502 -0.35810676771E+03 -0.75440546799E+02  0.30693565093E+03  0.47764132693E+03  0.10100000352E+00 0.  1.
</event>
<event>
 5   0  0.2580244E-03  0.1201160E+04  0.7818609E-02  0.9111842E-01
        2   -1    0    0  501    0  0.00000000000E+00  0.00000000000E+00  0.76026718647E+03  0.76026718648E+03  0.25500000920E-02 0.  1.
       -2   -1    0    0    0  501  0.00000000000E+00  0.00000000000E+00 -0.47443380540E+03  0.47443380541E+03  0.25500000920E-02 0. -1.
    10030    2    1    2    0    0  0.00000000000E+00  0.00000000000E+00  0.28583338107E+03  0.12347009919E+04  0.12011601965E+04 0.  0.
        1    1    3    3  502    0  0.39377088935E+03  0.38661701959E+03  0.38653291040E+03  0.67374767086E+03  0.50400001928E-02 0.  1.
       -1    1    3    3    0  502 -0.39377088935E+03 -0.38661701959E+03 -0.10069952933E+03  0.56095332103E+03  0.50400001928E-02 0. -1.
</event>
<event>
 5   0  0.2499890E-03  0.1196666E+04  0.7818609E-02  0.9115780E-01
       -2   -1    0    0    0  501  0.00000000000E+00  0.00000000000E+00  0.16677061043E+03  0.16677061045E+03  0.25500000920E-02 0.  1.
        2   -1    0    0  501    0  0.00000000000E+00  0.00000000000E+00 -0.21466747499E+04  0.21466747499E+04  0.25500000920E-02 0. -1.
    10030    2    1    2    0    0  0.00000000000E+00  0.00000000000E+00 -0.19799041394E+04  0.23134453603E+04  0.11966657987E+04 0.  0.
        5    1    3    3  502    0 -0.43724647145E+03 -0.21194018807E+03 -0.16648643521E+04  0.17343294153E+04  0.46999998093E+01 0. -1.
       -5    1    3    3    0  502  0.43724647145E+03  0.21194018807E+03 -0.31503978736E+03  0.57911594498E+03  0.46999998093E+01 0.  1.
</event>
<event>
 5   0  0.1455076E-03  0.1204020E+04  0.7818609E-02  0.9109345E-01
        1   -1    0    0  501    0  0.00000000000E+00  0.00000000000E+00  0.10801723621E+04  0.10801723621E+04  0.50400001928E-02 0. -1.
       -1   -1    0    0    0  501  0.00000000000E+00  0.00000000000E+00 -0.33551689601E+03  0.33551689605E+03  0.50400001928E-02 0.  1.
    10030    2    1    2    0    0  0.00000000000E+00  0.00000000000E+00  0.74465546612E+03  0.14156892582E+04  0.12040200632E+04 0.  0.
        4    1    3    3  502    0  0.92451077263E+02 -0.51080325024E+03  0.73079756270E+03  0.89640049794E+03  0.12699999809E+01 0.  1.
       -4    1    3    3    0  502 -0.92451077263E+02  0.51080325024E+03  0.13857903420E+02  0.51928876026E+03  0.12699999809E+01 0. -1.
</event>
<event>
 5   0  0.1423024E-03  0.1201417E+04  0.7818609E-02  0.9111617E-01
       -1   -1    0    0    0  501  0.00000000000E+00  0.00000000000E+00  0.29534486058E+03  0.29534486062E+03  0.50400001928E-02 0.  1.
        1   -1    0    0  501    0  0.00000000000E+00  0.00000000000E+00 -0.12217935914E+04  0.12217935914E+04  0.50400001928E-02 0. -1.
    10030    2    1    2    0    0  0.00000000000E+00  0.00000000000E+00 -0.92644873079E+03  0.15171384520E+04  0.12014165938E+04 0.  0.
        2    1    3    3  502    0  0.13505449631E+03  0.25319828255E+03  0.20319139311E+03  0.35161886966E+03  0.25500000920E-02 0.  1.
       -2    1    3    3    0  502 -0.13505449631E+03 -0.25319828255E+03 -0.11296401239E+04  0.11655195823E+04  0.25500000920E-02 0. -1.
</event>
<event>
 5   0  0.1423024E-03  0.1196212E+04  0.7818609E-02  0.9116179E-01
       -1   -1    0    0    0  501  0.00000000000E+00  0.00000000000E+00  0.94464757559E+03  0.94464757560E+03  0.50400001928E-02 0. -1.
        1   -1    0    0  501    0  0.00000000000E+00  0.00000000000E+00 -0.37869203422E+03  0.37869203426E+03  0.50400001928E-02 0.  1.
    10030    2    1    2    0    0  0.00000000000E+00  0.00000000000E+00  0.56595554136E+03  0.13233396099E+04  0.11962115399E+04 0.  0.
        2    1    3    3  502    0 -0.11688838655E+03  0.47039699312E+02  0.92979893006E+03  0.93829722293E+03  0.25500000920E-02 0. -1.
       -2    1    3    3    0  502  0.11688838655E+03 -0.47039699312E+02 -0.36384338869E+03  0.38504238692E+03  0.25500000920E-02 0.  1.
</event>
<event>
 5   0  0.1403154E-03  0.1201547E+04  0.7818609E-02  0.9111503E-01
       -1   -1    0    0    0  501  0.00000000000E+00  0.00000000000E+00  0.32968672729E+03  0.32968672733E+03  0.50400001928E-02 0. -1.
        1   -1    0    0  501    0  0.00000000000E+00  0.00000000000E+00 -0.10947631822E+04  0.10947631822E+04  0.50400001928E-02 0.  1.
    10030    2    1    2    0    0  0.00000000000E+00  0.00000000000E+00 -0.76507645488E+03  0.14244499095E+04  0.12015471538E+04 0.  0.
        3    1    3    3  502    0 -0.46817524235E+03  0.14160987133E+03  0.31012976049E+02  0.49010532347E+03  0.10100000352E+00 0. -1.
       -3    1    3    3    0  502  0.46817524235E+03 -0.14160987133E+03 -0.79608943093E+03  0.93434458603E+03  0.10100000352E+00 0.  1.
</event>
<event>
 5   0  0.1423024E-03  0.1209073E+04  0.7818609E-02  0.9104952E-01
       -1   -1    0    0    0  501  0.00000000000E+00  0.00000000000E+00  0.15686465164E+03  0.15686465172E+03  0.50400001928E-02 0.  1.
        1   -1    0    0  501    0  0.00000000000E+00  0.00000000000E+00 -0.23298057044E+04  0.23298057044E+04  0.50400001928E-02 0. -1.
    10030    2    1    2    0    0  0.00000000000E+00  0.00000000000E+00 -0.21729410527E+04  0.24866703561E+04  0.12090726369E+04 0.  0.
        2    1    3    3  502    0 -0.17958963353E+03 -0.26741828775E+03 -0.21385947220E+04  0.21627187432E+04  0.25500000920E-02 0. -1.
       -2    1    3    3    0  502  0.17958963353E+03  0.26741828775E+03 -0.34346330759E+02  0.32395161296E+03  0.25500000920E-02 0.  1.
</event>
<event>
 5   0  0.2484507E-03  0.1195804E+04  0.7818609E-02  0.9116537E-01
        2   -1    0    0  501    0  0.00000000000E+00  0.00000000000E+00  0.10577584664E+04  0.10577584664E+04  0.25500000920E-02 0.  1.
       -2   -1    0    0    0  501  0.00000000000E+00  0.00000000000E+00 -0.33796625157E+03  0.33796625158E+03  0.25500000920E-02 0. -1.
    10030    2    1    2    0    0  0.00000000000E+00  0.00000000000E+00  0.71979221482E+03  0.13957247180E+04  0.11958037698E+04 0.  0.
        2    1    3    3  502    0  0.27265937919E+03  0.43133883384E+03  0.72358317366E+03  0.88542020298E+03  0.25500000920E-02 0.  1.
       -2    1    3    3    0  502 -0.27265937919E+03 -0.43133883384E+03 -0.37909588380E+01  0.51030451499E+03  0.25500000920E-02 0. -1.
</event>
<event>
 5   0  0.2484507E-03  0.1194435E+04  0.7818609E-02  0.9117741E-01
       -2   -1    0    0    0  501  0.00000000000E+00  0.00000000000E+00  0.38728431734E+03  0.38728431734E+03  0.25500000920E-02 0.  1.
        2   -1    0    0  501    0  0.00000000000E+00  0.00000000000E+00 -0.92094848509E+03  0.92094848509E+03  0.25500000920E-02 0. -1.
    10030    2    1    2    0    0  0.00000000000E+00  0.00000000000E+00 -0.53366416775E+03  0.13082328024E+04  0.11944352730E+04 0.  0.
        2    1    3    3  502    0 -0.28275549873E+03 -0.43912718318E+03  0.50391884085E+02  0.52471201345E+03  0.25500000920E-02 0. -1.
       -2    1    3    3    0  502  0.28275549873E+03  0.43912718318E+03 -0.58405605184E+03  0.78352078898E+03  0.25500000920E-02 0.  1.
</event>
<event>
 5   0  0.2517023E-03  0.1212336E+04  0.7818609E-02  0.9102127E-01
        2   -1    0    0  501    0  0.00000000000E+00  0.00000000000E+00  0.29446957483E+03  0.29446957484E+03  0.25500000920E-02 0. -1.
       -2   -1    0    0    0  501  0.00000000000E+00  0.00000000000E+00 -0.12478025634E+04  0.12478025634E+04  0.25500000920E-02 0.  1.
    10030    2    1    2    0    0  0.00000000000E+00  0.00000000000E+00 -0.95333298860E+03  0.15422721383E+04  0.12123364060E+04 0.  0.
        3    1    3    3  502    0  0.17212438813E+03  0.13436395939E+03 -0.11960318642E+04  0.12158012621E+04  0.10100000352E+00 0.  1.
       -3    1    3    3    0  502 -0.17212438813E+03 -0.13436395939E+03  0.24269887559E+03  0.32647087617E+03  0.10100000352E+00 0. -1.
</event>
<event>
 5   0  0.1404833E-03  0.1277758E+04  0.7818609E-02  0.9047392E-01
       -1   -1    0    0    0  501  0.00000000000E+00  0.00000000000E+00  0.50483830918E+03  0.50483830921E+03  0.50400001928E-02 0.  1.
        1   -1    0    0  501    0  0.00000000000E+00  0.00000000000E+00 -0.80850907063E+03  0.80850907065E+03  0.50400001928E-02 0. -1.
    10030    2    1    2    0    0  0.00000000000E+00  0.00000000000E+00 -0.30367076145E+03  0.13133473799E+04  0.12777579617E+04 0.  0.
        1    1    3    3  502    0 -0.31216835822E+03  0.44969347907E+03  0.18672174723E+03  0.57839287678E+03  0.50400001928E-02 0.  1.
       -1    1    3    3    0  502  0.31216835822E+03 -0.44969347907E+03 -0.49039250868E+03  0.73495450307E+03  0.50400001928E-02 0. -1.
</event>
<event>
 5   0  0.1423024E-03  0.1206179E+04  0.7818609E-02  0.9107465E-01
        1   -1    0    0  501    0  0.00000000000E+00  0.00000000000E+00  0.16276475486E+04  0.16276475486E+04  0.50400001928E-02 0. -1.
       -1   -1    0    0    0  501  0.00000000000E+00  0.00000000000E+00 -0.22346178425E+03  0.22346178431E+03  0.50400001928E-02 0.  1.
    10030    2    1    2    0    0  0.00000000000E+00  0.00000000000E+00  0.14041857643E+04  0.18511093329E+04  0.12061791333E+04 0.  0.
        2    1    3    3  502    0  0.12669480268E+02 -0.26338935147E+03  0.15344864590E+04  0.15569788563E+04  0.25500000920E-02 0. -1.
       -2    1    3    3    0  502 -0.12669480268E+02  0.26338935147E+03 -0.13030069468E+03  0.29413047656E+03  0.25500000920E-02 0.  1.
</event>
<event>
 5   0  0.1423024E-03  0.1199893E+04  0.7818609E-02  0.9112950E-01
        1   -1    0    0  501    0  0.00000000000E+00  0.00000000000E+00  0.16798721410E+04  0.16798721410E+04  0.50400001928E-02 0.  1.
       -1   -1    0    0    0  501  0.00000000000E+00  0.00000000000E+00 -0.21426377716E+03  0.21426377722E+03  0.50400001928E-02 0. -1.
    10030    2    1    2    0    0  0.00000000000E+00  0.00000000000E+00  0.14656083639E+04  0.18941359183E+04  0.11998929121E+04 0.  0.
        2    1    3    3  502    0 -0.10754067502E+03 -0.58939185128E+03  0.68318530785E+03  0.90867481312E+03  0.25500000920E-02 0. -1.
       -2    1    3    3    0  502  0.10754067502E+03  0.58939185128E+03  0.78242305602E+03  0.98546110514E+03  0.25500000920E-02 0.  1.
</event>
<event>
 5   0  0.2517023E-03  0.1203204E+04  0.7818609E-02  0.9110057E-01
       -2   -1    0    0    0  501  0.00000000000E+00  0.00000000000E+00  0.18204775102E+03  0.18204775103E+03  0.25500000920E-02 0. -1.
        2   -1    0    0  501    0  0.00000000000E+00  0.00000000000E+00 -0.19880759127E+04  0.19880759127E+04  0.25500000920E-02 0.  1.
    10030    2    1    2    0    0  0.00000000000E+00  0.00000000000E+00 -0.18060281617E+04  0.21701236638E+04  0.12032036383E+04 0.  0.
        3    1    3    3  502    0 -0.51356515766E+03  0.22984854723E+03 -0.12870846846E+04  0.14046944584E+04  0.10100000352E+00 0.  1.
       -3    1    3    3    0  502  0.51356515766E+03 -0.22984854723E+03 -0.51894347708E+03  0.76542920537E+03  0.10100000352E+00 0. -1.
</event>
<event>
 5   0  0.2484507E-03  0.1239382E+04  0.7818609E-02  0.9079068E-01
        2   -1    0    0  501    0  0.00000000000E+00  0.00000000000E+00  0.75012234629E+03  0.75012234630E+03  0.25500000920E-02 0.  1.
       -2   -1    0    0    0  501  0.00000000000E+00  0.00000000000E+00 -0.51193867526E+03  0.51193867527E+03  0.25500000920E-02 0. -1.
    10030    2    1    2    0    0  0.00000000000E+00  0.00000000000E+00  0.23818367103E+03  0.12620610216E+04  0.12393815236E+04 0.  0.
        2    1    3    3  502    0  0.50444227427E+03 -0.29694770692E+03 -0.88043035011E+02  0.59193878462E+03  0.25500000920E-02 0. -1.
       -2    1    3    3    0  502 -0.50444227427E+03  0.29694770692E+03  0.32622670604E+03  0.67012223695E+03  0.25500000920E-02 0.  1.
</event>
<event>
 5   0  0.2484507E-03  0.1197502E+04  0.7818609E-02  0.9115046E-01
       -2   -1    0    0    0  501  0.00000000000E+00  0.00000000000E+00  0.11949244550E+04  0.11949244550E+04  0.25500000920E-02 0.  1.
        2   -1    0    0  501    0  0.00000000000E+00  0.00000000000E+00 -0.30002116117E+03  0.30002116118E+03  0.25500000920E-02 0. -1.
    10030    2    1    2    0    0  0.00000000000E+00  0.00000000000E+00  0.89490329381E+03  0.14949456162E+04  0.11975017704E+04 0.  0.
        2    1    3    3  502    0 -0.22223784733E+03 -0.23464603717E+03 -0.18178269680E+03  0.37080098761E+03  0.25500000920E-02 0. -1.
       -2    1    3    3    0  502  0.22223784733E+03  0.23464603717E+03  0.10766859906E+04  0.11241446286E+04  0.25500000920E-02 0.  1.
</event>
<event>
 5   0  0.1455076E-03  0.1203655E+04  0.7818609E-02  0.9109663E-01
       -1   -1    0    0    0  501  0.00000000000E+00  0.00000000000E+00  0.27629059268E+03  0.27629059273E+03  0.50400001928E-02 0. -1.
        1   -1    0    0  501    0  0.00000000000E+00  0.00000000000E+00 -0.13109259355E+04  0.13109259355E+04  0.50400001928E-02 0.  1.
    10030    2    1    2    0    0  0.00000000000E+00  0.00000000000E+00 -0.10346353428E+04  0.15872165282E+04  0.12036552724E+04 0.  0.
        4    1    3    3  502    0  0.31604262098E+03 -0.27070253168E+02  0.15711037157E+03  0.35397883925E+03  0.12699999809E+01 0. -1.
       -4    1    3    3    0  502 -0.31604262098E+03  0.27070253168E+02 -0.11917457144E+04  0.12332376890E+04  0.12699999809E+01 0.  1.
</event>
<event>
 5   0  0.1469851E-03  0.1197100E+04  0.7818609E-02  0.9115399E-01
        1   -1    0    0  501    0  0.00000000000E+00  0.00000000000E+00  0.79961370712E+03  0.79961370714E+03  0.50400001928E-02 0. -1.
       -1   -1    0    0    0  501  0.00000000000E+00  0.00000000000E+00 -0.44804374123E+03  0.44804374126E+03  0.50400001928E-02 0.  1.
    10030    2    1    2    0    0  0.00000000000E+00  0.00000000000E+00  0.35156996589E+03  0.12476574484E+04  0.11970996899E+04 0.  0.
        5    1    3    3  502    0 -0.44247799462E+03  0.23359635154E+03  0.51811673269E+03  0.72029235028E+03  0.46999998093E+01 0. -1.
       -5    1    3    3    0  502  0.44247799462E+03 -0.23359635154E+03 -0.16654676680E+03  0.52736509811E+03  0.46999998093E+01 0.  1.
</event>
<event>
 5   0  0.2580244E-03  0.1159266E+04  0.7818609E-02  0.9149278E-01
        2   -1    0    0  501    0  0.00000000000E+00  0.00000000000E+00  0.18382890702E+04  0.18382890702E+04  0.25500000920E-02 0.  1.
       -2   -1    0    0    0  501  0.00000000000E+00  0.00000000000E+00 -0.18276471574E+03  0.18276471576E+03  0.25500000920E-02 0. -1.
    10030    2    1    2    0    0  0.00000000000E+00  0.00000000000E+00  0.16555243545E+04  0.20210537860E+04  0.11592659391E+04 0.  0.
        1    1    3    3  502    0 -0.10470597122E+03  0.31364800649E+03  0.16577260953E+04  0.16903828618E+04  0.50400001928E-02 0.  1.
       -1    1    3    3    0  502  0.10470597122E+03 -0.31364800649E+03 -0.22017408688E+01  0.33067092414E+03  0.50400001928E-02 0. -1.
</event>
<event>
 5   0  0.2517023E-03  0.1201703E+04  0.7818609E-02  0.9111367E-01
        2   -1    0    0  501    0  0.00000000000E+00  0.00000000000E+00  0.15831605126E+04  0.15831605126E+04  0.25500000920E-02 0.  1.
       -2   -1    0    0    0  501  0.00000000000E+00  0.00000000000E+00 -0.22803899308E+03  0.22803899309E+03  0.25500000920E-02 0. -1.
    10030    2    1    2    0    0  0.00000000000E+00  0.00000000000E+00  0.13551215195E+04  0.18111995057E+04  0.12017026740E+04 0.  0.
        3    1    3    3  502    0  0.32001716785E+03 -0.23117560474E+03 -0.51320287527E+01  0.39481577459E+03  0.10100000352E+00 0. -1.
       -3    1    3    3    0  502 -0.32001716785E+03  0.23117560474E+03  0.13602535483E+04  0.14163837311E+04  0.10100000352E+00 0.  1.
</event>
<event>
 5   0  0.9678750E-04  0.1206135E+04  0.7818609E-02  0.9107503E-01
        4   -1    0    0  501    0  0.00000000000E+00  0.00000000000E+00  0.43524022877E+03  0.43524208165E+03  0.12699999809E+01 0. -1.
       -4   -1    0    0    0  501  0.00000000000E+00  0.00000000000E+00 -0.83560492019E+03  0.83560588530E+03  0.12699999809E+01 0.  1.
    10030    2    1    2    0    0  0.00000000000E+00  0.00000000000E+00 -0.40036469142E+03  0.12708479669E+04  0.12061354273E+04 0.  0.
        5    1    3    3  502    0  0.45539614595E+03 -0.37414197606E+03 -0.33470665627E+03  0.67780417803E+03  0.46999998093E+01 0.  1.
       -5    1    3    3    0  502 -0.45539614595E+03  0.37414197606E+03 -0.65658035152E+02  0.59304378892E+03  0.46999998093E+01 0. -1.
</event>
<event>
 5   0  0.2517023E-03  0.1202549E+04  0.7818609E-02  0.9110628E-01
       -2   -1    0    0    0  501  0.00000000000E+00  0.00000000000E+00  0.34780680148E+03  0.34780680149E+03  0.25500000920E-02 0. -1.
        2   -1    0    0  501    0  0.00000000000E+00  0.00000000000E+00 -0.10394595273E+04  0.10394595274E+04  0.25500000920E-02 0.  1.
    10030    2    1    2    0    0  0.00000000000E+00  0.00000000000E+00 -0.69165272587E+03  0.13872663288E+04  0.12025491150E+04 0.  0.
        3    1    3    3  502    0 -0.74936950975E+02 -0.26067986960E+03  0.27322155576E+03  0.38499294768E+03  0.10100000352E+00 0. -1.
       -3    1    3    3    0  502  0.74936950975E+02  0.26067986960E+03 -0.96487428162E+03  0.10022733812E+04  0.10100000352E+00 0.  1.
</event>
<event>
 5   0  0.2484507E-03  0.1209685E+04  0.7818609E-02  0.9104421E-01
       -2   -1    0    0    0  501  0.00000000000E+00  0.00000000000E+00  0.48058180504E+03  0.48058180505E+03  0.25500000920E-02 0.  1.
        2   -1    0    0  501    0  0.00000000000E+00  0.00000000000E+00 -0.76123233147E+03  0.76123233148E+03  0.25500000920E-02 0. -1.
    10030    2    1    2    0    0  0.00000000000E+00  0.00000000000E+00 -0.28065052643E+03  0.12418141365E+04  0.12096849308E+04 0.  0.
        2    1    3    3  502    0 -0.28721344883E+03  0.41894465399E+03 -0.47741889344E+03  0.69709037299E+03  0.25500000920E-02 0. -1.
       -2    1    3    3    0  502  0.28721344883E+03 -0.41894465399E+03  0.19676836700E+03  0.54472376353E+03  0.25500000920E-02 0.  1.
</event>
<event>
 5   0  0.2499890E-03  0.1196447E+04  0.7818609E-02  0.9115972E-01
        2   -1    0    0  501    0  0.00000000000E+00  0.00000000000E+00  0.77360983953E+03  0.77360983954E+03  0.25500000920E-02 0. -1.
       -2   -1    0    0    0  501  0.00000000000E+00  0.00000000000E+00 -0.46259938911E+03  0.46259938912E+03  0.25500000920E-02 0.  1.
    10030    2    1    2    0    0  0.00000000000E+00  0.00000000000E+00  0.31101045042E+03  0.12362092287E+04  0.11964471391E+04 0.  0.
        5    1    3    3  502    0  0.23670797731E+03 -0.22599244396E+03 -0.36188182860E+03  0.48793831487E+03  0.46999998093E+01 0.  1.
       -5    1    3    3    0  502 -0.23670797731E+03  0.22599244396E+03  0.67289227902E+03  0.74827091378E+03  0.46999998093E+01 0. -1.
</event>
<event>
 5   0  0.1403154E-03  0.1194179E+04  0.7818609E-02  0.9117967E-01
       -1   -1    0    0    0  501  0.00000000000E+00  0.00000000000E+00  0.68282817596E+03  0.68282817598E+03  0.50400001928E-02 0. -1.
        1   -1    0    0  501    0  0.00000000000E+00  0.00000000000E+00 -0.52211644797E+03  0.52211644800E+03  0.50400001928E-02 0.  1.
    10030    2    1    2    0    0  0.00000000000E+00  0.00000000000E+00  0.16071172799E+03  0.12049446240E+04  0.11941789176E+04 0.  0.
        3    1    3    3  502    0 -0.34121733935E+03 -0.46297716215E+03 -0.81523271687E+02  0.58088138150E+03  0.10100000352E+00 0.  1.
       -3    1    3    3    0  502  0.34121733935E+03  0.46297716215E+03  0.24223499968E+03  0.62406324248E+03  0.10100000352E+00 0. -1.
</event>
<event>
 5   0  0.1469851E-03  0.1198228E+04  0.7818609E-02  0.9114409E-01
        1   -1    0    0  501    0  0.00000000000E+00  0.00000000000E+00  0.13126316708E+04  0.13126316708E+04  0.50400001928E-02 0.  1.
       -1   -1    0    0    0  501  0.00000000000E+00  0.00000000000E+00 -0.27344865893E+03  0.27344865897E+03  0.50400001928E-02 0. -1.
    10030    2    1    2    0    0  0.00000000000E+00  0.00000000000E+00  0.10391830119E+04  0.15860803298E+04  0.11982276413E+04 0.  0.
        5    1    3    3  502    0  0.24607421005E+03  0.26549842703E+03 -0.11228558828E+03  0.37904099374E+03  0.46999998093E+01 0. -1.
       -5    1    3    3    0  502 -0.24607421005E+03 -0.26549842703E+03  0.11514686001E+04  0.12070393360E+04  0.46999998093E+01 0.  1.
</event>
<event>
 5   0  0.2580244E-03  0.1218837E+04  0.7818609E-02  0.9096526E-01
        2   -1    0    0  501    0  0.00000000000E+00  0.00000000000E+00  0.54757434860E+03  0.54757434861E+03  0.25500000920E-02 0.  1.
       -2   -1    0    0    0  501  0.00000000000E+00  0.00000000000E+00 -0.67824749126E+03  0.67824749127E+03  0.25500000920E-02 0. -1.
    10030    2    1    2    0    0  0.00000000000E+00  0.00000000000E+00 -0.13067314266E+03  0.12258218399E+04  0.12188370330E+04 0.  0.
        1    1    3    3  502    0 -0.28150121065E+03 -0.15571675659E+03  0.45522044430E+03  0.55741931508E+03  0.50400001928E-02 0.  1.
       -1    1    3    3    0  502  0.28150121065E+03  0.15571675659E+03 -0.58589358697E+03  0.66840252480E+03  0.50400001928E-02 0. -1.
</event>
<event>
 5   0  0.1423024E-03  0.1189804E+04  0.7818609E-02  0.9121829E-01
       -1   -1    0    0    0  501  0.00000000000E+00  0.00000000000E+00  0.29593849746E+03  0.29593849751E+03  0.50400001928E-02 0. -1.
        1   -1    0    0  501    0  0.00000000000E+00  0.00000000000E+00 -0.11958839516E+04  0.11958839517E+04  0.50400001928E-02 0.  1.
    10030    2    1    2    0    0  0.00000000000E+00  0.00000000000E+00 -0.89994545418E+03  0.14918224492E+04  0.11898035129E+04 0.  0.
        2    1    3    3  502    0 -0.78583857144E+02  0.65002824769E+02  0.28489619806E+03  0.30259979099E+03  0.25500000920E-02 0. -1.
       -2    1    3    3    0  502  0.78583857144E+02 -0.65002824769E+02 -0.11848416522E+04  0.11892226582E+04  0.25500000920E-02 0.  1.
</event>
<event>
 5   0  0.2484507E-03  0.1199386E+04  0.7818609E-02  0.9113394E-01
        2   -1    0    0  501    0  0.00000000000E+00  0.00000000000E+00  0.11093135119E+04  0.11093135119E+04  0.25500000920E-02 0. -1.
       -2   -1    0    0    0  501  0.00000000000E+00  0.00000000000E+00 -0.32419294953E+03  0.32419294954E+03  0.25500000920E-02 0.  1.
    10030    2    1    2    0    0  0.00000000000E+00  0.00000000000E+00  0.78512056238E+03  0.14335064615E+04  0.11993858752E+04 0.  0.
        2    1    3    3  502    0  0.20338179865E+03 -0.56042360382E+03  0.46995213792E+03  0.75914016076E+03  0.25500000920E-02 0.  1.
       -2    1    3    3    0  502 -0.20338179865E+03  0.56042360382E+03  0.31516842446E+03  0.67436630070E+03  0.25500000920E-02 0. -1.
</event>
<event>
 5   0  0.1404833E-03  0.1200127E+04  0.7818609E-02  0.9112745E-01
        1   -1    0    0  501    0  0.00000000000E+00  0.00000000000E+00  0.92819943569E+03  0.92819943571E+03  0.50400001928E-02 0.  1.
       -1   -1    0    0    0  501  0.00000000000E+00  0.00000000000E+00 -0.38793008755E+03  0.38793008759E+03  0.50400001928E-02 0. -1.
    10030    2    1    2    0    0  0.00000000000E+00  0.00000000000E+00  0.54026934814E+03  0.13161295233E+04  0.12001274739E+04 0.  0.
        1    1    3    3  502    0 -0.55941175236E+03 -0.12992215757E+03  0.79381682263E+02  0.57976092246E+03  0.50400001928E-02 0.  1.
       -1    1    3    3    0  502  0.55941175236E+03  0.12992215757E+03  0.46088766588E+03  0.73636860083E+03  0.50400001928E-02 0. -1.
</event>
<event>
 5   0  0.2579442E-03  0.1201905E+04  0.7818609E-02  0.9111191E-01
        2   -1    0    0  501    0  0.00000000000E+00  0.00000000000E+00  0.45765292582E+03  0.45765292583E+03  0.25500000920E-02 0.  1.
       -2   -1    0    0    0  501  0.00000000000E+00  0.00000000000E+00 -0.78912131508E+03  0.78912131509E+03  0.25500000920E-02 0. -1.
    10030    2    1    2    0    0  0.00000000000E+00  0.00000000000E+00 -0.33146838926E+03  0.12467742409E+04  0.12019046196E+04 0.  0.
        4    1    3    3  502    0 -0.92022338546E+02 -0.53713245155E+03 -0.42849408953E+03  0.69324467467E+03  0.12699999809E+01 0. -1.
       -4    1    3    3    0  502  0.92022338546E+02  0.53713245155E+03  0.97025700265E+02  0.55352956625E+03  0.12699999809E+01 0.  1.
</event>
<event>
 5   0  0.1455076E-03  0.1196034E+04  0.7818609E-02  0.9116335E-01
        1   -1    0    0  501    0  0.00000000000E+00  0.00000000000E+00  0.40184424796E+03  0.40184424799E+03  0.50400001928E-02 0.  1.
       -1   -1    0    0    0  501  0.00000000000E+00  0.00000000000E+00 -0.88995742016E+03  0.88995742018E+03  0.50400001928E-02 0. -1.
    10030    2    1    2    0    0  0.00000000000E+00  0.00000000000E+00 -0.48811317220E+03  0.12918016682E+04  0.11960338963E+04 0.  0.
        4    1    3    3  502    0 -0.20633849841E+03  0.48040156583E+03  0.69464483518E+02  0.52743546311E+03  0.12699999809E+01 0.  1.
       -4    1    3    3    0  502  0.20633849841E+03 -0.48040156583E+03 -0.55757765572E+03  0.76436620506E+03  0.12699999809E+01 0. -1.
</event>
<event>
 5   0  0.2499890E-03  0.1193043E+04  0.7818609E-02  0.9118967E-01
        2   -1    0    0  501    0  0.00000000000E+00  0.00000000000E+00  0.46775135765E+03  0.46775135765E+03  0.25500000920E-02 0.  1.
       -2   -1    0    0    0  501  0.00000000000E+00  0.00000000000E+00 -0.76074209899E+03  0.76074209900E+03  0.25500000920E-02 0. -1.
    10030    2    1    2    0    0  0.00000000000E+00  0.00000000000E+00 -0.29299074135E+03  0.12284934567E+04  0.11930434185E+04 0.  0.
        5    1    3    3  502    0  0.20271311033E+03  0.27581922675E+03  0.35653566174E+03  0.49427585318E+03  0.46999998093E+01 0.  1.
       -5    1    3    3    0  502 -0.20271311033E+03 -0.27581922675E+03 -0.64952640308E+03  0.73421760347E+03  0.46999998093E+01 0. -1.
</event>
<event>
 5   0  0.1423024E-03  0.1207436E+04  0.7818609E-02  0.9106373E-01
       -1   -1    0    0    0  501  0.00000000000E+00  0.00000000000E+00  0.37321071253E+03  0.37321071256E+03  0.50400001928E-02 0.  1.
        1   -1    0    0  501    0  0.00000000000E+00  0.00000000000E+00 -0.97659370399E+03  0.97659370400E+03  0.50400001928E-02 0. -1.
    10030    2    1    2    0    0  0.00000000000E+00  0.00000000000E+00 -0.60338299146E+03  0.13498044166E+04  0.12074356830E+04 0.  0.
        2    1    3    3  502    0  0.44182888627E+02  0.50566548709E+03  0.63688145999E+02  0.51157198167E+03  0.25500000920E-02 0.  1.
       -2    1    3    3    0  502 -0.44182888627E+02 -0.50566548709E+03 -0.66707113746E+03  0.83823243490E+03  0.25500000920E-02 0. -1.
</event>
<event>
 5   0  0.1403154E-03  0.1207128E+04  0.7818609E-02  0.9106641E-01
       -1   -1    0    0    0  501  0.00000000000E+00  0.00000000000E+00  0.72402577351E+03  0.72402577352E+03  0.50400001928E-02 0. -1.
        1   -1    0    0  501    0  0.00000000000E+00  0.00000000000E+00 -0.50314408310E+03  0.50314408313E+03  0.50400001928E-02 0.  1.
    10030    2    1    2    0    0  0.00000000000E+00  0.00000000000E+00  0.22088169041E+03  0.12271698566E+04  0.12071276386E+04 0.  0.
        3    1    3    3  502    0  0.36926972351E+03 -0.23614115140E+03 -0.31137783915E+03  0.53766061879E+03  0.10100000352E+00 0.  1.
       -3    1    3    3    0  502 -0.36926972351E+03  0.23614115140E+03  0.53225952956E+03  0.68950923786E+03  0.10100000352E+00 0. -1.
</event>
<event>
 5   0  0.2580244E-03  0.1185789E+04  0.7818609E-02  0.9125387E-01
       -2   -1    0    0    0  501  0.00000000000E+00  0.00000000000E+00  0.26650292681E+03  0.26650292683E+03  0.25500000920E-02 0.  1.
        2   -1    0    0  501    0  0.00000000000E+00  0.00000000000E+00 -0.13190236462E+04  0.13190236462E+04  0.25500000920E-02 0. -1.
    10030    2    1    2    0    0  0.00000000000E+00  0.00000000000E+00 -0.10525207194E+04  0.15855265730E+04  0.11857886190E+04 0.  0.
        1    1    3    3  502    0 -0.18951423000E+03  0.54858292908E+03 -0.36433899571E+03  0.68527496472E+03  0.50400001928E-02 0. -1.
       -1    1    3    3    0  502  0.18951423000E+03 -0.54858292908E+03 -0.68818172370E+03  0.90025160833E+03  0.50400001928E-02 0.  1.
</event>
<event>
 5   0  0.1403154E-03  0.1196762E+04  0.7818609E-02  0.9115696E-01
        1   -1    0    0  501    0  0.00000000000E+00  0.00000000000E+00  0.46224867476E+03  0.46224867479E+03  0.50400001928E-02 0. -1.
       -1   -1    0    0    0  501  0.00000000000E+00  0.00000000000E+00 -0.77460396728E+03  0.77460396730E+03  0.50400001928E-02 0.  1.
    10030    2    1    2    0    0  0.00000000000E+00  0.00000000000E+00 -0.31235529252E+03  0.12368526421E+04  0.11967617263E+04 0.  0.
        3    1    3    3  502    0  0.49612386782E+02 -0.49074102639E+03  0.19395072585E+03  0.53000475297E+03  0.10100000352E+00 0. -1.
       -3    1    3    3    0  502 -0.49612386782E+02  0.49074102639E+03 -0.50630601838E+03  0.70684788912E+03  0.10100000352E+00 0.  1.
</event>
<event>
 5   0  0.2580244E-03  0.1197095E+04  0.7818609E-02  0.9115403E-01
       -2   -1    0    0    0  501  0.00000000000E+00  0.00000000000E+00  0.16370723863E+04  0.16370723863E+04  0.25500000920E-02 0. -1.
        2   -1    0    0  501    0  0.00000000000E+00  0.00000000000E+00 -0.21884151825E+03  0.21884151827E+03  0.25500000920E-02 0.  1.
    10030    2    1    2    0    0  0.00000000000E+00  0.00000000000E+00  0.14182308681E+04  0.18559139046E+04  0.11970954958E+04 0.  0.
        1    1    3    3  502    0  0.49497102124E+03 -0.10249913462E+03  0.12060907101E+04  0.13077297831E+04  0.50400001928E-02 0. -1.
       -1    1    3    3    0  502 -0.49497102124E+03  0.10249913462E+03  0.21214015798E+03  0.54818412155E+03  0.50400001928E-02 0.  1.
</event>
<event>
 5   0  0.1403154E-03  0.1092850E+04  0.7818609E-02  0.9212188E-01
        1   -1    0    0  501    0  0.00000000000E+00  0.00000000000E+00  0.37839087553E+03  0.37839087556E+03  0.50400001928E-02 0. -1.
       -1   -1    0    0    0  501  0.00000000000E+00  0.00000000000E+00 -0.78907953315E+03  0.78907953317E+03  0.50400001928E-02 0.  1.
    10030    2    1    2    0    0  0.00000000000E+00  0.00000000000E+00 -0.41068865763E+03  0.11674704087E+04  0.10928503931E+04 0.  0.
        3    1    3    3  502    0 -0.32458183937E+03 -0.34236917123E+03 -0.49986912525E+03  0.68734210728E+03  0.10100000352E+00 0.  1.
       -3    1    3    3    0  502  0.32458183937E+03  0.34236917123E+03  0.89180467627E+02  0.48012830146E+03  0.10100000352E+00 0. -1.
</event>
<event>
 5   0  0.1469851E-03  0.1198731E+04  0.7818609E-02  0.9113968E-01
       -1   -1    0    0    0  501  0.00000000000E+00  0.00000000000E+00  0.29432273610E+03  0.29432273614E+03  0.50400001928E-02 0. -1.
        1   -1    0    0  501    0  0.00000000000E+00  0.00000000000E+00 -0.12205616996E+04  0.12205616996E+04  0.50400001928E-02 0.  1.
    10030    2    1    2    0    0  0.00000000000E+00  0.00000000000E+00 -0.92623896349E+03  0.15148844357E+04  0.11987310942E+04 0.  0.
        5    1    3    3  502    0  0.18241747502E+02 -0.42701694693E+03  0.67863005708E+02  0.43278598852E+03  0.46999998093E+01 0. -1.
       -5    1    3    3    0  502 -0.18241747502E+02  0.42701694693E+03 -0.99410196920E+03  0.10820984472E+04  0.46999998093E+01 0.  1.
</event>
<event>
 5   0  0.2579442E-03  0.1204756E+04  0.7818609E-02  0.9108704E-01
        2   -1    0    0  501    0  0.00000000000E+00  0.00000000000E+00  0.60550044035E+03  0.60550044035E+03  0.25500000920E-02 0.  1.
       -2   -1    0    0    0  501  0.00000000000E+00  0.00000000000E+00 -0.59927137588E+03  0.59927137589E+03  0.25500000920E-02 0. -1.
    10030    2    1    2    0    0  0.00000000000E+00  0.00000000000E+00  0.62290644654E+01  0.12047718162E+04  0.12047557130E+04 0.  0.
        4    1    3    3  502    0 -0.52512155567E+03 -0.93322508501E+02 -0.27688158564E+03  0.60093823658E+03  0.12699999809E+01 0. -1.
       -4    1    3    3    0  502  0.52512155567E+03  0.93322508501E+02  0.28311065010E+03  0.60383357966E+03  0.12699999809E+01 0.  1.
</event>
<event>
 5   0  0.2484507E-03  0.1200199E+04  0.7818609E-02  0.9112682E-01
        2   -1    0    0  501    0  0.00000000000E+00  0.00000000000E+00  0.95130387934E+03  0.95130387935E+03  0.25500000920E-02 0.  1.
       -2   -1    0    0    0  501  0.00000000000E+00  0.00000000000E+00 -0.37855340200E+03  0.37855340201E+03  0.25500000920E-02 0. -1.
    10030    2    1    2    0    0  0.00000000000E+00  0.00000000000E+00  0.57275047735E+03  0.13298572814E+04  0.12001988500E+04 0.  0.
        2    1    3    3  502    0 -0.24246286541E+03  0.27287637379E+03 -0.24138898515E+03  0.43762815110E+03  0.25500000920E-02 0. -1.
       -2    1    3    3    0  502  0.24246286541E+03 -0.27287637379E+03  0.81413946250E+03  0.89222913026E+03  0.25500000920E-02 0.  1.
</event>
<event>
 5   0  0.1455076E-03  0.1197276E+04  0.7818609E-02  0.9115244E-01
       -1   -1    0    0    0  501  0.00000000000E+00  0.00000000000E+00  0.24912780061E+03  0.24912780066E+03  0.50400001928E-02 0. -1.
        1   -1    0    0  501    0  0.00000000000E+00  0.00000000000E+00 -0.14384885337E+04  0.14384885337E+04  0.50400001928E-02 0.  1.
    10030    2    1    2    0    0  0.00000000000E+00  0.00000000000E+00 -0.11893607331E+04  0.16876163344E+04  0.11972760495E+04 0.  0.
        4    1    3    3  502    0 -0.29029506981E+02 -0.59612647353E+03 -0.66013535980E+03  0.88993808261E+03  0.12699999809E+01 0.  1.
       -4    1    3    3    0  502  0.29029506981E+02  0.59612647353E+03 -0.52922537332E+03  0.79767825179E+03  0.12699999809E+01 0. -1.
</event>
<event>
 5   0  0.9678750E-04  0.1179752E+04  0.7818609E-02  0.9130766E-01
        3   -1    0    0  501    0  0.00000000000E+00  0.00000000000E+00  0.50011720265E+03  0.50011721285E+03  0.10100000352E+00 0. -1.
       -3   -1    0    0    0  501  0.00000000000E+00  0.00000000000E+00 -0.69574478141E+03  0.69574478874E+03  0.10100000352E+00 0.  1.
    10030    2    1    2    0    0  0.00000000000E+00  0.00000000000E+00 -0.19562757876E+03  0.11958620016E+04  0.11797524220E+04 0.  0.
        3    1    3    3  502    0  0.44836447733E+02  0.53737565722E+03  0.14455583929E+03  0.55828245977E+03  0.10100000352E+00 0.  1.
       -3    1    3    3    0  502 -0.44836447733E+02 -0.53737565722E+03 -0.34018341805E+03  0.63757954181E+03  0.10100000352E+00 0. -1.
</event>
<event>
 5   0  0.2499890E-03  0.1212527E+04  0.7818609E-02  0.9101961E-01
       -2   -1    0    0    0  501  0.00000000000E+00  0.00000000000E+00  0.17977885247E+03  0.17977885249E+03  0.25500000920E-02 0.  1.
        2   -1    0    0  501    0  0.00000000000E+00  0.00000000000E+00 -0.20444880735E+04  0.20444880735E+04  0.25500000920E-02 0. -1.
    10030    2    1    2    0    0  0.00000000000E+00  0.00000000000E+00 -0.18647092210E+04  0.22242669260E+04  0.12125274756E+04 0.  0.
        5    1    3    3  502    0 -0.53622515896E+03 -0.17708192820E+03 -0.52779356782E+03  0.77297061434E+03  0.46999998093E+01 0.  1.
       -5    1    3    3    0  502  0.53622515896E+03  0.17708192820E+03 -0.13369156532E+04  0.14512963116E+04  0.46999998093E+01 0. -1.
</event>
<event>
 5   0  0.1404833E-03  0.1215686E+04  0.7818609E-02  0.9099236E-01
        1   -1    0    0  501    0  0.00000000000E+00  0.00000000000E+00  0.77982680278E+03  0.77982680280E+03  0.50400001928E-02 0. -1.
       -1   -1    0    0    0  501  0.00000000000E+00  0.00000000000E+00 -0.47378866788E+03  0.47378866791E+03  0.50400001928E-02 0.  1.
    10030    2    1    2    0    0  0.00000000000E+00  0.00000000000E+00  0.30603813490E+03  0.12536154707E+04  0.12156859826E+04 0.  0.
        1    1    3    3  502    0 -0.58053929248E+02 -0.33856736713E+02  0.77598389037E+03  0.77888865408E+03  0.50400001928E-02 0. -1.
       -1    1    3    3    0  502  0.58053929248E+02  0.33856736713E+02 -0.46994575547E+03  0.47472681663E+03  0.50400001928E-02 0.  1.
</event>
<event>
 5   0  0.2579442E-03  0.1203710E+04  0.7818609E-02  0.9109615E-01
        2   -1    0    0  501    0  0.00000000000E+00  0.00000000000E+00  0.17475893676E+04  0.17475893676E+04  0.25500000920E-02 0. -1.
       -2   -1    0    0    0  501  0.00000000000E+00  0.00000000000E+00 -0.20727389847E+03  0.20727389849E+03  0.25500000920E-02 0.  1.
    10030    2    1    2    0    0  0.00000000000E+00  0.00000000000E+00  0.15403154691E+04  0.19548632661E+04  0.12037103658E+04 0.  0.
        4    1    3    3  502    0  0.23974460924E+03  0.10828263040E+02 -0.12620354251E+03  0.27115249580E+03  0.12699999809E+01 0.  1.
       -4    1    3    3    0  502 -0.23974460924E+03 -0.10828263040E+02  0.16665190116E+04  0.16837107703E+04  0.12699999809E+01 0. -1.
</event>
<event>
 5   0  0.1423024E-03  0.1196353E+04  0.7818609E-02  0.9116055E-01
        1   -1    0    0  501    0  0.00000000000E+00  0.00000000000E+00  0.48730866524E+03  0.48730866527E+03  0.50400001928E-02 0. -1.
       -1   -1    0    0    0  501  0.00000000000E+00  0.00000000000E+00 -0.73426777363E+03  0.73426777365E+03  0.50400001928E-02 0.  1.
    10030    2    1    2    0    0  0.00000000000E+00  0.00000000000E+00 -0.24695910839E+03  0.12215764389E+04  0.11963528722E+04 0.  0.
        2    1    3    3  502    0  0.47383608447E+03 -0.54141985018E+02  0.24519114522E+03  0.53625617683E+03  0.25500000920E-02 0. -1.
       -2    1    3    3    0  502 -0.47383608447E+03  0.54141985018E+02 -0.49215025361E+03  0.68532026208E+03  0.25500000920E-02 0.  1.
</event>
<event>
 5   0  0.1423024E-03  0.1120928E+04  0.7818609E-02  0.9185031E-01
        1   -1    0    0  501    0  0.00000000000E+00  0.00000000000E+00  0.48563194715E+03  0.48563194717E+03  0.50400001928E-02 0. -1.
       -1   -1    0    0    0  501  0.00000000000E+00  0.00000000000E+00 -0.64682708762E+03  0.64682708764E+03  0.50400001928E-02 0.  1.
    10030    2    1    2    0    0  0.00000000000E+00  0.00000000000E+00 -0.16119514048E+03  0.11324590348E+04  0.11209280049E+04 0.  0.
        2    1    3    3  502    0 -0.53397065497E+02  0.49262644973E+03 -0.34518445963E+03  0.60389103053E+03  0.25500000920E-02 0.  1.
       -2    1    3    3    0  502  0.53397065497E+02 -0.49262644973E+03  0.18398931915E+03  0.52856800428E+03  0.25500000920E-02 0. -1.
</event>
<event>
 5   0  0.2484507E-03  0.1195717E+04  0.7818609E-02  0.9116613E-01
        2   -1    0    0  501    0  0.00000000000E+00  0.00000000000E+00  0.12495168589E+04  0.12495168589E+04  0.25500000920E-02 0. -1.
       -2   -1    0    0    0  501  0.00000000000E+00  0.00000000000E+00 -0.28605860835E+03  0.28605860836E+03  0.25500000920E-02 0.  1.
    10030    2    1    2    0    0  0.00000000000E+00  0.00000000000E+00  0.96345825054E+03  0.15355754673E+04  0.11957174479E+04 0.  0.
        2    1    3    3  502    0 -0.49066060297E+03  0.24664373179E+03  0.17822114666E+03  0.57735927711E+03  0.25500000920E-02 0.  1.
       -2    1    3    3    0  502  0.49066060297E+03 -0.24664373179E+03  0.78523710388E+03  0.95821619015E+03  0.25500000920E-02 0. -1.
</event>
<event>
 5   0  0.1469851E-03  0.1183940E+04  0.7818609E-02  0.9127032E-01
        1   -1    0    0  501    0  0.00000000000E+00  0.00000000000E+00  0.36107647637E+03  0.36107647641E+03  0.50400001928E-02 0. -1.
       -1   -1    0    0    0  501  0.00000000000E+00  0.00000000000E+00 -0.97050961091E+03  0.97050961092E+03  0.50400001928E-02 0.  1.
    10030    2    1    2    0    0  0.00000000000E+00  0.00000000000E+00 -0.60943313453E+03  0.13315860873E+04  0.11839395096E+04 0.  0.
        5    1    3    3  502    0 -0.62700383550E+02  0.47711304813E+03 -0.69243569127E+03  0.84324224001E+03  0.46999998093E+01 0.  1.
       -5    1    3    3    0  502  0.62700383550E+02 -0.47711304813E+03  0.83002556738E+02  0.48834384732E+03  0.46999998093E+01 0. -1.
</event>
<event>
 5   0  0.1455076E-03  0.1302394E+04  0.7818609E-02  0.9027669E-01
        1   -1    0    0  501    0  0.00000000000E+00  0.00000000000E+00  0.57980080921E+03  0.57980080923E+03  0.50400001928E-02 0. -1.
       -1   -1    0    0    0  501  0.00000000000E+00  0.00000000000E+00 -0.73138504486E+03  0.73138504487E+03  0.50400001928E-02 0.  1.
    10030    2    1    2    0    0  0.00000000000E+00  0.00000000000E+00 -0.15158423564E+03  0.13111858541E+04  0.13023941660E+04 0.  0.
        4    1    3    3  502    0 -0.11548408856E+03 -0.14467737478E+03 -0.70433656724E+03  0.72825801083E+03  0.12699999809E+01 0.  1.
       -4    1    3    3    0  502  0.11548408856E+03  0.14467737478E+03  0.55275233160E+03  0.58292784328E+03  0.12699999809E+01 0. -1.
</event>
<event>
 5   0  0.1469851E-03  0.1191452E+04  0.7818609E-02  0.9120372E-01
       -1   -1    0    0    0  501  0.00000000000E+00  0.00000000000E+00  0.26421613594E+03  0.26421613599E+03  0.50400001928E-02 0. -1.
        1   -1    0    0  501    0  0.00000000000E+00  0.00000000000E+00 -0.13431781235E+04  0.13431781235E+04  0.50400001928E-02 0.  1.
    10030    2    1    2    0    0  0.00000000000E+00  0.00000000000E+00 -0.10789619876E+04  0.16073942595E+04  0.11914517761E+04 0.  0.
        5    1    3    3  502    0  0.46549449680E+03  0.37008637122E+03 -0.49239363269E+03  0.77208977990E+03  0.46999998093E+01 0. -1.
       -5    1    3    3    0  502 -0.46549449680E+03 -0.37008637122E+03 -0.58656835489E+03  0.83530447962E+03  0.46999998093E+01 0.  1.
</event>
<event>
 5   0  0.2484507E-03  0.1179741E+04  0.7818609E-02  0.9130777E-01
       -2   -1    0    0    0  501  0.00000000000E+00  0.00000000000E+00  0.14031003846E+04  0.14031003846E+04  0.25500000920E-02 0. -1.
        2   -1    0    0  501    0  0.00000000000E+00  0.00000000000E+00 -0.24798439863E+03  0.24798439864E+03  0.25500000920E-02 0.  1.
    10030    2    1    2    0    0  0.00000000000E+00  0.00000000000E+00  0.11551159860E+04  0.16510847833E+04  0.11797406581E+04 0.  0.
        2    1    3    3  502    0 -0.48788802668E+03  0.25285680558E+03  0.27747106961E+03  0.61559847724E+03  0.25500000920E-02 0.  1.
       -2    1    3    3    0  502  0.48788802668E+03 -0.25285680558E+03  0.87764491640E+03  0.10354863060E+04  0.25500000920E-02 0. -1.
</event>
<event>
 5   0  0.2484507E-03  0.1203701E+04  0.7818609E-02  0.9109623E-01
        2   -1    0    0  501    0  0.00000000000E+00  0.00000000000E+00  0.11513924745E+04  0.11513924745E+04  0.25500000920E-02 0. -1.
       -2   -1    0    0    0  501  0.00000000000E+00  0.00000000000E+00 -0.31459648993E+03  0.31459648994E+03  0.25500000920E-02 0.  1.
    10030    2    1    2    0    0  0.00000000000E+00  0.00000000000E+00  0.83679598460E+03  0.14659889645E+04  0.12037010111E+04 0.  0.
        2    1    3    3  502    0 -0.30290335939E+03 -0.46480485462E+03  0.70253733707E+03  0.89518305837E+03  0.25500000920E-02 0. -1.
       -2    1    3    3    0  502  0.30290335939E+03  0.46480485462E+03  0.13425864753E+03  0.57080590611E+03  0.25500000920E-02 0.  1.
</event>
<event>
 5   0  0.1404833E-03  0.1169001E+04  0.7818609E-02  0.9140431E-01
        1   -1    0    0  501    0  0.00000000000E+00  0.00000000000E+00  0.32770107279E+03  0.32770107282E+03  0.50400001928E-02 0.  1.
       -1   -1    0    0    0  501  0.00000000000E+00  0.00000000000E+00 -0.10425379608E+04  0.10425379608E+04  0.50400001928E-02 0. -1.
    10030    2    1    2    0    0  0.00000000000E+00  0.00000000000E+00 -0.71483688805E+03  0.13702390337E+04  0.11690009550E+04 0.  0.
        1    1    3    3  502    0  0.44836773107E+02  0.39269035394E+03 -0.86215566168E+03  0.94843472906E+03  0.50400001928E-02 0. -1.
       -1    1    3    3    0  502 -0.44836773107E+02 -0.39269035394E+03  0.14731877363E+03  0.42180430461E+03  0.50400001928E-02 0.  1.
</event>
<event>
 5   0  0.2517023E-03  0.1194104E+04  0.7818609E-02  0.9118033E-01
        2   -1    0    0  501    0  0.00000000000E+00  0.00000000000E+00  0.10070922480E+04  0.10070922480E+04  0.25500000920E-02 0.  1.
       -2   -1    0    0    0  501  0.00000000000E+00  0.00000000000E+00 -0.35396078821E+03  0.35396078822E+03  0.25500000920E-02 0. -1.
    10030    2    1    2    0    0  0.00000000000E+00  0.00000000000E+00  0.65313145980E+03  0.13610530362E+04  0.11941041260E+04 0.  0.
        3    1    3    3  502    0 -0.15205014076E+03  0.17922857816E+03  0.95214343043E+03  0.98072384026E+03  0.10100000352E+00 0.  1.
       -3    1    3    3    0  502  0.15205014076E+03 -0.17922857816E+03 -0.29901197063E+03  0.38032919598E+03  0.10100000352E+00 0. -1.
</event>
<event>
 5   0  0.2517023E-03  0.1188609E+04  0.7818609E-02  0.9122886E-01
       -2   -1    0    0    0  501  0.00000000000E+00  0.00000000000E+00  0.27921192075E+03  0.27921192076E+03  0.25500000920E-02 0.  1.
        2   -1    0    0  501    0  0.00000000000E+00  0.00000000000E+00 -0.12649802422E+04  0.12649802422E+04  0.25500000920E-02 0. -1.
    10030    2    1    2    0    0  0.00000000000E+00  0.00000000000E+00 -0.98576832147E+03  0.15441921630E+04  0.11886085363E+04 0.  0.
        3    1    3    3  502    0  0.29241667079E+03 -0.44358890949E+03 -0.83885824206E+03  0.99295608687E+03  0.10100000352E+00 0. -1.
       -3    1    3    3    0  502 -0.29241667079E+03  0.44358890949E+03 -0.14691007942E+03  0.55123607612E+03  0.10100000352E+00 0.  1.
</event>
<event>
 5   0  0.2579442E-03  0.1199146E+04  0.7818609E-02  0.9113605E-01
        2   -1    0    0  501    0  0.00000000000E+00  0.00000000000E+00  0.15071286762E+04  0.15071286762E+04  0.25500000920E-02 0. -1.
       -2   -1    0    0    0  501  0.00000000000E+00  0.00000000000E+00 -0.23852483930E+03  0.23852483932E+03  0.25500000920E-02 0.  1.
    10030    2    1    2    0    0  0.00000000000E+00  0.00000000000E+00  0.12686038369E+04  0.17456535155E+04  0.11991457381E+04 0.  0.
        4    1    3    3  502    0  0.36233640849E+03 -0.33852958871E+03  0.14365654534E+03  0.51626424559E+03  0.12699999809E+01 0.  1.
       -4    1    3    3    0  502 -0.36233640849E+03  0.33852958871E+03  0.11249472916E+04  0.12293892699E+04  0.12699999809E+01 0. -1.
</event>
<event>
 5   0  0.1455076E-03  0.1203217E+04  0.7818609E-02  0.9110045E-01
        1   -1    0    0  501    0  0.00000000000E+00  0.00000000000E+00  0.54817223706E+03  0.54817223708E+03  0.50400001928E-02 0.  1.
       -1   -1    0    0    0  501  0.00000000000E+00  0.00000000000E+00 -0.66025423701E+03  0.66025423703E+03  0.50400001928E-02 0. -1.
    10030    2    1    2    0    0  0.00000000000E+00  0.00000000000E+00 -0.11208199995E+03  0.12084264741E+04  0.12032174237E+04 0.  0.
        4    1    3    3  502    0  0.14850725548E+03  0.53863115600E+02  0.52696828105E+03  0.55013891180E+03  0.12699999809E+01 0.  1.
       -4    1    3    3    0  502 -0.14850725548E+03 -0.53863115600E+02 -0.63905028099E+03  0.65828756231E+03  0.12699999809E+01 0. -1.
</event>
<event>
 5   0  0.1455076E-03  0.1212839E+04  0.7818609E-02  0.9101692E-01
       -1   -1    0    0    0  501  0.00000000000E+00  0.00000000000E+00  0.26877159695E+03  0.26877159699E+03  0.50400001928E-02 0.  1.
        1   -1    0    0  501    0  0.00000000000E+00  0.00000000000E+00 -0.13682429200E+04  0.13682429200E+04  0.50400001928E-02 0. -1.
    10030    2    1    2    0    0  0.00000000000E+00  0.00000000000E+00 -0.10994713231E+04  0.16370145170E+04  0.12128393705E+04 0.  0.
        4    1    3    3  502    0 -0.51505810752E+03 -0.14500373095E+03 -0.16457000439E+03  0.55981768046E+03  0.12699999809E+01 0.  1.
       -4    1    3    3    0  502  0.51505810752E+03  0.14500373095E+03 -0.93490131867E+03  0.10771968365E+04  0.12699999809E+01 0. -1.
</event>
<event>
 5   0  0.2499890E-03  0.1213020E+04  0.7818609E-02  0.9101536E-01
       -2   -1    0    0    0  501  0.00000000000E+00  0.00000000000E+00  0.20732466989E+03  0.20732466991E+03  0.25500000920E-02 0.  1.
        2   -1    0    0  501    0  0.00000000000E+00  0.00000000000E+00 -0.17742908037E+04  0.17742908037E+04  0.25500000920E-02 0. -1.
    10030    2    1    2    0    0  0.00000000000E+00  0.00000000000E+00 -0.15669661338E+04  0.19816154736E+04  0.12130197941E+04 0.  0.
        5    1    3    3  502    0  0.19918833173E+03  0.32483677625E+03 -0.15542985050E+04  0.16003314830E+04  0.46999998093E+01 0. -1.
       -5    1    3    3    0  502 -0.19918833173E+03 -0.32483677625E+03 -0.12667628801E+02  0.38128399064E+03  0.46999998093E+01 0.  1.
</event>
<event>
 5   0  0.1455076E-03  0.1189111E+04  0.7818609E-02  0.9122442E-01
        1   -1    0    0  501    0  0.00000000000E+00  0.00000000000E+00  0.20501182426E+04  0.20501182426E+04  0.50400001928E-02 0. -1.
       -1   -1    0    0    0  501  0.00000000000E+00  0.00000000000E+00 -0.17242719496E+03  0.17242719503E+03  0.50400001928E-02 0.  1.
    10030    2    1    2    0    0  0.00000000000E+00  0.00000000000E+00  0.18776910476E+04  0.22225454376E+04  0.11891108241E+04 0.  0.
        4    1    3    3  502    0 -0.24851547196E+03 -0.72579968662E+01  0.19482914536E+04  0.19640910924E+04  0.12699999809E+01 0. -1.
       -4    1    3    3    0  502  0.24851547196E+03  0.72579968662E+01 -0.70600405971E+02  0.25845434519E+03  0.12699999809E+01 0.  1.
</event>
<event>
 5   0  0.2517023E-03  0.1216276E+04  0.7818609E-02  0.9098728E-01
        2   -1    0    0  501    0  0.00000000000E+00  0.00000000000E+00  0.14852014390E+04  0.14852014390E+04  0.25500000920E-02 0. -1.
       -2   -1    0    0    0  501  0.00000000000E+00  0.00000000000E+00 -0.24901126466E+03  0.24901126468E+03  0.25500000920E-02 0.  1.
    10030    2    1    2    0    0  0.00000000000E+00  0.00000000000E+00  0.12361901743E+04  0.17342127037E+04  0.12162761012E+04 0.  0.
        3    1    3    3  502    0 -0.49007966389E+03 -0.11203463202E+03  0.13017081234E+03  0.51930172955E+03  0.10100000352E+00 0.  1.
       -3    1    3    3    0  502  0.49007966389E+03  0.11203463202E+03  0.11060193620E+04  0.12149109741E+04  0.10100000352E+00 0. -1.
</event>
<event>
 5   0  0.2517023E-03  0.1212243E+04  0.7818609E-02  0.9102207E-01
        2   -1    0    0  501    0  0.00000000000E+00  0.00000000000E+00  0.94936917370E+03  0.94936917371E+03  0.25500000920E-02 0.  1.
       -2   -1    0    0    0  501  0.00000000000E+00  0.00000000000E+00 -0.38697618975E+03  0.38697618976E+03  0.25500000920E-02 0. -1.
    10030    2    1    2    0    0  0.00000000000E+00  0.00000000000E+00  0.56239298395E+03  0.13363453635E+04  0.12122429880E+04 0.  0.
        3    1    3    3  502    0  0.52601352314E+03  0.23847441805E+03  0.48393440403E+03  0.75349372406E+03  0.10100000352E+00 0. -1.
       -3    1    3    3    0  502 -0.52601352314E+03 -0.23847441805E+03  0.78458579924E+02  0.58285163941E+03  0.10100000352E+00 0.  1.
</event>
<event>
 5   0  0.1455076E-03  0.1188326E+04  0.7818609E-02  0.9123136E-01
       -1   -1    0    0    0  501  0.00000000000E+00  0.00000000000E+00  0.16892128411E+04  0.16892128411E+04  0.50400001928E-02 0.  1.
        1   -1    0    0  501    0  0.00000000000E+00  0.00000000000E+00 -0.20899074881E+03  0.20899074887E+03  0.50400001928E-02 0. -1.
    10030    2    1    2    0    0  0.00000000000E+00  0.00000000000E+00  0.14802220923E+04  0.18982035900E+04  0.11883263131E+04 0.  0.
        4    1    3    3  502    0 -0.40774832550E+03 -0.16841736889E+03  0.10435323203E+03  0.45333686926E+03  0.12699999809E+01 0. -1.
       -4    1    3    3    0  502  0.40774832550E+03  0.16841736889E+03  0.13758688603E+04  0.14448667207E+04  0.12699999809E+01 0.  1.
</event>
<event>
 5   0  0.1403154E-03  0.1233252E+04  0.7818609E-02  0.9084239E-01
        1   -1    0    0  501    0  0.00000000000E+00  0.00000000000E+00  0.10766953192E+04  0.10766953193E+04  0.50400001928E-02 0.  1.
       -1   -1    0    0    0  501  0.00000000000E+00  0.00000000000E+00 -0.35314326780E+03  0.35314326784E+03  0.50400001928E-02 0. -1.
    10030    2    1    2    0    0  0.00000000000E+00  0.00000000000E+00  0.72355205145E+03  0.14298385871E+04  0.12332521291E+04 0.  0.
        3    1    3    3  502    0  0.36912520147E+03  0.46814980305E+03  0.17915579848E+03  0.62250659658E+03  0.10100000352E+00 0. -1.
       -3    1    3    3    0  502 -0.36912520147E+03 -0.46814980305E+03  0.54439625297E+03  0.80733199051E+03  0.10100000352E+00 0.  1.
</event>
<event>
 5   0  0.1455076E-03  0.1197901E+04  0.7818609E-02  0.9114696E-01
        1   -1    0    0  501    0  0.00000000000E+00  0.00000000000E+00  0.58804677701E+03  0.58804677703E+03  0.50400001928E-02 0.  1.
       -1   -1    0    0    0  501  0.00000000000E+00  0.00000000000E+00 -0.61005636742E+03  0.61005636744E+03  0.50400001928E-02 0. -1.
    10030    2    1    2    0    0  0.00000000000E+00  0.00000000000E+00 -0.22009590410E+02  0.11981031445E+04  0.11979009653E+04 0.  0.
        4    1    3    3  502    0 -0.34737074450E+03 -0.42447159964E+03 -0.25166438887E+03  0.60347257648E+03  0.12699999809E+01 0. -1.
       -4    1    3    3    0  502  0.34737074450E+03  0.42447159964E+03  0.22965479846E+03  0.59463056799E+03  0.12699999809E+01 0.  1.
</event>
<event>
 5   0  0.2499890E-03  0.1236872E+04  0.7818609E-02  0.9081181E-01
        2   -1    0    0  501    0  0.00000000000E+00  0.00000000000E+00  0.89091589427E+03  0.89091589428E+03  0.25500000920E-02 0. -1.
       -2   -1    0    0    0  501  0.00000000000E+00  0.00000000000E+00 -0.42929213141E+03  0.42929213142E+03  0.25500000920E-02 0.  1.
    10030    2    1    2    0    0  0.00000000000E+00  0.00000000000E+00  0.46162376286E+03  0.13202080257E+04  0.12368721570E+04 0.  0.
        5    1    3    3  502    0  0.45605169980E+03 -0.27375687752E+03 -0.10590281631E+03  0.54236839637E+03  0.46999998093E+01 0.  1.
       -5    1    3    3    0  502 -0.45605169980E+03  0.27375687752E+03  0.56752657917E+03  0.77783962933E+03  0.46999998093E+01 0. -1.
</event>
<event>
 5   0  0.1455076E-03  0.1204715E+04  0.7818609E-02  0.9108740E-01
        1   -1    0    0  501    0  0.00000000000E+00  0.00000000000E+00  0.73342559298E+03  0.73342559300E+03  0.50400001928E-02 0.  1.
       -1   -1    0    0    0  501  0.00000000000E+00  0.00000000000E+00 -0.49471194151E+03  0.49471194154E+03  0.50400001928E-02 0. -1.
    10030    2    1    2    0    0  0.00000000000E+00  0.00000000000E+00  0.23871365147E+03  0.12281375345E+04  0.12047147365E+04 0.  0.
        4    1    3    3  502    0 -0.29267320784E+03  0.26912950248E+03  0.58064135972E+03  0.70372885205E+03  0.12699999809E+01 0.  1.
       -4    1    3    3    0  502  0.29267320784E+03 -0.26912950248E+03 -0.34192770825E+03  0.52440868248E+03  0.12699999809E+01 0. -1.
</event>
<event>
 5   0  0.9678750E-04  0.1200057E+04  0.7818609E-02  0.9112807E-01
       -3   -1    0    0    0  501  0.00000000000E+00  0.00000000000E+00  0.64405813909E+03  0.64405814701E+03  0.10100000352E+00 0.  1.
        3   -1    0    0  501    0  0.00000000000E+00  0.00000000000E+00 -0.55900894065E+03  0.55900894978E+03  0.10100000352E+00 0. -1.
    10030    2    1    2    0    0  0.00000000000E+00  0.00000000000E+00  0.85049198435E+02  0.12030670968E+04  0.12000571125E+04 0.  0.
        1    1    3    3  502    0  0.16702181674E+03  0.35005388389E+03 -0.41644491731E+03  0.56908732025E+03  0.50400001928E-02 0. -1.
       -1    1    3    3    0  502 -0.16702181674E+03 -0.35005388389E+03  0.50149411574E+03  0.63397977653E+03  0.50400001928E-02 0.  1.
</event>
<event>
 5   0  0.1423024E-03  0.1182353E+04  0.7818609E-02  0.9128445E-01
        1   -1    0    0  501    0  0.00000000000E+00  0.00000000000E+00  0.11256801066E+04  0.11256801066E+04  0.50400001928E-02 0. -1.
       -1   -1    0    0    0  501  0.00000000000E+00  0.00000000000E+00 -0.31046969187E+03  0.31046969192E+03  0.50400001928E-02 0.  1.
    10030    2    1    2    0    0  0.00000000000E+00  0.00000000000E+00  0.81521041472E+03  0.14361497985E+04  0.11823528338E+04 0.  0.
        2    1    3    3  502    0  0.49035581358E+03  0.33007939710E+03  0.41902060249E+03  0.72455468919E+03  0.25500000920E-02 0.  1.
       -2    1    3    3    0  502 -0.49035581358E+03 -0.33007939710E+03  0.39618981223E+03  0.71159510933E+03  0.25500000920E-02 0. -1.
</event>
<event>
 5   0  0.1469851E-03  0.1179892E+04  0.7818609E-02  0.9130641E-01
        1   -1    0    0  501    0  0.00000000000E+00  0.00000000000E+00  0.89524277175E+03  0.89524277177E+03  0.50400001928E-02 0. -1.
       -1   -1    0    0    0  501  0.00000000000E+00  0.00000000000E+00 -0.38876189013E+03  0.38876189017E+03  0.50400001928E-02 0.  1.
    10030    2    1    2    0    0  0.00000000000E+00  0.00000000000E+00  0.50648088162E+03  0.12840046619E+04  0.11798919817E+04 0.  0.
        5    1    3    3  502    0 -0.22024255960E+03 -0.31985751909E+02 -0.34130506887E+03  0.40748142708E+03  0.46999998093E+01 0.  1.
       -5    1    3    3    0  502  0.22024255960E+03  0.31985751909E+02  0.84778595049E+03  0.87652323485E+03  0.46999998093E+01 0. -1.
</event>
<event>
 5   0  0.2484507E-03  0.1182207E+04  0.7818609E-02  0.9128574E-01
        2   -1    0    0  501    0  0.00000000000E+00  0.00000000000E+00  0.11971464835E+04  0.11971464835E+04  0.25500000920E-02 0.  1.
       -2   -1    0    0    0  501  0.00000000000E+00  0.00000000000E+00 -0.29186373394E+03  0.29186373395E+03  0.25500000920E-02 0. -1.
    10030    2    1    2    0    0  0.00000000000E+00  0.00000000000E+00  0.90528274955E+03  0.14890102174E+04  0.11822074991E+04 0.  0.
        2    1    3    3  502    0  0.58780431866E+03 -0.34825062185E+02  0.38747503213E+03  0.70488552441E+03  0.25500000920E-02 0. -1.
       -2    1    3    3    0  502 -0.58780431866E+03  0.34825062185E+02  0.51780771741E+03  0.78412469302E+03  0.25500000920E-02 0.  1.
</event>
<event>
 5   0  0.2579442E-03  0.1192530E+04  0.7818609E-02  0.9119420E-01
       -2   -1    0    0    0  501  0.00000000000E+00  0.00000000000E+00  0.64625275862E+03  0.64625275863E+03  0.25500000920E-02 0. -1.
        2   -1    0    0  501    0  0.00000000000E+00  0.00000000000E+00 -0.55014426361E+03  0.55014426362E+03  0.25500000920E-02 0.  1.
    10030    2    1    2    0    0  0.00000000000E+00  0.00000000000E+00  0.96108495009E+02  0.11963970222E+04  0.11925304994E+04 0.  0.
        4    1    3    3  502    0  0.38359687237E+02 -0.54429876077E+03 -0.19313744265E+03  0.57882319514E+03  0.12699999809E+01 0. -1.
       -4    1    3    3    0  502 -0.38359687237E+02  0.54429876077E+03  0.28924593766E+03  0.61757382711E+03  0.12699999809E+01 0.  1.
</event>
<event>
 5   0  0.2517023E-03  0.1242319E+04  0.7818609E-02  0.9076600E-01
       -2   -1    0    0    0  501  0.00000000000E+00  0.00000000000E+00  0.38142081071E+03  0.38142081072E+03  0.25500000920E-02 0. -1.
        2   -1    0    0  501    0  0.00000000000E+00  0.00000000000E+00 -0.10115839484E+04  0.10115839484E+04  0.25500000920E-02 0.  1.
    10030    2    1    2    0    0  0.00000000000E+00  0.00000000000E+00 -0.63016313771E+03  0.13930047591E+04  0.12423190729E+04 0.  0.
        3    1    3    3  502    0 -0.56089915622E+01  0.80885278877E+02 -0.10056249792E+04  0.10088882485E+04  0.10100000352E+00 0.  1.
       -3    1    3    3    0  502  0.56089915622E+01 -0.80885278877E+02  0.37546184146E+03  0.38411651060E+03  0.10100000352E+00 0. -1.
</event>
<event>
 5   0  0.1455076E-03  0.1202291E+04  0.7818609E-02  0.9110853E-01
       -1   -1    0    0    0  501  0.00000000000E+00  0.00000000000E+00  0.35157573087E+03  0.35157573091E+03  0.50400001928E-02 0.  1.
        1   -1    0    0  501    0  0.00000000000E+00  0.00000000000E+00 -0.10278758628E+04  0.10278758628E+04  0.50400001928E-02 0. -1.
    10030    2    1    2    0    0  0.00000000000E+00  0.00000000000E+00 -0.67630013194E+03  0.13794515937E+04  0.12022914917E+04 0.  0.
        4    1    3    3  502    0 -0.93451760972E+02 -0.56978054594E+03 -0.53010961492E+03  0.78383730384E+03  0.12699999809E+01 0. -1.
       -4    1    3    3    0  502  0.93451760972E+02  0.56978054594E+03 -0.14619051702E+03  0.59561428990E+03  0.12699999809E+01 0.  1.
</event>
<event>
 5   0  0.1403154E-03  0.1196665E+04  0.7818609E-02  0.9115780E-01
       -1   -1    0    0    0  501  0.00000000000E+00  0.00000000000E+00  0.40141980542E+03  0.40141980545E+03  0.50400001928E-02 0. -1.
        1   -1    0    0  501    0  0.00000000000E+00  0.00000000000E+00 -0.89183936915E+03  0.89183936916E+03  0.50400001928E-02 0.  1.
    10030    2    1    2    0    0  0.00000000000E+00  0.00000000000E+00 -0.49041956373E+03  0.12932591746E+04  0.11966653435E+04 0.  0.
        3    1    3    3  502    0  0.50893548826E+03 -0.29560814715E+03 -0.36161918001E+03  0.69077344290E+03  0.10100000352E+00 0.  1.
       -3    1    3    3    0  502 -0.50893548826E+03  0.29560814715E+03 -0.12880038372E+03  0.60248573171E+03  0.10100000352E+00 0. -1.
</event>
<event>
 5   0  0.1469851E-03  0.1194656E+04  0.7818609E-02  0.9117547E-01
       -1   -1    0    0    0  501  0.00000000000E+00  0.00000000000E+00  0.34267306041E+03  0.34267306044E+03  0.50400001928E-02 0.  1.
        1   -1    0    0  501    0  0.00000000000E+00  0.00000000000E+00 -0.10412280032E+04  0.10412280032E+04  0.50400001928E-02 0. -1.
    10030    2    1    2    0    0  0.00000000000E+00  0.00000000000E+00 -0.69855494277E+03  0.13839010636E+04  0.11946560785E+04 0.  0.
        5    1    3    3  502    0  0.42359773912E+03 -0.95710265016E+02  0.12578797990E+03  0.45215064448E+03  0.46999998093E+01 0.  1.
       -5    1    3    3    0  502 -0.42359773912E+03  0.95710265016E+02 -0.82434292267E+03  0.93175041914E+03  0.46999998093E+01 0. -1.
</event>
<event>
 5   0  0.1469851E-03  0.1199811E+04  0.7818609E-02  0.9113022E-01
       -1   -1    0    0    0  501  0.00000000000E+00  0.00000000000E+00  0.33520839544E+03  0.33520839548E+03  0.50400001928E-02 0. -1.
        1   -1    0    0  501    0  0.00000000000E+00  0.00000000000E+00 -0.10736202740E+04  0.10736202740E+04  0.50400001928E-02 0.  1.
    10030    2    1    2    0    0  0.00000000000E+00  0.00000000000E+00 -0.73841187858E+03  0.14088286695E+04  0.11998108674E+04 0.  0.
        5    1    3    3  502    0  0.67095878288E+02  0.48804103589E+03 -0.77115351350E+03  0.91508783238E+03  0.46999998093E+01 0.  1.
       -5    1    3    3    0  502 -0.67095878288E+02 -0.48804103589E+03  0.32741634915E+02  0.49374083713E+03  0.46999998093E+01 0. -1.
</event>
<event>
 5   0  0.2484507E-03  0.1187747E+04  0.7818609E-02  0.9123649E-01
       -2   -1    0    0    0  501  0.00000000000E+00  0.00000000000E+00  0.58551675918E+03  0.58551675918E+03  0.25500000920E-02 0. -1.
        2   -1    0    0  501    0  0.00000000000E+00  0.00000000000E+00 -0.60234998516E+03  0.60234998516E+03  0.25500000920E-02 0.  1.
    10030    2    1    2    0    0  0.00000000000E+00  0.00000000000E+00 -0.16833225979E+02  0.11878667443E+04  0.11877474668E+04 0.  0.
        2    1    3    3  502    0  0.51756017378E+02  0.26107317631E+03 -0.53936362878E+03  0.60145740729E+03  0.25500000920E-02 0.  1.
       -2    1    3    3    0  502 -0.51756017378E+02 -0.26107317631E+03  0.52253040280E+03  0.58640933705E+03  0.25500000920E-02 0. -1.
</event>
<event>
 5   0  0.2484507E-03  0.1171487E+04  0.7818609E-02  0.9138187E-01
        2   -1    0    0  501    0  0.00000000000E+00  0.00000000000E+00  0.18186052030E+04  0.18186052030E+04  0.25500000920E-02 0. -1.
       -2   -1    0    0    0  501  0.00000000000E+00  0.00000000000E+00 -0.18865856706E+03  0.18865856708E+03  0.25500000920E-02 0.  1.
    10030    2    1    2    0    0  0.00000000000E+00  0.00000000000E+00  0.16299466360E+04  0.20072637701E+04  0.11714870066E+04 0.  0.
        2    1    3    3  502    0 -0.54158412060E+03  0.20022534992E+03  0.64629026234E+03  0.86665717192E+03  0.25500000920E-02 0.  1.
       -2    1    3    3    0  502  0.54158412060E+03 -0.20022534992E+03  0.98365637365E+03  0.11406065982E+04  0.25500000920E-02 0. -1.
</event>
<event>
 5   0  0.1403154E-03  0.1196939E+04  0.7818609E-02  0.9115540E-01
        1   -1    0    0  501    0  0.00000000000E+00  0.00000000000E+00  0.70727565089E+03  0.70727565090E+03  0.50400001928E-02 0. -1.
       -1   -1    0    0    0  501  0.00000000000E+00  0.00000000000E+00 -0.50640162208E+03  0.50640162211E+03  0.50400001928E-02 0.  1.
    10030    2    1    2    0    0  0.00000000000E+00  0.00000000000E+00  0.20087402880E+03  0.12136772730E+04  0.11969386566E+04 0.  0.
        3    1    3    3  502    0  0.32233419330E+03  0.25136018749E+03 -0.34280791192E+03  0.53347778838E+03  0.10100000352E+00 0.  1.
       -3    1    3    3    0  502 -0.32233419330E+03 -0.25136018749E+03  0.54368194072E+03  0.68019948463E+03  0.10100000352E+00 0. -1.
</event>
<event>
 5   0  0.1404833E-03  0.1193190E+04  0.7818609E-02  0.9118838E-01
       -1   -1    0    0    0  501  0.00000000000E+00  0.00000000000E+00  0.84354493414E+03  0.84354493415E+03  0.50400001928E-02 0.  1.
        1   -1    0    0  501    0  0.00000000000E+00  0.00000000000E+00 -0.42194048000E+03  0.42194048003E+03  0.50400001928E-02 0. -1.
    10030    2    1    2    0    0  0.00000000000E+00  0.00000000000E+00  0.42160445414E+03  0.12654854142E+04  0.11931902689E+04 0.  0.
        1    1    3    3  502    0  0.38650414418E+03  0.40816937500E+02  0.69085740648E+03  0.79267612047E+03  0.50400001928E-02 0.  1.
       -1    1    3    3    0  502 -0.38650414418E+03 -0.40816937500E+02 -0.26925295234E+03  0.47280929372E+03  0.50400001928E-02 0. -1.
</event>
<event>
 5   0  0.2580244E-03  0.1212518E+04  0.7818609E-02  0.9101969E-01
       -2   -1    0    0    0  501  0.00000000000E+00  0.00000000000E+00  0.68695096551E+03  0.68695096551E+03  0.25500000920E-02 0. -1.
        2   -1    0    0  501    0  0.00000000000E+00  0.00000000000E+00 -0.53504573311E+03  0.53504573312E+03  0.25500000920E-02 0.  1.
    10030    2    1    2    0    0  0.00000000000E+00  0.00000000000E+00  0.15190523240E+03  0.12219966986E+04  0.12125183429E+04 0.  0.
        1    1    3    3  502    0 -0.15018593329E+03 -0.41328558544E+03  0.49657518224E+03  0.66328553529E+03  0.50400001928E-02 0. -1.
       -1    1    3    3    0  502  0.15018593329E+03  0.41328558544E+03 -0.34466994984E+03  0.55871116334E+03  0.50400001928E-02 0.  1.
</event>
<event>
 5   0  0.2499890E-03  0.1202654E+04  0.7818609E-02  0.9110537E-01
       -2   -1    0    0    0  501  0.00000000000E+00  0.00000000000E+00  0.25281424730E+03  0.25281424731E+03  0.25500000920E-02 0.  1.
        2   -1    0    0  501    0  0.00000000000E+00  0.00000000000E+00 -0.14302755091E+04  0.14302755091E+04  0.25500000920E-02 0. -1.
    10030    2    1    2    0    0  0.00000000000E+00  0.00000000000E+00 -0.11774612618E+04  0.16830897564E+04  0.12026537761E+04 0.  0.
        5    1    3    3  502    0 -0.61984193446E+02 -0.55705494257E+02 -0.14221285860E+04  0.14245760588E+04  0.46999998093E+01 0. -1.
       -5    1    3    3    0  502  0.61984193446E+02  0.55705494257E+02  0.24466732417E+03  0.25851369759E+03  0.46999998093E+01 0.  1.
</event>
<event>
 5   0  0.1423024E-03  0.1195206E+04  0.7818609E-02  0.9117063E-01
        1   -1    0    0  501    0  0.00000000000E+00  0.00000000000E+00  0.13584736896E+04  0.13584736896E+04  0.50400001928E-02 0. -1.
       -1   -1    0    0    0  501  0.00000000000E+00  0.00000000000E+00 -0.26289024998E+03  0.26289025003E+03  0.50400001928E-02 0.  1.
    10030    2    1    2    0    0  0.00000000000E+00  0.00000000000E+00  0.10955834396E+04  0.16213639396E+04  0.11952062381E+04 0.  0.
        2    1    3    3  502    0 -0.36527470419E+03  0.27100691223E+03  0.21946299072E+02  0.45535919454E+03  0.25500000920E-02 0.  1.
       -2    1    3    3    0  502  0.36527470419E+03 -0.27100691223E+03  0.10736371405E+04  0.11660047450E+04  0.25500000920E-02 0. -1.
</event>
<event>
 5   0  0.1423024E-03  0.1198153E+04  0.7818609E-02  0.9114474E-01
       -1   -1    0    0    0  501  0.00000000000E+00  0.00000000000E+00  0.98120002536E+03  0.98120002537E+03  0.50400001928E-02 0.  1.
        1   -1    0    0  501    0  0.00000000000E+00  0.00000000000E+00 -0.36576928862E+03  0.36576928866E+03  0.50400001928E-02 0. -1.
    10030    2    1    2    0    0  0.00000000000E+00  0.00000000000E+00  0.61543073673E+03  0.13469693140E+04  0.11981533046E+04 0.  0.
        2    1    3    3  502    0 -0.38360680402E+03 -0.18181927250E+03 -0.16749267075E+03  0.45636194266E+03  0.25500000920E-02 0. -1.
       -2    1    3    3    0  502  0.38360680402E+03  0.18181927250E+03  0.78292340749E+03  0.89060737137E+03  0.25500000920E-02 0.  1.
</event>
<event>
 5   0  0.1403154E-03  0.1146424E+04  0.7818609E-02  0.9161089E-01
       -1   -1    0    0    0  501  0.00000000000E+00  0.00000000000E+00  0.58861164259E+03  0.58861164261E+03  0.50400001928E-02 0. -1.
        1   -1    0    0  501    0  0.00000000000E+00  0.00000000000E+00 -0.55821527688E+03  0.55821527690E+03  0.50400001928E-02 0.  1.
    10030    2    1    2    0    0  0.00000000000E+00  0.00000000000E+00  0.30396365713E+02  0.11468269195E+04  0.11464240246E+04 0.  0.
        3    1    3    3  502    0  0.26670827603E+01 -0.28563176754E+03 -0.48194667168E+03  0.56023675754E+03  0.10100000352E+00 0.  1.
       -3    1    3    3    0  502 -0.26670827603E+01  0.28563176754E+03  0.51234303739E+03  0.58659016197E+03  0.10100000352E+00 0. -1.
</event>
<event>
 5   0  0.2517023E-03  0.1192372E+04  0.7818609E-02  0.9119560E-01
       -2   -1    0    0    0  501  0.00000000000E+00  0.00000000000E+00  0.15476554807E+04  0.15476554807E+04  0.25500000920E-02 0. -1.
        2   -1    0    0  501    0  0.00000000000E+00  0.00000000000E+00 -0.22966199152E+03  0.22966199154E+03  0.25500000920E-02 0.  1.
    10030    2    1    2    0    0  0.00000000000E+00  0.00000000000E+00  0.13179934892E+04  0.17773174723E+04  0.11923718210E+04 0.  0.
        3    1    3    3  502    0  0.32825647690E+03  0.48368630711E+03  0.48432044509E+03  0.75912519524E+03  0.10100000352E+00 0.  1.
       -3    1    3    3    0  502 -0.32825647690E+03 -0.48368630711E+03  0.83367304410E+03  0.10181922770E+04  0.10100000352E+00 0. -1.
</event>
<event>
 5   0  0.1469851E-03  0.1209408E+04  0.7818609E-02  0.9104661E-01
        1   -1    0    0  501    0  0.00000000000E+00  0.00000000000E+00  0.42479987305E+03  0.42479987308E+03  0.50400001928E-02 0.  1.
       -1   -1    0    0    0  501  0.00000000000E+00  0.00000000000E+00 -0.86079874783E+03  0.86079874784E+03  0.50400001928E-02 0. -1.
    10030    2    1    2    0    0  0.00000000000E+00  0.00000000000E+00 -0.43599887478E+03  0.12855986209E+04  0.12094084485E+04 0.  0.
        5    1    3    3  502    0 -0.90238165752E+02 -0.53257062283E+03 -0.50691341140E+03  0.74078181101E+03  0.46999998093E+01 0. -1.
       -5    1    3    3    0  502  0.90238165752E+02  0.53257062283E+03  0.70914536628E+02  0.54481680991E+03  0.46999998093E+01 0.  1.
</event>
<event>
 5   0  0.1423024E-03  0.1174943E+04  0.7818609E-02  0.9135076E-01
       -1   -1    0    0    0  501  0.00000000000E+00  0.00000000000E+00  0.34924534307E+03  0.34924534310E+03  0.50400001928E-02 0.  1.
        1   -1    0    0  501    0  0.00000000000E+00  0.00000000000E+00 -0.98819632718E+03  0.98819632719E+03  0.50400001928E-02 0. -1.
    10030    2    1    2    0    0  0.00000000000E+00  0.00000000000E+00 -0.63895098411E+03  0.13374416703E+04  0.11749433439E+04 0.  0.
        2    1    3    3  502    0 -0.38805417300E+03 -0.95796725089E+01 -0.82142090181E+03  0.90852083589E+03  0.25500000920E-02 0. -1.
       -2    1    3    3    0  502  0.38805417300E+03  0.95796725089E+01  0.18246991770E+03  0.42892083440E+03  0.25500000920E-02 0.  1.
</event>
<event>
 5   0  0.2517023E-03  0.1206918E+04  0.7818609E-02  0.9106823E-01
       -2   -1    0    0    0  501  0.00000000000E+00  0.00000000000E+00  0.31211730057E+03  0.31211730058E+03  0.25500000920E-02 0. -1.
        2   -1    0    0  501    0  0.00000000000E+00  0.00000000000E+00 -0.11667492594E+04  0.11667492594E+04  0.25500000920E-02 0.  1.
    10030    2    1    2    0    0  0.00000000000E+00  0.00000000000E+00 -0.85463195882E+03  0.14788665600E+04  0.12069177756E+04 0.  0.
        3    1    3    3  502    0  0.41032011114E+02  0.59924000893E+03 -0.49866320436E+03  0.78066459880E+03  0.10100000352E+00 0.  1.
       -3    1    3    3    0  502 -0.41032011114E+02 -0.59924000893E+03 -0.35596875446E+03  0.69820196118E+03  0.10100000352E+00 0. -1.
</event>
<event>
 5   0  0.2499890E-03  0.1188025E+04  0.7818609E-02  0.9123403E-01
       -2   -1    0    0    0  501  0.00000000000E+00  0.00000000000E+00  0.16603471338E+03  0.16603471340E+03  0.25500000920E-02 0.  1.
        2   -1    0    0  501    0  0.00000000000E+00  0.00000000000E+00 -0.21251628047E+04  0.21251628047E+04  0.25500000920E-02 0. -1.
    10030    2    1    2    0    0  0.00000000000E+00  0.00000000000E+00 -0.19591280913E+04  0.22911975181E+04  0.11880249108E+04 0.  0.
        5    1    3    3  502    0  0.23066466824E+03 -0.27408474428E+03 -0.65776521560E+02  0.36424892177E+03  0.46999998093E+01 0.  1.
       -5    1    3    3    0  502 -0.23066466824E+03  0.27408474428E+03 -0.18933515698E+04  0.19269485964E+04  0.46999998093E+01 0. -1.
</event>
<event>
 5   0  0.2499890E-03  0.1199436E+04  0.7818609E-02  0.9113350E-01
        2   -1    0    0  501    0  0.00000000000E+00  0.00000000000E+00  0.64436154560E+03  0.64436154560E+03  0.25500000920E-02 0. -1.
       -2   -1    0    0    0  501  0.00000000000E+00  0.00000000000E+00 -0.55816765939E+03  0.55816765939E+03  0.25500000920E-02 0.  1.
    10030    2    1    2    0    0  0.00000000000E+00  0.00000000000E+00  0.86193886213E+02  0.12025292050E+04  0.11994361604E+04 0.  0.
        5    1    3    3  502    0 -0.56924392662E+03  0.65087649594E+02 -0.13446039187E+03  0.58853779581E+03  0.46999998093E+01 0.  1.
       -5    1    3    3    0  502  0.56924392662E+03 -0.65087649594E+02  0.22065427809E+03  0.61399140919E+03  0.46999998093E+01 0. -1.
</event>
<event>
 5   0  0.2499890E-03  0.1195798E+04  0.7818609E-02  0.9116542E-01
       -2   -1    0    0    0  501  0.00000000000E+00  0.00000000000E+00  0.60883329176E+03  0.60883329177E+03  0.25500000920E-02 0. -1.
        2   -1    0    0  501    0  0.00000000000E+00  0.00000000000E+00 -0.58716112776E+03  0.58716112776E+03  0.25500000920E-02 0.  1.
    10030    2    1    2    0    0  0.00000000000E+00  0.00000000000E+00  0.21672164004E+02  0.11959944195E+04  0.11957980469E+04 0.  0.
        5    1    3    3  502    0  0.12645643631E+02  0.22572936444E+03 -0.54274148106E+03  0.58796603944E+03  0.46999998093E+01 0.  1.
       -5    1    3    3    0  502 -0.12645643631E+02 -0.22572936444E+03  0.56441364506E+03  0.60802838010E+03  0.46999998093E+01 0. -1.
</event>
<event>
 5   0  0.2484507E-03  0.1252569E+04  0.7818609E-02  0.9068048E-01
       -2   -1    0    0    0  501  0.00000000000E+00  0.00000000000E+00  0.35983222965E+03  0.35983222965E+03  0.25500000920E-02 0. -1.
        2   -1    0    0  501    0  0.00000000000E+00  0.00000000000E+00 -0.10900419201E+04  0.10900419201E+04  0.25500000920E-02 0.  1.
    10030    2    1    2    0    0  0.00000000000E+00  0.00000000000E+00 -0.73020969044E+03  0.14498741497E+04  0.12525689035E+04 0.  0.
        2    1    3    3  502    0 -0.21796175703E+03 -0.76382469391E+02  0.30873772766E+03  0.38556529103E+03  0.25500000920E-02 0. -1.
       -2    1    3    3    0  502  0.21796175703E+03  0.76382469391E+02 -0.10389474181E+04  0.10643088587E+04  0.25500000920E-02 0.  1.
</event>
<event>
 5   0  0.2579442E-03  0.1197809E+04  0.7818609E-02  0.9114776E-01
        2   -1    0    0  501    0  0.00000000000E+00  0.00000000000E+00  0.12888015438E+04  0.12888015438E+04  0.25500000920E-02 0. -1.
       -2   -1    0    0    0  501  0.00000000000E+00  0.00000000000E+00 -0.27831038714E+03  0.27831038715E+03  0.25500000920E-02 0.  1.
    10030    2    1    2    0    0  0.00000000000E+00  0.00000000000E+00  0.10104911566E+04  0.15671119309E+04  0.11978094283E+04 0.  0.
        4    1    3    3  502    0  0.13150432737E+03 -0.42938905378E+03 -0.13178881513E+02  0.44927012302E+03  0.12699999809E+01 0.  1.
       -4    1    3    3    0  502 -0.13150432737E+03  0.42938905378E+03  0.10236700381E+04  0.11178418079E+04  0.12699999809E+01 0. -1.
</event>
<event>
 5   0  0.2517023E-03  0.1207818E+04  0.7818609E-02  0.9106041E-01
       -2   -1    0    0    0  501  0.00000000000E+00  0.00000000000E+00  0.28331720521E+03  0.28331720522E+03  0.25500000920E-02 0. -1.
        2   -1    0    0  501    0  0.00000000000E+00  0.00000000000E+00 -0.12872702268E+04  0.12872702268E+04  0.25500000920E-02 0.  1.
    10030    2    1    2    0    0  0.00000000000E+00  0.00000000000E+00 -0.10039530216E+04  0.15705874320E+04  0.12078175409E+04 0.  0.
        3    1    3    3  502    0 -0.25506821710E+03 -0.27775965312E+03 -0.11153450155E+04  0.11773719608E+04  0.10100000352E+00 0.  1.
       -3    1    3    3    0  502  0.25506821710E+03  0.27775965312E+03  0.11139199393E+03  0.39321547120E+03  0.10100000352E+00 0. -1.
</event>
<event>
 5   0  0.2499890E-03  0.1192224E+04  0.7818609E-02  0.9119691E-01
       -2   -1    0    0    0  501  0.00000000000E+00  0.00000000000E+00  0.90961497412E+03  0.90961497413E+03  0.25500000920E-02 0.  1.
        2   -1    0    0  501    0  0.00000000000E+00  0.00000000000E+00 -0.39065901574E+03  0.39065901575E+03  0.25500000920E-02 0. -1.
    10030    2    1    2    0    0  0.00000000000E+00  0.00000000000E+00  0.51895595838E+03  0.13002739899E+04  0.11922236208E+04 0.  0.
        5    1    3    3  502    0  0.51695122269E+02 -0.57243990958E+03  0.43180901810E+03  0.71891651383E+03  0.46999998093E+01 0.  1.
       -5    1    3    3    0  502 -0.51695122269E+02  0.57243990958E+03  0.87146940285E+02  0.58135747604E+03  0.46999998093E+01 0. -1.
</event>
<event>
 5   0  0.2580244E-03  0.1195715E+04  0.7818609E-02  0.9116616E-01
        2   -1    0    0  501    0  0.00000000000E+00  0.00000000000E+00  0.93407826208E+03  0.93407826209E+03  0.25500000920E-02 0.  1.
       -2   -1    0    0    0  501  0.00000000000E+00  0.00000000000E+00 -0.38265885392E+03  0.38265885393E+03  0.25500000920E-02 0. -1.
    10030    2    1    2    0    0  0.00000000000E+00  0.00000000000E+00  0.55141940816E+03  0.13167371160E+04  0.11957145433E+04 0.  0.
        1    1    3    3  502    0  0.16733730294E+01  0.11428536900E+03  0.92193480796E+03  0.92899286105E+03  0.50400001928E-02 0.  1.
       -1    1    3    3    0  502 -0.16733730294E+01 -0.11428536900E+03 -0.37051539980E+03  0.38774425496E+03  0.50400001928E-02 0. -1.
</event>
<event>
 5   0  0.9678750E-04  0.1240189E+04  0.7818609E-02  0.9078389E-01
        3   -1    0    0  501    0  0.00000000000E+00  0.00000000000E+00  0.42796063754E+03  0.42796064946E+03  0.10100000352E+00 0.  1.
       -3   -1    0    0    0  501  0.00000000000E+00  0.00000000000E+00 -0.89848679125E+03  0.89848679693E+03  0.10100000352E+00 0. -1.
    10030    2    1    2    0    0  0.00000000000E+00  0.00000000000E+00 -0.47052615371E+03  0.13264474464E+04  0.12401886819E+04 0.  0.
        2    1    3    3  502    0 -0.45326560683E+03 -0.25593795917E+03 -0.59569296233E+03  0.79107778040E+03  0.25500000920E-02 0. -1.
       -2    1    3    3    0  502  0.45326560683E+03  0.25593795917E+03  0.12516680862E+03  0.53536966599E+03  0.25500000920E-02 0.  1.
</event>
<event>
 5   0  0.2580244E-03  0.1194531E+04  0.7818609E-02  0.9117657E-01
       -2   -1    0    0    0  501  0.00000000000E+00  0.00000000000E+00  0.39165858921E+03  0.39165858922E+03  0.25500000920E-02 0.  1.
        2   -1    0    0  501    0  0.00000000000E+00  0.00000000000E+00 -0.91080884895E+03  0.91080884896E+03  0.25500000920E-02 0. -1.
    10030    2    1    2    0    0  0.00000000000E+00  0.00000000000E+00 -0.51915025974E+03  0.13024674382E+04  0.11945310525E+04 0.  0.
        1    1    3    3  502    0  0.55362406649E+03  0.21801129916E+02 -0.50277943907E+03  0.74817248054E+03  0.50400001928E-02 0. -1.
       -1    1    3    3    0  502 -0.55362406649E+03 -0.21801129916E+02 -0.16370820670E+02  0.55429495764E+03  0.50400001928E-02 0.  1.
</event>
<event>
 5   0  0.1423024E-03  0.1196746E+04  0.7818609E-02  0.9115709E-01
        1   -1    0    0  501    0  0.00000000000E+00  0.00000000000E+00  0.68488385356E+03  0.68488385358E+03  0.50400001928E-02 0. -1.
       -1   -1    0    0    0  501  0.00000000000E+00  0.00000000000E+00 -0.52278994787E+03  0.52278994790E+03  0.50400001928E-02 0.  1.
    10030    2    1    2    0    0  0.00000000000E+00  0.00000000000E+00  0.16209390569E+03  0.12076738015E+04  0.11967462457E+04 0.  0.
        2    1    3    3  502    0  0.59785365583E+03 -0.20134451414E+02  0.95878233793E+02  0.60582755438E+03  0.25500000920E-02 0.  1.
       -2    1    3    3    0  502 -0.59785365583E+03  0.20134451414E+02  0.66215671896E+02  0.60184624709E+03  0.25500000920E-02 0. -1.
</event>
<event>
 5   0  0.2517023E-03  0.1199778E+04  0.7818609E-02  0.9113051E-01
        2   -1    0    0  501    0  0.00000000000E+00  0.00000000000E+00  0.21812561781E+04  0.21812561781E+04  0.25500000920E-02 0. -1.
       -2   -1    0    0    0  501  0.00000000000E+00  0.00000000000E+00 -0.16498142271E+03  0.16498142273E+03  0.25500000920E-02 0.  1.
    10030    2    1    2    0    0  0.00000000000E+00  0.00000000000E+00  0.20162747554E+04  0.23462376008E+04  0.11997778921E+04 0.  0.
        3    1    3    3  502    0 -0.15843716176E+03  0.34921202743E+03  0.19102746443E+04  0.19483841001E+04  0.10100000352E+00 0. -1.
       -3    1    3    3    0  502  0.15843716176E+03 -0.34921202743E+03  0.10600011103E+03  0.39785350077E+03  0.10100000352E+00 0.  1.
</event>
<event>
 5   0  0.1455076E-03  0.1192962E+04  0.7818609E-02  0.9119039E-01
       -1   -1    0    0    0  501  0.00000000000E+00  0.00000000000E+00  0.32143921331E+03  0.32143921335E+03  0.50400001928E-02 0.  1.
        1   -1    0    0  501    0  0.00000000000E+00  0.00000000000E+00 -0.11068649751E+04  0.11068649751E+04  0.50400001928E-02 0. -1.
    10030    2    1    2    0    0  0.00000000000E+00  0.00000000000E+00 -0.78542576175E+03  0.14283041884E+04  0.11929623747E+04 0.  0.
        4    1    3    3  502    0  0.37846969403E+03  0.46083468918E+03 -0.37663753187E+03  0.70531224529E+03  0.12699999809E+01 0. -1.
       -4    1    3    3    0  502 -0.37846969403E+03 -0.46083468918E+03 -0.40878822988E+03  0.72299194313E+03  0.12699999809E+01 0.  1.
</event>
<event>
 5   0  0.1404833E-03  0.1200072E+04  0.7818609E-02  0.9112794E-01
        1   -1    0    0  501    0  0.00000000000E+00  0.00000000000E+00  0.73966242348E+03  0.73966242349E+03  0.50400001928E-02 0.  1.
       -1   -1    0    0    0  501  0.00000000000E+00  0.00000000000E+00 -0.48676655037E+03  0.48676655040E+03  0.50400001928E-02 0. -1.
    10030    2    1    2    0    0  0.00000000000E+00  0.00000000000E+00  0.25289587311E+03  0.12264289739E+04  0.12000715418E+04 0.  0.
        1    1    3    3  502    0  0.94419858872E+02  0.19882682269E+03 -0.44401968589E+03  0.49558117060E+03  0.50400001928E-02 0. -1.
       -1    1    3    3    0  502 -0.94419858872E+02 -0.19882682269E+03  0.69691555900E+03  0.73084780329E+03  0.50400001928E-02 0.  1.
</event>
<event>
 5   0  0.1469851E-03  0.1201916E+04  0.7818609E-02  0.9111181E-01
        1   -1    0    0  501    0  0.00000000000E+00  0.00000000000E+00  0.60417604680E+03  0.60417604682E+03  0.50400001928E-02 0.  1.
       -1   -1    0    0    0  501  0.00000000000E+00  0.00000000000E+00 -0.59775741347E+03  0.59775741349E+03  0.50400001928E-02 0. -1.
    10030    2    1    2    0    0  0.00000000000E+00  0.00000000000E+00  0.64186333280E+01  0.12019334603E+04  0.12019163216E+04 0.  0.
        5    1    3    3  502    0  0.42271665391E+03 -0.33507632915E+03 -0.26167765205E+03  0.59955216572E+03  0.46999998093E+01 0.  1.
       -5    1    3    3    0  502 -0.42271665391E+03  0.33507632915E+03  0.26809628537E+03  0.60238129459E+03  0.46999998093E+01 0. -1.
</event>
<event>
 5   0  0.2579442E-03  0.1191865E+04  0.7818609E-02  0.9120007E-01
       -2   -1    0    0    0  501  0.00000000000E+00  0.00000000000E+00  0.72561497027E+03  0.72561497027E+03  0.25500000920E-02 0. -1.
        2   -1    0    0  501    0  0.00000000000E+00  0.00000000000E+00 -0.48942722410E+03  0.48942722410E+03  0.25500000920E-02 0.  1.
    10030    2    1    2    0    0  0.00000000000E+00  0.00000000000E+00  0.23618774617E+03  0.12150421944E+04  0.11918652955E+04 0.  0.
        4    1    3    3  502    0 -0.19868496887E+03 -0.70542754321E+02  0.68632145288E+03  0.71797684268E+03  0.12699999809E+01 0. -1.
       -4    1    3    3    0  502  0.19868496887E+03  0.70542754321E+02 -0.45013370671E+03  0.49706535170E+03  0.12699999809E+01 0.  1.
</event>
<event>
 5   0  0.1423024E-03  0.1183497E+04  0.7818609E-02  0.9127425E-01
       -1   -1    0    0    0  501  0.00000000000E+00  0.00000000000E+00  0.45617358518E+03  0.45617358521E+03  0.50400001928E-02 0.  1.
        1   -1    0    0  501    0  0.00000000000E+00  0.00000000000E+00 -0.76761633615E+03  0.76761633617E+03  0.50400001928E-02 0. -1.
    10030    2    1    2    0    0  0.00000000000E+00  0.00000000000E+00 -0.31144275097E+03  0.12237899214E+04  0.11834970150E+04 0.  0.
        2    1    3    3  502    0 -0.26430142217E+03  0.38578263562E+03 -0.53067210063E+03  0.70731630980E+03  0.25500000920E-02 0. -1.
       -2    1    3    3    0  502  0.26430142217E+03 -0.38578263562E+03  0.21922934966E+03  0.51647361159E+03  0.25500000920E-02 0.  1.
</event>
<event>
 5   0  0.2484507E-03  0.1194820E+04  0.7818609E-02  0.9117403E-01
       -2   -1    0    0    0  501  0.00000000000E+00  0.00000000000E+00  0.64659217106E+03  0.64659217107E+03  0.25500000920E-02 0. -1.
        2   -1    0    0  501    0  0.00000000000E+00  0.00000000000E+00 -0.55196861654E+03  0.55196861655E+03  0.25500000920E-02 0.  1.
    10030    2    1    2    0    0  0.00000000000E+00  0.00000000000E+00  0.94623554521E+02  0.11985607876E+04  0.11948197958E+04 0.  0.
        2    1    3    3  502    0  0.39603443011E+03  0.43829047103E+03  0.13679184653E+03  0.60634463477E+03  0.25500000920E-02 0.  1.
       -2    1    3    3    0  502 -0.39603443011E+03 -0.43829047103E+03 -0.42168292013E+02  0.59221615285E+03  0.25500000920E-02 0. -1.
</event>
<event>
 5   0  0.2580244E-03  0.1182214E+04  0.7818609E-02  0.9128569E-01
       -2   -1    0    0    0  501  0.00000000000E+00  0.00000000000E+00  0.40363142100E+03  0.40363142100E+03  0.25500000920E-02 0. -1.
        2   -1    0    0  501    0  0.00000000000E+00  0.00000000000E+00 -0.86565953334E+03  0.86565953334E+03  0.25500000920E-02 0.  1.
    10030    2    1    2    0    0  0.00000000000E+00  0.00000000000E+00 -0.46202811234E+03  0.12692909543E+04  0.11822138344E+04 0.  0.
        1    1    3    3  502    0 -0.44774933508E+02 -0.34178411956E+03 -0.74657713909E+03  0.82231295970E+03  0.50400001928E-02 0.  1.
       -1    1    3    3    0  502  0.44774933508E+02  0.34178411956E+03  0.28454902675E+03  0.44697799465E+03  0.50400001928E-02 0. -1.
</event>
<event>
 5   0  0.2499890E-03  0.1199048E+04  0.7818609E-02  0.9113690E-01
        2   -1    0    0  501    0  0.00000000000E+00  0.00000000000E+00  0.10134204320E+04  0.10134204321E+04  0.25500000920E-02 0. -1.
       -2   -1    0    0    0  501  0.00000000000E+00  0.00000000000E+00 -0.35466949647E+03  0.35466949648E+03  0.25500000920E-02 0.  1.
    10030    2    1    2    0    0  0.00000000000E+00  0.00000000000E+00  0.65875093558E+03  0.13680899285E+04  0.11990484800E+04 0.  0.
        5    1    3    3  502    0  0.11274680464E+03 -0.10949034502E+02 -0.34232682817E+03  0.36061263233E+03  0.46999998093E+01 0.  1.
       -5    1    3    3    0  502 -0.11274680464E+03  0.10949034502E+02  0.10010777637E+04  0.10074772962E+04  0.46999998093E+01 0. -1.
</event>
<event>
 5   0  0.1423024E-03  0.1160245E+04  0.7818609E-02  0.9148384E-01
       -1   -1    0    0    0  501  0.00000000000E+00  0.00000000000E+00  0.18138218125E+03  0.18138218132E+03  0.50400001928E-02 0.  1.
        1   -1    0    0  501    0  0.00000000000E+00  0.00000000000E+00 -0.18554295705E+04  0.18554295705E+04  0.50400001928E-02 0. -1.
    10030    2    1    2    0    0  0.00000000000E+00  0.00000000000E+00 -0.16740473893E+04  0.20368117518E+04  0.11602445651E+04 0.  0.
        2    1    3    3  502    0 -0.88417446240E+02 -0.50639641504E+03 -0.13090118671E+04  0.14063310571E+04  0.25500000920E-02 0. -1.
       -2    1    3    3    0  502  0.88417446240E+02  0.50639641504E+03 -0.36503552214E+03  0.63048069471E+03  0.25500000920E-02 0.  1.
</event>
<event>
 5   0  0.1455076E-03  0.1275644E+04  0.7818609E-02  0.9049106E-01
       -1   -1    0    0    0  501  0.00000000000E+00  0.00000000000E+00  0.70865266433E+03  0.70865266434E+03  0.50400001928E-02 0.  1.
        1   -1    0    0  501    0  0.00000000000E+00  0.00000000000E+00 -0.57407099391E+03  0.57407099393E+03  0.50400001928E-02 0. -1.
    10030    2    1    2    0    0  0.00000000000E+00  0.00000000000E+00  0.13458167041E+03  0.12827236583E+04  0.12756440560E+04 0.  0.
        4    1    3    3  502    0 -0.11268384224E+03  0.58768298378E+03  0.28930200180E+03  0.66465494723E+03  0.12699999809E+01 0.  1.
       -4    1    3    3    0  502  0.11268384224E+03 -0.58768298378E+03 -0.15472033139E+03  0.61806871105E+03  0.12699999809E+01 0. -1.
</event>
<event>
 5   0  0.2579442E-03  0.1221632E+04  0.7818609E-02  0.9094130E-01
        2   -1    0    0  501    0  0.00000000000E+00  0.00000000000E+00  0.39038473698E+03  0.39038473699E+03  0.25500000920E-02 0. -1.
       -2   -1    0    0    0  501  0.00000000000E+00  0.00000000000E+00 -0.95571457653E+03  0.95571457654E+03  0.25500000920E-02 0.  1.
    10030    2    1    2    0    0  0.00000000000E+00  0.00000000000E+00 -0.56532983955E+03  0.13460993135E+04  0.12216323237E+04 0.  0.
        4    1    3    3  502    0  0.30480050180E+03 -0.47104999828E+02  0.29828345099E+03  0.42906509639E+03  0.12699999809E+01 0. -1.
       -4    1    3    3    0  502 -0.30480050180E+03  0.47104999828E+02 -0.86361329054E+03  0.91703421714E+03  0.12699999809E+01 0.  1.
</event>
<event>
 5   0  0.2517023E-03  0.1207483E+04  0.7818609E-02  0.9106332E-01
       -2   -1    0    0    0  501  0.00000000000E+00  0.00000000000E+00  0.38813582124E+03  0.38813582125E+03  0.25500000920E-02 0. -1.
        2   -1    0    0  501    0  0.00000000000E+00  0.00000000000E+00 -0.93911430187E+03  0.93911430187E+03  0.25500000920E-02 0.  1.
    10030    2    1    2    0    0  0.00000000000E+00  0.00000000000E+00 -0.55097848062E+03  0.13272501231E+04  0.12074831689E+04 0.  0.
        3    1    3    3  502    0  0.12242959800E+03 -0.30406417707E+03  0.28181047615E+03  0.43227443241E+03  0.10100000352E+00 0. -1.
       -3    1    3    3    0  502 -0.12242959800E+03  0.30406417707E+03 -0.83278895677E+03  0.89497569072E+03  0.10100000352E+00 0.  1.
</event>
<event>
 5   0  0.1404833E-03  0.1171958E+04  0.7818609E-02  0.9137762E-01
        1   -1    0    0  501    0  0.00000000000E+00  0.00000000000E+00  0.43877730769E+03  0.43877730772E+03  0.50400001928E-02 0. -1.
       -1   -1    0    0    0  501  0.00000000000E+00  0.00000000000E+00 -0.78256349918E+03  0.78256349920E+03  0.50400001928E-02 0.  1.
    10030    2    1    2    0    0  0.00000000000E+00  0.00000000000E+00 -0.34378619149E+03  0.12213408069E+04  0.11719575168E+04 0.  0.
        1    1    3    3  502    0  0.51841489288E+03  0.27207104600E+03 -0.14648438202E+03  0.60351829254E+03  0.50400001928E-02 0.  1.
       -1    1    3    3    0  502 -0.51841489288E+03 -0.27207104600E+03 -0.19730180947E+03  0.61782251438E+03  0.50400001928E-02 0. -1.
</event>
<event>
 5   0  0.1404833E-03  0.1211387E+04  0.7818609E-02  0.9102948E-01
        1   -1    0    0  501    0  0.00000000000E+00  0.00000000000E+00  0.69141064406E+03  0.69141064408E+03  0.50400001928E-02 0.  1.
       -1   -1    0    0    0  501  0.00000000000E+00  0.00000000000E+00 -0.53060302090E+03  0.53060302093E+03  0.50400001928E-02 0. -1.
    10030    2    1    2    0    0  0.00000000000E+00  0.00000000000E+00  0.16080762316E+03  0.12220136650E+04  0.12113869348E+04 0.  0.
        1    1    3    3  502    0  0.28726546927E+03 -0.42750300414E+03 -0.24111507585E+03  0.56869741358E+03  0.50400001928E-02 0. -1.
       -1    1    3    3    0  502 -0.28726546927E+03  0.42750300414E+03  0.40192269901E+03  0.65331625143E+03  0.50400001928E-02 0.  1.
</event>
<event>
 5   0  0.1423024E-03  0.1194939E+04  0.7818609E-02  0.9117298E-01
        1   -1    0    0  501    0  0.00000000000E+00  0.00000000000E+00  0.19805995225E+04  0.19805995225E+04  0.50400001928E-02 0. -1.
       -1   -1    0    0    0  501  0.00000000000E+00  0.00000000000E+00 -0.18023319006E+03  0.18023319013E+03  0.50400001928E-02 0.  1.
    10030    2    1    2    0    0  0.00000000000E+00  0.00000000000E+00  0.18003663325E+04  0.21608327127E+04  0.11949389445E+04 0.  0.
        2    1    3    3  502    0 -0.30059939387E+03 -0.38647154846E+03  0.28098314663E+03  0.56451021431E+03  0.25500000920E-02 0.  1.
       -2    1    3    3    0  502  0.30059939387E+03  0.38647154846E+03  0.15193831858E+04  0.15963224984E+04  0.25500000920E-02 0. -1.
</event>
<event>
 5   0  0.1423024E-03  0.9710374E+03  0.7818609E-02  0.9340894E-01
        1   -1    0    0  501    0  0.00000000000E+00  0.00000000000E+00  0.67789170353E+03  0.67789170355E+03  0.50400001928E-02 0. -1.
       -1   -1    0    0    0  501  0.00000000000E+00  0.00000000000E+00 -0.34773757574E+03  0.34773757578E+03  0.50400001928E-02 0.  1.
    10030    2    1    2    0    0  0.00000000000E+00  0.00000000000E+00  0.33015412779E+03  0.10256292793E+04  0.97103741973E+03 0.  0.
        2    1    3    3  502    0  0.21501308808E+03 -0.32543131619E+03 -0.14030072532E+03  0.41451231964E+03  0.25500000920E-02 0.  1.
       -2    1    3    3    0  502 -0.21501308808E+03  0.32543131619E+03  0.47045485311E+03  0.61111695969E+03  0.25500000920E-02 0. -1.
</event>
<event>
 5   0  0.2499890E-03  0.1195717E+04  0.7818609E-02  0.9116613E-01
       -2   -1    0    0    0  501  0.00000000000E+00  0.00000000000E+00  0.87616461521E+03  0.87616461521E+03  0.25500000920E-02 0. -1.
        2   -1    0    0  501    0  0.00000000000E+00  0.00000000000E+00 -0.40795418626E+03  0.40795418627E+03  0.25500000920E-02 0.  1.
    10030    2    1    2    0    0  0.00000000000E+00  0.00000000000E+00  0.46821042895E+03  0.12841188015E+04  0.11957173958E+04 0.  0.
        5    1    3    3  502    0  0.32547978448E+03 -0.44568121867E+03 -0.12768518912E+02  0.55204525526E+03  0.46999998093E+01 0.  1.
       -5    1    3    3    0  502 -0.32547978448E+03  0.44568121867E+03  0.48097894786E+03  0.73207354622E+03  0.46999998093E+01 0. -1.
</event>
<event>
 5   0  0.1469851E-03  0.1198915E+04  0.7818609E-02  0.9113807E-01
        1   -1    0    0  501    0  0.00000000000E+00  0.00000000000E+00  0.10468367547E+04  0.10468367547E+04  0.50400001928E-02 0.  1.
       -1   -1    0    0    0  501  0.00000000000E+00  0.00000000000E+00 -0.34327148079E+03  0.34327148083E+03  0.50400001928E-02 0. -1.
    10030    2    1    2    0    0  0.00000000000E+00  0.00000000000E+00  0.70356527393E+03  0.13901082356E+04  0.11989148476E+04 0.  0.
        5    1    3    3  502    0  0.31136630328E+03  0.22329283388E+03  0.88629603541E+03  0.96558345929E+03  0.46999998093E+01 0.  1.
       -5    1    3    3    0  502 -0.31136630328E+03 -0.22329283388E+03 -0.18273076148E+03  0.42452477627E+03  0.46999998093E+01 0. -1.
</event>
<event>
 5   0  0.1403154E-03  0.1193233E+04  0.7818609E-02  0.9118800E-01
        1   -1    0    0  501    0  0.00000000000E+00  0.00000000000E+00  0.15906990593E+04  0.15906990593E+04  0.50400001928E-02 0. -1.
       -1   -1    0    0    0  501  0.00000000000E+00  0.00000000000E+00 -0.22377032260E+03  0.22377032266E+03  0.50400001928E-02 0.  1.
    10030    2    1    2    0    0  0.00000000000E+00  0.00000000000E+00  0.13669287367E+04  0.18144693819E+04  0.11932329893E+04 0.  0.
        3    1    3    3  502    0 -0.99271094583E+02  0.58590107452E+03  0.76416417570E+03  0.96802981203E+03  0.10100000352E+00 0.  1.
       -3    1    3    3    0  502  0.99271094583E+02 -0.58590107452E+03  0.60276456095E+03  0.84643956990E+03  0.10100000352E+00 0. -1.
</event>
<event>
 5   0  0.1469851E-03  0.1205049E+04  0.7818609E-02  0.9108449E-01
        1   -1    0    0  501    0  0.00000000000E+00  0.00000000000E+00  0.22188171257E+04  0.22188171257E+04  0.50400001928E-02 0.  1.
       -1   -1    0    0    0  501  0.00000000000E+00  0.00000000000E+00 -0.16361675263E+03  0.16361675271E+03  0.50400001928E-02 0. -1.
    10030    2    1    2    0    0  0.00000000000E+00  0.00000000000E+00  0.20552003731E+04  0.23824338784E+04  0.12050488005E+04 0.  0.
        5    1    3    3  502    0  0.36117515812E+03  0.46326606988E+03  0.12924842964E+04  0.14197185259E+04  0.46999998093E+01 0.  1.
       -5    1    3    3    0  502 -0.36117515812E+03 -0.46326606988E+03  0.76271607667E+03  0.96271535250E+03  0.46999998093E+01 0. -1.
</event>
<event>
 5   0  0.1455076E-03  0.1201964E+04  0.7818609E-02  0.9111139E-01
        1   -1    0    0  501    0  0.00000000000E+00  0.00000000000E+00  0.42940318946E+03  0.42940318949E+03  0.50400001928E-02 0.  1.
       -1   -1    0    0    0  501  0.00000000000E+00  0.00000000000E+00 -0.84111898923E+03  0.84111898924E+03  0.50400001928E-02 0. -1.
    10030    2    1    2    0    0  0.00000000000E+00  0.00000000000E+00 -0.41171579977E+03  0.12705221787E+04  0.12019636878E+04 0.  0.
        4    1    3    3  502    0 -0.34441642231E+03 -0.41747573253E+03 -0.48204435154E+03  0.72475998024E+03  0.12699999809E+01 0.  1.
       -4    1    3    3    0  502  0.34441642231E+03  0.41747573253E+03  0.70328551769E+02  0.54576219849E+03  0.12699999809E+01 0. -1.
</event>
<event>
 5   0  0.2484507E-03  0.1209849E+04  0.7818609E-02  0.9104279E-01
       -2   -1    0    0    0  501  0.00000000000E+00  0.00000000000E+00  0.40075686824E+03  0.40075686825E+03  0.25500000920E-02 0. -1.
        2   -1    0    0  501    0  0.00000000000E+00  0.00000000000E+00 -0.91310673211E+03  0.91310673211E+03  0.25500000920E-02 0.  1.
    10030    2    1    2    0    0  0.00000000000E+00  0.00000000000E+00 -0.51234986387E+03  0.13138636004E+04  0.12098492374E+04 0.  0.
        2    1    3    3  502    0 -0.49517670848E+03  0.21074206817E+03  0.43839927857E+02  0.53993900692E+03  0.25500000920E-02 0. -1.
       -2    1    3    3    0  502  0.49517670848E+03 -0.21074206817E+03 -0.55618979172E+03  0.77392459344E+03  0.25500000920E-02 0.  1.
</event>
<event>
 5   0  0.2580244E-03  0.1202250E+04  0.7818609E-02  0.9110890E-01
        2   -1    0    0  501    0  0.00000000000E+00  0.00000000000E+00  0.27654449034E+03  0.27654449036E+03  0.25500000920E-02 0. -1.
       -2   -1    0    0    0  501  0.00000000000E+00  0.00000000000E+00 -0.13066656374E+04  0.13066656374E+04  0.25500000920E-02 0.  1.
    10030    2    1    2    0    0  0.00000000000E+00  0.00000000000E+00 -0.10301211470E+04  0.15832101277E+04  0.12022498621E+04 0.  0.
        1    1    3    3  502    0 -0.28137982864E+02  0.50043193853E+03 -0.78050606616E+02  0.50726301698E+03  0.50400001928E-02 0. -1.
       -1    1    3    3    0  502  0.28137982864E+02 -0.50043193853E+03 -0.95207054041E+03  0.10759471107E+04  0.50400001928E-02 0.  1.
</event>
<event>
 5   0  0.1469851E-03  0.1276885E+04  0.7818609E-02  0.9048099E-01
       -1   -1    0    0    0  501  0.00000000000E+00  0.00000000000E+00  0.53817726604E+03  0.53817726606E+03  0.50400001928E-02 0.  1.
        1   -1    0    0  501    0  0.00000000000E+00  0.00000000000E+00 -0.75738765939E+03  0.75738765941E+03  0.50400001928E-02 0. -1.
    10030    2    1    2    0    0  0.00000000000E+00  0.00000000000E+00 -0.21921039336E+03  0.12955649255E+04  0.12768849907E+04 0.  0.
        5    1    3    3  502    0 -0.61639908519E+03 -0.87859253169E+02  0.33596526522E+02  0.62355264187E+03  0.46999998093E+01 0.  1.
       -5    1    3    3    0  502  0.61639908519E+03  0.87859253169E+02 -0.25280691988E+03  0.67201228361E+03  0.46999998093E+01 0. -1.
</event>
<event>
 5   0  0.1423024E-03  0.1195702E+04  0.7818609E-02  0.9116627E-01
        1   -1    0    0  501    0  0.00000000000E+00  0.00000000000E+00  0.83964002452E+03  0.83964002453E+03  0.50400001928E-02 0.  1.
       -1   -1    0    0    0  501  0.00000000000E+00  0.00000000000E+00 -0.42568964710E+03  0.42568964713E+03  0.50400001928E-02 0. -1.
    10030    2    1    2    0    0  0.00000000000E+00  0.00000000000E+00  0.41395037742E+03  0.12653296717E+04  0.11957024141E+04 0.  0.
        2    1    3    3  502    0 -0.22114861489E+03  0.46451362313E+03 -0.11530175280E+03  0.52723250103E+03  0.25500000920E-02 0. -1.
       -2    1    3    3    0  502  0.22114861489E+03 -0.46451362313E+03  0.52925213022E+03  0.73809717063E+03  0.25500000920E-02 0.  1.
</event>
<event>
 5   0  0.1403154E-03  0.1227036E+04  0.7818609E-02  0.9089515E-01
        1   -1    0    0  501    0  0.00000000000E+00  0.00000000000E+00  0.70087326875E+03  0.70087326877E+03  0.50400001928E-02 0.  1.
       -1   -1    0    0    0  501  0.00000000000E+00  0.00000000000E+00 -0.53705092706E+03  0.53705092709E+03  0.50400001928E-02 0. -1.
    10030    2    1    2    0    0  0.00000000000E+00  0.00000000000E+00  0.16382234168E+03  0.12379241959E+04  0.12270364930E+04 0.  0.
        3    1    3    3  502    0 -0.14589246626E+03 -0.94798662318E+02  0.67546241576E+03  0.69751048981E+03  0.10100000352E+00 0.  1.
       -3    1    3    3    0  502  0.14589246626E+03  0.94798662318E+02 -0.51164007407E+03  0.54041370605E+03  0.10100000352E+00 0. -1.
</event>
<event>
 5   0  0.2484507E-03  0.1202848E+04  0.7818609E-02  0.9110368E-01
       -2   -1    0    0    0  501  0.00000000000E+00  0.00000000000E+00  0.43606128462E+03  0.43606128463E+03  0.25500000920E-02 0.  1.
        2   -1    0    0  501    0  0.00000000000E+00  0.00000000000E+00 -0.82949503169E+03  0.82949503169E+03  0.25500000920E-02 0. -1.
    10030    2    1    2    0    0  0.00000000000E+00  0.00000000000E+00 -0.39343374706E+03  0.12655563163E+04  0.12028477362E+04 0.  0.
        2    1    3    3  502    0 -0.24320287079E+03 -0.82986463781E+02  0.37539249952E+03  0.45492188146E+03  0.25500000920E-02 0.  1.
       -2    1    3    3    0  502  0.24320287079E+03  0.82986463781E+02 -0.76882624659E+03  0.81063443486E+03  0.25500000920E-02 0. -1.
</event>
<event>
 5   0  0.2580244E-03  0.1237450E+04  0.7818609E-02  0.9080693E-01
       -2   -1    0    0    0  501  0.00000000000E+00  0.00000000000E+00  0.30550644324E+03  0.30550644325E+03  0.25500000920E-02 0. -1.
        2   -1    0    0  501    0  0.00000000000E+00  0.00000000000E+00 -0.12530697099E+04  0.12530697099E+04  0.25500000920E-02 0.  1.
    10030    2    1    2    0    0  0.00000000000E+00  0.00000000000E+00 -0.94756326663E+03  0.15585761531E+04  0.12374503953E+04 0.  0.
        1    1    3    3  502    0 -0.51613381244E+03  0.34103651671E+03 -0.48762772965E+03  0.78770604976E+03  0.50400001928E-02 0. -1.
       -1    1    3    3    0  502  0.51613381244E+03 -0.34103651671E+03 -0.45993553698E+03  0.77087010337E+03  0.50400001928E-02 0.  1.
</event>
<event>
 5   0  0.1404833E-03  0.1197501E+04  0.7818609E-02  0.9115046E-01
        1   -1    0    0  501    0  0.00000000000E+00  0.00000000000E+00  0.14170974402E+04  0.14170974402E+04  0.50400001928E-02 0.  1.
       -1   -1    0    0    0  501  0.00000000000E+00  0.00000000000E+00 -0.25298352729E+03  0.25298352734E+03  0.50400001928E-02 0. -1.
    10030    2    1    2    0    0  0.00000000000E+00  0.00000000000E+00  0.11641139129E+04  0.16700809675E+04  0.11975012467E+04 0.  0.
        1    1    3    3  502    0 -0.13999593413E+03  0.28593631465E+03 -0.12515507668E+03  0.34208512223E+03  0.50400001928E-02 0. -1.
       -1    1    3    3    0  502  0.13999593413E+03 -0.28593631465E+03  0.12892689896E+04  0.13279958453E+04  0.50400001928E-02 0.  1.
</event>
<event>
 5   0  0.2484507E-03  0.1220706E+04  0.7818609E-02  0.9094923E-01
       -2   -1    0    0    0  501  0.00000000000E+00  0.00000000000E+00  0.56821300551E+03  0.56821300552E+03  0.25500000920E-02 0. -1.
        2   -1    0    0  501    0  0.00000000000E+00  0.00000000000E+00 -0.65561870231E+03  0.65561870231E+03  0.25500000920E-02 0.  1.
    10030    2    1    2    0    0  0.00000000000E+00  0.00000000000E+00 -0.87405696793E+02  0.12238317078E+04  0.12207064730E+04 0.  0.
        2    1    3    3  502    0 -0.16502372326E+03  0.37775917345E+03 -0.49496213836E+03  0.64414465827E+03  0.25500000920E-02 0.  1.
       -2    1    3    3    0  502  0.16502372326E+03 -0.37775917345E+03  0.40755644157E+03  0.57968704956E+03  0.25500000920E-02 0. -1.
</event>
<event>
 5   0  0.1455076E-03  0.1194134E+04  0.7818609E-02  0.9118006E-01
        1   -1    0    0  501    0  0.00000000000E+00  0.00000000000E+00  0.66384893358E+03  0.66384893360E+03  0.50400001928E-02 0. -1.
       -1   -1    0    0    0  501  0.00000000000E+00  0.00000000000E+00 -0.53700336190E+03  0.53700336192E+03  0.50400001928E-02 0.  1.
    10030    2    1    2    0    0  0.00000000000E+00  0.00000000000E+00  0.12684557168E+03  0.12008522955E+04  0.11941341786E+04 0.  0.
        4    1    3    3  502    0  0.32436236729E+03  0.27370713447E+03 -0.35889335965E+03  0.55581705378E+03  0.12699999809E+01 0.  1.
       -4    1    3    3    0  502 -0.32436236729E+03 -0.27370713447E+03  0.48573893133E+03  0.64503524174E+03  0.12699999809E+01 0. -1.
</event>
<event>
 5   0  0.9678750E-04  0.1196361E+04  0.7818609E-02  0.9116048E-01
        3   -1    0    0  501    0  0.00000000000E+00  0.00000000000E+00  0.91541617530E+03  0.91541618087E+03  0.10100000352E+00 0.  1.
       -3   -1    0    0    0  501  0.00000000000E+00  0.00000000000E+00 -0.39088197025E+03  0.39088198329E+03  0.10100000352E+00 0. -1.
    10030    2    1    2    0    0  0.00000000000E+00  0.00000000000E+00  0.52453420506E+03  0.13062981642E+04  0.11963606318E+04 0.  0.
        3    1    3    3  502    0  0.83997489926E+02  0.57986330417E+03  0.13068308466E+03  0.60031250916E+03  0.10100000352E+00 0.  1.
       -3    1    3    3    0  502 -0.83997489926E+02 -0.57986330417E+03  0.39385112039E+03  0.70598565501E+03  0.10100000352E+00 0. -1.
</event>
<event>
 5   0  0.1403154E-03  0.1172616E+04  0.7818609E-02  0.9137169E-01
       -1   -1    0    0    0  501  0.00000000000E+00  0.00000000000E+00  0.83018543132E+03  0.83018543133E+03  0.50400001928E-02 0. -1.
        1   -1    0    0  501    0  0.00000000000E+00  0.00000000000E+00 -0.41407293656E+03  0.41407293660E+03  0.50400001928E-02 0.  1.
    10030    2    1    2    0    0  0.00000000000E+00  0.00000000000E+00  0.41611249475E+03  0.12442583679E+04  0.11726164240E+04 0.  0.
        3    1    3    3  502    0 -0.51948997663E+03  0.81014089773E+02  0.48337777347E+03  0.71420389291E+03  0.10100000352E+00 0. -1.
       -3    1    3    3    0  502  0.51948997663E+03 -0.81014089773E+02 -0.67265278718E+02  0.53005447502E+03  0.10100000352E+00 0.  1.
</event>
<event>
 5   0  0.2499890E-03  0.1180651E+04  0.7818609E-02  0.9129963E-01
       -2   -1    0    0    0  501  0.00000000000E+00  0.00000000000E+00  0.98237445826E+03  0.98237445827E+03  0.25500000920E-02 0.  1.
        2   -1    0    0  501    0  0.00000000000E+00  0.00000000000E+00 -0.35473689057E+03  0.35473689058E+03  0.25500000920E-02 0. -1.
    10030    2    1    2    0    0  0.00000000000E+00  0.00000000000E+00  0.62763756770E+03  0.13371113488E+04  0.11806514485E+04 0.  0.
        5    1    3    3  502    0 -0.15162630161E+03 -0.11147184150E+03 -0.31983182385E+03  0.37112126365E+03  0.46999998093E+01 0. -1.
       -5    1    3    3    0  502  0.15162630161E+03  0.11147184150E+03  0.94746939154E+03  0.96599008520E+03  0.46999998093E+01 0.  1.
</event>
<event>
 5   0  0.2484507E-03  0.1196885E+04  0.7818609E-02  0.9115587E-01
        2   -1    0    0  501    0  0.00000000000E+00  0.00000000000E+00  0.54340027979E+03  0.54340027980E+03  0.25500000920E-02 0.  1.
       -2   -1    0    0    0  501  0.00000000000E+00  0.00000000000E+00 -0.65906029046E+03  0.65906029046E+03  0.25500000920E-02 0. -1.
    10030    2    1    2    0    0  0.00000000000E+00  0.00000000000E+00 -0.11566001067E+03  0.12024605703E+04  0.11968852012E+04 0.  0.
        2    1    3    3  502    0 -0.52957146583E+03 -0.26300754851E+03 -0.15053464021E+03  0.61014718380E+03  0.25500000920E-02 0. -1.
       -2    1    3    3    0  502  0.52957146583E+03  0.26300754851E+03  0.34874629546E+02  0.59231338646E+03  0.25500000920E-02 0.  1.
</event>
<event>
 5   0  0.9678750E-04  0.1218029E+04  0.7818609E-02  0.9097220E-01
       -3   -1    0    0    0  501  0.00000000000E+00  0.00000000000E+00  0.10516428804E+04  0.10516428852E+04  0.10100000352E+00 0.  1.
        3   -1    0    0  501    0  0.00000000000E+00  0.00000000000E+00 -0.35268520866E+03  0.35268522312E+03  0.10100000352E+00 0. -1.
    10030    2    1    2    0    0  0.00000000000E+00  0.00000000000E+00  0.69895767170E+03  0.14043281083E+04  0.12180293958E+04 0.  0.
        2    1    3    3  502    0  0.31034188305E+03  0.52082580700E+03  0.41598418524E+03  0.73526488287E+03  0.25500000920E-02 0.  1.
       -2    1    3    3    0  502 -0.31034188305E+03 -0.52082580700E+03  0.28297348647E+03  0.66906322546E+03  0.25500000920E-02 0. -1.
</event>
<event>
 5   0  0.1469851E-03  0.1191946E+04  0.7818609E-02  0.9119936E-01
        1   -1    0    0  501    0  0.00000000000E+00  0.00000000000E+00  0.15423023817E+04  0.15423023817E+04  0.50400001928E-02 0. -1.
       -1   -1    0    0    0  501  0.00000000000E+00  0.00000000000E+00 -0.23029435625E+03  0.23029435630E+03  0.50400001928E-02 0.  1.
    10030    2    1    2    0    0  0.00000000000E+00  0.00000000000E+00  0.13120080254E+04  0.17725967380E+04  0.11919455259E+04 0.  0.
        5    1    3    3  502    0  0.49592243956E+03  0.32993376751E+03  0.68445817445E+03  0.90735904667E+03  0.46999998093E+01 0. -1.
       -5    1    3    3    0  502 -0.49592243956E+03 -0.32993376751E+03  0.62754985095E+03  0.86523769129E+03  0.46999998093E+01 0.  1.
</event>
<event>
 5   0  0.1423024E-03  0.1226504E+04  0.7818609E-02  0.9089969E-01
       -1   -1    0    0    0  501  0.00000000000E+00  0.00000000000E+00  0.76242559836E+03  0.76242559837E+03  0.50400001928E-02 0. -1.
        1   -1    0    0  501    0  0.00000000000E+00  0.00000000000E+00 -0.49326499549E+03  0.49326499552E+03  0.50400001928E-02 0.  1.
    10030    2    1    2    0    0  0.00000000000E+00  0.00000000000E+00  0.26916060287E+03  0.12556905939E+04  0.12265037454E+04 0.  0.
        2    1    3    3  502    0  0.38289280272E+03 -0.96452422106E+02 -0.34580615377E+03  0.52487318859E+03  0.25500000920E-02 0.  1.
       -2    1    3    3    0  502 -0.38289280272E+03  0.96452422106E+02  0.61496675664E+03  0.73081740530E+03  0.25500000920E-02 0. -1.
</event>
<event>
 5   0  0.1404833E-03  0.1206447E+04  0.7818609E-02  0.9107232E-01
        1   -1    0    0  501    0  0.00000000000E+00  0.00000000000E+00  0.74144967290E+03  0.74144967292E+03  0.50400001928E-02 0. -1.
       -1   -1    0    0    0  501  0.00000000000E+00  0.00000000000E+00 -0.49076672470E+03  0.49076672472E+03  0.50400001928E-02 0.  1.
    10030    2    1    2    0    0  0.00000000000E+00  0.00000000000E+00  0.25068294820E+03  0.12322163976E+04  0.12064473922E+04 0.  0.
        1    1    3    3  502    0 -0.21461939783E+03  0.55307881011E+03  0.23685769936E+03  0.63879513610E+03  0.50400001928E-02 0. -1.
       -1    1    3    3    0  502  0.21461939783E+03 -0.55307881011E+03  0.13825248839E+02  0.59342126155E+03  0.50400001928E-02 0.  1.
</event>
<event>
 5   0  0.2484507E-03  0.1198430E+04  0.7818609E-02  0.9114232E-01
       -2   -1    0    0    0  501  0.00000000000E+00  0.00000000000E+00  0.40198437277E+03  0.40198437278E+03  0.25500000920E-02 0. -1.
        2   -1    0    0  501    0  0.00000000000E+00  0.00000000000E+00 -0.89321522599E+03  0.89321522600E+03  0.25500000920E-02 0.  1.
    10030    2    1    2    0    0  0.00000000000E+00  0.00000000000E+00 -0.49123085323E+03  0.12951995988E+04  0.11984299101E+04 0.  0.
        2    1    3    3  502    0 -0.14816903245E+03 -0.17520351326E+03  0.35262295665E+03  0.42070569618E+03  0.25500000920E-02 0. -1.
       -2    1    3    3    0  502  0.14816903245E+03  0.17520351326E+03 -0.84385380987E+03  0.87449390260E+03  0.25500000920E-02 0.  1.
</event>
<event>
 5   0  0.1404833E-03  0.1225580E+04  0.7818609E-02  0.9090757E-01
        1   -1    0    0  501    0  0.00000000000E+00  0.00000000000E+00  0.48381850982E+03  0.48381850985E+03  0.50400001928E-02 0. -1.
       -1   -1    0    0    0  501  0.00000000000E+00  0.00000000000E+00 -0.77614128765E+03  0.77614128767E+03  0.50400001928E-02 0.  1.
    10030    2    1    2    0    0  0.00000000000E+00  0.00000000000E+00 -0.29232277783E+03  0.12599597975E+04  0.12255798974E+04 0.  0.
        1    1    3    3  502    0 -0.16017597940E+03  0.12109138943E+03 -0.74136000864E+03  0.76807169678E+03  0.50400001928E-02 0.  1.
       -1    1    3    3    0  502  0.16017597940E+03 -0.12109138943E+03  0.44903723080E+03  0.49188810073E+03  0.50400001928E-02 0. -1.
</event>
<event>
 5   0  0.2499890E-03  0.1197159E+04  0.7818609E-02  0.9115347E-01
        2   -1    0    0  501    0  0.00000000000E+00  0.00000000000E+00  0.11321001903E+04  0.11321001903E+04  0.25500000920E-02 0. -1.
       -2   -1    0    0    0  501  0.00000000000E+00  0.00000000000E+00 -0.31648919514E+03  0.31648919515E+03  0.25500000920E-02 0.  1.
    10030    2    1    2    0    0  0.00000000000E+00  0.00000000000E+00  0.81561099516E+03  0.14485893855E+04  0.11971591006E+04 0.  0.
        5    1    3    3  502    0  0.77437813829E+01  0.67653218094E+02  0.11273757070E+04  0.11294401263E+04  0.46999998093E+01 0. -1.
       -5    1    3    3    0  502 -0.77437813829E+01 -0.67653218094E+02 -0.31176471186E+03  0.31914925917E+03  0.46999998093E+01 0.  1.
</event>
<event>
 5   0  0.1403154E-03  0.1196967E+04  0.7818609E-02  0.9115516E-01
       -1   -1    0    0    0  501  0.00000000000E+00  0.00000000000E+00  0.18123373520E+03  0.18123373527E+03  0.50400001928E-02 0.  1.
        1   -1    0    0  501    0  0.00000000000E+00  0.00000000000E+00 -0.19763553256E+04  0.19763553256E+04  0.50400001928E-02 0. -1.
    10030    2    1    2    0    0  0.00000000000E+00  0.00000000000E+00 -0.17951215904E+04  0.21575890608E+04  0.11969665957E+04 0.  0.
        3    1    3    3  502    0 -0.43465236737E+03  0.35111989517E+03 -0.12840564998E+04  0.14003602987E+04  0.10100000352E+00 0. -1.
       -3    1    3    3    0  502  0.43465236737E+03 -0.35111989517E+03 -0.51106509056E+03  0.75722876216E+03  0.10100000352E+00 0.  1.
</event>
<event>
 5   0  0.1469851E-03  0.1172630E+04  0.7818609E-02  0.9137156E-01
       -1   -1    0    0    0  501  0.00000000000E+00  0.00000000000E+00  0.55829243800E+03  0.55829243803E+03  0.50400001928E-02 0.  1.
        1   -1    0    0  501    0  0.00000000000E+00  0.00000000000E+00 -0.61574421411E+03  0.61574421414E+03  0.50400001928E-02 0. -1.
    10030    2    1    2    0    0  0.00000000000E+00  0.00000000000E+00 -0.57451776111E+02  0.11740366522E+04  0.11726301011E+04 0.  0.
        5    1    3    3  502    0 -0.36551899226E+03  0.44049766084E+02  0.42810941549E+03  0.56466297667E+03  0.46999998093E+01 0.  1.
       -5    1    3    3    0  502  0.36551899226E+03 -0.44049766084E+02 -0.48556119160E+03  0.60937367549E+03  0.46999998093E+01 0. -1.
</event>
<event>
 5   0  0.1469851E-03  0.1196079E+04  0.7818609E-02  0.9116296E-01
        1   -1    0    0  501    0  0.00000000000E+00  0.00000000000E+00  0.20821029199E+04  0.20821029199E+04  0.50400001928E-02 0.  1.
       -1   -1    0    0    0  501  0.00000000000E+00  0.00000000000E+00 -0.17177392955E+03  0.17177392962E+03  0.50400001928E-02 0. -1.
    10030    2    1    2    0    0  0.00000000000E+00  0.00000000000E+00  0.19103289903E+04  0.22538768495E+04  0.11960785933E+04 0.  0.
        5    1    3    3  502    0 -0.17721657984E+03  0.41028039071E+03  0.20638805393E+03  0.49229445861E+03  0.46999998093E+01 0. -1.
       -5    1    3    3    0  502  0.17721657984E+03 -0.41028039071E+03  0.17039409364E+04  0.17615823909E+04  0.46999998093E+01 0.  1.
</event>
<event>
 5   0  0.2484507E-03  0.1203247E+04  0.7818609E-02  0.9110019E-01
       -2   -1    0    0    0  501  0.00000000000E+00  0.00000000000E+00  0.19729586218E+03  0.19729586219E+03  0.25500000920E-02 0. -1.
        2   -1    0    0  501    0  0.00000000000E+00  0.00000000000E+00 -0.18345599677E+04  0.18345599677E+04  0.25500000920E-02 0.  1.
    10030    2    1    2    0    0  0.00000000000E+00  0.00000000000E+00 -0.16372641055E+04  0.20318558299E+04  0.12032474235E+04 0.  0.
        2    1    3    3  502    0  0.22704904851E+03  0.30751234232E+03 -0.16031445571E+04  0.16480860360E+04  0.25500000920E-02 0.  1.
       -2    1    3    3    0  502 -0.22704904851E+03 -0.30751234232E+03 -0.34119548422E+02  0.38376979389E+03  0.25500000920E-02 0. -1.
</event>
<event>
 5   0  0.1469851E-03  0.1196241E+04  0.7818609E-02  0.9116154E-01
       -1   -1    0    0    0  501  0.00000000000E+00  0.00000000000E+00  0.26631977204E+03  0.26631977209E+03  0.50400001928E-02 0. -1.
        1   -1    0    0  501    0  0.00000000000E+00  0.00000000000E+00 -0.13433018832E+04  0.13433018832E+04  0.50400001928E-02 0.  1.
    10030    2    1    2    0    0  0.00000000000E+00  0.00000000000E+00 -0.10769821112E+04  0.16096216553E+04  0.11962405299E+04 0.  0.
        5    1    3    3  502    0  0.13032207434E+03  0.21888503361E+03 -0.12666295844E+04  0.12920011977E+04  0.46999998093E+01 0.  1.
       -5    1    3    3    0  502 -0.13032207434E+03 -0.21888503361E+03  0.18964747317E+03  0.31762045759E+03  0.46999998093E+01 0. -1.
</event>
<event>
 5   0  0.1404833E-03  0.1203771E+04  0.7818609E-02  0.9109562E-01
       -1   -1    0    0    0  501  0.00000000000E+00  0.00000000000E+00  0.12964975463E+03  0.12964975473E+03  0.50400001928E-02 0. -1.
        1   -1    0    0  501    0  0.00000000000E+00  0.00000000000E+00 -0.27941900902E+04  0.27941900902E+04  0.50400001928E-02 0.  1.
    10030    2    1    2    0    0  0.00000000000E+00  0.00000000000E+00 -0.26645403355E+04  0.29238398449E+04  0.12037708415E+04 0.  0.
        1    1    3    3  502    0  0.99202084550E+02 -0.56183173976E+03 -0.17980247970E+04  0.18863692979E+04  0.50400001928E-02 0. -1.
       -1    1    3    3    0  502 -0.99202084550E+02  0.56183173976E+03 -0.86651553855E+03  0.10374705470E+04  0.50400001928E-02 0.  1.
</event>
<event>
 5   0  0.2484507E-03  0.1194642E+04  0.7818609E-02  0.9117559E-01
        2   -1    0    0  501    0  0.00000000000E+00  0.00000000000E+00  0.16022528177E+04  0.16022528177E+04  0.25500000920E-02 0. -1.
       -2   -1    0    0    0  501  0.00000000000E+00  0.00000000000E+00 -0.22268165476E+03  0.22268165477E+03  0.25500000920E-02 0.  1.
    10030    2    1    2    0    0  0.00000000000E+00  0.00000000000E+00  0.13795711629E+04  0.18249344725E+04  0.11946418858E+04 0.  0.
        2    1    3    3  502    0 -0.71851680556E+02  0.54136936504E+03  0.10594168834E+04  0.11918924390E+04  0.25500000920E-02 0. -1.
       -2    1    3    3    0  502  0.71851680556E+02 -0.54136936504E+03  0.32015427958E+03  0.63304203347E+03  0.25500000920E-02 0.  1.
</event>
<event>
 5   0  0.1423024E-03  0.1204185E+04  0.7818609E-02  0.9109201E-01
       -1   -1    0    0    0  501  0.00000000000E+00  0.00000000000E+00  0.63627803206E+03  0.63627803208E+03  0.50400001928E-02 0.  1.
        1   -1    0    0  501    0  0.00000000000E+00  0.00000000000E+00 -0.56974355279E+03  0.56974355281E+03  0.50400001928E-02 0. -1.
    10030    2    1    2    0    0  0.00000000000E+00  0.00000000000E+00  0.66534479269E+02  0.12060215849E+04  0.12041848804E+04 0.  0.
        2    1    3    3  502    0 -0.36010453753E+03 -0.23296545988E+03 -0.38994932895E+03  0.57966254200E+03  0.25500000920E-02 0. -1.
       -2    1    3    3    0  502  0.36010453753E+03  0.23296545988E+03  0.45648380822E+03  0.62635904289E+03  0.25500000920E-02 0.  1.
</event>
<event>
 5   0  0.1423024E-03  0.1200162E+04  0.7818609E-02  0.9112714E-01
        1   -1    0    0  501    0  0.00000000000E+00  0.00000000000E+00  0.60263742229E+03  0.60263742231E+03  0.50400001928E-02 0.  1.
       -1   -1    0    0    0  501  0.00000000000E+00  0.00000000000E+00 -0.59753574507E+03  0.59753574509E+03  0.50400001928E-02 0. -1.
    10030    2    1    2    0    0  0.00000000000E+00  0.00000000000E+00  0.51016772203E+01  0.12001731674E+04  0.12001623243E+04 0.  0.
        2    1    3    3  502    0  0.46115306430E+03 -0.24868584877E+02  0.38572111255E+03  0.60171535788E+03  0.25500000920E-02 0.  1.
       -2    1    3    3    0  502 -0.46115306430E+03  0.24868584877E+02 -0.38061943533E+03  0.59845780953E+03  0.25500000920E-02 0. -1.
</event>
<event>
 5   0  0.1455076E-03  0.1190131E+04  0.7818609E-02  0.9121539E-01
        1   -1    0    0  501    0  0.00000000000E+00  0.00000000000E+00  0.14676674796E+04  0.14676674796E+04  0.50400001928E-02 0. -1.
       -1   -1    0    0    0  501  0.00000000000E+00  0.00000000000E+00 -0.24126904979E+03  0.24126904984E+03  0.50400001928E-02 0.  1.
    10030    2    1    2    0    0  0.00000000000E+00  0.00000000000E+00  0.12263984298E+04  0.17089365294E+04  0.11901306454E+04 0.  0.
        4    1    3    3  502    0 -0.36350041167E+03 -0.31418426644E+03  0.10907590471E+03  0.49269003283E+03  0.12699999809E+01 0.  1.
       -4    1    3    3    0  502  0.36350041167E+03  0.31418426644E+03  0.11173225251E+04  0.12162464966E+04  0.12699999809E+01 0. -1.
</event>
<event>
 5   0  0.1455076E-03  0.1199703E+04  0.7818609E-02  0.9113117E-01
       -1   -1    0    0    0  501  0.00000000000E+00  0.00000000000E+00  0.21092761505E+03  0.21092761511E+03  0.50400001928E-02 0.  1.
        1   -1    0    0  501    0  0.00000000000E+00  0.00000000000E+00 -0.17059015095E+04  0.17059015095E+04  0.50400001928E-02 0. -1.
    10030    2    1    2    0    0  0.00000000000E+00  0.00000000000E+00 -0.14949738944E+04  0.19168291246E+04  0.11997028582E+04 0.  0.
        4    1    3    3  502    0  0.20082699239E+02  0.53534138137E+03 -0.31631135279E+03  0.62213197492E+03  0.12699999809E+01 0.  1.
       -4    1    3    3    0  502 -0.20082699239E+02 -0.53534138137E+03 -0.11786625417E+04  0.12946971497E+04  0.12699999809E+01 0. -1.
</event>
<event>
 5   0  0.1469851E-03  0.1190107E+04  0.7818609E-02  0.9121560E-01
        1   -1    0    0  501    0  0.00000000000E+00  0.00000000000E+00  0.12066475147E+04  0.12066475147E+04  0.50400001928E-02 0. -1.
       -1   -1    0    0    0  501  0.00000000000E+00  0.00000000000E+00 -0.29344823960E+03  0.29344823965E+03  0.50400001928E-02 0.  1.
    10030    2    1    2    0    0  0.00000000000E+00  0.00000000000E+00  0.91319927513E+03  0.15000957544E+04  0.11901068676E+04 0.  0.
        5    1    3    3  502    0 -0.15608150233E+03 -0.31615117391E+03 -0.14757722219E+03  0.38224877586E+03  0.46999998093E+01 0.  1.
       -5    1    3    3    0  502  0.15608150233E+03  0.31615117391E+03  0.10607764973E+04  0.11178469785E+04  0.46999998093E+01 0. -1.
</event>
<event>
 5   0  0.1403154E-03  0.1199625E+04  0.7818609E-02  0.9113185E-01
        1   -1    0    0  501    0  0.00000000000E+00  0.00000000000E+00  0.11289062754E+04  0.11289062755E+04  0.50400001928E-02 0.  1.
       -1   -1    0    0    0  501  0.00000000000E+00  0.00000000000E+00 -0.31869319099E+03  0.31869319103E+03  0.50400001928E-02 0. -1.
    10030    2    1    2    0    0  0.00000000000E+00  0.00000000000E+00  0.81021308445E+03  0.14475994665E+04  0.11996245134E+04 0.  0.
        3    1    3    3  502    0  0.19244352855E+03  0.56766305234E+03  0.37815390220E+03  0.70871449584E+03  0.10100000352E+00 0. -1.
       -3    1    3    3    0  502 -0.19244352855E+03 -0.56766305234E+03  0.43205918225E+03  0.73888497064E+03  0.10100000352E+00 0.  1.
</event>
<event>
 5   0  0.2499890E-03  0.1195857E+04  0.7818609E-02  0.9116491E-01
       -2   -1    0    0    0  501  0.00000000000E+00  0.00000000000E+00  0.18409162825E+03  0.18409162827E+03  0.25500000920E-02 0. -1.
        2   -1    0    0  501    0  0.00000000000E+00  0.00000000000E+00 -0.19420673998E+04  0.19420673998E+04  0.25500000920E-02 0.  1.
    10030    2    1    2    0    0  0.00000000000E+00  0.00000000000E+00 -0.17579757716E+04  0.21261590281E+04  0.11958567637E+04 0.  0.
        5    1    3    3  502    0 -0.38534521723E+03  0.24648848034E+03 -0.19442696313E+03  0.49706281431E+03  0.46999998093E+01 0. -1.
       -5    1    3    3    0  502  0.38534521723E+03 -0.24648848034E+03 -0.15635488085E+04  0.16290962138E+04  0.46999998093E+01 0.  1.
</event>
<event>
 5   0  0.1469851E-03  0.1233612E+04  0.7818609E-02  0.9083934E-01
        1   -1    0    0  501    0  0.00000000000E+00  0.00000000000E+00  0.61229962060E+03  0.61229962062E+03  0.50400001928E-02 0.  1.
       -1   -1    0    0    0  501  0.00000000000E+00  0.00000000000E+00 -0.62134547023E+03  0.62134547025E+03  0.50400001928E-02 0. -1.
    10030    2    1    2    0    0  0.00000000000E+00  0.00000000000E+00 -0.90458496346E+01  0.12336450909E+04  0.12336119255E+04 0.  0.
        5    1    3    3  502    0  0.25300877752E+03  0.11692099697E+03 -0.55475907708E+03  0.62085721759E+03  0.46999998093E+01 0. -1.
       -5    1    3    3    0  502 -0.25300877752E+03 -0.11692099697E+03  0.54571322744E+03  0.61278787328E+03  0.46999998093E+01 0.  1.
</event>
<event>
 5   0  0.2580244E-03  0.1221528E+04  0.7818609E-02  0.9094219E-01
        2   -1    0    0  501    0  0.00000000000E+00  0.00000000000E+00  0.46278857956E+03  0.46278857957E+03  0.25500000920E-02 0.  1.
       -2   -1    0    0    0  501  0.00000000000E+00  0.00000000000E+00 -0.80605452027E+03  0.80605452028E+03  0.25500000920E-02 0. -1.
    10030    2    1    2    0    0  0.00000000000E+00  0.00000000000E+00 -0.34326594072E+03  0.12688430998E+04  0.12215282665E+04 0.  0.
        1    1    3    3  502    0 -0.60420038893E+03  0.71373551844E+01 -0.26409649807E+03  0.65943613197E+03  0.50400001928E-02 0.  1.
       -1    1    3    3    0  502  0.60420038893E+03 -0.71373551844E+01 -0.79169442648E+02  0.60940696788E+03  0.50400001928E-02 0. -1.
</event>
<event>
 5   0  0.1403154E-03  0.1194004E+04  0.7818609E-02  0.9118121E-01
        1   -1    0    0  501    0  0.00000000000E+00  0.00000000000E+00  0.58588840952E+03  0.58588840955E+03  0.50400001928E-02 0. -1.
       -1   -1    0    0    0  501  0.00000000000E+00  0.00000000000E+00 -0.60832650347E+03  0.60832650349E+03  0.50400001928E-02 0.  1.
    10030    2    1    2    0    0  0.00000000000E+00  0.00000000000E+00 -0.22438093948E+02  0.11942149130E+04  0.11940040999E+04 0.  0.
        3    1    3    3  502    0  0.18731179312E+03  0.39704168604E+03  0.39343072028E+03  0.58950449545E+03  0.10100000352E+00 0. -1.
       -3    1    3    3    0  502 -0.18731179312E+03 -0.39704168604E+03 -0.41586881423E+03  0.60471041759E+03  0.10100000352E+00 0.  1.
</event>
<event>
 5   0  0.1423024E-03  0.1206918E+04  0.7818609E-02  0.9106822E-01
       -1   -1    0    0    0  501  0.00000000000E+00  0.00000000000E+00  0.65841877929E+03  0.65841877931E+03  0.50400001928E-02 0.  1.
        1   -1    0    0  501    0  0.00000000000E+00  0.00000000000E+00 -0.55308715431E+03  0.55308715433E+03  0.50400001928E-02 0. -1.
    10030    2    1    2    0    0  0.00000000000E+00  0.00000000000E+00  0.10533162498E+03  0.12115059336E+04  0.12069183386E+04 0.  0.
        2    1    3    3  502    0 -0.51337392166E+03 -0.19112520157E+03 -0.20143933418E+03  0.58366037340E+03  0.25500000920E-02 0. -1.
       -2    1    3    3    0  502  0.51337392166E+03  0.19112520157E+03  0.30677095916E+03  0.62784556024E+03  0.25500000920E-02 0.  1.
</event>
<event>
 5   0  0.9678750E-04  0.1202556E+04  0.7818609E-02  0.9110622E-01
       -3   -1    0    0    0  501  0.00000000000E+00  0.00000000000E+00  0.60727658437E+03  0.60727659277E+03  0.10100000352E+00 0.  1.
        3   -1    0    0  501    0  0.00000000000E+00  0.00000000000E+00 -0.59533841510E+03  0.59533842367E+03  0.10100000352E+00 0. -1.
    10030    2    1    2    0    0  0.00000000000E+00  0.00000000000E+00  0.11938169265E+02  0.12026150164E+04  0.12025557608E+04 0.  0.
        3    1    3    3  502    0  0.41167288275E+03 -0.35256086826E+03 -0.25435384761E+03  0.59872332360E+03  0.10100000352E+00 0. -1.
       -3    1    3    3    0  502 -0.41167288275E+03  0.35256086826E+03  0.26629201688E+03  0.60389169284E+03  0.10100000352E+00 0.  1.
</event>
<event>
 5   0  0.2580244E-03  0.1197611E+04  0.7818609E-02  0.9114950E-01
       -2   -1    0    0    0  501  0.00000000000E+00  0.00000000000E+00  0.47414810748E+03  0.47414810748E+03  0.25500000920E-02 0. -1.
        2   -1    0    0  501    0  0.00000000000E+00  0.00000000000E+00 -0.75623612102E+03  0.75623612102E+03  0.25500000920E-02 0.  1.
    10030    2    1    2    0    0  0.00000000000E+00  0.00000000000E+00 -0.28208801354E+03  0.12303842285E+04  0.11976108309E+04 0.  0.
        1    1    3    3  502    0  0.29774924297E+03  0.19862621060E+03 -0.63424473277E+03  0.72826737144E+03  0.50400001928E-02 0.  1.
       -1    1    3    3    0  502 -0.29774924297E+03 -0.19862621060E+03  0.35215671923E+03  0.50211685707E+03  0.50400001928E-02 0. -1.
</event>
<event>
 5   0  0.2517023E-03  0.1199229E+04  0.7818609E-02  0.9113531E-01
       -2   -1    0    0    0  501  0.00000000000E+00  0.00000000000E+00  0.39519625794E+03  0.39519625795E+03  0.25500000920E-02 0. -1.
        2   -1    0    0  501    0  0.00000000000E+00  0.00000000000E+00 -0.90977007156E+03  0.90977007157E+03  0.25500000920E-02 0.  1.
    10030    2    1    2    0    0  0.00000000000E+00  0.00000000000E+00 -0.51457381363E+03  0.13049663295E+04  0.11992292990E+04 0.  0.
        3    1    3    3  502    0  0.17817093832E+03 -0.42372201598E+03  0.16169770275E+03  0.48726931708E+03  0.10100000352E+00 0. -1.
       -3    1    3    3    0  502 -0.17817093832E+03  0.42372201598E+03 -0.67627151637E+03  0.81769701244E+03  0.10100000352E+00 0.  1.
</event>
<event>
 5   0  0.2580244E-03  0.1184115E+04  0.7818609E-02  0.9126875E-01
        2   -1    0    0  501    0  0.00000000000E+00  0.00000000000E+00  0.44708822974E+03  0.44708822975E+03  0.25500000920E-02 0.  1.
       -2   -1    0    0    0  501  0.00000000000E+00  0.00000000000E+00 -0.78403377685E+03  0.78403377686E+03  0.25500000920E-02 0. -1.
    10030    2    1    2    0    0  0.00000000000E+00  0.00000000000E+00 -0.33694554711E+03  0.12311220066E+04  0.11841153210E+04 0.  0.
        1    1    3    3  502    0 -0.11186159042E+03 -0.51590477985E+03 -0.44718452580E+03  0.69184156960E+03  0.50400001928E-02 0.  1.
       -1    1    3    3    0  502  0.11186159042E+03  0.51590477985E+03  0.11023897869E+03  0.53928043700E+03  0.50400001928E-02 0. -1.
</event>
<event>
 5   0  0.2517023E-03  0.1179786E+04  0.7818609E-02  0.9130736E-01
        2   -1    0    0  501    0  0.00000000000E+00  0.00000000000E+00  0.78923483395E+03  0.78923483395E+03  0.25500000920E-02 0. -1.
       -2   -1    0    0    0  501  0.00000000000E+00  0.00000000000E+00 -0.44090010978E+03  0.44090010979E+03  0.25500000920E-02 0.  1.
    10030    2    1    2    0    0  0.00000000000E+00  0.00000000000E+00  0.34833472417E+03  0.12301349437E+04  0.11797859551E+04 0.  0.
        3    1    3    3  502    0  0.15760120912E+03 -0.14275847390E+03  0.74788158983E+03  0.77752492281E+03  0.10100000352E+00 0. -1.
       -3    1    3    3    0  502 -0.15760120912E+03  0.14275847390E+03 -0.39954686566E+03  0.45261002093E+03  0.10100000352E+00 0.  1.
</event>
<event>
 5   0  0.2484507E-03  0.1230811E+04  0.7818609E-02  0.9086307E-01
        2   -1    0    0  501    0  0.00000000000E+00  0.00000000000E+00  0.16412781738E+04  0.16412781739E+04  0.25500000920E-02 0.  1.
       -2   -1    0    0    0  501  0.00000000000E+00  0.00000000000E+00 -0.23074942149E+03  0.23074942150E+03  0.25500000920E-02 0. -1.
    10030    2    1    2    0    0  0.00000000000E+00  0.00000000000E+00  0.14105287524E+04  0.18720275954E+04  0.12308110970E+04 0.  0.
        2    1    3    3  502    0  0.12835334454E+02 -0.32663405012E+03 -0.87786482959E+02  0.33846863238E+03  0.25500000920E-02 0. -1.
       -2    1    3    3    0  502 -0.12835334454E+02  0.32663405012E+03  0.14983152353E+04  0.15335589630E+04  0.25500000920E-02 0.  1.
</event>
<event>
 5   0  0.2580244E-03  0.1243949E+04  0.7818609E-02  0.9075234E-01
       -2   -1    0    0    0  501  0.00000000000E+00  0.00000000000E+00  0.25132790685E+03  0.25132790686E+03  0.25500000920E-02 0. -1.
        2   -1    0    0  501    0  0.00000000000E+00  0.00000000000E+00 -0.15392337000E+04  0.15392337000E+04  0.25500000920E-02 0.  1.
    10030    2    1    2    0    0  0.00000000000E+00  0.00000000000E+00 -0.12879057932E+04  0.17905616069E+04  0.12439491694E+04 0.  0.
        1    1    3    3  502    0 -0.14769653906E+03 -0.43556652515E+01  0.22569701101E+03  0.26976356365E+03  0.50400001928E-02 0. -1.
       -1    1    3    3    0  502  0.14769653906E+03  0.43556652515E+01 -0.15136028042E+04  0.15207980433E+04  0.50400001928E-02 0.  1.
</event>
<event>
 5   0  0.1469851E-03  0.1192426E+04  0.7818609E-02  0.9119512E-01
        1   -1    0    0  501    0  0.00000000000E+00  0.00000000000E+00  0.12741229732E+04  0.12741229732E+04  0.50400001928E-02 0. -1.
       -1   -1    0    0    0  501  0.00000000000E+00  0.00000000000E+00 -0.27899173207E+03  0.27899173211E+03  0.50400001928E-02 0.  1.
    10030    2    1    2    0    0  0.00000000000E+00  0.00000000000E+00  0.99513124114E+03  0.15531147053E+04  0.11924257213E+04 0.  0.
        5    1    3    3  502    0  0.17085213580E+03 -0.56747244685E+03  0.41283154262E+03  0.72226546561E+03  0.46999998093E+01 0.  1.
       -5    1    3    3    0  502 -0.17085213580E+03  0.56747244685E+03  0.58229969852E+03  0.83084923971E+03  0.46999998093E+01 0. -1.
</event>
<event>
 5   0  0.1469851E-03  0.1231556E+04  0.7818609E-02  0.9085675E-01
        1   -1    0    0  501    0  0.00000000000E+00  0.00000000000E+00  0.14620526207E+04  0.14620526207E+04  0.50400001928E-02 0.  1.
       -1   -1    0    0    0  501  0.00000000000E+00  0.00000000000E+00 -0.25934943553E+03  0.25934943558E+03  0.50400001928E-02 0. -1.
    10030    2    1    2    0    0  0.00000000000E+00  0.00000000000E+00  0.12027031852E+04  0.17214020563E+04  0.12315559621E+04 0.  0.
        5    1    3    3  502    0 -0.23327418154E+03 -0.45941206082E+03  0.13007255888E+03  0.53142943650E+03  0.46999998093E+01 0. -1.
       -5    1    3    3    0  502  0.23327418154E+03  0.45941206082E+03  0.10726306263E+04  0.11899726198E+04  0.46999998093E+01 0.  1.
</event>
<event>
 5   0  0.2484507E-03  0.1205087E+04  0.7818609E-02  0.9108415E-01
        2   -1    0    0  501    0  0.00000000000E+00  0.00000000000E+00  0.21289424908E+04  0.21289424908E+04  0.25500000920E-02 0.  1.
       -2   -1    0    0    0  501  0.00000000000E+00  0.00000000000E+00 -0.17053476547E+03  0.17053476549E+03  0.25500000920E-02 0. -1.
    10030    2    1    2    0    0  0.00000000000E+00  0.00000000000E+00  0.19584077253E+04  0.22994772563E+04  0.12050870647E+04 0.  0.
        2    1    3    3  502    0  0.89087930743E+02 -0.21206121062E+03  0.20418729590E+04  0.20547875309E+04  0.25500000920E-02 0.  1.
       -2    1    3    3    0  502 -0.89087930743E+02  0.21206121062E+03 -0.83465233697E+02  0.24468972536E+03  0.25500000920E-02 0. -1.
</event>
<event>
 5   0  0.1403154E-03  0.1191904E+04  0.7818609E-02  0.9119972E-01
        1   -1    0    0  501    0  0.00000000000E+00  0.00000000000E+00  0.20914954478E+04  0.20914954478E+04  0.50400001928E-02 0. -1.
       -1   -1    0    0    0  501  0.00000000000E+00  0.00000000000E+00 -0.16981098683E+03  0.16981098691E+03  0.50400001928E-02 0.  1.
    10030    2    1    2    0    0  0.00000000000E+00  0.00000000000E+00  0.19216844609E+04  0.22613064347E+04  0.11919042009E+04 0.  0.
        3    1    3    3  502    0  0.28370224324E+03  0.30928030738E+03  0.15811875684E+03  0.44848949020E+03  0.10100000352E+00 0. -1.
       -3    1    3    3    0  502 -0.28370224324E+03 -0.30928030738E+03  0.17635657041E+04  0.18128169445E+04  0.10100000352E+00 0.  1.
</event>
<event>
 5   0  0.1469851E-03  0.1201779E+04  0.7818609E-02  0.9111301E-01
        1   -1    0    0  501    0  0.00000000000E+00  0.00000000000E+00  0.11993745643E+04  0.11993745643E+04  0.50400001928E-02 0.  1.
       -1   -1    0    0    0  501  0.00000000000E+00  0.00000000000E+00 -0.30104696576E+03  0.30104696580E+03  0.50400001928E-02 0. -1.
    10030    2    1    2    0    0  0.00000000000E+00  0.00000000000E+00  0.89832759850E+03  0.15004215301E+04  0.12017788040E+04 0.  0.
        5    1    3    3  502    0 -0.34232518295E+03  0.23228217809E+03  0.99323571568E+03  0.10759557696E+04  0.46999998093E+01 0.  1.
       -5    1    3    3    0  502  0.34232518295E+03 -0.23228217809E+03 -0.94908117186E+02  0.42446576051E+03  0.46999998093E+01 0. -1.
</event>
<event>
 5   0  0.9678750E-04  0.1214051E+04  0.7818609E-02  0.9100646E-01
       -4   -1    0    0    0  501  0.00000000000E+00  0.00000000000E+00  0.10281818870E+04  0.10281826713E+04  0.12699999809E+01 0.  1.
        4   -1    0    0  501    0  0.00000000000E+00  0.00000000000E+00 -0.35837812770E+03  0.35838037797E+03  0.12699999809E+01 0. -1.
    10030    2    1    2    0    0  0.00000000000E+00  0.00000000000E+00  0.66980375928E+03  0.13865630493E+04  0.12140510754E+04 0.  0.
        2    1    3    3  502    0  0.33431705324E+03  0.43380892327E+03  0.63386488875E+03  0.83770088408E+03  0.25500000920E-02 0.  1.
       -2    1    3    3    0  502 -0.33431705324E+03 -0.43380892327E+03  0.35938870539E+02  0.54886216522E+03  0.25500000920E-02 0. -1.
</event>
<event>
 5   0  0.2517023E-03  0.1214413E+04  0.7818609E-02  0.9100334E-01
       -2   -1    0    0    0  501  0.00000000000E+00  0.00000000000E+00  0.12680214877E+04  0.12680214877E+04  0.25500000920E-02 0.  1.
        2   -1    0    0  501    0  0.00000000000E+00  0.00000000000E+00 -0.29076769142E+03  0.29076769144E+03  0.25500000920E-02 0. -1.
    10030    2    1    2    0    0  0.00000000000E+00  0.00000000000E+00  0.97725379632E+03  0.15587891792E+04  0.12144129128E+04 0.  0.
        3    1    3    3  502    0  0.33116394248E+03 -0.13771525882E+03  0.11175319551E+04  0.11736748827E+04  0.10100000352E+00 0.  1.
       -3    1    3    3    0  502 -0.33116394248E+03  0.13771525882E+03 -0.14027815882E+03  0.38511429648E+03  0.10100000352E+00 0. -1.
</event>
<event>
 5   0  0.1469851E-03  0.1218771E+04  0.7818609E-02  0.9096583E-01
       -1   -1    0    0    0  501  0.00000000000E+00  0.00000000000E+00  0.11333047200E+04  0.11333047200E+04  0.50400001928E-02 0. -1.
        1   -1    0    0  501    0  0.00000000000E+00  0.00000000000E+00 -0.32767051463E+03  0.32767051467E+03  0.50400001928E-02 0.  1.
    10030    2    1    2    0    0  0.00000000000E+00  0.00000000000E+00  0.80563420541E+03  0.14609752347E+04  0.12187707592E+04 0.  0.
        5    1    3    3  502    0 -0.27787167884E+03  0.16158497371E+03  0.10233904926E+04  0.10726940682E+04  0.46999998093E+01 0. -1.
       -5    1    3    3    0  502  0.27787167884E+03 -0.16158497371E+03 -0.21775628721E+03  0.38828116649E+03  0.46999998093E+01 0.  1.
</event>
<event>
 5   0  0.2484507E-03  0.1192154E+04  0.7818609E-02  0.9119752E-01
       -2   -1    0    0    0  501  0.00000000000E+00  0.00000000000E+00  0.48212529182E+03  0.48212529182E+03  0.25500000920E-02 0.  1.
        2   -1    0    0  501    0  0.00000000000E+00  0.00000000000E+00 -0.73696198428E+03  0.73696198429E+03  0.25500000920E-02 0. -1.
    10030    2    1    2    0    0  0.00000000000E+00  0.00000000000E+00 -0.25483669246E+03  0.12190872761E+04  0.11921543721E+04 0.  0.
        2    1    3    3  502    0  0.37250308720E+03  0.63611360380E+02  0.34397656854E+03  0.51100375229E+03  0.25500000920E-02 0.  1.
       -2    1    3    3    0  502 -0.37250308720E+03 -0.63611360380E+02 -0.59881326101E+03  0.70808352382E+03  0.25500000920E-02 0. -1.
</event>
<event>
 5   0  0.1404833E-03  0.1189259E+04  0.7818609E-02  0.9122311E-01
       -1   -1    0    0    0  501  0.00000000000E+00  0.00000000000E+00  0.58301318857E+03  0.58301318859E+03  0.50400001928E-02 0.  1.
        1   -1    0    0  501    0  0.00000000000E+00  0.00000000000E+00 -0.60647677586E+03  0.60647677588E+03  0.50400001928E-02 0. -1.
    10030    2    1    2    0    0  0.00000000000E+00  0.00000000000E+00 -0.23463587286E+02  0.11894899645E+04  0.11892585235E+04 0.  0.
        1    1    3    3  502    0 -0.48113661778E+03  0.22710505556E+03  0.25386612809E+03  0.58950586278E+03  0.50400001928E-02 0. -1.
       -1    1    3    3    0  502  0.48113661778E+03 -0.22710505556E+03 -0.27732971537E+03  0.59998410169E+03  0.50400001928E-02 0.  1.
</event>
<event>
 5   0  0.9678750E-04  0.1206420E+04  0.7818609E-02  0.9107255E-01
        3   -1    0    0  501    0  0.00000000000E+00  0.00000000000E+00  0.70834372988E+03  0.70834373708E+03  0.10100000352E+00 0. -1.
       -3   -1    0    0    0  501  0.00000000000E+00  0.00000000000E+00 -0.51368074486E+03  0.51368075479E+03  0.10100000352E+00 0.  1.
    10030    2    1    2    0    0  0.00000000000E+00  0.00000000000E+00  0.19466298501E+03  0.12220244919E+04  0.12064203998E+04 0.  0.
        4    1    3    3  502    0 -0.22169178641E+03 -0.29418232457E+02 -0.47013613971E+03  0.52061721382E+03  0.12699999809E+01 0.  1.
       -4    1    3    3    0  502  0.22169178641E+03  0.29418232457E+02  0.66479912472E+03  0.70140727805E+03  0.12699999809E+01 0. -1.
</event>
<event>
 5   0  0.2517023E-03  0.1198239E+04  0.7818609E-02  0.9114399E-01
       -2   -1    0    0    0  501  0.00000000000E+00  0.00000000000E+00  0.31130871872E+03  0.31130871873E+03  0.25500000920E-02 0.  1.
        2   -1    0    0  501    0  0.00000000000E+00  0.00000000000E+00 -0.11530174911E+04  0.11530174911E+04  0.25500000920E-02 0. -1.
    10030    2    1    2    0    0  0.00000000000E+00  0.00000000000E+00 -0.84170877237E+03  0.14643262098E+04  0.11982393714E+04 0.  0.
        3    1    3    3  502    0 -0.19033704045E+03  0.15792070677E+03 -0.10877225843E+04  0.11154853514E+04  0.10100000352E+00 0. -1.
       -3    1    3    3    0  502  0.19033704045E+03 -0.15792070677E+03  0.24601381197E+03  0.34884085838E+03  0.10100000352E+00 0.  1.
</event>
<event>
 5   0  0.1423024E-03  0.1205962E+04  0.7818609E-02  0.9107654E-01
        1   -1    0    0  501    0  0.00000000000E+00  0.00000000000E+00  0.16007281518E+04  0.16007281518E+04  0.50400001928E-02 0. -1.
       -1   -1    0    0    0  501  0.00000000000E+00  0.00000000000E+00 -0.22713798149E+03  0.22713798155E+03  0.50400001928E-02 0.  1.
    10030    2    1    2    0    0  0.00000000000E+00  0.00000000000E+00  0.13735901703E+04  0.18278661334E+04  0.12059621244E+04 0.  0.
        2    1    3    3  502    0 -0.31306829859E+03  0.43799776374E+03  0.10983613675E+04  0.12232135930E+04  0.25500000920E-02 0. -1.
       -2    1    3    3    0  502  0.31306829859E+03 -0.43799776374E+03  0.27522880286E+03  0.60465254035E+03  0.25500000920E-02 0.  1.
</event>
<event>
 5   0  0.1403154E-03  0.1202067E+04  0.7818609E-02  0.9111050E-01
       -1   -1    0    0    0  501  0.00000000000E+00  0.00000000000E+00  0.91015932334E+03  0.91015932336E+03  0.50400001928E-02 0. -1.
        1   -1    0    0  501    0  0.00000000000E+00  0.00000000000E+00 -0.39689866212E+03  0.39689866215E+03  0.50400001928E-02 0.  1.
    10030    2    1    2    0    0  0.00000000000E+00  0.00000000000E+00  0.51326066122E+03  0.13070579855E+04  0.12020665835E+04 0.  0.
        3    1    3    3  502    0  0.53232608746E+03  0.11902102619E+02  0.55977914278E+03  0.77257065847E+03  0.10100000352E+00 0. -1.
       -3    1    3    3    0  502 -0.53232608746E+03 -0.11902102619E+02 -0.46518481556E+02  0.53448732704E+03  0.10100000352E+00 0.  1.
</event>
<event>
 5   0  0.1469851E-03  0.1188326E+04  0.7818609E-02  0.9123137E-01
       -1   -1    0    0    0  501  0.00000000000E+00  0.00000000000E+00  0.45976915372E+03  0.45976915375E+03  0.50400001928E-02 0.  1.
        1   -1    0    0  501    0  0.00000000000E+00  0.00000000000E+00 -0.76784069501E+03  0.76784069502E+03  0.50400001928E-02 0. -1.
    10030    2    1    2    0    0  0.00000000000E+00  0.00000000000E+00 -0.30807154129E+03  0.12276098488E+04  0.11883256566E+04 0.  0.
        5    1    3    3  502    0  0.53998823813E+03  0.16929859333E+03 -0.34101097382E+03  0.66072678566E+03  0.46999998093E+01 0. -1.
       -5    1    3    3    0  502 -0.53998823813E+03 -0.16929859333E+03  0.32939432536E+02  0.56688306311E+03  0.46999998093E+01 0.  1.
</event>
<event>
 5   0  0.1423024E-03  0.1201443E+04  0.7818609E-02  0.9111595E-01
       -1   -1    0    0    0  501  0.00000000000E+00  0.00000000000E+00  0.32259879447E+03  0.32259879451E+03  0.50400001928E-02 0.  1.
        1   -1    0    0  501    0  0.00000000000E+00  0.00000000000E+00 -0.11186221937E+04  0.11186221937E+04  0.50400001928E-02 0. -1.
    10030    2    1    2    0    0  0.00000000000E+00  0.00000000000E+00 -0.79602339919E+03  0.14412209882E+04  0.12014427513E+04 0.  0.
        2    1    3    3  502    0  0.44131076702E+03  0.63870907459E+01  0.90835721972E+02  0.45060749706E+03  0.25500000920E-02 0.  1.
       -2    1    3    3    0  502 -0.44131076702E+03 -0.63870907459E+01 -0.88685912116E+03  0.99061349113E+03  0.25500000920E-02 0. -1.
</event>
<event>
 5   0  0.2579442E-03  0.1188719E+04  0.7818609E-02  0.9122789E-01
       -2   -1    0    0    0  501  0.00000000000E+00  0.00000000000E+00  0.12335909359E+04  0.12335909359E+04  0.25500000920E-02 0. -1.
        2   -1    0    0  501    0  0.00000000000E+00  0.00000000000E+00 -0.28636966880E+03  0.28636966881E+03  0.25500000920E-02 0.  1.
    10030    2    1    2    0    0  0.00000000000E+00  0.00000000000E+00  0.94722126708E+03  0.15199606047E+04  0.11887186845E+04 0.  0.
        4    1    3    3  502    0 -0.44169973689E+03  0.41574387352E+02  0.97934128068E+03  0.10751455921E+04  0.12699999809E+01 0. -1.
       -4    1    3    3    0  502  0.44169973689E+03 -0.41574387352E+02 -0.32120013603E+02  0.44481501259E+03  0.12699999809E+01 0.  1.
</event>
<event>
 5   0  0.1455076E-03  0.1202463E+04  0.7818609E-02  0.9110703E-01
        1   -1    0    0  501    0  0.00000000000E+00  0.00000000000E+00  0.28100177930E+04  0.28100177930E+04  0.50400001928E-02 0. -1.
       -1   -1    0    0    0  501  0.00000000000E+00  0.00000000000E+00 -0.12863954453E+03  0.12863954463E+03  0.50400001928E-02 0.  1.
    10030    2    1    2    0    0  0.00000000000E+00  0.00000000000E+00  0.26813782485E+04  0.29386573376E+04  0.12024631540E+04 0.  0.
        4    1    3    3  502    0  0.37637329556E+02  0.20560249542E+03 -0.36984971455E+02  0.21226977108E+03  0.12699999809E+01 0.  1.
       -4    1    3    3    0  502 -0.37637329556E+02 -0.20560249542E+03  0.27183632199E+04  0.27263875666E+04  0.12699999809E+01 0. -1.
</event>
<event>
 5   0  0.1403154E-03  0.1198070E+04  0.7818609E-02  0.9114548E-01
        1   -1    0    0  501    0  0.00000000000E+00  0.00000000000E+00  0.58342366477E+03  0.58342366479E+03  0.50400001928E-02 0. -1.
       -1   -1    0    0    0  501  0.00000000000E+00  0.00000000000E+00 -0.61506361763E+03  0.61506361765E+03  0.50400001928E-02 0.  1.
    10030    2    1    2    0    0  0.00000000000E+00  0.00000000000E+00 -0.31639952866E+02  0.11984872824E+04  0.11980695637E+04 0.  0.
        3    1    3    3  502    0 -0.54774630658E+03 -0.12954623841E+03 -0.22091442289E+03  0.60465811555E+03  0.10100000352E+00 0.  1.
       -3    1    3    3    0  502  0.54774630658E+03  0.12954623841E+03  0.18927447002E+03  0.59382916690E+03  0.10100000352E+00 0. -1.
</event>
<event>
 5   0  0.9678750E-04  0.1188793E+04  0.7818609E-02  0.9122723E-01
        4   -1    0    0  501    0  0.00000000000E+00  0.00000000000E+00  0.10317900060E+04  0.10317907876E+04  0.12699999809E+01 0. -1.
       -4   -1    0    0    0  501  0.00000000000E+00  0.00000000000E+00 -0.34241936475E+03  0.34242171990E+03  0.12699999809E+01 0.  1.
    10030    2    1    2    0    0  0.00000000000E+00  0.00000000000E+00  0.68937064127E+03  0.13742125075E+04  0.11887927215E+04 0.  0.
        1    1    3    3  502    0  0.23851081643E+03  0.22641594842E+03 -0.22767369626E+03  0.39998362873E+03  0.50400001928E-02 0.  1.
       -1    1    3    3    0  502 -0.23851081643E+03 -0.22641594842E+03  0.91704433753E+03  0.97422887879E+03  0.50400001928E-02 0. -1.
</event>
<event>
 5   0  0.2580244E-03  0.1194749E+04  0.7818609E-02  0.9117465E-01
       -2   -1    0    0    0  501  0.00000000000E+00  0.00000000000E+00  0.53082951857E+03  0.53082951858E+03  0.25500000920E-02 0.  1.
        2   -1    0    0  501    0  0.00000000000E+00  0.00000000000E+00 -0.67226181355E+03  0.67226181356E+03  0.25500000920E-02 0. -1.
    10030    2    1    2    0    0  0.00000000000E+00  0.00000000000E+00 -0.14143229498E+03  0.12030913321E+04  0.11947492036E+04 0.  0.
        1    1    3    3  502    0  0.15971837369E+03 -0.56760608544E+03 -0.16714377656E+03  0.61288144791E+03  0.50400001928E-02 0.  1.
       -1    1    3    3    0  502 -0.15971837369E+03  0.56760608544E+03  0.25711481579E+02  0.59020988422E+03  0.50400001928E-02 0. -1.
</event>
<event>
 5   0  0.2517023E-03  0.1189209E+04  0.7818609E-02  0.9122355E-01
       -2   -1    0    0    0  501  0.00000000000E+00  0.00000000000E+00  0.42311628203E+03  0.42311628204E+03  0.25500000920E-02 0.  1.
        2   -1    0    0  501    0  0.00000000000E+00  0.00000000000E+00 -0.83559651430E+03  0.83559651430E+03  0.25500000920E-02 0. -1.
    10030    2    1    2    0    0  0.00000000000E+00  0.00000000000E+00 -0.41248023227E+03  0.12587127963E+04  0.11892089647E+04 0.  0.
        3    1    3    3  502    0  0.50309395788E+03  0.27275978426E+03 -0.35396892250E+02  0.57337106707E+03  0.10100000352E+00 0. -1.
       -3    1    3    3    0  502 -0.50309395788E+03 -0.27275978426E+03 -0.37708334002E+03  0.68534172927E+03  0.10100000352E+00 0.  1.
</event>
<event>
 5   0  0.2517023E-03  0.1170355E+04  0.7818609E-02  0.9139207E-01
        2   -1    0    0  501    0  0.00000000000E+00  0.00000000000E+00  0.13237646637E+04  0.13237646637E+04  0.25500000920E-02 0. -1.
       -2   -1    0    0    0  501  0.00000000000E+00  0.00000000000E+00 -0.25868116272E+03  0.25868116273E+03  0.25500000920E-02 0.  1.
    10030    2    1    2    0    0  0.00000000000E+00  0.00000000000E+00  0.10650835010E+04  0.15824458264E+04  0.11703554714E+04 0.  0.
        3    1    3    3  502    0 -0.95494174944E+02  0.56653779111E+03  0.68279464314E+03  0.89235236375E+03  0.10100000352E+00 0.  1.
       -3    1    3    3    0  502  0.95494174944E+02 -0.56653779111E+03  0.38228885783E+03  0.69009346267E+03  0.10100000352E+00 0. -1.
</event>
<event>
 5   0  0.1455076E-03  0.1169225E+04  0.7818609E-02  0.9140229E-01
        1   -1    0    0  501    0  0.00000000000E+00  0.00000000000E+00  0.20567187674E+04  0.20567187674E+04  0.50400001928E-02 0. -1.
       -1   -1    0    0    0  501  0.00000000000E+00  0.00000000000E+00 -0.16617328870E+03  0.16617328877E+03  0.50400001928E-02 0.  1.
    10030    2    1    2    0    0  0.00000000000E+00  0.00000000000E+00  0.18905454787E+04  0.22228920562E+04  0.11692249084E+04 0.  0.
        4    1    3    3  502    0  0.17274903291E+03  0.55814992471E+03  0.90741411353E+03  0.10792476792E+04  0.12699999809E+01 0. -1.
       -4    1    3    3    0  502 -0.17274903291E+03 -0.55814992471E+03  0.98313136520E+03  0.11436443770E+04  0.12699999809E+01 0.  1.
</event>
<event>
 5   0  0.2580244E-03  0.1189500E+04  0.7818609E-02  0.9122097E-01
       -2   -1    0    0    0  501  0.00000000000E+00  0.00000000000E+00  0.21651054970E+03  0.21651054972E+03  0.25500000920E-02 0.  1.
        2   -1    0    0  501    0  0.00000000000E+00  0.00000000000E+00 -0.16337662446E+04  0.16337662446E+04  0.25500000920E-02 0. -1.
    10030    2    1    2    0    0  0.00000000000E+00  0.00000000000E+00 -0.14172556949E+04  0.18502767943E+04  0.11895001097E+04 0.  0.
        1    1    3    3  502    0  0.46785009476E+03  0.13364999828E+03 -0.12406515533E+04  0.13326523590E+04  0.50400001928E-02 0. -1.
       -1    1    3    3    0  502 -0.46785009476E+03 -0.13364999828E+03 -0.17660414163E+03  0.51762443536E+03  0.50400001928E-02 0.  1.
</event>
<event>
 5   0  0.1423024E-03  0.1186331E+04  0.7818609E-02  0.9124905E-01
        1   -1    0    0  501    0  0.00000000000E+00  0.00000000000E+00  0.30920295089E+03  0.30920295093E+03  0.50400001928E-02 0.  1.
       -1   -1    0    0    0  501  0.00000000000E+00  0.00000000000E+00 -0.11379113381E+04  0.11379113381E+04  0.50400001928E-02 0. -1.
    10030    2    1    2    0    0  0.00000000000E+00  0.00000000000E+00 -0.82870838721E+03  0.14471142890E+04  0.11863313932E+04 0.  0.
        2    1    3    3  502    0 -0.15754275982E+03  0.49000229324E+03 -0.54716172899E+02  0.51760586177E+03  0.25500000920E-02 0.  1.
       -2    1    3    3    0  502  0.15754275982E+03 -0.49000229324E+03 -0.77399221431E+03  0.92950842727E+03  0.25500000920E-02 0. -1.
</event>
<event>
 5   0  0.1404833E-03  0.1198085E+04  0.7818609E-02  0.9114534E-01
        1   -1    0    0  501    0  0.00000000000E+00  0.00000000000E+00  0.82074910133E+03  0.82074910135E+03  0.50400001928E-02 0. -1.
       -1   -1    0    0    0  501  0.00000000000E+00  0.00000000000E+00 -0.43722492207E+03  0.43722492210E+03  0.50400001928E-02 0.  1.
    10030    2    1    2    0    0  0.00000000000E+00  0.00000000000E+00  0.38352417926E+03  0.12579740234E+04  0.11980850753E+04 0.  0.
        1    1    3    3  502    0 -0.22721091427E+03 -0.47257208802E+02  0.77163070662E+03  0.80577415619E+03  0.50400001928E-02 0. -1.
       -1    1    3    3    0  502  0.22721091427E+03  0.47257208802E+02 -0.38810652736E+03  0.45219986726E+03  0.50400001928E-02 0.  1.
</event>
<event>
 5   0  0.1469851E-03  0.1196447E+04  0.7818609E-02  0.9115972E-01
        1   -1    0    0  501    0  0.00000000000E+00  0.00000000000E+00  0.69205601632E+03  0.69205601634E+03  0.50400001928E-02 0.  1.
       -1   -1    0    0    0  501  0.00000000000E+00  0.00000000000E+00 -0.51711357723E+03  0.51711357725E+03  0.50400001928E-02 0. -1.
    10030    2    1    2    0    0  0.00000000000E+00  0.00000000000E+00  0.17494243909E+03  0.12091695936E+04  0.11964473449E+04 0.  0.
        5    1    3    3  502    0 -0.25865066945E+03  0.19567909910E+03 -0.42052561766E+03  0.53108790585E+03  0.46999998093E+01 0. -1.
       -5    1    3    3    0  502  0.25865066945E+03 -0.19567909910E+03  0.59546805676E+03  0.67808168774E+03  0.46999998093E+01 0.  1.
</event>
<event>
 5   0  0.2484507E-03  0.1139906E+04  0.7818609E-02  0.9167146E-01
       -2   -1    0    0    0  501  0.00000000000E+00  0.00000000000E+00  0.24518931978E+03  0.24518931979E+03  0.25500000920E-02 0.  1.
        2   -1    0    0  501    0  0.00000000000E+00  0.00000000000E+00 -0.13248807450E+04  0.13248807450E+04  0.25500000920E-02 0. -1.
    10030    2    1    2    0    0  0.00000000000E+00  0.00000000000E+00 -0.10796914253E+04  0.15700700648E+04  0.11399063272E+04 0.  0.
        2    1    3    3  502    0 -0.28057365425E+03 -0.18712797157E+03  0.93006604658E+02  0.34984093775E+03  0.25500000920E-02 0.  1.
       -2    1    3    3    0  502  0.28057365425E+03  0.18712797157E+03 -0.11726980299E+04  0.12202291271E+04  0.25500000920E-02 0. -1.
</event>
<event>
 5   0  0.2580244E-03  0.1195556E+04  0.7818609E-02  0.9116756E-01
       -2   -1    0    0    0  501  0.00000000000E+00  0.00000000000E+00  0.50065056346E+03  0.50065056347E+03  0.25500000920E-02 0. -1.
        2   -1    0    0  501    0  0.00000000000E+00  0.00000000000E+00 -0.71374805537E+03  0.71374805537E+03  0.25500000920E-02 0.  1.
    10030    2    1    2    0    0  0.00000000000E+00  0.00000000000E+00 -0.21309749190E+03  0.12143986188E+04  0.11955557136E+04 0.  0.
        1    1    3    3  502    0 -0.45442121853E+03  0.33910229617E+03 -0.29887214155E+03  0.64094739889E+03  0.50400001928E-02 0.  1.
       -1    1    3    3    0  502  0.45442121853E+03 -0.33910229617E+03  0.85774649644E+02  0.57345121996E+03  0.50400001928E-02 0. -1.
</event>
<event>
 5   0  0.2499890E-03  0.1199401E+04  0.7818609E-02  0.9113381E-01
       -2   -1    0    0    0  501  0.00000000000E+00  0.00000000000E+00  0.26500085692E+03  0.26500085694E+03  0.25500000920E-02 0.  1.
        2   -1    0    0  501    0  0.00000000000E+00  0.00000000000E+00 -0.13571307936E+04  0.13571307936E+04  0.25500000920E-02 0. -1.
    10030    2    1    2    0    0  0.00000000000E+00  0.00000000000E+00 -0.10921299367E+04  0.16221316506E+04  0.11994012228E+04 0.  0.
        5    1    3    3  502    0 -0.23113494520E+03  0.53328532127E+03 -0.74576178337E+03  0.94551537497E+03  0.46999998093E+01 0. -1.
       -5    1    3    3    0  502  0.23113494520E+03 -0.53328532127E+03 -0.34636815335E+03  0.67661627561E+03  0.46999998093E+01 0.  1.
</event>
<event>
 5   0  0.9678750E-04  0.1196665E+04  0.7818609E-02  0.9115780E-01
       -3   -1    0    0    0  501  0.00000000000E+00  0.00000000000E+00  0.44428132034E+03  0.44428133182E+03  0.10100000352E+00 0.  1.
        3   -1    0    0  501    0  0.00000000000E+00  0.00000000000E+00 -0.80580006897E+03  0.80580007530E+03  0.10100000352E+00 0. -1.
    10030    2    1    2    0    0  0.00000000000E+00  0.00000000000E+00 -0.36151874863E+03  0.12500814071E+04  0.11966652493E+04 0.  0.
        2    1    3    3  502    0 -0.38017739109E+03  0.19644160225E+02 -0.66297154900E+03  0.76449461510E+03  0.25500000920E-02 0. -1.
       -2    1    3    3    0  502  0.38017739109E+03 -0.19644160225E+02  0.30145280036E+03  0.48558679202E+03  0.25500000920E-02 0.  1.
</event>
<event>
 5   0  0.9678750E-04  0.1215123E+04  0.7818609E-02  0.9099721E-01
        4   -1    0    0  501    0  0.00000000000E+00  0.00000000000E+00  0.23748283509E+03  0.23748623089E+03  0.12699999809E+01 0. -1.
       -4   -1    0    0    0  501  0.00000000000E+00  0.00000000000E+00 -0.15543336877E+04  0.15543342065E+04  0.12699999809E+01 0.  1.
    10030    2    1    2    0    0  0.00000000000E+00  0.00000000000E+00 -0.13168508526E+04  0.17918204374E+04  0.12151231674E+04 0.  0.
        4    1    3    3  502    0  0.22852297707E+03  0.37343988630E+03 -0.37254086108E+02  0.43939683609E+03  0.12699999809E+01 0. -1.
       -4    1    3    3    0  502 -0.22852297707E+03 -0.37343988630E+03 -0.12795967665E+04  0.13524236013E+04  0.12699999809E+01 0.  1.
</event>
<event>
 5   0  0.2579442E-03  0.1204863E+04  0.7818609E-02  0.9108610E-01
        2   -1    0    0  501    0  0.00000000000E+00  0.00000000000E+00  0.16645382204E+04  0.16645382204E+04  0.25500000920E-02 0.  1.
       -2   -1    0    0    0  501  0.00000000000E+00  0.00000000000E+00 -0.21803278084E+03  0.21803278085E+03  0.25500000920E-02 0. -1.
    10030    2    1    2    0    0  0.00000000000E+00  0.00000000000E+00  0.14465054396E+04  0.18825710012E+04  0.12048633068E+04 0.  0.
        4    1    3    3  502    0  0.59316830820E+03 -0.10027645019E+03  0.67339340589E+03  0.90297524900E+03  0.12699999809E+01 0. -1.
       -4    1    3    3    0  502 -0.59316830820E+03  0.10027645019E+03  0.77311203366E+03  0.97959575224E+03  0.12699999809E+01 0.  1.
</event>
<event>
 5   0  0.2580244E-03  0.1209642E+04  0.7818609E-02  0.9104458E-01
        2   -1    0    0  501    0  0.00000000000E+00  0.00000000000E+00  0.10829180396E+04  0.10829180396E+04  0.25500000920E-02 0. -1.
       -2   -1    0    0    0  501  0.00000000000E+00  0.00000000000E+00 -0.33779895424E+03  0.33779895425E+03  0.25500000920E-02 0.  1.
    10030    2    1    2    0    0  0.00000000000E+00  0.00000000000E+00  0.74511908535E+03  0.14207169938E+04  0.12096422303E+04 0.  0.
        1    1    3    3  502    0 -0.35142908041E+03  0.36073207243E+02  0.94914485759E+03  0.10127584290E+04  0.50400001928E-02 0. -1.
       -1    1    3    3    0  502  0.35142908041E+03 -0.36073207243E+02 -0.20402577224E+03  0.40795856481E+03  0.50400001928E-02 0.  1.
</event>
<event>
 5   0  0.1404833E-03  0.1202327E+04  0.7818609E-02  0.9110822E-01
       -1   -1    0    0    0  501  0.00000000000E+00  0.00000000000E+00  0.10534103773E+04  0.10534103773E+04  0.50400001928E-02 0.  1.
        1   -1    0    0  501    0  0.00000000000E+00  0.00000000000E+00 -0.34307391417E+03  0.34307391421E+03  0.50400001928E-02 0. -1.
    10030    2    1    2    0    0  0.00000000000E+00  0.00000000000E+00  0.71033646316E+03  0.13964842916E+04  0.12023271126E+04 0.  0.
        1    1    3    3  502    0 -0.52350975775E+03  0.25886237916E+03  0.52075789249E+03  0.78247107322E+03  0.50400001928E-02 0.  1.
       -1    1    3    3    0  502  0.52350975775E+03 -0.25886237916E+03  0.18957857067E+03  0.61401321834E+03  0.50400001928E-02 0. -1.
</event>
<event>
 5   0  0.1469851E-03  0.1195389E+04  0.7818609E-02  0.9116902E-01
        1   -1    0    0  501    0  0.00000000000E+00  0.00000000000E+00  0.16488152794E+04  0.16488152794E+04  0.50400001928E-02 0.  1.
       -1   -1    0    0    0  501  0.00000000000E+00  0.00000000000E+00 -0.21666386344E+03  0.21666386349E+03  0.50400001928E-02 0. -1.
    10030    2    1    2    0    0  0.00000000000E+00  0.00000000000E+00  0.14321514159E+04  0.18654791429E+04  0.11953889552E+04 0.  0.
        5    1    3    3  502    0 -0.89789102121E+02  0.41420292772E+03  0.58431555000E+02  0.42785801945E+03  0.46999998093E+01 0. -1.
       -5    1    3    3    0  502  0.89789102121E+02 -0.41420292772E+03  0.13737198609E+04  0.14376211234E+04  0.46999998093E+01 0.  1.
</event>
<event>
 5   0  0.2499890E-03  0.1225892E+04  0.7818609E-02  0.9090491E-01
       -2   -1    0    0    0  501  0.00000000000E+00  0.00000000000E+00  0.15645721015E+03  0.15645721017E+03  0.25500000920E-02 0.  1.
        2   -1    0    0  501    0  0.00000000000E+00  0.00000000000E+00 -0.24013127896E+04  0.24013127896E+04  0.25500000920E-02 0. -1.
    10030    2    1    2    0    0  0.00000000000E+00  0.00000000000E+00 -0.22448555795E+04  0.25577699998E+04  0.12258918383E+04 0.  0.
        5    1    3    3  502    0  0.34897025503E+03  0.11996935479E+02 -0.21734644773E+04  0.22013391582E+04  0.46999998093E+01 0. -1.
       -5    1    3    3    0  502 -0.34897025503E+03 -0.11996935479E+02 -0.71391102142E+02  0.35643084157E+03  0.46999998093E+01 0.  1.
</event>
<event>
 5   0  0.2499890E-03  0.1253893E+04  0.7818609E-02  0.9066949E-01
       -2   -1    0    0    0  501  0.00000000000E+00  0.00000000000E+00  0.20831885697E+03  0.20831885698E+03  0.25500000920E-02 0.  1.
        2   -1    0    0  501    0  0.00000000000E+00  0.00000000000E+00 -0.18868282474E+04  0.18868282474E+04  0.25500000920E-02 0. -1.
    10030    2    1    2    0    0  0.00000000000E+00  0.00000000000E+00 -0.16785093904E+04  0.20951471044E+04  0.12538929840E+04 0.  0.
        5    1    3    3  502    0 -0.51650045729E+03 -0.47126611308E+02 -0.14277537037E+04  0.15190445577E+04  0.46999998093E+01 0. -1.
       -5    1    3    3    0  502  0.51650045729E+03  0.47126611308E+02 -0.25075568677E+03  0.57610254671E+03  0.46999998093E+01 0.  1.
</event>
<event>
 5   0  0.2499890E-03  0.1194704E+04  0.7818609E-02  0.9117505E-01
       -2   -1    0    0    0  501  0.00000000000E+00  0.00000000000E+00  0.35450394522E+03  0.35450394523E+03  0.25500000920E-02 0. -1.
        2   -1    0    0  501    0  0.00000000000E+00  0.00000000000E+00 -0.10065596341E+04  0.10065596341E+04  0.25500000920E-02 0.  1.
    10030    2    1    2    0    0  0.00000000000E+00  0.00000000000E+00 -0.65205568893E+03  0.13610635794E+04  0.11947039155E+04 0.  0.
        5    1    3    3  502    0  0.33576092664E+03  0.47419536249E+03 -0.48393031564E+03  0.75617939807E+03  0.46999998093E+01 0.  1.
       -5    1    3    3    0  502 -0.33576092664E+03 -0.47419536249E+03 -0.16812537328E+03  0.60488418131E+03  0.46999998093E+01 0. -1.
</event>
<event>
 5   0  0.2579442E-03  0.1201628E+04  0.7818609E-02  0.9111433E-01
       -2   -1    0    0    0  501  0.00000000000E+00  0.00000000000E+00  0.51415158826E+03  0.51415158827E+03  0.25500000920E-02 0. -1.
        2   -1    0    0  501    0  0.00000000000E+00  0.00000000000E+00 -0.70208365632E+03  0.70208365632E+03  0.25500000920E-02 0.  1.
    10030    2    1    2    0    0  0.00000000000E+00  0.00000000000E+00 -0.18793206806E+03  0.12162352446E+04  0.12016279407E+04 0.  0.
        4    1    3    3  502    0 -0.29777679310E+03  0.28310479422E+02 -0.62135997062E+03  0.68961027236E+03  0.12699999809E+01 0.  1.
       -4    1    3    3    0  502  0.29777679310E+03 -0.28310479422E+02  0.43342790256E+03  0.52662497223E+03  0.12699999809E+01 0. -1.
</event>
<event>
 5   0  0.2579442E-03  0.1223921E+04  0.7818609E-02  0.9092172E-01
       -2   -1    0    0    0  501  0.00000000000E+00  0.00000000000E+00  0.31264969812E+03  0.31264969813E+03  0.25500000920E-02 0.  1.
        2   -1    0    0  501    0  0.00000000000E+00  0.00000000000E+00 -0.11978129167E+04  0.11978129167E+04  0.25500000920E-02 0. -1.
    10030    2    1    2    0    0  0.00000000000E+00  0.00000000000E+00 -0.88516321859E+03  0.15104626149E+04  0.12239213158E+04 0.  0.
        4    1    3    3  502    0  0.25872244705E+03  0.10971888099E+03  0.22830475242E+03  0.36207763026E+03  0.12699999809E+01 0.  1.
       -4    1    3    3    0  502 -0.25872244705E+03 -0.10971888099E+03 -0.11134679710E+04  0.11483849846E+04  0.12699999809E+01 0. -1.
</event>
<event>
 5   0  0.1469851E-03  0.1194430E+04  0.7818609E-02  0.9117746E-01
        1   -1    0    0  501    0  0.00000000000E+00  0.00000000000E+00  0.17561351581E+04  0.17561351581E+04  0.50400001928E-02 0. -1.
       -1   -1    0    0    0  501  0.00000000000E+00  0.00000000000E+00 -0.20309707275E+03  0.20309707281E+03  0.50400001928E-02 0.  1.
    10030    2    1    2    0    0  0.00000000000E+00  0.00000000000E+00  0.15530380853E+04  0.19592322309E+04  0.11944302575E+04 0.  0.
        5    1    3    3  502    0  0.38385636503E+03 -0.14529213320E+03  0.64942803307E+02  0.41556608457E+03  0.46999998093E+01 0.  1.
       -5    1    3    3    0  502 -0.38385636503E+03  0.14529213320E+03  0.14880952820E+04  0.15436661463E+04  0.46999998093E+01 0. -1.
</event>
<event>
 5   0  0.2517023E-03  0.1171243E+04  0.7818609E-02  0.9138406E-01
       -2   -1    0    0    0  501  0.00000000000E+00  0.00000000000E+00  0.24188181235E+03  0.24188181236E+03  0.25500000920E-02 0. -1.
        2   -1    0    0  501    0  0.00000000000E+00  0.00000000000E+00 -0.14178524061E+04  0.14178524061E+04  0.25500000920E-02 0.  1.
    10030    2    1    2    0    0  0.00000000000E+00  0.00000000000E+00 -0.11759705938E+04  0.16597342185E+04  0.11712432875E+04 0.  0.
        3    1    3    3  502    0 -0.24871044208E+03 -0.20453734552E+03 -0.12811345268E+04  0.13209837606E+04  0.10100000352E+00 0.  1.
       -3    1    3    3    0  502  0.24871044208E+03  0.20453734552E+03  0.10516393305E+03  0.33875045790E+03  0.10100000352E+00 0. -1.
</event>
<event>
 5   0  0.2484507E-03  0.1244741E+04  0.7818609E-02  0.9074572E-01
       -2   -1    0    0    0  501  0.00000000000E+00  0.00000000000E+00  0.58130425262E+03  0.58130425262E+03  0.25500000920E-02 0. -1.
        2   -1    0    0  501    0  0.00000000000E+00  0.00000000000E+00 -0.66633748963E+03  0.66633748964E+03  0.25500000920E-02 0.  1.
    10030    2    1    2    0    0  0.00000000000E+00  0.00000000000E+00 -0.85033237016E+02  0.12476417423E+04  0.12447406419E+04 0.  0.
        2    1    3    3  502    0  0.54967455493E+03  0.24189183634E+03  0.12123808054E+03  0.61266014152E+03  0.25500000920E-02 0.  1.
       -2    1    3    3    0  502 -0.54967455493E+03 -0.24189183634E+03 -0.20627131756E+03  0.63498160074E+03  0.25500000920E-02 0. -1.
</event>
<event>
 5   0  0.1404833E-03  0.1206172E+04  0.7818609E-02  0.9107471E-01
        1   -1    0    0  501    0  0.00000000000E+00  0.00000000000E+00  0.47033595061E+03  0.47033595064E+03  0.50400001928E-02 0. -1.
       -1   -1    0    0    0  501  0.00000000000E+00  0.00000000000E+00 -0.77330383300E+03  0.77330383302E+03  0.50400001928E-02 0.  1.
    10030    2    1    2    0    0  0.00000000000E+00  0.00000000000E+00 -0.30296788239E+03  0.12436397837E+04  0.12061717845E+04 0.  0.
        1    1    3    3  502    0 -0.84192201915E+02 -0.23817722331E+03 -0.71612270343E+03  0.75937371759E+03  0.50400001928E-02 0.  1.
       -1    1    3    3    0  502  0.84192201915E+02  0.23817722331E+03  0.41315482104E+03  0.48426606607E+03  0.50400001928E-02 0. -1.
</event>
<event>
 5   0  0.2499890E-03  0.1195710E+04  0.7818609E-02  0.9116620E-01
       -2   -1    0    0    0  501  0.00000000000E+00  0.00000000000E+00  0.23580133035E+03  0.23580133036E+03  0.25500000920E-02 0.  1.
        2   -1    0    0  501    0  0.00000000000E+00  0.00000000000E+00 -0.15158125924E+04  0.15158125924E+04  0.25500000920E-02 0. -1.
    10030    2    1    2    0    0  0.00000000000E+00  0.00000000000E+00 -0.12800112620E+04  0.17516139228E+04  0.11957100415E+04 0.  0.
        5    1    3    3  502    0 -0.38529199133E+03 -0.10894570493E+03  0.10339961899E+02  0.40055972091E+03  0.46999998093E+01 0.  1.
       -5    1    3    3    0  502  0.38529199133E+03  0.10894570493E+03 -0.12903512239E+04  0.13510542018E+04  0.46999998093E+01 0. -1.
</event>
<event>
 5   0  0.2484507E-03  0.1181936E+04  0.7818609E-02  0.9128817E-01
        2   -1    0    0  501    0  0.00000000000E+00  0.00000000000E+00  0.43889753224E+03  0.43889753224E+03  0.25500000920E-02 0.  1.
       -2   -1    0    0    0  501  0.00000000000E+00  0.00000000000E+00 -0.79572820573E+03  0.79572820574E+03  0.25500000920E-02 0. -1.
    10030    2    1    2    0    0  0.00000000000E+00  0.00000000000E+00 -0.35683067350E+03  0.12346257380E+04  0.11819359472E+04 0.  0.
        2    1    3    3  502    0  0.35775993512E+03  0.20146691021E+03  0.26557637445E+03  0.48899069292E+03  0.25500000920E-02 0.  1.
       -2    1    3    3    0  502 -0.35775993512E+03 -0.20146691021E+03 -0.62240704795E+03  0.74563504506E+03  0.25500000920E-02 0. -1.
</event>
<event>
 5   0  0.1404833E-03  0.1197993E+04  0.7818609E-02  0.9114615E-01
       -1   -1    0    0    0  501  0.00000000000E+00  0.00000000000E+00  0.35920668184E+03  0.35920668188E+03  0.50400001928E-02 0. -1.
        1   -1    0    0  501    0  0.00000000000E+00  0.00000000000E+00 -0.99885933587E+03  0.99885933588E+03  0.50400001928E-02 0.  1.
    10030    2    1    2    0    0  0.00000000000E+00  0.00000000000E+00 -0.63965265403E+03  0.13580660178E+04  0.11979932349E+04 0.  0.
        1    1    3    3  502    0  0.16453788527E+03 -0.54585176064E+03 -0.52814711466E+03  0.77715264590E+03  0.50400001928E-02 0.  1.
       -1    1    3    3    0  502 -0.16453788527E+03  0.54585176064E+03 -0.11150553937E+03  0.58091337187E+03  0.50400001928E-02 0. -1.
</event>
<event>
 5   0  0.2499890E-03  0.1255495E+04  0.7818609E-02  0.9065622E-01
       -2   -1    0    0    0  501  0.00000000000E+00  0.00000000000E+00  0.76094285822E+03  0.76094285822E+03  0.25500000920E-02 0. -1.
        2   -1    0    0  501    0  0.00000000000E+00  0.00000000000E+00 -0.51786663799E+03  0.51786663800E+03  0.25500000920E-02 0.  1.
    10030    2    1    2    0    0  0.00000000000E+00  0.00000000000E+00  0.24307622022E+03  0.12788094962E+04  0.12554949935E+04 0.  0.
        5    1    3    3  502    0 -0.46590867245E+03 -0.15125505413E+03 -0.27830197834E+03  0.56340310934E+03  0.46999998093E+01 0.  1.
       -5    1    3    3    0  502  0.46590867245E+03  0.15125505413E+03  0.52137819856E+03  0.71540638689E+03  0.46999998093E+01 0. -1.
</event>
<event>
 5   0  0.2499890E-03  0.1184648E+04  0.7818609E-02  0.9126402E-01
       -2   -1    0    0    0  501  0.00000000000E+00  0.00000000000E+00  0.19436624576E+03  0.19436624577E+03  0.25500000920E-02 0.  1.
        2   -1    0    0  501    0  0.00000000000E+00  0.00000000000E+00 -0.18050843853E+04  0.18050843853E+04  0.25500000920E-02 0. -1.
    10030    2    1    2    0    0  0.00000000000E+00  0.00000000000E+00 -0.16107181395E+04  0.19994506311E+04  0.11846475852E+04 0.  0.
        5    1    3    3  502    0  0.34221469157E+03 -0.86201237698E+02 -0.24834343220E+01  0.35294447998E+03  0.46999998093E+01 0.  1.
       -5    1    3    3    0  502 -0.34221469157E+03  0.86201237698E+02 -0.16082347052E+04  0.16465061511E+04  0.46999998093E+01 0. -1.
</event>
<event>
 5   0  0.2517023E-03  0.1187601E+04  0.7818609E-02  0.9123779E-01
       -2   -1    0    0    0  501  0.00000000000E+00  0.00000000000E+00  0.28425482568E+03  0.28425482569E+03  0.25500000920E-02 0.  1.
        2   -1    0    0  501    0  0.00000000000E+00  0.00000000000E+00 -0.12404325293E+04  0.12404325293E+04  0.25500000920E-02 0. -1.
    10030    2    1    2    0    0  0.00000000000E+00  0.00000000000E+00 -0.95617770364E+03  0.15246873550E+04  0.11876008292E+04 0.  0.
        3    1    3    3  502    0  0.14608812799E+03  0.10744708818E+03  0.24783318695E+03  0.30709594047E+03  0.10100000352E+00 0.  1.
       -3    1    3    3    0  502 -0.14608812799E+03 -0.10744708818E+03 -0.12040108906E+04  0.12175914145E+04  0.10100000352E+00 0. -1.
</event>
<event>
 5   0  0.1423024E-03  0.1199387E+04  0.7818609E-02  0.9113393E-01
       -1   -1    0    0    0  501  0.00000000000E+00  0.00000000000E+00  0.90772440513E+03  0.90772440515E+03  0.50400001928E-02 0. -1.
        1   -1    0    0  501    0  0.00000000000E+00  0.00000000000E+00 -0.39619125511E+03  0.39619125514E+03  0.50400001928E-02 0.  1.
    10030    2    1    2    0    0  0.00000000000E+00  0.00000000000E+00  0.51153315003E+03  0.13039156603E+04  0.11993872959E+04 0.  0.
        2    1    3    3  502    0 -0.44519766054E+03  0.11288143805E+03 -0.16344175960E+03  0.48750013825E+03  0.25500000920E-02 0.  1.
       -2    1    3    3    0  502  0.44519766054E+03 -0.11288143805E+03  0.67497490962E+03  0.81641552204E+03  0.25500000920E-02 0. -1.
</event>
<event>
 5   0  0.1469851E-03  0.1206975E+04  0.7818609E-02  0.9106773E-01
        1   -1    0    0  501    0  0.00000000000E+00  0.00000000000E+00  0.47471680133E+03  0.47471680136E+03  0.50400001928E-02 0.  1.
       -1   -1    0    0    0  501  0.00000000000E+00  0.00000000000E+00 -0.76718848252E+03  0.76718848253E+03  0.50400001928E-02 0. -1.
    10030    2    1    2    0    0  0.00000000000E+00  0.00000000000E+00 -0.29247168118E+03  0.12419052839E+04  0.12069751654E+04 0.  0.
        5    1    3    3  502    0  0.47982077776E+02 -0.58066702965E+03  0.15470530034E+02  0.58287040276E+03  0.46999998093E+01 0. -1.
       -5    1    3    3    0  502 -0.47982077776E+02  0.58066702965E+03 -0.30794221122E+03  0.65903488114E+03  0.46999998093E+01 0.  1.
</event>
<event>
 5   0  0.2484507E-03  0.1209382E+04  0.7818609E-02  0.9104684E-01
       -2   -1    0    0    0  501  0.00000000000E+00  0.00000000000E+00  0.13202982100E+03  0.13202982103E+03  0.25500000920E-02 0.  1.
        2   -1    0    0  501    0  0.00000000000E+00  0.00000000000E+00 -0.27694571517E+04  0.27694571517E+04  0.25500000920E-02 0. -1.
    10030    2    1    2    0    0  0.00000000000E+00  0.00000000000E+00 -0.26374273307E+04  0.29014869727E+04  0.12093815478E+04 0.  0.
        2    1    3    3  502    0  0.44949793953E+03 -0.28582872414E+03 -0.20053252110E+04  0.20748676244E+04  0.25500000920E-02 0. -1.
       -2    1    3    3    0  502 -0.44949793953E+03  0.28582872414E+03 -0.63210211970E+03  0.82661934826E+03  0.25500000920E-02 0.  1.
</event>
<event>
 5   0  0.2580244E-03  0.1197823E+04  0.7818609E-02  0.9114764E-01
       -2   -1    0    0    0  501  0.00000000000E+00  0.00000000000E+00  0.21852408891E+03  0.21852408893E+03  0.25500000920E-02 0.  1.
        2   -1    0    0  501    0  0.00000000000E+00  0.00000000000E+00 -0.16414433575E+04  0.16414433575E+04  0.25500000920E-02 0. -1.
    10030    2    1    2    0    0  0.00000000000E+00  0.00000000000E+00 -0.14229192686E+04  0.18599674464E+04  0.11978228821E+04 0.  0.
        1    1    3    3  502    0  0.17130208767E+03  0.57042323100E+03 -0.61364807815E+03  0.85515555985E+03  0.50400001928E-02 0.  1.
       -1    1    3    3    0  502 -0.17130208767E+03 -0.57042323100E+03 -0.80927119041E+03  0.10048118865E+04  0.50400001928E-02 0. -1.
</event>
<event>
 5   0  0.1423024E-03  0.1205903E+04  0.7818609E-02  0.9107705E-01
       -1   -1    0    0    0  501  0.00000000000E+00  0.00000000000E+00  0.42532398733E+03  0.42532398736E+03  0.50400001928E-02 0.  1.
        1   -1    0    0  501    0  0.00000000000E+00  0.00000000000E+00 -0.85476130716E+03  0.85476130717E+03  0.50400001928E-02 0. -1.
    10030    2    1    2    0    0  0.00000000000E+00  0.00000000000E+00 -0.42943731983E+03  0.12800852945E+04  0.12059029603E+04 0.  0.
        2    1    3    3  502    0 -0.34068920342E+03  0.45175720143E+03 -0.43585256004E+03  0.71422766431E+03  0.25500000920E-02 0. -1.
       -2    1    3    3    0  502  0.34068920342E+03 -0.45175720143E+03  0.64152402071E+01  0.56585763022E+03  0.25500000920E-02 0.  1.
</event>
<event>
 5   0  0.1403154E-03  0.1184211E+04  0.7818609E-02  0.9126790E-01
       -1   -1    0    0    0  501  0.00000000000E+00  0.00000000000E+00  0.43156687363E+03  0.43156687366E+03  0.50400001928E-02 0.  1.
        1   -1    0    0  501    0  0.00000000000E+00  0.00000000000E+00 -0.81236345422E+03  0.81236345423E+03  0.50400001928E-02 0. -1.
    10030    2    1    2    0    0  0.00000000000E+00  0.00000000000E+00 -0.38079658058E+03  0.12439303279E+04  0.11842113937E+04 0.  0.
        3    1    3    3  502    0  0.25277743420E+03 -0.51817051522E+03 -0.48718656402E+02  0.57859366724E+03  0.10100000352E+00 0.  1.
       -3    1    3    3    0  502 -0.25277743420E+03  0.51817051522E+03 -0.33207792418E+03  0.66533666066E+03  0.10100000352E+00 0. -1.
</event>
<event>
 5   0  0.2484507E-03  0.1224183E+04  0.7818609E-02  0.9091949E-01
       -2   -1    0    0    0  501  0.00000000000E+00  0.00000000000E+00  0.35387135650E+03  0.35387135650E+03  0.25500000920E-02 0. -1.
        2   -1    0    0  501    0  0.00000000000E+00  0.00000000000E+00 -0.10587343119E+04  0.10587343119E+04  0.25500000920E-02 0.  1.
    10030    2    1    2    0    0  0.00000000000E+00  0.00000000000E+00 -0.70486295539E+03  0.14126056684E+04  0.12241825797E+04 0.  0.
        2    1    3    3  502    0  0.35063812473E+03 -0.49140199528E+02 -0.92857484910E+03  0.99378725295E+03  0.25500000920E-02 0.  1.
       -2    1    3    3    0  502 -0.35063812473E+03  0.49140199528E+02  0.22371189371E+03  0.41881841545E+03  0.25500000920E-02 0. -1.
</event>
<event>
 5   0  0.1404833E-03  0.1198859E+04  0.7818609E-02  0.9113856E-01
        1   -1    0    0  501    0  0.00000000000E+00  0.00000000000E+00  0.11957598503E+04  0.11957598503E+04  0.50400001928E-02 0. -1.
       -1   -1    0    0    0  501  0.00000000000E+00  0.00000000000E+00 -0.30049156337E+03  0.30049156341E+03  0.50400001928E-02 0.  1.
    10030    2    1    2    0    0  0.00000000000E+00  0.00000000000E+00  0.89526828690E+03  0.14962514137E+04  0.11988590357E+04 0.  0.
        1    1    3    3  502    0 -0.15697532451E+03  0.11152476589E+03  0.11561082263E+04  0.11720346654E+04  0.50400001928E-02 0. -1.
       -1    1    3    3    0  502  0.15697532451E+03 -0.11152476589E+03 -0.26083993937E+03  0.32421674834E+03  0.50400001928E-02 0.  1.
</event>
<event>
 5   0  0.1404833E-03  0.1176743E+04  0.7818609E-02  0.9133461E-01
        1   -1    0    0  501    0  0.00000000000E+00  0.00000000000E+00  0.67977505596E+03  0.67977505598E+03  0.50400001928E-02 0. -1.
       -1   -1    0    0    0  501  0.00000000000E+00  0.00000000000E+00 -0.50925799840E+03  0.50925799843E+03  0.50400001928E-02 0.  1.
    10030    2    1    2    0    0  0.00000000000E+00  0.00000000000E+00  0.17051705756E+03  0.11890330544E+04  0.11767427661E+04 0.  0.
        1    1    3    3  502    0  0.12274438908E+03  0.46667968765E+02 -0.49426172963E+03  0.51140858593E+03  0.50400001928E-02 0.  1.
       -1    1    3    3    0  502 -0.12274438908E+03 -0.46667968765E+02  0.66477878719E+03  0.67762446848E+03  0.50400001928E-02 0. -1.
</event>
<event>
 5   0  0.1423024E-03  0.1181247E+04  0.7818609E-02  0.9129431E-01
        1   -1    0    0  501    0  0.00000000000E+00  0.00000000000E+00  0.15446151729E+04  0.15446151729E+04  0.50400001928E-02 0.  1.
       -1   -1    0    0    0  501  0.00000000000E+00  0.00000000000E+00 -0.22584010885E+03  0.22584010891E+03  0.50400001928E-02 0. -1.
    10030    2    1    2    0    0  0.00000000000E+00  0.00000000000E+00  0.13187750640E+04  0.17704552818E+04  0.11812468986E+04 0.  0.
        2    1    3    3  502    0 -0.58287808220E+03 -0.46954352145E+02  0.78374736599E+03  0.97786067699E+03  0.25500000920E-02 0. -1.
       -2    1    3    3    0  502  0.58287808220E+03  0.46954352145E+02  0.53502769806E+03  0.79259460483E+03  0.25500000920E-02 0.  1.
</event>
<event>
 5   0  0.2579442E-03  0.1193979E+04  0.7818609E-02  0.9118143E-01
       -2   -1    0    0    0  501  0.00000000000E+00  0.00000000000E+00  0.31282515215E+03  0.31282515216E+03  0.25500000920E-02 0.  1.
        2   -1    0    0  501    0  0.00000000000E+00  0.00000000000E+00 -0.11392829198E+04  0.11392829198E+04  0.25500000920E-02 0. -1.
    10030    2    1    2    0    0  0.00000000000E+00  0.00000000000E+00 -0.82645776769E+03  0.14521080720E+04  0.11939788151E+04 0.  0.
        4    1    3    3  502    0 -0.51586577444E+03 -0.30036345331E+03 -0.40388408252E+03  0.72073550373E+03  0.12699999809E+01 0. -1.
       -4    1    3    3    0  502  0.51586577444E+03  0.30036345331E+03 -0.42257368516E+03  0.73137256827E+03  0.12699999809E+01 0.  1.
</event>
<event>
 5   0  0.9678750E-04  0.1202281E+04  0.7818609E-02  0.9110862E-01
       -4   -1    0    0    0  501  0.00000000000E+00  0.00000000000E+00  0.37511389880E+03  0.37511604867E+03  0.12699999809E+01 0. -1.
        4   -1    0    0  501    0  0.00000000000E+00  0.00000000000E+00 -0.96335512237E+03  0.96335595950E+03  0.12699999809E+01 0.  1.
    10030    2    1    2    0    0  0.00000000000E+00  0.00000000000E+00 -0.58824122358E+03  0.13384720082E+04  0.12022809903E+04 0.  0.
        2    1    3    3  502    0  0.33652405218E+03  0.39743889369E+03 -0.62840752516E+03  0.81615080077E+03  0.25500000920E-02 0.  1.
       -2    1    3    3    0  502 -0.33652405218E+03 -0.39743889369E+03  0.40166301580E+02  0.52232120740E+03  0.25500000920E-02 0. -1.
</event>
<event>
 5   0  0.2579442E-03  0.1201677E+04  0.7818609E-02  0.9111390E-01
       -2   -1    0    0    0  501  0.00000000000E+00  0.00000000000E+00  0.11356346735E+04  0.11356346735E+04  0.25500000920E-02 0.  1.
        2   -1    0    0  501    0  0.00000000000E+00  0.00000000000E+00 -0.31789012588E+03  0.31789012589E+03  0.25500000920E-02 0. -1.
    10030    2    1    2    0    0  0.00000000000E+00  0.00000000000E+00  0.81774454766E+03  0.14535247994E+04  0.12016772434E+04 0.  0.
        4    1    3    3  502    0 -0.18114812110E+03 -0.17338725641E+03 -0.25157133273E+03  0.35520069090E+03  0.12699999809E+01 0. -1.
       -4    1    3    3    0  502  0.18114812110E+03  0.17338725641E+03  0.10693158804E+04  0.10983241085E+04  0.12699999809E+01 0.  1.
</event>
<event>
 5   0  0.2580244E-03  0.1201399E+04  0.7818609E-02  0.9111633E-01
        2   -1    0    0  501    0  0.00000000000E+00  0.00000000000E+00  0.12177512117E+04  0.12177512117E+04  0.25500000920E-02 0.  1.
       -2   -1    0    0    0  501  0.00000000000E+00  0.00000000000E+00 -0.29631670990E+03  0.29631670991E+03  0.25500000920E-02 0. -1.
    10030    2    1    2    0    0  0.00000000000E+00  0.00000000000E+00  0.92143450176E+03  0.15140679216E+04  0.12013992384E+04 0.  0.
        1    1    3    3  502    0  0.17671269803E+02 -0.30196562587E+03  0.11147689489E+04  0.11550780590E+04  0.50400001928E-02 0.  1.
       -1    1    3    3    0  502 -0.17671269803E+02  0.30196562587E+03 -0.19333444709E+03  0.35898986259E+03  0.50400001928E-02 0. -1.
</event>
<event>
 5   0  0.2499890E-03  0.1190084E+04  0.7818609E-02  0.9121580E-01
       -2   -1    0    0    0  501  0.00000000000E+00  0.00000000000E+00  0.47218834393E+03  0.47218834394E+03  0.25500000920E-02 0.  1.
        2   -1    0    0  501    0  0.00000000000E+00  0.00000000000E+00 -0.74986003037E+03  0.74986003037E+03  0.25500000920E-02 0. -1.
    10030    2    1    2    0    0  0.00000000000E+00  0.00000000000E+00 -0.27767168643E+03  0.12220483743E+04  0.11900843095E+04 0.  0.
        5    1    3    3  502    0 -0.15761329149E+03 -0.20112068488E+02  0.44998198614E+03  0.47723403358E+03  0.46999998093E+01 0.  1.
       -5    1    3    3    0  502  0.15761329149E+03  0.20112068488E+02 -0.72765367258E+03  0.74481434074E+03  0.46999998093E+01 0. -1.
</event>
<event>
 5   0  0.2517023E-03  0.1110561E+04  0.7818609E-02  0.9194959E-01
        2   -1    0    0  501    0  0.00000000000E+00  0.00000000000E+00  0.77388471131E+03  0.77388471132E+03  0.25500000920E-02 0. -1.
       -2   -1    0    0    0  501  0.00000000000E+00  0.00000000000E+00 -0.39842678497E+03  0.39842678497E+03  0.25500000920E-02 0.  1.
    10030    2    1    2    0    0  0.00000000000E+00  0.00000000000E+00  0.37545792635E+03  0.11723114963E+04  0.11105609348E+04 0.  0.
        3    1    3    3  502    0 -0.33111213250E+02 -0.37786261068E+03 -0.24035663644E+03  0.44905214382E+03  0.10100000352E+00 0.  1.
       -3    1    3    3    0  502  0.33111213250E+02  0.37786261068E+03  0.61581456279E+03  0.72325935247E+03  0.10100000352E+00 0. -1.
</event>
<event>
 5   0  0.2579442E-03  0.1194503E+04  0.7818609E-02  0.9117681E-01
        2   -1    0    0  501    0  0.00000000000E+00  0.00000000000E+00  0.13538859545E+04  0.13538859545E+04  0.25500000920E-02 0.  1.
       -2   -1    0    0    0  501  0.00000000000E+00  0.00000000000E+00 -0.26347093230E+03  0.26347093231E+03  0.25500000920E-02 0. -1.
    10030    2    1    2    0    0  0.00000000000E+00  0.00000000000E+00  0.10904150222E+04  0.16173568868E+04  0.11945034026E+04 0.  0.
        4    1    3    3  502    0 -0.41667086831E+03  0.13302484525E+02  0.11242958362E+04  0.11990972892E+04  0.12699999809E+01 0.  1.
       -4    1    3    3    0  502  0.41667086831E+03 -0.13302484525E+02 -0.33880814014E+02  0.41825959768E+03  0.12699999809E+01 0. -1.
</event>
<event>
 5   0  0.1403154E-03  0.1201590E+04  0.7818609E-02  0.9111466E-01
       -1   -1    0    0    0  501  0.00000000000E+00  0.00000000000E+00  0.52772721675E+03  0.52772721677E+03  0.50400001928E-02 0. -1.
        1   -1    0    0  501    0  0.00000000000E+00  0.00000000000E+00 -0.68397908232E+03  0.68397908234E+03  0.50400001928E-02 0.  1.
    10030    2    1    2    0    0  0.00000000000E+00  0.00000000000E+00 -0.15625186557E+03  0.12117062991E+04  0.12015895763E+04 0.  0.
        3    1    3    3  502    0 -0.41596011804E+03 -0.43222298999E+03 -0.44455679100E+02  0.60151130537E+03  0.10100000352E+00 0. -1.
       -3    1    3    3    0  502  0.41596011804E+03  0.43222298999E+03 -0.11179618647E+03  0.61019499374E+03  0.10100000352E+00 0.  1.
</event>
<event>
 5   0  0.1423024E-03  0.1180692E+04  0.7818609E-02  0.9129927E-01
       -1   -1    0    0    0  501  0.00000000000E+00  0.00000000000E+00  0.18266099150E+03  0.18266099157E+03  0.50400001928E-02 0.  1.
        1   -1    0    0  501    0  0.00000000000E+00  0.00000000000E+00 -0.19079510647E+04  0.19079510647E+04  0.50400001928E-02 0. -1.
    10030    2    1    2    0    0  0.00000000000E+00  0.00000000000E+00 -0.17252900732E+04  0.20906120563E+04  0.11806917181E+04 0.  0.
        2    1    3    3  502    0  0.12499014394E+03 -0.19768205672E+03 -0.18224176950E+04  0.18373641410E+04  0.25500000920E-02 0. -1.
       -2    1    3    3    0  502 -0.12499014394E+03  0.19768205672E+03  0.97127621839E+02  0.25324791522E+03  0.25500000920E-02 0.  1.
</event>
<event>
 5   0  0.1403154E-03  0.1201838E+04  0.7818609E-02  0.9111249E-01
        1   -1    0    0  501    0  0.00000000000E+00  0.00000000000E+00  0.32162106080E+03  0.32162106084E+03  0.50400001928E-02 0. -1.
       -1   -1    0    0    0  501  0.00000000000E+00  0.00000000000E+00 -0.11227608645E+04  0.11227608646E+04  0.50400001928E-02 0.  1.
    10030    2    1    2    0    0  0.00000000000E+00  0.00000000000E+00 -0.80113980375E+03  0.14443819254E+04  0.12018378265E+04 0.  0.
        3    1    3    3  502    0 -0.13617825341E+03 -0.57832406832E+03 -0.29240500579E+03  0.66219630194E+03  0.10100000352E+00 0. -1.
       -3    1    3    3    0  502  0.13617825341E+03  0.57832406832E+03 -0.50873479796E+03  0.78218562346E+03  0.10100000352E+00 0.  1.
</event>
<event>
 5   0  0.2579442E-03  0.1200752E+04  0.7818609E-02  0.9112199E-01
        2   -1    0    0  501    0  0.00000000000E+00  0.00000000000E+00  0.46915142760E+03  0.46915142760E+03  0.25500000920E-02 0. -1.
       -2   -1    0    0    0  501  0.00000000000E+00  0.00000000000E+00 -0.76830462692E+03  0.76830462692E+03  0.25500000920E-02 0.  1.
    10030    2    1    2    0    0  0.00000000000E+00  0.00000000000E+00 -0.29915319932E+03  0.12374560545E+04  0.12007517854E+04 0.  0.
        4    1    3    3  502    0  0.11655891099E+02  0.87660930717E+02  0.46240130454E+03  0.47078326002E+03  0.12699999809E+01 0. -1.
       -4    1    3    3    0  502 -0.11655891099E+02 -0.87660930717E+02 -0.76155450387E+03  0.76667279450E+03  0.12699999809E+01 0.  1.
</event>
<event>
 5   0  0.1404833E-03  0.1199811E+04  0.7818609E-02  0.9113022E-01
       -1   -1    0    0    0  501  0.00000000000E+00  0.00000000000E+00  0.57866943402E+03  0.57866943405E+03  0.50400001928E-02 0.  1.
        1   -1    0    0  501    0  0.00000000000E+00  0.00000000000E+00 -0.62192121448E+03  0.62192121450E+03  0.50400001928E-02 0. -1.
    10030    2    1    2    0    0  0.00000000000E+00  0.00000000000E+00 -0.43251780452E+02  0.12005906485E+04  0.11998113139E+04 0.  0.
        1    1    3    3  502    0  0.43393233797E+03  0.36403011501E+03  0.17616787318E+03  0.59316972119E+03  0.50400001928E-02 0. -1.
       -1    1    3    3    0  502 -0.43393233797E+03 -0.36403011501E+03 -0.21941965363E+03  0.60742092736E+03  0.50400001928E-02 0.  1.
</event>
<event>
 5   0  0.1469851E-03  0.1188331E+04  0.7818609E-02  0.9123132E-01
       -1   -1    0    0    0  501  0.00000000000E+00  0.00000000000E+00  0.32816504548E+03  0.32816504552E+03  0.50400001928E-02 0.  1.
        1   -1    0    0  501    0  0.00000000000E+00  0.00000000000E+00 -0.10757785005E+04  0.10757785005E+04  0.50400001928E-02 0. -1.
    10030    2    1    2    0    0  0.00000000000E+00  0.00000000000E+00 -0.74761345506E+03  0.14039435461E+04  0.11883314362E+04 0.  0.
        5    1    3    3  502    0 -0.53887201500E+03  0.13248541386E+03 -0.12297541930E+03  0.56840168647E+03  0.46999998093E+01 0.  1.
       -5    1    3    3    0  502  0.53887201500E+03 -0.13248541386E+03 -0.62463803576E+03  0.83554185960E+03  0.46999998093E+01 0. -1.
</event>
<event>
 5   0  0.1404833E-03  0.1200867E+04  0.7818609E-02  0.9112098E-01
        1   -1    0    0  501    0  0.00000000000E+00  0.00000000000E+00  0.87820088905E+03  0.87820088906E+03  0.50400001928E-02 0. -1.
       -1   -1    0    0    0  501  0.00000000000E+00  0.00000000000E+00 -0.41052160988E+03  0.41052160991E+03  0.50400001928E-02 0.  1.
    10030    2    1    2    0    0  0.00000000000E+00  0.00000000000E+00  0.46767927917E+03  0.12887224990E+04  0.12008670914E+04 0.  0.
        1    1    3    3  502    0  0.26758132009E+03  0.10100063302E+02 -0.34289640943E+03  0.43506289403E+03  0.50400001928E-02 0.  1.
       -1    1    3    3    0  502 -0.26758132009E+03 -0.10100063302E+02  0.81057568860E+03  0.85365960494E+03  0.50400001928E-02 0. -1.
</event>
<event>
 5   0  0.1423024E-03  0.1206523E+04  0.7818609E-02  0.9107166E-01
       -1   -1    0    0    0  501  0.00000000000E+00  0.00000000000E+00  0.11162744481E+04  0.11162744481E+04  0.50400001928E-02 0.  1.
        1   -1    0    0  501    0  0.00000000000E+00  0.00000000000E+00 -0.32601723854E+03  0.32601723857E+03  0.50400001928E-02 0. -1.
    10030    2    1    2    0    0  0.00000000000E+00  0.00000000000E+00  0.79025720957E+03  0.14422916867E+04  0.12065234570E+04 0.  0.
        2    1    3    3  502    0  0.36286184691E+03 -0.47724733177E+03  0.47523879567E+03  0.76503963854E+03  0.25500000920E-02 0.  1.
       -2    1    3    3    0  502 -0.36286184691E+03  0.47724733177E+03  0.31501841391E+03  0.67725204815E+03  0.25500000920E-02 0. -1.
</event>
<event>
 5   0  0.2499890E-03  0.1143622E+04  0.7818609E-02  0.9163688E-01
        2   -1    0    0  501    0  0.00000000000E+00  0.00000000000E+00  0.13717514051E+04  0.13717514051E+04  0.25500000920E-02 0.  1.
       -2   -1    0    0    0  501  0.00000000000E+00  0.00000000000E+00 -0.23835780272E+03  0.23835780274E+03  0.25500000920E-02 0. -1.
    10030    2    1    2    0    0  0.00000000000E+00  0.00000000000E+00  0.11333936023E+04  0.16101092078E+04  0.11436217046E+04 0.  0.
        5    1    3    3  502    0 -0.59163655705E+02  0.40604307482E+03  0.11273435000E+04  0.11997069533E+04  0.46999998093E+01 0.  1.
       -5    1    3    3    0  502  0.59163655705E+02 -0.40604307482E+03  0.60501023310E+01  0.41040225451E+03  0.46999998093E+01 0. -1.
</event>
<event>
 5   0  0.2579442E-03  0.1196445E+04  0.7818609E-02  0.9115974E-01
        2   -1    0    0  501    0  0.00000000000E+00  0.00000000000E+00  0.83215439642E+03  0.83215439642E+03  0.25500000920E-02 0.  1.
       -2   -1    0    0    0  501  0.00000000000E+00  0.00000000000E+00 -0.43005257876E+03  0.43005257877E+03  0.25500000920E-02 0. -1.
    10030    2    1    2    0    0  0.00000000000E+00  0.00000000000E+00  0.40210181765E+03  0.12622069752E+04  0.11964449743E+04 0.  0.
        4    1    3    3  502    0 -0.28194101901E+03 -0.31236967723E+03  0.64963166172E+03  0.77400805052E+03  0.12699999809E+01 0.  1.
       -4    1    3    3    0  502  0.28194101901E+03  0.31236967723E+03 -0.24752984407E+03  0.48819892467E+03  0.12699999809E+01 0. -1.
</event>
<event>
 5   0  0.1403154E-03  0.1204249E+04  0.7818609E-02  0.9109146E-01
       -1   -1    0    0    0  501  0.00000000000E+00  0.00000000000E+00  0.27332824122E+03  0.27332824126E+03  0.50400001928E-02 0.  1.
        1   -1    0    0  501    0  0.00000000000E+00  0.00000000000E+00 -0.13264404976E+04  0.13264404976E+04  0.50400001928E-02 0. -1.
    10030    2    1    2    0    0  0.00000000000E+00  0.00000000000E+00 -0.10531122564E+04  0.15997687389E+04  0.12042485596E+04 0.  0.
        3    1    3    3  502    0  0.16956346322E+03 -0.48413561651E+03 -0.94541343927E+03  0.10756140779E+04  0.10100000352E+00 0. -1.
       -3    1    3    3    0  502 -0.16956346322E+03  0.48413561651E+03 -0.10769881714E+03  0.52415466100E+03  0.10100000352E+00 0.  1.
</event>
<event>
 5   0  0.1423024E-03  0.1203142E+04  0.7818609E-02  0.9110110E-01
        1   -1    0    0  501    0  0.00000000000E+00  0.00000000000E+00  0.12106727350E+04  0.12106727350E+04  0.50400001928E-02 0.  1.
       -1   -1    0    0    0  501  0.00000000000E+00  0.00000000000E+00 -0.29891473796E+03  0.29891473800E+03  0.50400001928E-02 0. -1.
    10030    2    1    2    0    0  0.00000000000E+00  0.00000000000E+00  0.91175799702E+03  0.15095874730E+04  0.12031424244E+04 0.  0.
        2    1    3    3  502    0  0.44672103210E+02  0.74775716941E+02  0.12027186741E+04  0.12058686552E+04  0.25500000920E-02 0.  1.
       -2    1    3    3    0  502 -0.44672103210E+02 -0.74775716941E+02 -0.29096067708E+03  0.30371881776E+03  0.25500000920E-02 0. -1.
</event>
<event>
 5   0  0.2579442E-03  0.1200712E+04  0.7818609E-02  0.9112234E-01
       -2   -1    0    0    0  501  0.00000000000E+00  0.00000000000E+00  0.39269134354E+03  0.39269134355E+03  0.25500000920E-02 0. -1.
        2   -1    0    0  501    0  0.00000000000E+00  0.00000000000E+00 -0.91783834635E+03  0.91783834635E+03  0.25500000920E-02 0.  1.
    10030    2    1    2    0    0  0.00000000000E+00  0.00000000000E+00 -0.52514700281E+03  0.13105296899E+04  0.12007117446E+04 0.  0.
        4    1    3    3  502    0 -0.56050895133E+03 -0.14504155075E+03 -0.43590015777E+03  0.72471918452E+03  0.12699999809E+01 0. -1.
       -4    1    3    3    0  502  0.56050895133E+03  0.14504155075E+03 -0.89246845032E+02  0.58581050538E+03  0.12699999809E+01 0.  1.
</event>
<event>
 5   0  0.1404833E-03  0.1195764E+04  0.7818609E-02  0.9116573E-01
        1   -1    0    0  501    0  0.00000000000E+00  0.00000000000E+00  0.43737995432E+03  0.43737995435E+03  0.50400001928E-02 0.  1.
       -1   -1    0    0    0  501  0.00000000000E+00  0.00000000000E+00 -0.81728181964E+03  0.81728181966E+03  0.50400001928E-02 0. -1.
    10030    2    1    2    0    0  0.00000000000E+00  0.00000000000E+00 -0.37990186532E+03  0.12546617740E+04  0.11957636639E+04 0.  0.
        1    1    3    3  502    0  0.22965523603E+03 -0.10396050313E+03 -0.75879205734E+03  0.79957157275E+03  0.50400001928E-02 0. -1.
       -1    1    3    3    0  502 -0.22965523603E+03  0.10396050313E+03  0.37889019201E+03  0.45509020125E+03  0.50400001928E-02 0.  1.
</event>
<event>
 5   0  0.2580244E-03  0.1179913E+04  0.7818609E-02  0.9130622E-01
       -2   -1    0    0    0  501  0.00000000000E+00  0.00000000000E+00  0.12906855768E+04  0.12906855768E+04  0.25500000920E-02 0. -1.
        2   -1    0    0  501    0  0.00000000000E+00  0.00000000000E+00 -0.26966208207E+03  0.26966208208E+03  0.25500000920E-02 0.  1.
    10030    2    1    2    0    0  0.00000000000E+00  0.00000000000E+00  0.10210234948E+04  0.15603476589E+04  0.11799134883E+04 0.  0.
        1    1    3    3  502    0  0.26342461976E+02  0.47120405303E+03  0.42362341439E+02  0.47383726414E+03  0.50400001928E-02 0.  1.
       -1    1    3    3    0  502 -0.26342461976E+02 -0.47120405303E+03  0.97866115333E+03  0.10865103948E+04  0.50400001928E-02 0. -1.
</event>
<event>
 5   0  0.1404833E-03  0.1168214E+04  0.7818609E-02  0.9141143E-01
        1   -1    0    0  501    0  0.00000000000E+00  0.00000000000E+00  0.69067920867E+03  0.69067920869E+03  0.50400001928E-02 0. -1.
       -1   -1    0    0    0  501  0.00000000000E+00  0.00000000000E+00 -0.49397904709E+03  0.49397904712E+03  0.50400001928E-02 0.  1.
    10030    2    1    2    0    0  0.00000000000E+00  0.00000000000E+00  0.19670016158E+03  0.11846582558E+04  0.11682141197E+04 0.  0.
        1    1    3    3  502    0 -0.16498899333E+03  0.69654607652E+02  0.66215090212E+03  0.68594238059E+03  0.50400001928E-02 0. -1.
       -1    1    3    3    0  502  0.16498899333E+03 -0.69654607652E+02 -0.46545074054E+03  0.49871587521E+03  0.50400001928E-02 0.  1.
</event>
<event>
 5   0  0.1404833E-03  0.1207478E+04  0.7818609E-02  0.9106336E-01
       -1   -1    0    0    0  501  0.00000000000E+00  0.00000000000E+00  0.68456166187E+03  0.68456166189E+03  0.50400001928E-02 0.  1.
        1   -1    0    0  501    0  0.00000000000E+00  0.00000000000E+00 -0.53245891021E+03  0.53245891024E+03  0.50400001928E-02 0. -1.
    10030    2    1    2    0    0  0.00000000000E+00  0.00000000000E+00  0.15210275165E+03  0.12170205721E+04  0.12074782921E+04 0.  0.
        1    1    3    3  502    0 -0.86248086327E+02 -0.46533359518E+03  0.45388297210E+03  0.65573153012E+03  0.50400001928E-02 0.  1.
       -1    1    3    3    0  502  0.86248086327E+02  0.46533359518E+03 -0.30178022045E+03  0.56128904201E+03  0.50400001928E-02 0. -1.
</event>
<event>
 5   0  0.2517023E-03  0.1191377E+04  0.7818609E-02  0.9120438E-01
        2   -1    0    0  501    0  0.00000000000E+00  0.00000000000E+00  0.83803791196E+03  0.83803791197E+03  0.25500000920E-02 0. -1.
       -2   -1    0    0    0  501  0.00000000000E+00  0.00000000000E+00 -0.42342320948E+03  0.42342320948E+03  0.25500000920E-02 0.  1.
    10030    2    1    2    0    0  0.00000000000E+00  0.00000000000E+00  0.41461470248E+03  0.12614611214E+04  0.11913768545E+04 0.  0.
        3    1    3    3  502    0  0.17424911584E+03 -0.36340765655E+03 -0.25715040513E+03  0.47807344653E+03  0.10100000352E+00 0.  1.
       -3    1    3    3    0  502 -0.17424911584E+03  0.36340765655E+03  0.67176510761E+03  0.78338767492E+03  0.10100000352E+00 0. -1.
</event>
<event>
 5   0  0.1469851E-03  0.1178386E+04  0.7818609E-02  0.9131988E-01
        1   -1    0    0  501    0  0.00000000000E+00  0.00000000000E+00  0.84460063436E+03  0.84460063437E+03  0.50400001928E-02 0.  1.
       -1   -1    0    0    0  501  0.00000000000E+00  0.00000000000E+00 -0.41102086917E+03  0.41102086920E+03  0.50400001928E-02 0. -1.
    10030    2    1    2    0    0  0.00000000000E+00  0.00000000000E+00  0.43357976519E+03  0.12556215036E+04  0.11783861623E+04 0.  0.
        5    1    3    3  502    0 -0.10917391502E+03 -0.54185588809E+03 -0.53824960132E+00  0.55276498341E+03  0.46999998093E+01 0.  1.
       -5    1    3    3    0  502  0.10917391502E+03  0.54185588809E+03  0.43411801479E+03  0.70285652016E+03  0.46999998093E+01 0. -1.
</event>
<event>
 5   0  0.2517023E-03  0.1201447E+04  0.7818609E-02  0.9111591E-01
       -2   -1    0    0    0  501  0.00000000000E+00  0.00000000000E+00  0.56645673711E+03  0.56645673712E+03  0.25500000920E-02 0.  1.
        2   -1    0    0  501    0  0.00000000000E+00  0.00000000000E+00 -0.63706343474E+03  0.63706343474E+03  0.25500000920E-02 0. -1.
    10030    2    1    2    0    0  0.00000000000E+00  0.00000000000E+00 -0.70606697626E+02  0.12035201719E+04  0.12014472516E+04 0.  0.
        3    1    3    3  502    0  0.12760458125E+03  0.58541365660E+03 -0.78699981379E+02  0.60430602823E+03  0.10100000352E+00 0. -1.
       -3    1    3    3    0  502 -0.12760458125E+03 -0.58541365660E+03  0.80932837538E+01  0.59921414363E+03  0.10100000352E+00 0.  1.
</event>
<event>
 5   0  0.2579442E-03  0.1190269E+04  0.7818609E-02  0.9121417E-01
       -2   -1    0    0    0  501  0.00000000000E+00  0.00000000000E+00  0.20705024780E+03  0.20705024782E+03  0.25500000920E-02 0.  1.
        2   -1    0    0  501    0  0.00000000000E+00  0.00000000000E+00 -0.17106238468E+04  0.17106238468E+04  0.25500000920E-02 0. -1.
    10030    2    1    2    0    0  0.00000000000E+00  0.00000000000E+00 -0.15035735990E+04  0.19176740947E+04  0.11902690308E+04 0.  0.
        4    1    3    3  502    0 -0.34366294224E+03 -0.26809052323E+03 -0.98919154129E+02  0.44694894392E+03  0.12699999809E+01 0.  1.
       -4    1    3    3    0  502  0.34366294224E+03  0.26809052323E+03 -0.14046544449E+04  0.14707251507E+04  0.12699999809E+01 0. -1.
</event>
<event>
 5   0  0.2517023E-03  0.1204398E+04  0.7818609E-02  0.9109015E-01
       -2   -1    0    0    0  501  0.00000000000E+00  0.00000000000E+00  0.60794728081E+03  0.60794728081E+03  0.25500000920E-02 0.  1.
        2   -1    0    0  501    0  0.00000000000E+00  0.00000000000E+00 -0.59650526129E+03  0.59650526129E+03  0.25500000920E-02 0. -1.
    10030    2    1    2    0    0  0.00000000000E+00  0.00000000000E+00  0.11442019520E+02  0.12044525421E+04  0.12043981926E+04 0.  0.
        3    1    3    3  502    0 -0.59336147905E+03 -0.83150798835E+02 -0.54712183261E+02  0.60165216975E+03  0.10100000352E+00 0. -1.
       -3    1    3    3    0  502  0.59336147905E+03  0.83150798835E+02  0.66154202781E+02  0.60280037236E+03  0.10100000352E+00 0.  1.
</event>
<event>
 5   0  0.2580244E-03  0.1189597E+04  0.7818609E-02  0.9122011E-01
        2   -1    0    0  501    0  0.00000000000E+00  0.00000000000E+00  0.48686092521E+03  0.48686092521E+03  0.25500000920E-02 0.  1.
       -2   -1    0    0    0  501  0.00000000000E+00  0.00000000000E+00 -0.72666571316E+03  0.72666571316E+03  0.25500000920E-02 0. -1.
    10030    2    1    2    0    0  0.00000000000E+00  0.00000000000E+00 -0.23980478795E+03  0.12135266384E+04  0.11895968080E+04 0.  0.
        1    1    3    3  502    0  0.14302206516E+03  0.19290106675E+03 -0.67501701634E+03  0.71645942317E+03  0.50400001928E-02 0. -1.
       -1    1    3    3    0  502 -0.14302206516E+03 -0.19290106675E+03  0.43521222839E+03  0.49706721521E+03  0.50400001928E-02 0.  1.
</event>
<event>
 5   0  0.1423024E-03  0.1200021E+04  0.7818609E-02  0.9112838E-01
        1   -1    0    0  501    0  0.00000000000E+00  0.00000000000E+00  0.51063643058E+03  0.51063643060E+03  0.50400001928E-02 0.  1.
       -1   -1    0    0    0  501  0.00000000000E+00  0.00000000000E+00 -0.70502715865E+03  0.70502715867E+03  0.50400001928E-02 0. -1.
    10030    2    1    2    0    0  0.00000000000E+00  0.00000000000E+00 -0.19439072807E+03  0.12156635893E+04  0.12000209194E+04 0.  0.
        2    1    3    3  502    0 -0.32448501625E+03 -0.15278437852E+03 -0.58448427032E+03  0.68575174396E+03  0.25500000920E-02 0. -1.
       -2    1    3    3    0  502  0.32448501625E+03  0.15278437852E+03  0.39009354224E+03  0.52991184531E+03  0.25500000920E-02 0.  1.
</event>
<event>
 5   0  0.1455076E-03  0.1196719E+04  0.7818609E-02  0.9115733E-01
        1   -1    0    0  501    0  0.00000000000E+00  0.00000000000E+00  0.40710745641E+03  0.40710745644E+03  0.50400001928E-02 0. -1.
       -1   -1    0    0    0  501  0.00000000000E+00  0.00000000000E+00 -0.87945913954E+03  0.87945913956E+03  0.50400001928E-02 0.  1.
    10030    2    1    2    0    0  0.00000000000E+00  0.00000000000E+00 -0.47235168314E+03  0.12865665960E+04  0.11967194715E+04 0.  0.
        4    1    3    3  502    0 -0.59489443238E+03 -0.54753359280E+02 -0.19994963555E+03  0.62998316302E+03  0.12699999809E+01 0. -1.
       -4    1    3    3    0  502  0.59489443238E+03  0.54753359280E+02 -0.27240204759E+03  0.65658343298E+03  0.12699999809E+01 0.  1.
</event>
<event>
 5   0  0.2499890E-03  0.1222934E+04  0.7818609E-02  0.9093016E-01
       -2   -1    0    0    0  501  0.00000000000E+00  0.00000000000E+00  0.43053469489E+03  0.43053469490E+03  0.25500000920E-02 0.  1.
        2   -1    0    0  501    0  0.00000000000E+00  0.00000000000E+00 -0.86843678626E+03  0.86843678626E+03  0.25500000920E-02 0. -1.
    10030    2    1    2    0    0  0.00000000000E+00  0.00000000000E+00 -0.43790209137E+03  0.12989714812E+04  0.12229344493E+04 0.  0.
        5    1    3    3  502    0  0.31981244825E+03  0.41143498971E+03 -0.55870012597E+03  0.76402007405E+03  0.46999998093E+01 0. -1.
       -5    1    3    3    0  502 -0.31981244825E+03 -0.41143498971E+03  0.12079803460E+03  0.53495140711E+03  0.46999998093E+01 0.  1.
</event>
<event>
 5   0  0.1404833E-03  0.1197020E+04  0.7818609E-02  0.9115469E-01
       -1   -1    0    0    0  501  0.00000000000E+00  0.00000000000E+00  0.21178026200E+03  0.21178026206E+03  0.50400001928E-02 0. -1.
        1   -1    0    0  501    0  0.00000000000E+00  0.00000000000E+00 -0.16914438597E+04  0.16914438597E+04  0.50400001928E-02 0.  1.
    10030    2    1    2    0    0  0.00000000000E+00  0.00000000000E+00 -0.14796635977E+04  0.19032241218E+04  0.11970203404E+04 0.  0.
        1    1    3    3  502    0  0.38068178708E+03  0.23348703483E+03 -0.13733888989E+04  0.14441716955E+04  0.50400001928E-02 0.  1.
       -1    1    3    3    0  502 -0.38068178708E+03 -0.23348703483E+03 -0.10627469883E+03  0.45905242629E+03  0.50400001928E-02 0. -1.
</event>
<event>
 5   0  0.1455076E-03  0.1201111E+04  0.7818609E-02  0.9111885E-01
       -1   -1    0    0    0  501  0.00000000000E+00  0.00000000000E+00  0.25065617743E+03  0.25065617748E+03  0.50400001928E-02 0.  1.
        1   -1    0    0  501    0  0.00000000000E+00  0.00000000000E+00 -0.14388902776E+04  0.14388902776E+04  0.50400001928E-02 0. -1.
    10030    2    1    2    0    0  0.00000000000E+00  0.00000000000E+00 -0.11882341002E+04  0.16895464551E+04  0.12011107139E+04 0.  0.
        4    1    3    3  502    0  0.57880198080E+03  0.15376376678E+03 -0.53105103644E+03  0.80041979308E+03  0.12699999809E+01 0.  1.
       -4    1    3    3    0  502 -0.57880198080E+03 -0.15376376678E+03 -0.65718306371E+03  0.88912666200E+03  0.12699999809E+01 0. -1.
</event>
<event>
 5   0  0.1469851E-03  0.1174023E+04  0.7818609E-02  0.9135903E-01
       -1   -1    0    0    0  501  0.00000000000E+00  0.00000000000E+00  0.11477305231E+04  0.11477305231E+04  0.50400001928E-02 0.  1.
        1   -1    0    0  501    0  0.00000000000E+00  0.00000000000E+00 -0.30022920502E+03  0.30022920506E+03  0.50400001928E-02 0. -1.
    10030    2    1    2    0    0  0.00000000000E+00  0.00000000000E+00  0.84750131805E+03  0.14479597281E+04  0.11740225254E+04 0.  0.
        5    1    3    3  502    0 -0.91509674649E+02  0.24665446785E+02 -0.29070720026E+03  0.30580250343E+03  0.46999998093E+01 0. -1.
       -5    1    3    3    0  502  0.91509674649E+02 -0.24665446785E+02  0.11382085183E+04  0.11421572247E+04  0.46999998093E+01 0.  1.
</event>
<event>
 5   0  0.2579442E-03  0.1225436E+04  0.7818609E-02  0.9090880E-01
       -2   -1    0    0    0  501  0.00000000000E+00  0.00000000000E+00  0.12006228472E+04  0.12006228472E+04  0.25500000920E-02 0. -1.
        2   -1    0    0  501    0  0.00000000000E+00  0.00000000000E+00 -0.31269029702E+03  0.31269029703E+03  0.25500000920E-02 0.  1.
    10030    2    1    2    0    0  0.00000000000E+00  0.00000000000E+00  0.88793255017E+03  0.15133131442E+04  0.12254356200E+04 0.  0.
        4    1    3    3  502    0  0.18247724158E+03  0.42240257596E+03 -0.55679411518E+02  0.46349076543E+03  0.12699999809E+01 0.  1.
       -4    1    3    3    0  502 -0.18247724158E+03 -0.42240257596E+03  0.94361196168E+03  0.10498223788E+04  0.12699999809E+01 0. -1.
</event>
<event>
 5   0  0.1404833E-03  0.1214970E+04  0.7818609E-02  0.9099853E-01
       -1   -1    0    0    0  501  0.00000000000E+00  0.00000000000E+00  0.46828174257E+03  0.46828174260E+03  0.50400001928E-02 0. -1.
        1   -1    0    0  501    0  0.00000000000E+00  0.00000000000E+00 -0.78806835729E+03  0.78806835730E+03  0.50400001928E-02 0.  1.
    10030    2    1    2    0    0  0.00000000000E+00  0.00000000000E+00 -0.31978661471E+03  0.12563500999E+04  0.12149699974E+04 0.  0.
        1    1    3    3  502    0 -0.97958072857E+02  0.22745663000E+03 -0.73349828390E+03  0.77417829669E+03  0.50400001928E-02 0.  1.
       -1    1    3    3    0  502  0.97958072857E+02 -0.22745663000E+03  0.41371166918E+03  0.48217180321E+03  0.50400001928E-02 0. -1.
</event>
<event>
 5   0  0.2484507E-03  0.1205571E+04  0.7818609E-02  0.9107995E-01
       -2   -1    0    0    0  501  0.00000000000E+00  0.00000000000E+00  0.44165946243E+03  0.44165946243E+03  0.25500000920E-02 0. -1.
        2   -1    0    0  501    0  0.00000000000E+00  0.00000000000E+00 -0.82269280714E+03  0.82269280715E+03  0.25500000920E-02 0.  1.
    10030    2    1    2    0    0  0.00000000000E+00  0.00000000000E+00 -0.38103334472E+03  0.12643522696E+04  0.12055705088E+04 0.  0.
        2    1    3    3  502    0  0.19996650838E+03 -0.99979396413E+02 -0.77760373203E+03  0.80910447301E+03  0.25500000920E-02 0.  1.
       -2    1    3    3    0  502 -0.19996650838E+03  0.99979396413E+02  0.39657038731E+03  0.45524779657E+03  0.25500000920E-02 0. -1.
</event>
<event>
 5   0  0.2499890E-03  0.1190751E+04  0.7818609E-02  0.9120991E-01
       -2   -1    0    0    0  501  0.00000000000E+00  0.00000000000E+00  0.58404726928E+03  0.58404726929E+03  0.25500000920E-02 0.  1.
        2   -1    0    0  501    0  0.00000000000E+00  0.00000000000E+00 -0.60692298347E+03  0.60692298348E+03  0.25500000920E-02 0. -1.
    10030    2    1    2    0    0  0.00000000000E+00  0.00000000000E+00 -0.22875714193E+02  0.11909702528E+04  0.11907505384E+04 0.  0.
        5    1    3    3  502    0 -0.21698718443E+03 -0.53324420301E+03 -0.16317874716E+03  0.59839970903E+03  0.46999998093E+01 0. -1.
       -5    1    3    3    0  502  0.21698718443E+03  0.53324420301E+03  0.14030303296E+03  0.59257054373E+03  0.46999998093E+01 0.  1.
</event>
<event>
 5   0  0.1403154E-03  0.1217351E+04  0.7818609E-02  0.9097803E-01
       -1   -1    0    0    0  501  0.00000000000E+00  0.00000000000E+00  0.50471596735E+03  0.50471596738E+03  0.50400001928E-02 0. -1.
        1   -1    0    0  501    0  0.00000000000E+00  0.00000000000E+00 -0.73404816026E+03  0.73404816028E+03  0.50400001928E-02 0.  1.
    10030    2    1    2    0    0  0.00000000000E+00  0.00000000000E+00 -0.22933219291E+03  0.12387641277E+04  0.12173509392E+04 0.  0.
        3    1    3    3  502    0 -0.15312765429E+03 -0.48551993311E+03 -0.45416335742E+03  0.68223313419E+03  0.10100000352E+00 0.  1.
       -3    1    3    3    0  502  0.15312765429E+03  0.48551993311E+03  0.22483116451E+03  0.55653099347E+03  0.10100000352E+00 0. -1.
</event>
<event>
 5   0  0.9678750E-04  0.1176829E+04  0.7818609E-02  0.9133383E-01
       -3   -1    0    0    0  501  0.00000000000E+00  0.00000000000E+00  0.77797456807E+03  0.77797457462E+03  0.10100000352E+00 0. -1.
        3   -1    0    0  501    0  0.00000000000E+00  0.00000000000E+00 -0.44504223933E+03  0.44504225079E+03  0.10100000352E+00 0.  1.
    10030    2    1    2    0    0  0.00000000000E+00  0.00000000000E+00  0.33293232874E+03  0.12230168254E+04  0.11768288829E+04 0.  0.
        3    1    3    3  502    0  0.27419626904E+03  0.13594807683E+03 -0.35581771028E+03  0.46933114823E+03  0.10100000352E+00 0.  1.
       -3    1    3    3    0  502 -0.27419626904E+03 -0.13594807683E+03  0.68875003902E+03  0.75368567718E+03  0.10100000352E+00 0. -1.
</event>
<event>
 5   0  0.1469851E-03  0.1200965E+04  0.7818609E-02  0.9112013E-01
       -1   -1    0    0    0  501  0.00000000000E+00  0.00000000000E+00  0.20020256470E+03  0.20020256477E+03  0.50400001928E-02 0.  1.
        1   -1    0    0  501    0  0.00000000000E+00  0.00000000000E+00 -0.18010708491E+04  0.18010708491E+04  0.50400001928E-02 0. -1.
    10030    2    1    2    0    0  0.00000000000E+00  0.00000000000E+00 -0.16008682844E+04  0.20012734138E+04  0.12009646177E+04 0.  0.
        5    1    3    3  502    0  0.70180198506E+02 -0.27166775711E+03 -0.16850780694E+04  0.17082853451E+04  0.46999998093E+01 0. -1.
       -5    1    3    3    0  502 -0.70180198506E+02  0.27166775711E+03  0.84209785009E+02  0.29298806871E+03  0.46999998093E+01 0.  1.
</event>
<event>
 5   0  0.2484507E-03  0.1199096E+04  0.7818609E-02  0.9113648E-01
        2   -1    0    0  501    0  0.00000000000E+00  0.00000000000E+00  0.14242818951E+04  0.14242818951E+04  0.25500000920E-02 0. -1.
       -2   -1    0    0    0  501  0.00000000000E+00  0.00000000000E+00 -0.25237815960E+03  0.25237815961E+03  0.25500000920E-02 0.  1.
    10030    2    1    2    0    0  0.00000000000E+00  0.00000000000E+00  0.11719037355E+04  0.16766600547E+04  0.11990957317E+04 0.  0.
        2    1    3    3  502    0  0.21301012200E+03  0.55528212821E+03  0.47995882694E+03  0.76424605302E+03  0.25500000920E-02 0. -1.
       -2    1    3    3    0  502 -0.21301012200E+03 -0.55528212821E+03  0.69194490853E+03  0.91241400166E+03  0.25500000920E-02 0.  1.
</event>
<event>
 5   0  0.1455076E-03  0.1203292E+04  0.7818609E-02  0.9109980E-01
        1   -1    0    0  501    0  0.00000000000E+00  0.00000000000E+00  0.15408320145E+04  0.15408320145E+04  0.50400001928E-02 0. -1.
       -1   -1    0    0    0  501  0.00000000000E+00  0.00000000000E+00 -0.23492361657E+03  0.23492361662E+03  0.50400001928E-02 0.  1.
    10030    2    1    2    0    0  0.00000000000E+00  0.00000000000E+00  0.13059083979E+04  0.17757556311E+04  0.12032918672E+04 0.  0.
        4    1    3    3  502    0  0.11089294943E+03 -0.11477483608E+02  0.15254536379E+04  0.15295226030E+04  0.12699999809E+01 0. -1.
       -4    1    3    3    0  502 -0.11089294943E+03  0.11477483608E+02 -0.21954523994E+03  0.24623302813E+03  0.12699999809E+01 0.  1.
</event>
<event>
 5   0  0.2517023E-03  0.1237450E+04  0.7818609E-02  0.9080694E-01
       -2   -1    0    0    0  501  0.00000000000E+00  0.00000000000E+00  0.13461415420E+03  0.13461415422E+03  0.25500000920E-02 0. -1.
        2   -1    0    0  501    0  0.00000000000E+00  0.00000000000E+00 -0.28438355719E+04  0.28438355719E+04  0.25500000920E-02 0.  1.
    10030    2    1    2    0    0  0.00000000000E+00  0.00000000000E+00 -0.27092214177E+04  0.29784497262E+04  0.12374498297E+04 0.  0.
        3    1    3    3  502    0  0.22940017189E+03  0.26710736609E+03 -0.25791889225E+04  0.26031108874E+04  0.10100000352E+00 0.  1.
       -3    1    3    3    0  502 -0.22940017189E+03 -0.26710736609E+03 -0.13003249526E+03  0.37533883880E+03  0.10100000352E+00 0. -1.
</event>
<event>
 5   0  0.2499890E-03  0.1388801E+04  0.7818609E-02  0.8961965E-01
        2   -1    0    0  501    0  0.00000000000E+00  0.00000000000E+00  0.60647075840E+03  0.60647075841E+03  0.25500000920E-02 0.  1.
       -2   -1    0    0    0  501  0.00000000000E+00  0.00000000000E+00 -0.79507908177E+03  0.79507908178E+03  0.25500000920E-02 0. -1.
    10030    2    1    2    0    0  0.00000000000E+00  0.00000000000E+00 -0.18860832337E+03  0.14015498402E+04  0.13888012294E+04 0.  0.
        5    1    3    3  502    0 -0.59939821767E+02 -0.13063388039E+03 -0.77988712106E+03  0.79303468053E+03  0.46999998093E+01 0. -1.
       -5    1    3    3    0  502  0.59939821767E+02  0.13063388039E+03  0.59127879768E+03  0.60851515965E+03  0.46999998093E+01 0.  1.
</event>
<event>
 5   0  0.2580244E-03  0.1213098E+04  0.7818609E-02  0.9101469E-01
       -2   -1    0    0    0  501  0.00000000000E+00  0.00000000000E+00  0.43694604150E+03  0.43694604150E+03  0.25500000920E-02 0. -1.
        2   -1    0    0  501    0  0.00000000000E+00  0.00000000000E+00 -0.84198398222E+03  0.84198398222E+03  0.25500000920E-02 0.  1.
    10030    2    1    2    0    0  0.00000000000E+00  0.00000000000E+00 -0.40503794072E+03  0.12789300237E+04  0.12130977999E+04 0.  0.
        1    1    3    3  502    0 -0.50212330609E+03  0.10260470528E+03  0.13950285848E+03  0.53114648414E+03  0.50400001928E-02 0.  1.
       -1    1    3    3    0  502  0.50212330609E+03 -0.10260470528E+03 -0.54454079920E+03  0.74778353959E+03  0.50400001928E-02 0. -1.
</event>
<event>
 5   0  0.1455076E-03  0.1181554E+04  0.7818609E-02  0.9129157E-01
       -1   -1    0    0    0  501  0.00000000000E+00  0.00000000000E+00  0.25837549423E+03  0.25837549428E+03  0.50400001928E-02 0. -1.
        1   -1    0    0  501    0  0.00000000000E+00  0.00000000000E+00 -0.13508147063E+04  0.13508147063E+04  0.50400001928E-02 0.  1.
    10030    2    1    2    0    0  0.00000000000E+00  0.00000000000E+00 -0.10924392121E+04  0.16091902006E+04  0.11815539216E+04 0.  0.
        4    1    3    3  502    0  0.47677695334E+03  0.33379157111E+03 -0.68432416456E+03  0.89835085088E+03  0.12699999809E+01 0.  1.
       -4    1    3    3    0  502 -0.47677695334E+03 -0.33379157111E+03 -0.40811504749E+03  0.71083934969E+03  0.12699999809E+01 0. -1.
</event>
<event>
 5   0  0.2580244E-03  0.1202576E+04  0.7818609E-02  0.9110605E-01
        2   -1    0    0  501    0  0.00000000000E+00  0.00000000000E+00  0.42687326229E+03  0.42687326230E+03  0.25500000920E-02 0. -1.
       -2   -1    0    0    0  501  0.00000000000E+00  0.00000000000E+00 -0.84696634597E+03  0.84696634597E+03  0.25500000920E-02 0.  1.
    10030    2    1    2    0    0  0.00000000000E+00  0.00000000000E+00 -0.42009308368E+03  0.12738396083E+04  0.12025760469E+04 0.  0.
        1    1    3    3  502    0 -0.14751567899E+03  0.57771859097E+03 -0.12780790613E+03  0.60979874286E+03  0.50400001928E-02 0.  1.
       -1    1    3    3    0  502  0.14751567899E+03 -0.57771859097E+03 -0.29228517755E+03  0.66404086541E+03  0.50400001928E-02 0. -1.
</event>
<event>
 5   0  0.1455076E-03  0.1197812E+04  0.7818609E-02  0.9114774E-01
        1   -1    0    0  501    0  0.00000000000E+00  0.00000000000E+00  0.72446967129E+03  0.72446967131E+03  0.50400001928E-02 0. -1.
       -1   -1    0    0    0  501  0.00000000000E+00  0.00000000000E+00 -0.49510474601E+03  0.49510474604E+03  0.50400001928E-02 0.  1.
    10030    2    1    2    0    0  0.00000000000E+00  0.00000000000E+00  0.22936492528E+03  0.12195744173E+04  0.11978119596E+04 0.  0.
        4    1    3    3  502    0 -0.40853166700E+03 -0.31089464020E+03 -0.19935800900E+03  0.55072572929E+03  0.12699999809E+01 0.  1.
       -4    1    3    3    0  502  0.40853166700E+03  0.31089464020E+03  0.42872293427E+03  0.66884868806E+03  0.12699999809E+01 0. -1.
</event>
<event>
 5   0  0.2579442E-03  0.1205162E+04  0.7818609E-02  0.9108350E-01
        2   -1    0    0  501    0  0.00000000000E+00  0.00000000000E+00  0.18516884416E+04  0.18516884416E+04  0.25500000920E-02 0.  1.
       -2   -1    0    0    0  501  0.00000000000E+00  0.00000000000E+00 -0.19609353475E+03  0.19609353476E+03  0.25500000920E-02 0. -1.
    10030    2    1    2    0    0  0.00000000000E+00  0.00000000000E+00  0.16555949068E+04  0.20477819764E+04  0.12051624484E+04 0.  0.
        4    1    3    3  502    0 -0.58635408267E+03 -0.12364310525E+03  0.72028127185E+03  0.93696608862E+03  0.12699999809E+01 0.  1.
       -4    1    3    3    0  502  0.58635408267E+03  0.12364310525E+03  0.93531363499E+03  0.11108158877E+04  0.12699999809E+01 0. -1.
</event>
<event>
 5   0  0.1404833E-03  0.1218568E+04  0.7818609E-02  0.9096757E-01
       -1   -1    0    0    0  501  0.00000000000E+00  0.00000000000E+00  0.13650696321E+03  0.13650696330E+03  0.50400001928E-02 0. -1.
        1   -1    0    0  501    0  0.00000000000E+00  0.00000000000E+00 -0.27194750171E+04  0.27194750172E+04  0.50400001928E-02 0.  1.
    10030    2    1    2    0    0  0.00000000000E+00  0.00000000000E+00 -0.25829680539E+04  0.28559819805E+04  0.12185684655E+04 0.  0.
        1    1    3    3  502    0 -0.31835489365E+03 -0.46002141183E+03 -0.72578902838E+03  0.91637287792E+03  0.50400001928E-02 0. -1.
       -1    1    3    3    0  502  0.31835489365E+03  0.46002141183E+03 -0.18571790256E+04  0.19396091025E+04  0.50400001928E-02 0.  1.
</event>
<event>
 5   0  0.2499890E-03  0.1181302E+04  0.7818609E-02  0.9129382E-01
       -2   -1    0    0    0  501  0.00000000000E+00  0.00000000000E+00  0.71574692960E+03  0.71574692960E+03  0.25500000920E-02 0. -1.
        2   -1    0    0  501    0  0.00000000000E+00  0.00000000000E+00 -0.48741891246E+03  0.48741891247E+03  0.25500000920E-02 0.  1.
    10030    2    1    2    0    0  0.00000000000E+00  0.00000000000E+00  0.22832801714E+03  0.12031658421E+04  0.11813019767E+04 0.  0.
        5    1    3    3  502    0 -0.34012748445E+03 -0.38485710888E+03 -0.18285787336E+03  0.54521627982E+03  0.46999998093E+01 0.  1.
       -5    1    3    3    0  502  0.34012748445E+03  0.38485710888E+03  0.41118589049E+03  0.65794956225E+03  0.46999998093E+01 0. -1.
</event>
<event>
 5   0  0.2499890E-03  0.1189052E+04  0.7818609E-02  0.9122494E-01
       -2   -1    0    0    0  501  0.00000000000E+00  0.00000000000E+00  0.64244334052E+03  0.64244334052E+03  0.25500000920E-02 0.  1.
        2   -1    0    0  501    0  0.00000000000E+00  0.00000000000E+00 -0.55018226509E+03  0.55018226510E+03  0.25500000920E-02 0. -1.
    10030    2    1    2    0    0  0.00000000000E+00  0.00000000000E+00  0.92261075426E+02  0.11926256056E+04  0.11890516091E+04 0.  0.
        5    1    3    3  502    0  0.41043219379E+03  0.24804963019E+02  0.47680323430E+03  0.62962948321E+03  0.46999998093E+01 0.  1.
       -5    1    3    3    0  502 -0.41043219379E+03 -0.24804963019E+02 -0.38454215888E+03  0.56299612240E+03  0.46999998093E+01 0. -1.
</event>
<event>
 5   0  0.2484507E-03  0.1198353E+04  0.7818609E-02  0.9114299E-01
       -2   -1    0    0    0  501  0.00000000000E+00  0.00000000000E+00  0.59352754100E+03  0.59352754100E+03  0.25500000920E-02 0.  1.
        2   -1    0    0  501    0  0.00000000000E+00  0.00000000000E+00 -0.60487942425E+03  0.60487942425E+03  0.25500000920E-02 0. -1.
    10030    2    1    2    0    0  0.00000000000E+00  0.00000000000E+00 -0.11351883251E+02  0.11984069653E+04  0.11983531988E+04 0.  0.
        2    1    3    3  502    0  0.56874250394E+03  0.50796263519E+02  0.17589294112E+03  0.59748357544E+03  0.25500000920E-02 0.  1.
       -2    1    3    3    0  502 -0.56874250394E+03 -0.50796263519E+02 -0.18724482437E+03  0.60092338982E+03  0.25500000920E-02 0. -1.
</event>
<event>
 5   0  0.2484507E-03  0.1192893E+04  0.7818609E-02  0.9119100E-01
        2   -1    0    0  501    0  0.00000000000E+00  0.00000000000E+00  0.12160540972E+04  0.12160540972E+04  0.25500000920E-02 0. -1.
       -2   -1    0    0    0  501  0.00000000000E+00  0.00000000000E+00 -0.29254349157E+03  0.29254349158E+03  0.25500000920E-02 0.  1.
    10030    2    1    2    0    0  0.00000000000E+00  0.00000000000E+00  0.92351060560E+03  0.15085975888E+04  0.11928934764E+04 0.  0.
        2    1    3    3  502    0  0.16859515687E+03  0.56540117450E+03  0.57233768788E+03  0.82199345740E+03  0.25500000920E-02 0. -1.
       -2    1    3    3    0  502 -0.16859515687E+03 -0.56540117450E+03  0.35117291772E+03  0.68660413135E+03  0.25500000920E-02 0.  1.
</event>
<event>
 5   0  0.2580244E-03  0.1196073E+04  0.7818609E-02  0.9116301E-01
       -2   -1    0    0    0  501  0.00000000000E+00  0.00000000000E+00  0.31309483800E+03  0.31309483801E+03  0.25500000920E-02 0. -1.
        2   -1    0    0  501    0  0.00000000000E+00  0.00000000000E+00 -0.11422974933E+04  0.11422974933E+04  0.25500000920E-02 0.  1.
    10030    2    1    2    0    0  0.00000000000E+00  0.00000000000E+00 -0.82920265529E+03  0.14553923313E+04  0.11960726544E+04 0.  0.
        1    1    3    3  502    0 -0.38221647720E+03 -0.25727468505E+03  0.49333049513E+02  0.46337182565E+03  0.50400001928E-02 0. -1.
       -1    1    3    3    0  502  0.38221647720E+03  0.25727468505E+03 -0.87853570480E+03  0.99202050565E+03  0.50400001928E-02 0.  1.
</event>
<event>
 5   0  0.1403154E-03  0.1214065E+04  0.7818609E-02  0.9100634E-01
       -1   -1    0    0    0  501  0.00000000000E+00  0.00000000000E+00  0.43055350313E+03  0.43055350316E+03  0.50400001928E-02 0.  1.
        1   -1    0    0  501    0  0.00000000000E+00  0.00000000000E+00 -0.85584809116E+03  0.85584809118E+03  0.50400001928E-02 0. -1.
    10030    2    1    2    0    0  0.00000000000E+00  0.00000000000E+00 -0.42529458803E+03  0.12864015943E+04  0.12140648975E+04 0.  0.
        3    1    3    3  502    0  0.51389980329E+03 -0.22782145392E+03  0.30116756514E+02  0.56294107321E+03  0.10100000352E+00 0.  1.
       -3    1    3    3    0  502 -0.51389980329E+03  0.22782145392E+03 -0.45541134454E+03  0.72346052112E+03  0.10100000352E+00 0. -1.
</event>
<event>
 5   0  0.1403154E-03  0.1169674E+04  0.7818609E-02  0.9139823E-01
       -1   -1    0    0    0  501  0.00000000000E+00  0.00000000000E+00  0.65187753914E+03  0.65187753916E+03  0.50400001928E-02 0. -1.
        1   -1    0    0  501    0  0.00000000000E+00  0.00000000000E+00 -0.52469112427E+03  0.52469112429E+03  0.50400001928E-02 0.  1.
    10030    2    1    2    0    0  0.00000000000E+00  0.00000000000E+00  0.12718641487E+03  0.11765686634E+04  0.11696740724E+04 0.  0.
        3    1    3    3  502    0  0.27394312579E+02  0.51602889896E+03  0.33906521531E+03  0.61806270180E+03  0.10100000352E+00 0. -1.
       -3    1    3    3    0  502 -0.27394312579E+02 -0.51602889896E+03 -0.21187880044E+03  0.55850596165E+03  0.10100000352E+00 0.  1.
</event>
<event>
 5   0  0.9678750E-04  0.1196146E+04  0.7818609E-02  0.9116236E-01
        3   -1    0    0  501    0  0.00000000000E+00  0.00000000000E+00  0.15369000267E+04  0.15369000300E+04  0.10100000352E+00 0. -1.
       -3   -1    0    0    0  501  0.00000000000E+00  0.00000000000E+00 -0.23273569620E+03  0.23273571811E+03  0.10100000352E+00 0.  1.
    10030    2    1    2    0    0  0.00000000000E+00  0.00000000000E+00  0.13041643305E+04  0.17696357482E+04  0.11961463456E+04 0.  0.
        1    1    3    3  502    0 -0.19537168260E+03 -0.53074910342E+03  0.93982164367E+03  0.10968725665E+04  0.50400001928E-02 0. -1.
       -1    1    3    3    0  502  0.19537168260E+03  0.53074910342E+03  0.36434268687E+03  0.67276318169E+03  0.50400001928E-02 0.  1.
</event>
<event>
 5   0  0.2517023E-03  0.1188943E+04  0.7818609E-02  0.9122590E-01
       -2   -1    0    0    0  501  0.00000000000E+00  0.00000000000E+00  0.37206135177E+03  0.37206135178E+03  0.25500000920E-02 0. -1.
        2   -1    0    0  501    0  0.00000000000E+00  0.00000000000E+00 -0.94983350708E+03  0.94983350708E+03  0.25500000920E-02 0.  1.
    10030    2    1    2    0    0  0.00000000000E+00  0.00000000000E+00 -0.57777215531E+03  0.13218948589E+04  0.11889429568E+04 0.  0.
        3    1    3    3  502    0  0.32380117765E+03 -0.11430795653E+03  0.25064380798E+03  0.42513038030E+03  0.10100000352E+00 0. -1.
       -3    1    3    3    0  502 -0.32380117765E+03  0.11430795653E+03 -0.82841596329E+03  0.89676447856E+03  0.10100000352E+00 0.  1.
</event>
<event>
 5   0  0.1404833E-03  0.1125894E+04  0.7818609E-02  0.9180315E-01
        1   -1    0    0  501    0  0.00000000000E+00  0.00000000000E+00  0.51776298439E+03  0.51776298442E+03  0.50400001928E-02 0. -1.
       -1   -1    0    0    0  501  0.00000000000E+00  0.00000000000E+00 -0.61207401931E+03  0.61207401933E+03  0.50400001928E-02 0.  1.
    10030    2    1    2    0    0  0.00000000000E+00  0.00000000000E+00 -0.94311034918E+02  0.11298370038E+04  0.11258939043E+04 0.  0.
        1    1    3    3  502    0  0.50589234324E+02 -0.37531404125E+03 -0.46513480604E+03  0.59980854278E+03  0.50400001928E-02 0.  1.
       -1    1    3    3    0  502 -0.50589234324E+02  0.37531404125E+03  0.37082377112E+03  0.53002846097E+03  0.50400001928E-02 0. -1.
</event>
<event>
 5   0  0.2484507E-03  0.1183153E+04  0.7818609E-02  0.9127732E-01
       -2   -1    0    0    0  501  0.00000000000E+00  0.00000000000E+00  0.56059357774E+03  0.56059357775E+03  0.25500000920E-02 0. -1.
        2   -1    0    0  501    0  0.00000000000E+00  0.00000000000E+00 -0.62427210645E+03  0.62427210646E+03  0.25500000920E-02 0.  1.
    10030    2    1    2    0    0  0.00000000000E+00  0.00000000000E+00 -0.63678528711E+02  0.11848656842E+04  0.11831533014E+04 0.  0.
        2    1    3    3  502    0 -0.49232114602E+03 -0.32727125213E+03 -0.99822242579E+01  0.59125817380E+03  0.25500000920E-02 0.  1.
       -2    1    3    3    0  502  0.49232114602E+03  0.32727125213E+03 -0.53696304453E+02  0.59360751040E+03  0.25500000920E-02 0. -1.
</event>
<event>
 5   0  0.1455076E-03  0.1145474E+04  0.7818609E-02  0.9161969E-01
        1   -1    0    0  501    0  0.00000000000E+00  0.00000000000E+00  0.89280576543E+03  0.89280576544E+03  0.50400001928E-02 0.  1.
       -1   -1    0    0    0  501  0.00000000000E+00  0.00000000000E+00 -0.36741237079E+03  0.36741237082E+03  0.50400001928E-02 0. -1.
    10030    2    1    2    0    0  0.00000000000E+00  0.00000000000E+00  0.52539339464E+03  0.12602181363E+04  0.11454743698E+04 0.  0.
        4    1    3    3  502    0  0.50872979585E+03 -0.22094390737E+03  0.41984821823E+03  0.69562659138E+03  0.12699999809E+01 0. -1.
       -4    1    3    3    0  502 -0.50872979585E+03  0.22094390737E+03  0.10554517641E+03  0.56459154488E+03  0.12699999809E+01 0.  1.
</event>
<event>
 5   0  0.1404833E-03  0.9953333E+03  0.7818609E-02  0.9313678E-01
       -1   -1    0    0    0  501  0.00000000000E+00  0.00000000000E+00  0.38783774222E+03  0.38783774226E+03  0.50400001928E-02 0.  1.
        1   -1    0    0  501    0  0.00000000000E+00  0.00000000000E+00 -0.63859715869E+03  0.63859715871E+03  0.50400001928E-02 0. -1.
    10030    2    1    2    0    0  0.00000000000E+00  0.00000000000E+00 -0.25075941647E+03  0.10264349010E+04  0.99533327131E+03 0.  0.
        1    1    3    3  502    0  0.46064001490E+02  0.12750376568E+03 -0.61918787267E+03  0.63385544423E+03  0.50400001928E-02 0. -1.
       -1    1    3    3    0  502 -0.46064001490E+02 -0.12750376568E+03  0.36842845620E+03  0.39257945674E+03  0.50400001928E-02 0.  1.
</event>
<event>
 5   0  0.1423024E-03  0.1210917E+04  0.7818609E-02  0.9103354E-01
        1   -1    0    0  501    0  0.00000000000E+00  0.00000000000E+00  0.21809240338E+04  0.21809240338E+04  0.50400001928E-02 0.  1.
       -1   -1    0    0    0  501  0.00000000000E+00  0.00000000000E+00 -0.16808479066E+03  0.16808479074E+03  0.50400001928E-02 0. -1.
    10030    2    1    2    0    0  0.00000000000E+00  0.00000000000E+00  0.20128392431E+04  0.23490088245E+04  0.12109172718E+04 0.  0.
        2    1    3    3  502    0 -0.34621798997E+03 -0.25689955594E+03  0.18177214455E+03  0.46787326378E+03  0.25500000920E-02 0. -1.
       -2    1    3    3    0  502  0.34621798997E+03  0.25689955594E+03  0.18310670986E+04  0.18811355607E+04  0.25500000920E-02 0.  1.
</event>
<event>
 5   0  0.1403154E-03  0.1207309E+04  0.7818609E-02  0.9106483E-01
        1   -1    0    0  501    0  0.00000000000E+00  0.00000000000E+00  0.39677996138E+03  0.39677996141E+03  0.50400001928E-02 0. -1.
       -1   -1    0    0    0  501  0.00000000000E+00  0.00000000000E+00 -0.91838973204E+03  0.91838973205E+03  0.50400001928E-02 0.  1.
    10030    2    1    2    0    0  0.00000000000E+00  0.00000000000E+00 -0.52160977066E+03  0.13151696935E+04  0.12073088129E+04 0.  0.
        3    1    3    3  502    0 -0.23762117546E+03  0.77585044811E+02  0.33775282988E+03  0.42019072634E+03  0.10100000352E+00 0. -1.
       -3    1    3    3    0  502  0.23762117546E+03 -0.77585044811E+02 -0.85936260054E+03  0.89497896713E+03  0.10100000352E+00 0.  1.
</event>
<event>
 5   0  0.2579442E-03  0.1212249E+04  0.7818609E-02  0.9102203E-01
       -2   -1    0    0    0  501  0.00000000000E+00  0.00000000000E+00  0.61311319194E+03  0.61311319195E+03  0.25500000920E-02 0.  1.
        2   -1    0    0  501    0  0.00000000000E+00  0.00000000000E+00 -0.59921498242E+03  0.59921498242E+03  0.25500000920E-02 0. -1.
    10030    2    1    2    0    0  0.00000000000E+00  0.00000000000E+00  0.13898209523E+02  0.12123281744E+04  0.12122485068E+04 0.  0.
        4    1    3    3  502    0  0.38528138270E+03  0.18670815206E+03 -0.42212841274E+03  0.60124511445E+03  0.12699999809E+01 0. -1.
       -4    1    3    3    0  502 -0.38528138270E+03 -0.18670815206E+03  0.43602662226E+03  0.61108305992E+03  0.12699999809E+01 0.  1.
</event>
<event>
 5   0  0.2579442E-03  0.1207060E+04  0.7818609E-02  0.9106699E-01
       -2   -1    0    0    0  501  0.00000000000E+00  0.00000000000E+00  0.57873026664E+03  0.57873026664E+03  0.25500000920E-02 0.  1.
        2   -1    0    0  501    0  0.00000000000E+00  0.00000000000E+00 -0.62939275663E+03  0.62939275664E+03  0.25500000920E-02 0. -1.
    10030    2    1    2    0    0  0.00000000000E+00  0.00000000000E+00 -0.50662489996E+02  0.12081230233E+04  0.12070602932E+04 0.  0.
        4    1    3    3  502    0  0.35844710629E+02 -0.40348772109E+03 -0.47311740887E+03  0.62283936920E+03  0.12699999809E+01 0. -1.
       -4    1    3    3    0  502 -0.35844710629E+02  0.40348772109E+03  0.42245491887E+03  0.58528365408E+03  0.12699999809E+01 0.  1.
</event>
<event>
 5   0  0.1423024E-03  0.1046935E+04  0.7818609E-02  0.9258514E-01
       -1   -1    0    0    0  501  0.00000000000E+00  0.00000000000E+00  0.45405726276E+03  0.45405726279E+03  0.50400001928E-02 0. -1.
        1   -1    0    0  501    0  0.00000000000E+00  0.00000000000E+00 -0.60348797443E+03  0.60348797445E+03  0.50400001928E-02 0.  1.
    10030    2    1    2    0    0  0.00000000000E+00  0.00000000000E+00 -0.14943071167E+03  0.10575452372E+04  0.10469347598E+04 0.  0.
        2    1    3    3  502    0 -0.40651830265E+03 -0.32903361795E+03 -0.52176768093E+02  0.52558792534E+03  0.25500000920E-02 0.  1.
       -2    1    3    3    0  502  0.40651830265E+03  0.32903361795E+03 -0.97253943581E+02  0.53195731190E+03  0.25500000920E-02 0. -1.
</event>
<event>
 5   0  0.2579442E-03  0.1205162E+04  0.7818609E-02  0.9108350E-01
       -2   -1    0    0    0  501  0.00000000000E+00  0.00000000000E+00  0.23544733542E+03  0.23544733543E+03  0.25500000920E-02 0.  1.
        2   -1    0    0  501    0  0.00000000000E+00  0.00000000000E+00 -0.15421882109E+04  0.15421882109E+04  0.25500000920E-02 0. -1.
    10030    2    1    2    0    0  0.00000000000E+00  0.00000000000E+00 -0.13067408755E+04  0.17776355463E+04  0.12051624040E+04 0.  0.
        4    1    3    3  502    0  0.21813965480E+03 -0.11444011044E+03  0.15778326556E+03  0.29253823624E+03  0.12699999809E+01 0.  1.
       -4    1    3    3    0  502 -0.21813965480E+03  0.11444011044E+03 -0.14645241410E+04  0.14850973101E+04  0.12699999809E+01 0. -1.
</event>
<event>
 5   0  0.2580244E-03  0.1212998E+04  0.7818609E-02  0.9101555E-01
        2   -1    0    0  501    0  0.00000000000E+00  0.00000000000E+00  0.17058542951E+04  0.17058542951E+04  0.25500000920E-02 0. -1.
       -2   -1    0    0    0  501  0.00000000000E+00  0.00000000000E+00 -0.21563432359E+03  0.21563432360E+03  0.25500000920E-02 0.  1.
    10030    2    1    2    0    0  0.00000000000E+00  0.00000000000E+00  0.14902199715E+04  0.19214886187E+04  0.12129975055E+04 0.  0.
        1    1    3    3  502    0 -0.58342308293E+03  0.99156586532E+02  0.53480118998E+03  0.79763828593E+03  0.50400001928E-02 0.  1.
       -1    1    3    3    0  502  0.58342308293E+03 -0.99156586532E+02  0.95541878150E+03  0.11238503327E+04  0.50400001928E-02 0. -1.
</event>
<event>
 5   0  0.2579442E-03  0.1199224E+04  0.7818609E-02  0.9113536E-01
       -2   -1    0    0    0  501  0.00000000000E+00  0.00000000000E+00  0.20624402572E+03  0.20624402574E+03  0.25500000920E-02 0.  1.
        2   -1    0    0  501    0  0.00000000000E+00  0.00000000000E+00 -0.17432485125E+04  0.17432485125E+04  0.25500000920E-02 0. -1.
    10030    2    1    2    0    0  0.00000000000E+00  0.00000000000E+00 -0.15370044868E+04  0.19494925382E+04  0.11992240676E+04 0.  0.
        4    1    3    3  502    0  0.32842904778E+03  0.39302191648E+03 -0.12753258766E+04  0.13743324091E+04  0.12699999809E+01 0. -1.
       -4    1    3    3    0  502 -0.32842904778E+03 -0.39302191648E+03 -0.26167861020E+03  0.57516012917E+03  0.12699999809E+01 0.  1.
</event>
<event>
 5   0  0.1403154E-03  0.1199386E+04  0.7818609E-02  0.9113394E-01
       -1   -1    0    0    0  501  0.00000000000E+00  0.00000000000E+00  0.47446308064E+03  0.47446308067E+03  0.50400001928E-02 0. -1.
        1   -1    0    0  501    0  0.00000000000E+00  0.00000000000E+00 -0.75797664723E+03  0.75797664724E+03  0.50400001928E-02 0.  1.
    10030    2    1    2    0    0  0.00000000000E+00  0.00000000000E+00 -0.28351356659E+03  0.12324397279E+04  0.11993864017E+04 0.  0.
        3    1    3    3  502    0 -0.43353630361E+03 -0.35581521201E+03  0.76399805452E+02  0.56603456795E+03  0.10100000352E+00 0. -1.
       -3    1    3    3    0  502  0.43353630361E+03  0.35581521201E+03 -0.35991337204E+03  0.66640515996E+03  0.10100000352E+00 0.  1.
</event>
<event>
 5   0  0.2499890E-03  0.1206271E+04  0.7818609E-02  0.9107385E-01
        2   -1    0    0  501    0  0.00000000000E+00  0.00000000000E+00  0.13507512397E+04  0.13507512397E+04  0.25500000920E-02 0.  1.
       -2   -1    0    0    0  501  0.00000000000E+00  0.00000000000E+00 -0.26931137490E+03  0.26931137491E+03  0.25500000920E-02 0. -1.
    10030    2    1    2    0    0  0.00000000000E+00  0.00000000000E+00  0.10814398648E+04  0.16200626147E+04  0.12062714015E+04 0.  0.
        5    1    3    3  502    0 -0.47184521577E+03 -0.46740186148E+02  0.40130463867E+02  0.47587298387E+03  0.46999998093E+01 0.  1.
       -5    1    3    3    0  502  0.47184521577E+03  0.46740186148E+02  0.10413094010E+04  0.11441896308E+04  0.46999998093E+01 0. -1.
</event>
<event>
 5   0  0.1403154E-03  0.1205508E+04  0.7818609E-02  0.9108049E-01
        1   -1    0    0  501    0  0.00000000000E+00  0.00000000000E+00  0.19814200831E+04  0.19814200831E+04  0.50400001928E-02 0. -1.
       -1   -1    0    0    0  501  0.00000000000E+00  0.00000000000E+00 -0.18335967515E+03  0.18335967522E+03  0.50400001928E-02 0.  1.
    10030    2    1    2    0    0  0.00000000000E+00  0.00000000000E+00  0.17980604080E+04  0.21647797584E+04  0.12055082627E+04 0.  0.
        3    1    3    3  502    0  0.32574430148E+03 -0.29922649749E+03  0.16372622332E+03  0.47164831512E+03  0.10100000352E+00 0.  1.
       -3    1    3    3    0  502 -0.32574430148E+03  0.29922649749E+03  0.16343341847E+04  0.16931314432E+04  0.10100000352E+00 0. -1.
</event>
<event>
 5   0  0.1403154E-03  0.1210182E+04  0.7818609E-02  0.9103990E-01
       -1   -1    0    0    0  501  0.00000000000E+00  0.00000000000E+00  0.71791810615E+03  0.71791810616E+03  0.50400001928E-02 0. -1.
        1   -1    0    0  501    0  0.00000000000E+00  0.00000000000E+00 -0.50999598694E+03  0.50999598696E+03  0.50400001928E-02 0.  1.
    10030    2    1    2    0    0  0.00000000000E+00  0.00000000000E+00  0.20792211921E+03  0.12279140931E+04  0.12101823881E+04 0.  0.
        3    1    3    3  502    0 -0.33784750640E+03 -0.47496648734E+03 -0.60904267384E+02  0.58604047784E+03  0.10100000352E+00 0.  1.
       -3    1    3    3    0  502  0.33784750640E+03  0.47496648734E+03  0.26882638659E+03  0.64187361529E+03  0.10100000352E+00 0. -1.
</event>
<event>
 5   0  0.2517023E-03  0.1214167E+04  0.7818609E-02  0.9100546E-01
       -2   -1    0    0    0  501  0.00000000000E+00  0.00000000000E+00  0.20535704761E+03  0.20535704762E+03  0.25500000920E-02 0.  1.
        2   -1    0    0  501    0  0.00000000000E+00  0.00000000000E+00 -0.17946815226E+04  0.17946815226E+04  0.25500000920E-02 0. -1.
    10030    2    1    2    0    0  0.00000000000E+00  0.00000000000E+00 -0.15893244750E+04  0.20000385702E+04  0.12141672025E+04 0.  0.
        3    1    3    3  502    0 -0.29182592683E+03 -0.70505818739E+02 -0.16638383553E+04  0.16907074037E+04  0.10100000352E+00 0. -1.
       -3    1    3    3    0  502  0.29182592683E+03  0.70505818739E+02  0.74513880304E+02  0.30933116656E+03  0.10100000352E+00 0.  1.
</event>
<event>
 5   0  0.1404833E-03  0.1174345E+04  0.7818609E-02  0.9135613E-01
       -1   -1    0    0    0  501  0.00000000000E+00  0.00000000000E+00  0.21546346048E+03  0.21546346053E+03  0.50400001928E-02 0. -1.
        1   -1    0    0  501    0  0.00000000000E+00  0.00000000000E+00 -0.16001392598E+04  0.16001392599E+04  0.50400001928E-02 0.  1.
    10030    2    1    2    0    0  0.00000000000E+00  0.00000000000E+00 -0.13846757994E+04  0.18156027204E+04  0.11743449957E+04 0.  0.
        1    1    3    3  502    0 -0.12738991615E+03  0.20148064051E+02 -0.15779692758E+04  0.15832312435E+04  0.50400001928E-02 0.  1.
       -1    1    3    3    0  502  0.12738991615E+03 -0.20148064051E+02  0.19329347638E+03  0.23237147686E+03  0.50400001928E-02 0. -1.
</event>
<event>
 5   0  0.1455076E-03  0.1170431E+04  0.7818609E-02  0.9139139E-01
       -1   -1    0    0    0  501  0.00000000000E+00  0.00000000000E+00  0.53620444159E+03  0.53620444162E+03  0.50400001928E-02 0.  1.
        1   -1    0    0  501    0  0.00000000000E+00  0.00000000000E+00 -0.63870675412E+03  0.63870675414E+03  0.50400001928E-02 0. -1.
    10030    2    1    2    0    0  0.00000000000E+00  0.00000000000E+00 -0.10250231252E+03  0.11749111958E+04  0.11704313708E+04 0.  0.
        4    1    3    3  502    0  0.38602343166E+03 -0.41618326526E+03 -0.19410954867E+03  0.59991893607E+03  0.12699999809E+01 0.  1.
       -4    1    3    3    0  502 -0.38602343166E+03  0.41618326526E+03  0.91607236151E+02  0.57499225968E+03  0.12699999809E+01 0. -1.
</event>
<event>
 5   0  0.1469851E-03  0.1209952E+04  0.7818609E-02  0.9104190E-01
       -1   -1    0    0    0  501  0.00000000000E+00  0.00000000000E+00  0.12842546340E+04  0.12842546340E+04  0.50400001928E-02 0. -1.
        1   -1    0    0  501    0  0.00000000000E+00  0.00000000000E+00 -0.28498708285E+03  0.28498708289E+03  0.50400001928E-02 0.  1.
    10030    2    1    2    0    0  0.00000000000E+00  0.00000000000E+00  0.99926755112E+03  0.15692417169E+04  0.12099520351E+04 0.  0.
        5    1    3    3  502    0 -0.28927468813E+03  0.15701713294E+03 -0.15867259036E+03  0.36542209315E+03  0.46999998093E+01 0.  1.
       -5    1    3    3    0  502  0.28927468813E+03 -0.15701713294E+03  0.11579401415E+04  0.12038196237E+04  0.46999998093E+01 0. -1.
</event>
<event>
 5   0  0.1455076E-03  0.1200776E+04  0.7818609E-02  0.9112178E-01
       -1   -1    0    0    0  501  0.00000000000E+00  0.00000000000E+00  0.58857977018E+03  0.58857977020E+03  0.50400001928E-02 0.  1.
        1   -1    0    0  501    0  0.00000000000E+00  0.00000000000E+00 -0.61243286846E+03  0.61243286848E+03  0.50400001928E-02 0. -1.
    10030    2    1    2    0    0  0.00000000000E+00  0.00000000000E+00 -0.23853098276E+02  0.12010126387E+04  0.12007757442E+04 0.  0.
        4    1    3    3  502    0  0.37445114696E+03 -0.11106152727E+03  0.44414110479E+03  0.59144844083E+03  0.12699999809E+01 0.  1.
       -4    1    3    3    0  502 -0.37445114696E+03  0.11106152727E+03 -0.46799420306E+03  0.60956419785E+03  0.12699999809E+01 0. -1.
</event>
<event>
 5   0  0.1404833E-03  0.1241238E+04  0.7818609E-02  0.9077508E-01
        1   -1    0    0  501    0  0.00000000000E+00  0.00000000000E+00  0.71767743982E+03  0.71767743984E+03  0.50400001928E-02 0. -1.
       -1   -1    0    0    0  501  0.00000000000E+00  0.00000000000E+00 -0.53668641655E+03  0.53668641657E+03  0.50400001928E-02 0.  1.
    10030    2    1    2    0    0  0.00000000000E+00  0.00000000000E+00  0.18099102328E+03  0.12543638564E+04  0.12412376621E+04 0.  0.
        1    1    3    3  502    0  0.44921397519E+03 -0.15403427150E+03 -0.31328960079E+03  0.56892014052E+03  0.50400001928E-02 0.  1.
       -1    1    3    3    0  502 -0.44921397519E+03  0.15403427150E+03  0.49428062407E+03  0.68544371589E+03  0.50400001928E-02 0. -1.
</event>
<event>
 5   0  0.2579442E-03  0.1198594E+04  0.7818609E-02  0.9114088E-01
       -2   -1    0    0    0  501  0.00000000000E+00  0.00000000000E+00  0.24305306271E+03  0.24305306272E+03  0.25500000920E-02 0.  1.
        2   -1    0    0  501    0  0.00000000000E+00  0.00000000000E+00 -0.14776888680E+04  0.14776888680E+04  0.25500000920E-02 0. -1.
    10030    2    1    2    0    0  0.00000000000E+00  0.00000000000E+00 -0.12346358053E+04  0.17207419307E+04  0.11985938513E+04 0.  0.
        4    1    3    3  502    0  0.88911950471E+02  0.58918842228E+03 -0.52531560736E+03  0.79435913297E+03  0.12699999809E+01 0. -1.
       -4    1    3    3    0  502 -0.88911950471E+02 -0.58918842228E+03 -0.70932019796E+03  0.92638279778E+03  0.12699999809E+01 0.  1.
</event>
<event>
 5   0  0.1455076E-03  0.1293127E+04  0.7818609E-02  0.9035034E-01
        1   -1    0    0  501    0  0.00000000000E+00  0.00000000000E+00  0.36675957707E+03  0.36675957711E+03  0.50400001928E-02 0. -1.
       -1   -1    0    0    0  501  0.00000000000E+00  0.00000000000E+00 -0.11398315065E+04  0.11398315065E+04  0.50400001928E-02 0.  1.
    10030    2    1    2    0    0  0.00000000000E+00  0.00000000000E+00 -0.77307192945E+03  0.15065910836E+04  0.12931266315E+04 0.  0.
        4    1    3    3  502    0  0.29367162880E+03  0.57584171934E+03 -0.36982221198E+03  0.74471927104E+03  0.12699999809E+01 0. -1.
       -4    1    3    3    0  502 -0.29367162880E+03 -0.57584171934E+03 -0.40324971747E+03  0.76187181260E+03  0.12699999809E+01 0.  1.
</event>
<event>
 5   0  0.1455076E-03  0.1237958E+04  0.7818609E-02  0.9080265E-01
       -1   -1    0    0    0  501  0.00000000000E+00  0.00000000000E+00  0.23916088131E+03  0.23916088136E+03  0.50400001928E-02 0.  1.
        1   -1    0    0  501    0  0.00000000000E+00  0.00000000000E+00 -0.16019979171E+04  0.16019979171E+04  0.50400001928E-02 0. -1.
    10030    2    1    2    0    0  0.00000000000E+00  0.00000000000E+00 -0.13628370358E+04  0.18411587985E+04  0.12379583737E+04 0.  0.
        4    1    3    3  502    0  0.10126859090E+03  0.38941470284E+03  0.18119972286E+02  0.40277671803E+03  0.12699999809E+01 0.  1.
       -4    1    3    3    0  502 -0.10126859090E+03 -0.38941470284E+03 -0.13809570081E+04  0.14383820805E+04  0.12699999809E+01 0. -1.
</event>
<event>
 5   0  0.1403154E-03  0.1206450E+04  0.7818609E-02  0.9107229E-01
       -1   -1    0    0    0  501  0.00000000000E+00  0.00000000000E+00  0.26533230990E+03  0.26533230995E+03  0.50400001928E-02 0. -1.
        1   -1    0    0  501    0  0.00000000000E+00  0.00000000000E+00 -0.13714145606E+04  0.13714145607E+04  0.50400001928E-02 0.  1.
    10030    2    1    2    0    0  0.00000000000E+00  0.00000000000E+00 -0.11060822507E+04  0.16367468706E+04  0.12064503193E+04 0.  0.
        3    1    3    3  502    0  0.11779676851E+02 -0.18540255644E+03  0.22555562994E+03  0.29221262998E+03  0.10100000352E+00 0. -1.
       -3    1    3    3    0  502 -0.11779676851E+02  0.18540255644E+03 -0.13316378807E+04  0.13445342406E+04  0.10100000352E+00 0.  1.
</event>
<event>
 5   0  0.1403154E-03  0.1207318E+04  0.7818609E-02  0.9106475E-01
        1   -1    0    0  501    0  0.00000000000E+00  0.00000000000E+00  0.11905560462E+04  0.11905560462E+04  0.50400001928E-02 0.  1.
       -1   -1    0    0    0  501  0.00000000000E+00  0.00000000000E+00 -0.30607889486E+03  0.30607889490E+03  0.50400001928E-02 0. -1.
    10030    2    1    2    0    0  0.00000000000E+00  0.00000000000E+00  0.88447715131E+03  0.14966349411E+04  0.12073178188E+04 0.  0.
        3    1    3    3  502    0 -0.33820717160E+01 -0.28893948745E+03  0.10992535133E+04  0.11365983295E+04  0.10100000352E+00 0.  1.
       -3    1    3    3    0  502  0.33820717160E+01  0.28893948745E+03 -0.21477636201E+03  0.36003661161E+03  0.10100000352E+00 0. -1.
</event>
<event>
 5   0  0.2579442E-03  0.1200088E+04  0.7818609E-02  0.9112779E-01
       -2   -1    0    0    0  501  0.00000000000E+00  0.00000000000E+00  0.19678949345E+03  0.19678949347E+03  0.25500000920E-02 0.  1.
        2   -1    0    0  501    0  0.00000000000E+00  0.00000000000E+00 -0.18296348914E+04  0.18296348914E+04  0.25500000920E-02 0. -1.
    10030    2    1    2    0    0  0.00000000000E+00  0.00000000000E+00 -0.16328453979E+04  0.20264243849E+04  0.12000882026E+04 0.  0.
        4    1    3    3  502    0 -0.35518254035E+03  0.37444660070E+03 -0.29958337352E+03  0.59675514605E+03  0.12699999809E+01 0.  1.
       -4    1    3    3    0  502  0.35518254035E+03 -0.37444660070E+03 -0.13332620244E+04  0.14296692388E+04  0.12699999809E+01 0. -1.
</event>
<event>
 5   0  0.1423024E-03  0.1199676E+04  0.7818609E-02  0.9113141E-01
       -1   -1    0    0    0  501  0.00000000000E+00  0.00000000000E+00  0.34819995332E+03  0.34819995336E+03  0.50400001928E-02 0. -1.
        1   -1    0    0  501    0  0.00000000000E+00  0.00000000000E+00 -0.10333297915E+04  0.10333297915E+04  0.50400001928E-02 0.  1.
    10030    2    1    2    0    0  0.00000000000E+00  0.00000000000E+00 -0.68512983815E+03  0.13815297448E+04  0.11996755981E+04 0.  0.
        2    1    3    3  502    0 -0.45379437112E+03 -0.36581192960E+03 -0.17947135269E+03  0.60988332125E+03  0.25500000920E-02 0. -1.
       -2    1    3    3    0  502  0.45379437112E+03  0.36581192960E+03 -0.50565848546E+03  0.77164642358E+03  0.25500000920E-02 0.  1.
</event>
<event>
 5   0  0.1455076E-03  0.1199657E+04  0.7818609E-02  0.9113157E-01
        1   -1    0    0  501    0  0.00000000000E+00  0.00000000000E+00  0.56791924764E+03  0.56791924766E+03  0.50400001928E-02 0.  1.
       -1   -1    0    0    0  501  0.00000000000E+00  0.00000000000E+00 -0.63353069517E+03  0.63353069519E+03  0.50400001928E-02 0. -1.
    10030    2    1    2    0    0  0.00000000000E+00  0.00000000000E+00 -0.65611447529E+02  0.12014499429E+04  0.11996570773E+04 0.  0.
        4    1    3    3  502    0  0.15195821804E+02 -0.37445477810E+03 -0.50184887127E+03  0.62633952162E+03  0.12699999809E+01 0. -1.
       -4    1    3    3    0  502 -0.15195821804E+02  0.37445477810E+03  0.43623742374E+03  0.57511042124E+03  0.12699999809E+01 0.  1.
</event>
<event>
 5   0  0.2579442E-03  0.1201350E+04  0.7818609E-02  0.9111676E-01
        2   -1    0    0  501    0  0.00000000000E+00  0.00000000000E+00  0.65327802037E+03  0.65327802038E+03  0.25500000920E-02 0.  1.
       -2   -1    0    0    0  501  0.00000000000E+00  0.00000000000E+00 -0.55230779748E+03  0.55230779749E+03  0.25500000920E-02 0. -1.
    10030    2    1    2    0    0  0.00000000000E+00  0.00000000000E+00  0.10097022289E+03  0.12055858179E+04  0.12013501481E+04 0.  0.
        4    1    3    3  502    0 -0.18015351129E+03  0.18404216317E+03  0.59506048023E+03  0.64840218498E+03  0.12699999809E+01 0.  1.
       -4    1    3    3    0  502  0.18015351129E+03 -0.18404216317E+03 -0.49409025734E+03  0.55718363289E+03  0.12699999809E+01 0. -1.
</event>
<event>
 5   0  0.2499890E-03  0.1209451E+04  0.7818609E-02  0.9104624E-01
       -2   -1    0    0    0  501  0.00000000000E+00  0.00000000000E+00  0.19361946183E+03  0.19361946185E+03  0.25500000920E-02 0.  1.
        2   -1    0    0  501    0  0.00000000000E+00  0.00000000000E+00 -0.18887205926E+04  0.18887205926E+04  0.25500000920E-02 0. -1.
    10030    2    1    2    0    0  0.00000000000E+00  0.00000000000E+00 -0.16951011308E+04  0.20823400545E+04  0.12094512222E+04 0.  0.
        5    1    3    3  502    0 -0.12877132748E+03 -0.33723909003E+02  0.16804951218E+03  0.21443433811E+03  0.46999998093E+01 0.  1.
       -5    1    3    3    0  502  0.12877132748E+03  0.33723909003E+02 -0.18631506430E+04  0.18679057163E+04  0.46999998093E+01 0. -1.
</event>
<event>
 5   0  0.1455076E-03  0.1205509E+04  0.7818609E-02  0.9108048E-01
       -1   -1    0    0    0  501  0.00000000000E+00  0.00000000000E+00  0.55276518619E+03  0.55276518622E+03  0.50400001928E-02 0. -1.
        1   -1    0    0  501    0  0.00000000000E+00  0.00000000000E+00 -0.65726420974E+03  0.65726420976E+03  0.50400001928E-02 0.  1.
    10030    2    1    2    0    0  0.00000000000E+00  0.00000000000E+00 -0.10449902355E+03  0.12100293960E+04  0.12055086450E+04 0.  0.
        4    1    3    3  502    0  0.93251811811E+02  0.44036071762E+03 -0.45462398407E+03  0.63976405167E+03  0.12699999809E+01 0.  1.
       -4    1    3    3    0  502 -0.93251811811E+02 -0.44036071762E+03  0.35012496052E+03  0.57026534430E+03  0.12699999809E+01 0. -1.
</event>
<event>
 5   0  0.2579442E-03  0.1197978E+04  0.7818609E-02  0.9114628E-01
       -2   -1    0    0    0  501  0.00000000000E+00  0.00000000000E+00  0.19649111527E+03  0.19649111529E+03  0.25500000920E-02 0. -1.
        2   -1    0    0  501    0  0.00000000000E+00  0.00000000000E+00 -0.18259746302E+04  0.18259746302E+04  0.25500000920E-02 0.  1.
    10030    2    1    2    0    0  0.00000000000E+00  0.00000000000E+00 -0.16294835149E+04  0.20224657455E+04  0.11979779490E+04 0.  0.
        4    1    3    3  502    0  0.50134174000E+03  0.15514960683E+03 -0.32728008350E+03  0.61848913226E+03  0.12699999809E+01 0. -1.
       -4    1    3    3    0  502 -0.50134174000E+03 -0.15514960683E+03 -0.13022034314E+04  0.14039766132E+04  0.12699999809E+01 0.  1.
</event>
<event>
 5   0  0.2517023E-03  0.1200679E+04  0.7818609E-02  0.9112262E-01
        2   -1    0    0  501    0  0.00000000000E+00  0.00000000000E+00  0.80043246200E+03  0.80043246201E+03  0.25500000920E-02 0. -1.
       -2   -1    0    0    0  501  0.00000000000E+00  0.00000000000E+00 -0.45026619185E+03  0.45026619186E+03  0.25500000920E-02 0.  1.
    10030    2    1    2    0    0  0.00000000000E+00  0.00000000000E+00  0.35016627015E+03  0.12506986539E+04  0.12006792686E+04 0.  0.
        3    1    3    3  502    0 -0.28121077215E+03  0.33565740810E+03 -0.25271082047E+03  0.50557705937E+03  0.10100000352E+00 0.  1.
       -3    1    3    3    0  502  0.28121077215E+03 -0.33565740810E+03  0.60287709062E+03  0.74512159449E+03  0.10100000352E+00 0. -1.
</event>
<event>
 5   0  0.1469851E-03  0.1194523E+04  0.7818609E-02  0.9117664E-01
       -1   -1    0    0    0  501  0.00000000000E+00  0.00000000000E+00  0.88138078580E+03  0.88138078581E+03  0.50400001928E-02 0. -1.
        1   -1    0    0  501    0  0.00000000000E+00  0.00000000000E+00 -0.40473024821E+03  0.40473024824E+03  0.50400001928E-02 0.  1.
    10030    2    1    2    0    0  0.00000000000E+00  0.00000000000E+00  0.47665053759E+03  0.12861110341E+04  0.11945232760E+04 0.  0.
        5    1    3    3  502    0  0.11437842109E+03  0.58383058035E+03  0.29487679210E+03  0.66401429374E+03  0.46999998093E+01 0.  1.
       -5    1    3    3    0  502 -0.11437842109E+03 -0.58383058035E+03  0.18177374549E+03  0.62209674032E+03  0.46999998093E+01 0. -1.
</event>
<event>
 5   0  0.2484507E-03  0.1190426E+04  0.7818609E-02  0.9121278E-01
       -2   -1    0    0    0  501  0.00000000000E+00  0.00000000000E+00  0.14794428547E+04  0.14794428547E+04  0.25500000920E-02 0. -1.
        2   -1    0    0  501    0  0.00000000000E+00  0.00000000000E+00 -0.23946752696E+03  0.23946752697E+03  0.25500000920E-02 0.  1.
    10030    2    1    2    0    0  0.00000000000E+00  0.00000000000E+00  0.12399753277E+04  0.17189103816E+04  0.11904260106E+04 0.  0.
        2    1    3    3  502    0  0.11005373515E+02  0.42983775161E+03  0.12142847076E+04  0.12881649592E+04  0.25500000920E-02 0. -1.
       -2    1    3    3    0  502 -0.11005373515E+02 -0.42983775161E+03  0.25690620064E+02  0.43074542241E+03  0.25500000920E-02 0.  1.
</event>
<event>
 5   0  0.1469851E-03  0.1202520E+04  0.7818609E-02  0.9110654E-01
        1   -1    0    0  501    0  0.00000000000E+00  0.00000000000E+00  0.12385518298E+04  0.12385518298E+04  0.50400001928E-02 0. -1.
       -1   -1    0    0    0  501  0.00000000000E+00  0.00000000000E+00 -0.29188412555E+03  0.29188412560E+03  0.50400001928E-02 0.  1.
    10030    2    1    2    0    0  0.00000000000E+00  0.00000000000E+00  0.94666770427E+03  0.15304359554E+04  0.12025200503E+04 0.  0.
        5    1    3    3  502    0 -0.40895241000E+03  0.44029844712E+03  0.44830576253E+03  0.74973658234E+03  0.46999998093E+01 0. -1.
       -5    1    3    3    0  502  0.40895241000E+03 -0.44029844712E+03  0.49836194174E+03  0.78069937310E+03  0.46999998093E+01 0.  1.
</event>
<event>
 5   0  0.2484507E-03  0.1198775E+04  0.7818609E-02  0.9113930E-01
        2   -1    0    0  501    0  0.00000000000E+00  0.00000000000E+00  0.53529452751E+03  0.53529452751E+03  0.25500000920E-02 0. -1.
       -2   -1    0    0    0  501  0.00000000000E+00  0.00000000000E+00 -0.67115432520E+03  0.67115432520E+03  0.25500000920E-02 0.  1.
    10030    2    1    2    0    0  0.00000000000E+00  0.00000000000E+00 -0.13585979769E+03  0.12064488527E+04  0.11987747702E+04 0.  0.
        2    1    3    3  502    0 -0.48960408629E+03 -0.33117266208E+03  0.32093176487E+02  0.59196069582E+03  0.25500000920E-02 0.  1.
       -2    1    3    3    0  502  0.48960408629E+03  0.33117266208E+03 -0.16795297418E+03  0.61448815689E+03  0.25500000920E-02 0. -1.
</event>
<event>
 5   0  0.1403154E-03  0.1197433E+04  0.7818609E-02  0.9115106E-01
        1   -1    0    0  501    0  0.00000000000E+00  0.00000000000E+00  0.92222796336E+03  0.92222796338E+03  0.50400001928E-02 0. -1.
       -1   -1    0    0    0  501  0.00000000000E+00  0.00000000000E+00 -0.38869070061E+03  0.38869070064E+03  0.50400001928E-02 0.  1.
    10030    2    1    2    0    0  0.00000000000E+00  0.00000000000E+00  0.53353726275E+03  0.13109186640E+04  0.11974329764E+04 0.  0.
        3    1    3    3  502    0  0.36352721040E+03 -0.13023519532E+03 -0.23414071111E+03  0.45159176432E+03  0.10100000352E+00 0.  1.
       -3    1    3    3    0  502 -0.36352721040E+03  0.13023519532E+03  0.76767797386E+03  0.85932689970E+03  0.10100000352E+00 0. -1.
</event>
<event>
 5   0  0.2517023E-03  0.1201105E+04  0.7818609E-02  0.9111890E-01
       -2   -1    0    0    0  501  0.00000000000E+00  0.00000000000E+00  0.27411904932E+03  0.27411904933E+03  0.25500000920E-02 0. -1.
        2   -1    0    0  501    0  0.00000000000E+00  0.00000000000E+00 -0.13157186588E+04  0.13157186588E+04  0.25500000920E-02 0.  1.
    10030    2    1    2    0    0  0.00000000000E+00  0.00000000000E+00 -0.10415996095E+04  0.15898377081E+04  0.12011054041E+04 0.  0.
        3    1    3    3  502    0  0.37987247695E+03  0.46411100801E+03 -0.56184159238E+03  0.82180783133E+03  0.10100000352E+00 0. -1.
       -3    1    3    3    0  502 -0.37987247695E+03 -0.46411100801E+03 -0.47975801709E+03  0.76802987680E+03  0.10100000352E+00 0.  1.
</event>
<event>
 5   0  0.1423024E-03  0.1245360E+04  0.7818609E-02  0.9074054E-01
        1   -1    0    0  501    0  0.00000000000E+00  0.00000000000E+00  0.10195059247E+04  0.10195059248E+04  0.50400001928E-02 0. -1.
       -1   -1    0    0    0  501  0.00000000000E+00  0.00000000000E+00 -0.38031216486E+03  0.38031216489E+03  0.50400001928E-02 0.  1.
    10030    2    1    2    0    0  0.00000000000E+00  0.00000000000E+00  0.63919375989E+03  0.13998180897E+04  0.12453601975E+04 0.  0.
        2    1    3    3  502    0  0.37087368640E+02  0.32518859820E+03  0.91502067489E+03  0.97179521134E+03  0.25500000920E-02 0. -1.
       -2    1    3    3    0  502 -0.37087368640E+02 -0.32518859820E+03 -0.27582691500E+03  0.42802287831E+03  0.25500000920E-02 0.  1.
</event>
<event>
 5   0  0.1404833E-03  0.1126503E+04  0.7818609E-02  0.9179739E-01
        1   -1    0    0  501    0  0.00000000000E+00  0.00000000000E+00  0.78112684840E+03  0.78112684842E+03  0.50400001928E-02 0.  1.
       -1   -1    0    0    0  501  0.00000000000E+00  0.00000000000E+00 -0.40614681610E+03  0.40614681614E+03  0.50400001928E-02 0. -1.
    10030    2    1    2    0    0  0.00000000000E+00  0.00000000000E+00  0.37498003230E+03  0.11872736646E+04  0.11265028761E+04 0.  0.
        1    1    3    3  502    0 -0.14855651171E+03  0.15428353401E+03 -0.36155409511E+03  0.42023066256E+03  0.50400001928E-02 0. -1.
       -1    1    3    3    0  502  0.14855651171E+03 -0.15428353401E+03  0.73653412741E+03  0.76704300199E+03  0.50400001928E-02 0.  1.
</event>
<event>
 5   0  0.2484507E-03  0.1022842E+04  0.7818609E-02  0.9283841E-01
        2   -1    0    0  501    0  0.00000000000E+00  0.00000000000E+00  0.83508769217E+03  0.83508769217E+03  0.25500000920E-02 0. -1.
       -2   -1    0    0    0  501  0.00000000000E+00  0.00000000000E+00 -0.31320237957E+03  0.31320237958E+03  0.25500000920E-02 0.  1.
    10030    2    1    2    0    0  0.00000000000E+00  0.00000000000E+00  0.52188531260E+03  0.11482900717E+04  0.10228420256E+04 0.  0.
        2    1    3    3  502    0 -0.14384094356E+03 -0.10759077678E+03  0.79850805127E+03  0.81846264438E+03  0.25500000920E-02 0. -1.
       -2    1    3    3    0  502  0.14384094356E+03  0.10759077678E+03 -0.27662273867E+03  0.32982742737E+03  0.25500000920E-02 0.  1.
</event>
<event>
 5   0  0.1403154E-03  0.1198478E+04  0.7818609E-02  0.9114190E-01
       -1   -1    0    0    0  501  0.00000000000E+00  0.00000000000E+00  0.52940173760E+03  0.52940173762E+03  0.50400001928E-02 0.  1.
        1   -1    0    0  501    0  0.00000000000E+00  0.00000000000E+00 -0.67828914700E+03  0.67828914701E+03  0.50400001928E-02 0. -1.
    10030    2    1    2    0    0  0.00000000000E+00  0.00000000000E+00 -0.14888740940E+03  0.12076908846E+04  0.11984781234E+04 0.  0.
        3    1    3    3  502    0  0.21082069537E+03 -0.23270361309E+03 -0.58875033952E+03  0.66725055986E+03  0.10100000352E+00 0. -1.
       -3    1    3    3    0  502 -0.21082069537E+03  0.23270361309E+03  0.43986293013E+03  0.54044032477E+03  0.10100000352E+00 0.  1.
</event>
<event>
 5   0  0.2579442E-03  0.1201339E+04  0.7818609E-02  0.9111685E-01
       -2   -1    0    0    0  501  0.00000000000E+00  0.00000000000E+00  0.18108792704E+03  0.18108792706E+03  0.25500000920E-02 0. -1.
        2   -1    0    0  501    0  0.00000000000E+00  0.00000000000E+00 -0.19924241297E+04  0.19924241297E+04  0.25500000920E-02 0.  1.
    10030    2    1    2    0    0  0.00000000000E+00  0.00000000000E+00 -0.18113362027E+04  0.21735120568E+04  0.12013391785E+04 0.  0.
        4    1    3    3  502    0 -0.16025073556E+03  0.82994400130E+02  0.13087693980E+03  0.22293217572E+03  0.12699999809E+01 0. -1.
       -4    1    3    3    0  502  0.16025073556E+03 -0.82994400130E+02 -0.19422131425E+04  0.19505798811E+04  0.12699999809E+01 0.  1.
</event>
<event>
 5   0  0.2517023E-03  0.1197434E+04  0.7818609E-02  0.9115105E-01
       -2   -1    0    0    0  501  0.00000000000E+00  0.00000000000E+00  0.62762806704E+03  0.62762806705E+03  0.25500000920E-02 0.  1.
        2   -1    0    0  501    0  0.00000000000E+00  0.00000000000E+00 -0.57113808039E+03  0.57113808040E+03  0.25500000920E-02 0. -1.
    10030    2    1    2    0    0  0.00000000000E+00  0.00000000000E+00  0.56489986648E+02  0.11987661474E+04  0.11974344064E+04 0.  0.
        3    1    3    3  502    0 -0.54191130544E+03 -0.18219098536E+03  0.20620900863E+03  0.60776935062E+03  0.10100000352E+00 0.  1.
       -3    1    3    3    0  502  0.54191130544E+03  0.18219098536E+03 -0.14971902198E+03  0.59099679682E+03  0.10100000352E+00 0. -1.
</event>
<event>
 5   0  0.2499890E-03  0.1193479E+04  0.7818609E-02  0.9118584E-01
       -2   -1    0    0    0  501  0.00000000000E+00  0.00000000000E+00  0.21932105940E+03  0.21932105942E+03  0.25500000920E-02 0. -1.
        2   -1    0    0  501    0  0.00000000000E+00  0.00000000000E+00 -0.16236379950E+04  0.16236379950E+04  0.25500000920E-02 0.  1.
    10030    2    1    2    0    0  0.00000000000E+00  0.00000000000E+00 -0.14043169356E+04  0.18429590544E+04  0.11934789569E+04 0.  0.
        5    1    3    3  502    0 -0.13642721863E+03  0.46884743778E+03 -0.17250870512E+03  0.51789154196E+03  0.46999998093E+01 0. -1.
       -5    1    3    3    0  502  0.13642721863E+03 -0.46884743778E+03 -0.12318082305E+04  0.13250675125E+04  0.46999998093E+01 0.  1.
</event>
<event>
 5   0  0.1455076E-03  0.1277490E+04  0.7818609E-02  0.9047609E-01
        1   -1    0    0  501    0  0.00000000000E+00  0.00000000000E+00  0.62192752327E+03  0.62192752329E+03  0.50400001928E-02 0.  1.
       -1   -1    0    0    0  501  0.00000000000E+00  0.00000000000E+00 -0.65601714790E+03  0.65601714792E+03  0.50400001928E-02 0. -1.
    10030    2    1    2    0    0  0.00000000000E+00  0.00000000000E+00 -0.34089624632E+02  0.12779446712E+04  0.12774899139E+04 0.  0.
        4    1    3    3  502    0 -0.79106575044E+02  0.32063529331E+03 -0.56398313340E+03  0.65356210814E+03  0.12699999809E+01 0. -1.
       -4    1    3    3    0  502  0.79106575044E+02 -0.32063529331E+03  0.52989350877E+03  0.62438256307E+03  0.12699999809E+01 0.  1.
</event>
<event>
 5   0  0.1403154E-03  0.1217577E+04  0.7818609E-02  0.9097609E-01
       -1   -1    0    0    0  501  0.00000000000E+00  0.00000000000E+00  0.53716889278E+03  0.53716889281E+03  0.50400001928E-02 0.  1.
        1   -1    0    0  501    0  0.00000000000E+00  0.00000000000E+00 -0.68995701757E+03  0.68995701758E+03  0.50400001928E-02 0. -1.
    10030    2    1    2    0    0  0.00000000000E+00  0.00000000000E+00 -0.15278812478E+03  0.12271259104E+04  0.12175770156E+04 0.  0.
        3    1    3    3  502    0 -0.39964819489E+03  0.18521057437E+03 -0.49992998217E+03  0.66629695618E+03  0.10100000352E+00 0. -1.
       -3    1    3    3    0  502  0.39964819489E+03 -0.18521057437E+03  0.34714185739E+03  0.56082895422E+03  0.10100000352E+00 0.  1.
</event>
<event>
 5   0  0.1469851E-03  0.1211977E+04  0.7818609E-02  0.9102437E-01
        1   -1    0    0  501    0  0.00000000000E+00  0.00000000000E+00  0.87497659228E+03  0.87497659230E+03  0.50400001928E-02 0. -1.
       -1   -1    0    0    0  501  0.00000000000E+00  0.00000000000E+00 -0.41969341120E+03  0.41969341123E+03  0.50400001928E-02 0.  1.
    10030    2    1    2    0    0  0.00000000000E+00  0.00000000000E+00  0.45528318109E+03  0.12946700035E+04  0.12119767502E+04 0.  0.
        5    1    3    3  502    0  0.33838761677E+03  0.50264934038E+03  0.23416411226E+03  0.64962870937E+03  0.46999998093E+01 0.  1.
       -5    1    3    3    0  502 -0.33838761677E+03 -0.50264934038E+03  0.22111906883E+03  0.64504129416E+03  0.46999998093E+01 0. -1.
</event>
<event>
 5   0  0.2579442E-03  0.1202542E+04  0.7818609E-02  0.9110634E-01
       -2   -1    0    0    0  501  0.00000000000E+00  0.00000000000E+00  0.33911705466E+03  0.33911705467E+03  0.25500000920E-02 0. -1.
        2   -1    0    0  501    0  0.00000000000E+00  0.00000000000E+00 -0.10660829259E+04  0.10660829259E+04  0.25500000920E-02 0.  1.
    10030    2    1    2    0    0  0.00000000000E+00  0.00000000000E+00 -0.72696587125E+03  0.14051999806E+04  0.12025421437E+04 0.  0.
        4    1    3    3  502    0  0.39533219268E+03  0.23926302535E+03  0.86043679765E+02  0.47004198280E+03  0.12699999809E+01 0. -1.
       -4    1    3    3    0  502 -0.39533219268E+03 -0.23926302535E+03 -0.81300955102E+03  0.93515799778E+03  0.12699999809E+01 0.  1.
</event>
<event>
 5   0  0.2580244E-03  0.1196771E+04  0.7818609E-02  0.9115687E-01
       -2   -1    0    0    0  501  0.00000000000E+00  0.00000000000E+00  0.36566595934E+03  0.36566595935E+03  0.25500000920E-02 0. -1.
        2   -1    0    0  501    0  0.00000000000E+00  0.00000000000E+00 -0.97921410625E+03  0.97921410626E+03  0.25500000920E-02 0.  1.
    10030    2    1    2    0    0  0.00000000000E+00  0.00000000000E+00 -0.61354814691E+03  0.13448800656E+04  0.11967710985E+04 0.  0.
        1    1    3    3  502    0 -0.49917109661E+03  0.27218225902E+03 -0.97108877149E+02  0.57678860934E+03  0.50400001928E-02 0. -1.
       -1    1    3    3    0  502  0.49917109661E+03 -0.27218225902E+03 -0.51643926976E+03  0.76809145627E+03  0.50400001928E-02 0.  1.
</event>
<event>
 5   0  0.2499890E-03  0.1236763E+04  0.7818609E-02  0.9081273E-01
       -2   -1    0    0    0  501  0.00000000000E+00  0.00000000000E+00  0.30218618752E+03  0.30218618754E+03  0.25500000920E-02 0. -1.
        2   -1    0    0  501    0  0.00000000000E+00  0.00000000000E+00 -0.12654309019E+04  0.12654309019E+04  0.25500000920E-02 0.  1.
    10030    2    1    2    0    0  0.00000000000E+00  0.00000000000E+00 -0.96324471435E+03  0.15676170894E+04  0.12367630975E+04 0.  0.
        5    1    3    3  502    0 -0.39849782762E+03 -0.26229140332E+03 -0.98028378097E+03  0.10902181800E+04  0.46999998093E+01 0. -1.
       -5    1    3    3    0  502  0.39849782762E+03  0.26229140332E+03  0.17039066626E+02  0.47739890936E+03  0.46999998093E+01 0.  1.
</event>
<event>
 5   0  0.2579442E-03  0.1207200E+04  0.7818609E-02  0.9106577E-01
       -2   -1    0    0    0  501  0.00000000000E+00  0.00000000000E+00  0.58063125308E+03  0.58063125309E+03  0.25500000920E-02 0. -1.
        2   -1    0    0  501    0  0.00000000000E+00  0.00000000000E+00 -0.62747776151E+03  0.62747776152E+03  0.25500000920E-02 0.  1.
    10030    2    1    2    0    0  0.00000000000E+00  0.00000000000E+00 -0.46846508430E+02  0.12081090146E+04  0.12072003959E+04 0.  0.
        4    1    3    3  502    0 -0.45281601859E+03 -0.19455615446E+03 -0.37216386577E+03  0.61757752534E+03  0.12699999809E+01 0.  1.
       -4    1    3    3    0  502  0.45281601859E+03  0.19455615446E+03  0.32531735734E+03  0.59053148926E+03  0.12699999809E+01 0. -1.
</event>
<event>
 5   0  0.2484507E-03  0.1194795E+04  0.7818609E-02  0.9117425E-01
       -2   -1    0    0    0  501  0.00000000000E+00  0.00000000000E+00  0.39675161340E+03  0.39675161341E+03  0.25500000920E-02 0. -1.
        2   -1    0    0  501    0  0.00000000000E+00  0.00000000000E+00 -0.89951391906E+03  0.89951391906E+03  0.25500000920E-02 0.  1.
    10030    2    1    2    0    0  0.00000000000E+00  0.00000000000E+00 -0.50276230566E+03  0.12962655325E+04  0.11947947082E+04 0.  0.
        2    1    3    3  502    0  0.13303077480E+03  0.49768473148E+03 -0.57955388720E+03  0.77541600910E+03  0.25500000920E-02 0.  1.
       -2    1    3    3    0  502 -0.13303077480E+03 -0.49768473148E+03  0.76791581538E+02  0.52084952337E+03  0.25500000920E-02 0. -1.
</event>
<event>
 5   0  0.2499890E-03  0.1183246E+04  0.7818609E-02  0.9127649E-01
        2   -1    0    0  501    0  0.00000000000E+00  0.00000000000E+00  0.12729396006E+04  0.12729396006E+04  0.25500000920E-02 0. -1.
       -2   -1    0    0    0  501  0.00000000000E+00  0.00000000000E+00 -0.27496802875E+03  0.27496802876E+03  0.25500000920E-02 0.  1.
    10030    2    1    2    0    0  0.00000000000E+00  0.00000000000E+00  0.99797157186E+03  0.15479076294E+04  0.11832458624E+04 0.  0.
        5    1    3    3  502    0  0.84600806279E+02  0.26920915346E+03  0.11791990097E+04  0.12125028904E+04  0.46999998093E+01 0. -1.
       -5    1    3    3    0  502 -0.84600806279E+02 -0.26920915346E+03 -0.18122743781E+03  0.33540473900E+03  0.46999998093E+01 0.  1.
</event>
<event>
 5   0  0.2499890E-03  0.1203340E+04  0.7818609E-02  0.9109938E-01
        2   -1    0    0  501    0  0.00000000000E+00  0.00000000000E+00  0.14895376552E+04  0.14895376552E+04  0.25500000920E-02 0. -1.
       -2   -1    0    0    0  501  0.00000000000E+00  0.00000000000E+00 -0.24303306711E+03  0.24303306712E+03  0.25500000920E-02 0.  1.
    10030    2    1    2    0    0  0.00000000000E+00  0.00000000000E+00  0.12465045881E+04  0.17325707224E+04  0.12033401929E+04 0.  0.
        5    1    3    3  502    0  0.18955256263E+03  0.35413695514E+03  0.12681830707E+04  0.13302832585E+04  0.46999998093E+01 0. -1.
       -5    1    3    3    0  502 -0.18955256263E+03 -0.35413695514E+03 -0.21678482563E+02  0.40228746389E+03  0.46999998093E+01 0.  1.
</event>
<event>
 5   0  0.1423024E-03  0.1213252E+04  0.7818609E-02  0.9101335E-01
        1   -1    0    0  501    0  0.00000000000E+00  0.00000000000E+00  0.82971739653E+03  0.82971739655E+03  0.50400001928E-02 0.  1.
       -1   -1    0    0    0  501  0.00000000000E+00  0.00000000000E+00 -0.44351887842E+03  0.44351887845E+03  0.50400001928E-02 0. -1.
    10030    2    1    2    0    0  0.00000000000E+00  0.00000000000E+00  0.38619851811E+03  0.12732362750E+04  0.12132523713E+04 0.  0.
        2    1    3    3  502    0  0.49660512258E+03  0.26564829819E+03  0.42965364890E+03  0.70836990628E+03  0.25500000920E-02 0.  1.
       -2    1    3    3    0  502 -0.49660512258E+03 -0.26564829819E+03 -0.43455130791E+02  0.56486636871E+03  0.25500000920E-02 0. -1.
</event>
<event>
 5   0  0.1423024E-03  0.1197549E+04  0.7818609E-02  0.9115004E-01
       -1   -1    0    0    0  501  0.00000000000E+00  0.00000000000E+00  0.21394024653E+04  0.21394024653E+04  0.50400001928E-02 0. -1.
        1   -1    0    0  501    0  0.00000000000E+00  0.00000000000E+00 -0.16758470342E+03  0.16758470350E+03  0.50400001928E-02 0.  1.
    10030    2    1    2    0    0  0.00000000000E+00  0.00000000000E+00  0.19718177619E+04  0.23069871688E+04  0.11975493773E+04 0.  0.
        2    1    3    3  502    0 -0.38834137501E+02 -0.17485175575E+03  0.20865862078E+04  0.20942595897E+04  0.25500000920E-02 0. -1.
       -2    1    3    3    0  502  0.38834137501E+02  0.17485175575E+03 -0.11476844588E+03  0.21272757908E+03  0.25500000920E-02 0.  1.
</event>
<event>
 5   0  0.9678750E-04  0.1226379E+04  0.7818609E-02  0.9090075E-01
       -4   -1    0    0    0  501  0.00000000000E+00  0.00000000000E+00  0.25079324903E+03  0.25079646460E+03  0.12699999809E+01 0. -1.
        4   -1    0    0  501    0  0.00000000000E+00  0.00000000000E+00 -0.14992359285E+04  0.14992364664E+04  0.12699999809E+01 0.  1.
    10030    2    1    2    0    0  0.00000000000E+00  0.00000000000E+00 -0.12484426795E+04  0.17500329310E+04  0.12263792789E+04 0.  0.
        1    1    3    3  502    0 -0.24958747394E+03 -0.27039028630E+02  0.17409918318E+03  0.30550866080E+03  0.50400001928E-02 0. -1.
       -1    1    3    3    0  502  0.24958747394E+03  0.27039028630E+02 -0.14225418627E+04  0.14445242702E+04  0.50400001928E-02 0.  1.
</event>
<event>
 5   0  0.1469851E-03  0.1218461E+04  0.7818609E-02  0.9096850E-01
        1   -1    0    0  501    0  0.00000000000E+00  0.00000000000E+00  0.12370713586E+04  0.12370713586E+04  0.50400001928E-02 0.  1.
       -1   -1    0    0    0  501  0.00000000000E+00  0.00000000000E+00 -0.30003243436E+03  0.30003243441E+03  0.50400001928E-02 0. -1.
    10030    2    1    2    0    0  0.00000000000E+00  0.00000000000E+00  0.93703892419E+03  0.15371037930E+04  0.12184605553E+04 0.  0.
        5    1    3    3  502    0 -0.52420798983E+03  0.14932766739E+03  0.12524263064E+03  0.55928577255E+03  0.46999998093E+01 0. -1.
       -5    1    3    3    0  502  0.52420798983E+03 -0.14932766739E+03  0.81179629355E+03  0.97781802042E+03  0.46999998093E+01 0.  1.
</event>
<event>
 5   0  0.2517023E-03  0.1159657E+04  0.7818609E-02  0.9148921E-01
       -2   -1    0    0    0  501  0.00000000000E+00  0.00000000000E+00  0.69061543493E+03  0.69061543494E+03  0.25500000920E-02 0. -1.
        2   -1    0    0  501    0  0.00000000000E+00  0.00000000000E+00 -0.48681351997E+03  0.48681351998E+03  0.25500000920E-02 0.  1.
    10030    2    1    2    0    0  0.00000000000E+00  0.00000000000E+00  0.20380191496E+03  0.11774289549E+04  0.11596567265E+04 0.  0.
        3    1    3    3  502    0  0.15570758314E+02  0.47020406184E+03 -0.24221290370E+03  0.52915159379E+03  0.10100000352E+00 0. -1.
       -3    1    3    3    0  502 -0.15570758314E+02 -0.47020406184E+03  0.44601481866E+03  0.64827736113E+03  0.10100000352E+00 0.  1.
</event>
<event>
 5   0  0.1404833E-03  0.1210053E+04  0.7818609E-02  0.9104102E-01
       -1   -1    0    0    0  501  0.00000000000E+00  0.00000000000E+00  0.51117231516E+03  0.51117231519E+03  0.50400001928E-02 0.  1.
        1   -1    0    0  501    0  0.00000000000E+00  0.00000000000E+00 -0.71611337290E+03  0.71611337292E+03  0.50400001928E-02 0. -1.
    10030    2    1    2    0    0  0.00000000000E+00  0.00000000000E+00 -0.20494105774E+03  0.12272856881E+04  0.12100534381E+04 0.  0.
        1    1    3    3  502    0 -0.40907226386E+03  0.32416885163E+03 -0.41282123286E+03  0.66546745356E+03  0.50400001928E-02 0. -1.
       -1    1    3    3    0  502  0.40907226386E+03 -0.32416885163E+03  0.20788017512E+03  0.56181823454E+03  0.50400001928E-02 0.  1.
</event>
<event>
 5   0  0.1423024E-03  0.1202449E+04  0.7818609E-02  0.9110716E-01
       -1   -1    0    0    0  501  0.00000000000E+00  0.00000000000E+00  0.18264285244E+03  0.18264285251E+03  0.50400001928E-02 0.  1.
        1   -1    0    0  501    0  0.00000000000E+00  0.00000000000E+00 -0.19791125667E+04  0.19791125667E+04  0.50400001928E-02 0. -1.
    10030    2    1    2    0    0  0.00000000000E+00  0.00000000000E+00 -0.17964697142E+04  0.21617554192E+04  0.12024487757E+04 0.  0.
        2    1    3    3  502    0 -0.28502366323E+03  0.44600642324E+03 -0.14108759449E+04  0.15068945384E+04  0.25500000920E-02 0. -1.
       -2    1    3    3    0  502  0.28502366323E+03 -0.44600642324E+03 -0.38559376939E+03  0.65486088077E+03  0.25500000920E-02 0.  1.
</event>
<event>
 5   0  0.1469851E-03  0.1191320E+04  0.7818609E-02  0.9120488E-01
        1   -1    0    0  501    0  0.00000000000E+00  0.00000000000E+00  0.96538272379E+03  0.96538272380E+03  0.50400001928E-02 0.  1.
       -1   -1    0    0    0  501  0.00000000000E+00  0.00000000000E+00 -0.36753406459E+03  0.36753406463E+03  0.50400001928E-02 0. -1.
    10030    2    1    2    0    0  0.00000000000E+00  0.00000000000E+00  0.59784865920E+03  0.13329167884E+04  0.11913203371E+04 0.  0.
        5    1    3    3  502    0 -0.41882623191E+03  0.35882579899E+03  0.55064864628E+03  0.77936345065E+03  0.46999998093E+01 0.  1.
       -5    1    3    3    0  502  0.41882623191E+03 -0.35882579899E+03  0.47200012916E+02  0.55355333778E+03  0.46999998093E+01 0. -1.
</event>
<event>
 5   0  0.2484507E-03  0.1202155E+04  0.7818609E-02  0.9110972E-01
       -2   -1    0    0    0  501  0.00000000000E+00  0.00000000000E+00  0.24377365739E+03  0.24377365740E+03  0.25500000920E-02 0. -1.
        2   -1    0    0  501    0  0.00000000000E+00  0.00000000000E+00 -0.14820898080E+04  0.14820898080E+04  0.25500000920E-02 0.  1.
    10030    2    1    2    0    0  0.00000000000E+00  0.00000000000E+00 -0.12383161506E+04  0.17258634654E+04  0.12021554859E+04 0.  0.
        2    1    3    3  502    0 -0.17056953378E+03  0.12101105526E+03 -0.14281729546E+04  0.14434041809E+04  0.25500000920E-02 0.  1.
       -2    1    3    3    0  502  0.17056953378E+03 -0.12101105526E+03  0.18985680398E+03  0.28245928445E+03  0.25500000920E-02 0. -1.
</event>
<event>
 5   0  0.2579442E-03  0.1221613E+04  0.7818609E-02  0.9094146E-01
        2   -1    0    0  501    0  0.00000000000E+00  0.00000000000E+00  0.45650464937E+03  0.45650464937E+03  0.25500000920E-02 0. -1.
       -2   -1    0    0    0  501  0.00000000000E+00  0.00000000000E+00 -0.81726369670E+03  0.81726369670E+03  0.25500000920E-02 0.  1.
    10030    2    1    2    0    0  0.00000000000E+00  0.00000000000E+00 -0.36075904733E+03  0.12737683461E+04  0.12216131586E+04 0.  0.
        4    1    3    3  502    0 -0.40297123808E+03  0.31830138745E+01 -0.65898287718E+03  0.77243510771E+03  0.12699999809E+01 0.  1.
       -4    1    3    3    0  502  0.40297123808E+03 -0.31830138745E+01  0.29822382985E+03  0.50133323837E+03  0.12699999809E+01 0. -1.
</event>
<event>
 5   0  0.1403154E-03  0.1188044E+04  0.7818609E-02  0.9123386E-01
        1   -1    0    0  501    0  0.00000000000E+00  0.00000000000E+00  0.91247594616E+03  0.91247594618E+03  0.50400001928E-02 0. -1.
       -1   -1    0    0    0  501  0.00000000000E+00  0.00000000000E+00 -0.38670870230E+03  0.38670870233E+03  0.50400001928E-02 0.  1.
    10030    2    1    2    0    0  0.00000000000E+00  0.00000000000E+00  0.52576724386E+03  0.12991846485E+04  0.11880444252E+04 0.  0.
        3    1    3    3  502    0 -0.39395510692E+03 -0.44111502466E+03  0.32356610257E+03  0.67414992708E+03  0.10100000352E+00 0.  1.
       -3    1    3    3    0  502  0.39395510692E+03  0.44111502466E+03  0.20220114130E+03  0.62503472143E+03  0.10100000352E+00 0. -1.
</event>
<event>
 5   0  0.2484507E-03  0.1211574E+04  0.7818609E-02  0.9102786E-01
       -2   -1    0    0    0  501  0.00000000000E+00  0.00000000000E+00  0.33096436791E+03  0.33096436792E+03  0.25500000920E-02 0. -1.
        2   -1    0    0  501    0  0.00000000000E+00  0.00000000000E+00 -0.11088131075E+04  0.11088131075E+04  0.25500000920E-02 0.  1.
    10030    2    1    2    0    0  0.00000000000E+00  0.00000000000E+00 -0.77784873959E+03  0.14397774754E+04  0.12115735706E+04 0.  0.
        2    1    3    3  502    0 -0.15865169511E+03 -0.51144396191E+03 -0.72552918214E+03  0.90174158198E+03  0.25500000920E-02 0.  1.
       -2    1    3    3    0  502  0.15865169511E+03  0.51144396191E+03 -0.52319557452E+02  0.53803589344E+03  0.25500000920E-02 0. -1.
</event>
<event>
 5   0  0.1469851E-03  0.1205044E+04  0.7818609E-02  0.9108453E-01
        1   -1    0    0  501    0  0.00000000000E+00  0.00000000000E+00  0.85755453627E+03  0.85755453628E+03  0.50400001928E-02 0. -1.
       -1   -1    0    0    0  501  0.00000000000E+00  0.00000000000E+00 -0.42333490172E+03  0.42333490175E+03  0.50400001928E-02 0.  1.
    10030    2    1    2    0    0  0.00000000000E+00  0.00000000000E+00  0.43421963455E+03  0.12808894380E+04  0.12050440081E+04 0.  0.
        5    1    3    3  502    0 -0.38998149101E+03 -0.44093736113E+03  0.80575372620E+02  0.59415974320E+03  0.46999998093E+01 0.  1.
       -5    1    3    3    0  502  0.38998149101E+03  0.44093736113E+03  0.35364426193E+03  0.68672969483E+03  0.46999998093E+01 0. -1.
</event>
<event>
 5   0  0.9678750E-04  0.1018073E+04  0.7818609E-02  0.9288942E-01
       -3   -1    0    0    0  501  0.00000000000E+00  0.00000000000E+00  0.24365633525E+03  0.24365635619E+03  0.10100000352E+00 0. -1.
        3   -1    0    0  501    0  0.00000000000E+00  0.00000000000E+00 -0.10634573037E+04  0.10634573085E+04  0.10100000352E+00 0.  1.
    10030    2    1    2    0    0  0.00000000000E+00  0.00000000000E+00 -0.81980096841E+03  0.13071136646E+04  0.10180729367E+04 0.  0.
        1    1    3    3  502    0  0.18619863067E+03  0.22968791784E+03  0.12209636150E+03  0.31989684460E+03  0.50400001928E-02 0. -1.
       -1    1    3    3    0  502 -0.18619863067E+03 -0.22968791784E+03 -0.94189732991E+03  0.98721682005E+03  0.50400001928E-02 0.  1.
</event>
<event>
 5   0  0.1455076E-03  0.1225686E+04  0.7818609E-02  0.9090666E-01
        1   -1    0    0  501    0  0.00000000000E+00  0.00000000000E+00  0.93952336930E+03  0.93952336932E+03  0.50400001928E-02 0. -1.
       -1   -1    0    0    0  501  0.00000000000E+00  0.00000000000E+00 -0.39975240821E+03  0.39975240824E+03  0.50400001928E-02 0.  1.
    10030    2    1    2    0    0  0.00000000000E+00  0.00000000000E+00  0.53977096109E+03  0.13392757776E+04  0.12256863049E+04 0.  0.
        4    1    3    3  502    0  0.13743573651E+03  0.20367679403E+03 -0.34357327386E+03  0.42239439569E+03  0.12699999809E+01 0.  1.
       -4    1    3    3    0  502 -0.13743573651E+03 -0.20367679403E+03  0.88334423495E+03  0.91688138187E+03  0.12699999809E+01 0. -1.
</event>
<event>
 5   0  0.1423024E-03  0.1196129E+04  0.7818609E-02  0.9116252E-01
       -1   -1    0    0    0  501  0.00000000000E+00  0.00000000000E+00  0.16847451520E+03  0.16847451528E+03  0.50400001928E-02 0.  1.
        1   -1    0    0  501    0  0.00000000000E+00  0.00000000000E+00 -0.21230579192E+04  0.21230579192E+04  0.50400001928E-02 0. -1.
    10030    2    1    2    0    0  0.00000000000E+00  0.00000000000E+00 -0.19545834040E+04  0.22915324345E+04  0.11961290127E+04 0.  0.
        2    1    3    3  502    0  0.63798544310E+02  0.58026395762E+03 -0.12263786289E+04  0.13582271740E+04  0.25500000920E-02 0. -1.
       -2    1    3    3    0  502 -0.63798544310E+02 -0.58026395762E+03 -0.72820477507E+03  0.93330526046E+03  0.25500000920E-02 0.  1.
</event>
<event>
 5   0  0.1469851E-03  0.1240424E+04  0.7818609E-02  0.9078191E-01
        1   -1    0    0  501    0  0.00000000000E+00  0.00000000000E+00  0.89082027514E+03  0.89082027516E+03  0.50400001928E-02 0. -1.
       -1   -1    0    0    0  501  0.00000000000E+00  0.00000000000E+00 -0.43180744084E+03  0.43180744087E+03  0.50400001928E-02 0.  1.
    10030    2    1    2    0    0  0.00000000000E+00  0.00000000000E+00  0.45901283430E+03  0.13226277160E+04  0.12404238361E+04 0.  0.
        5    1    3    3  502    0 -0.48885121137E+03  0.27871665924E+03  0.50751953241E+03  0.75779723460E+03  0.46999998093E+01 0.  1.
       -5    1    3    3    0  502  0.48885121137E+03 -0.27871665924E+03 -0.48506698109E+02  0.56483048143E+03  0.46999998093E+01 0. -1.
</event>
<event>
 5   0  0.1404833E-03  0.1212637E+04  0.7818609E-02  0.9101866E-01
       -1   -1    0    0    0  501  0.00000000000E+00  0.00000000000E+00  0.33007153200E+03  0.33007153204E+03  0.50400001928E-02 0.  1.
        1   -1    0    0  501    0  0.00000000000E+00  0.00000000000E+00 -0.11137656112E+04  0.11137656112E+04  0.50400001928E-02 0. -1.
    10030    2    1    2    0    0  0.00000000000E+00  0.00000000000E+00 -0.78369407915E+03  0.14438371432E+04  0.12126373268E+04 0.  0.
        1    1    3    3  502    0 -0.30080091771E+03 -0.10557674561E+03 -0.10059253430E+04  0.10552314613E+04  0.50400001928E-02 0. -1.
       -1    1    3    3    0  502  0.30080091771E+03  0.10557674561E+03  0.22223126384E+03  0.38860568185E+03  0.50400001928E-02 0.  1.
</event>
<event>
 5   0  0.2517023E-03  0.1199560E+04  0.7818609E-02  0.9113241E-01
        2   -1    0    0  501    0  0.00000000000E+00  0.00000000000E+00  0.63600105474E+03  0.63600105474E+03  0.25500000920E-02 0.  1.
       -2   -1    0    0    0  501  0.00000000000E+00  0.00000000000E+00 -0.56562212700E+03  0.56562212701E+03  0.25500000920E-02 0. -1.
    10030    2    1    2    0    0  0.00000000000E+00  0.00000000000E+00  0.70378927734E+02  0.12016231818E+04  0.11995603684E+04 0.  0.
        3    1    3    3  502    0  0.29683646841E+03  0.41224001982E+03 -0.28423588246E+03  0.58210288610E+03  0.10100000352E+00 0. -1.
       -3    1    3    3    0  502 -0.29683646841E+03 -0.41224001982E+03  0.35461481020E+03  0.61952029566E+03  0.10100000352E+00 0.  1.
</event>
<event>
 5   0  0.2517023E-03  0.1219646E+04  0.7818609E-02  0.9095832E-01
        2   -1    0    0  501    0  0.00000000000E+00  0.00000000000E+00  0.62123886346E+03  0.62123886347E+03  0.25500000920E-02 0.  1.
       -2   -1    0    0    0  501  0.00000000000E+00  0.00000000000E+00 -0.59861734049E+03  0.59861734050E+03  0.25500000920E-02 0. -1.
    10030    2    1    2    0    0  0.00000000000E+00  0.00000000000E+00  0.22621522971E+02  0.12198562040E+04  0.12196464344E+04 0.  0.
        3    1    3    3  502    0  0.26909987237E+03 -0.42975669221E+03  0.35015921691E+03  0.61621184928E+03  0.10100000352E+00 0.  1.
       -3    1    3    3    0  502 -0.26909987237E+03  0.42975669221E+03 -0.32753769394E+03  0.60364435469E+03  0.10100000352E+00 0. -1.
</event>
<event>
 5   0  0.1469851E-03  0.1118992E+04  0.7818609E-02  0.9186876E-01
       -1   -1    0    0    0  501  0.00000000000E+00  0.00000000000E+00  0.45179710681E+03  0.45179710684E+03  0.50400001928E-02 0. -1.
        1   -1    0    0  501    0  0.00000000000E+00  0.00000000000E+00 -0.69286843389E+03  0.69286843391E+03  0.50400001928E-02 0.  1.
    10030    2    1    2    0    0  0.00000000000E+00  0.00000000000E+00 -0.24107132708E+03  0.11446655407E+04  0.11189923214E+04 0.  0.
        5    1    3    3  502    0 -0.23214092053E+03  0.22563536742E+03  0.34623716485E+03  0.47402846996E+03  0.46999998093E+01 0. -1.
       -5    1    3    3    0  502  0.23214092053E+03 -0.22563536742E+03 -0.58730849193E+03  0.67063707078E+03  0.46999998093E+01 0.  1.
</event>
<event>
 5   0  0.1403154E-03  0.1175442E+04  0.7818609E-02  0.9134628E-01
        1   -1    0    0  501    0  0.00000000000E+00  0.00000000000E+00  0.23804456487E+03  0.23804456493E+03  0.50400001928E-02 0. -1.
       -1   -1    0    0    0  501  0.00000000000E+00  0.00000000000E+00 -0.14510553691E+04  0.14510553691E+04  0.50400001928E-02 0.  1.
    10030    2    1    2    0    0  0.00000000000E+00  0.00000000000E+00 -0.12130108042E+04  0.16890999340E+04  0.11754417791E+04 0.  0.
        3    1    3    3  502    0 -0.43777333164E+03 -0.25321924578E+03 -0.17624613329E+03  0.53556342858E+03  0.10100000352E+00 0. -1.
       -3    1    3    3    0  502  0.43777333164E+03  0.25321924578E+03 -0.10367646709E+04  0.11535365054E+04  0.10100000352E+00 0.  1.
</event>
<event>
 5   0  0.1403154E-03  0.1215831E+04  0.7818609E-02  0.9099112E-01
        1   -1    0    0  501    0  0.00000000000E+00  0.00000000000E+00  0.11177788992E+04  0.11177788992E+04  0.50400001928E-02 0.  1.
       -1   -1    0    0    0  501  0.00000000000E+00  0.00000000000E+00 -0.33062082499E+03  0.33062082502E+03  0.50400001928E-02 0. -1.
    10030    2    1    2    0    0  0.00000000000E+00  0.00000000000E+00  0.78715807425E+03  0.14483997243E+04  0.12158305504E+04 0.  0.
        3    1    3    3  502    0  0.54057236512E+03  0.57998295101E+02  0.71759670556E+03  0.90029291133E+03  0.10100000352E+00 0.  1.
       -3    1    3    3    0  502 -0.54057236512E+03 -0.57998295101E+02  0.69561368691E+02  0.54810681293E+03  0.10100000352E+00 0. -1.
</event>
<event>
 5   0  0.2484507E-03  0.1164264E+04  0.7818609E-02  0.9144724E-01
       -2   -1    0    0    0  501  0.00000000000E+00  0.00000000000E+00  0.46572471388E+03  0.46572471389E+03  0.25500000920E-02 0.  1.
        2   -1    0    0  501    0  0.00000000000E+00  0.00000000000E+00 -0.72763563867E+03  0.72763563868E+03  0.25500000920E-02 0. -1.
    10030    2    1    2    0    0  0.00000000000E+00  0.00000000000E+00 -0.26191092479E+03  0.11933603526E+04  0.11642644023E+04 0.  0.
        2    1    3    3  502    0  0.53364195215E+01 -0.23369971094E+03 -0.67741485887E+03  0.71661351040E+03  0.25500000920E-02 0. -1.
       -2    1    3    3    0  502 -0.53364195215E+01  0.23369971094E+03  0.41550393408E+03  0.47674684216E+03  0.25500000920E-02 0.  1.
</event>
<event>
 5   0  0.2484507E-03  0.1208974E+04  0.7818609E-02  0.9105038E-01
       -2   -1    0    0    0  501  0.00000000000E+00  0.00000000000E+00  0.43496495058E+03  0.43496495059E+03  0.25500000920E-02 0. -1.
        2   -1    0    0  501    0  0.00000000000E+00  0.00000000000E+00 -0.84007786154E+03  0.84007786155E+03  0.25500000920E-02 0.  1.
    10030    2    1    2    0    0  0.00000000000E+00  0.00000000000E+00 -0.40511291096E+03  0.12750428121E+04  0.12089738219E+04 0.  0.
        2    1    3    3  502    0 -0.43274023417E+03  0.22876773154E+02  0.24192136750E+03  0.49629971295E+03  0.25500000920E-02 0. -1.
       -2    1    3    3    0  502  0.43274023417E+03 -0.22876773154E+02 -0.64703427846E+03  0.77874309918E+03  0.25500000920E-02 0.  1.
</event>
<event>
 5   0  0.1455076E-03  0.1181743E+04  0.7818609E-02  0.9128989E-01
       -1   -1    0    0    0  501  0.00000000000E+00  0.00000000000E+00  0.50053772632E+03  0.50053772635E+03  0.50400001928E-02 0.  1.
        1   -1    0    0  501    0  0.00000000000E+00  0.00000000000E+00 -0.69750816496E+03  0.69750816498E+03  0.50400001928E-02 0. -1.
    10030    2    1    2    0    0  0.00000000000E+00  0.00000000000E+00 -0.19697043864E+03  0.11980458913E+04  0.11817430364E+04 0.  0.
        4    1    3    3  502    0  0.20768522253E+03 -0.10234869384E+03 -0.64960145200E+03  0.68963183375E+03  0.12699999809E+01 0. -1.
       -4    1    3    3    0  502 -0.20768522253E+03  0.10234869384E+03  0.45263101336E+03  0.50841405758E+03  0.12699999809E+01 0.  1.
</event>
<event>
 5   0  0.2580244E-03  0.1218469E+04  0.7818609E-02  0.9096843E-01
        2   -1    0    0  501    0  0.00000000000E+00  0.00000000000E+00  0.76516481738E+03  0.76516481739E+03  0.25500000920E-02 0. -1.
       -2   -1    0    0    0  501  0.00000000000E+00  0.00000000000E+00 -0.48508032124E+03  0.48508032125E+03  0.25500000920E-02 0.  1.
    10030    2    1    2    0    0  0.00000000000E+00  0.00000000000E+00  0.28008449614E+03  0.12502451386E+04  0.12184685395E+04 0.  0.
        1    1    3    3  502    0  0.46437754144E+03  0.26206486007E+03 -0.16233250133E+03  0.55738347023E+03  0.50400001928E-02 0.  1.
       -1    1    3    3    0  502 -0.46437754144E+03 -0.26206486007E+03  0.44241699747E+03  0.69286166841E+03  0.50400001928E-02 0. -1.
</event>
<event>
 5   0  0.9678750E-04  0.1202912E+04  0.7818609E-02  0.9110312E-01
        3   -1    0    0  501    0  0.00000000000E+00  0.00000000000E+00  0.73104262828E+03  0.73104263526E+03  0.10100000352E+00 0.  1.
       -3   -1    0    0    0  501  0.00000000000E+00  0.00000000000E+00 -0.49484006755E+03  0.49484007786E+03  0.10100000352E+00 0. -1.
    10030    2    1    2    0    0  0.00000000000E+00  0.00000000000E+00  0.23620256073E+03  0.12258827131E+04  0.12029117909E+04 0.  0.
        4    1    3    3  502    0 -0.17980311842E+01  0.16389436901E+03  0.70784276603E+03  0.72657249565E+03  0.12699999809E+01 0.  1.
       -4    1    3    3    0  502  0.17980311842E+01 -0.16389436901E+03 -0.47164020530E+03  0.49931021747E+03  0.12699999809E+01 0. -1.
</event>
<event>
 5   0  0.2499890E-03  0.1205648E+04  0.7818609E-02  0.9107927E-01
        2   -1    0    0  501    0  0.00000000000E+00  0.00000000000E+00  0.71949208337E+03  0.71949208338E+03  0.25500000920E-02 0.  1.
       -2   -1    0    0    0  501  0.00000000000E+00  0.00000000000E+00 -0.50507431622E+03  0.50507431623E+03  0.25500000920E-02 0. -1.
    10030    2    1    2    0    0  0.00000000000E+00  0.00000000000E+00  0.21441776715E+03  0.12245663996E+04  0.12056483269E+04 0.  0.
        5    1    3    3  502    0 -0.15928366310E+03  0.57760527317E+03  0.17439626262E+03  0.62404750087E+03  0.46999998093E+01 0.  1.
       -5    1    3    3    0  502  0.15928366310E+03 -0.57760527317E+03  0.40021504526E+02  0.60051889874E+03  0.46999998093E+01 0. -1.
</event>
<event>
 5   0  0.2499890E-03  0.1195442E+04  0.7818609E-02  0.9116855E-01
       -2   -1    0    0    0  501  0.00000000000E+00  0.00000000000E+00  0.24148817572E+03  0.24148817574E+03  0.25500000920E-02 0. -1.
        2   -1    0    0  501    0  0.00000000000E+00  0.00000000000E+00 -0.14794536204E+04  0.14794536204E+04  0.25500000920E-02 0.  1.
    10030    2    1    2    0    0  0.00000000000E+00  0.00000000000E+00 -0.12379654447E+04  0.17209417961E+04  0.11954422711E+04 0.  0.
        5    1    3    3  502    0  0.35248722240E+03 -0.48137800999E+03 -0.56755029790E+03  0.82347280532E+03  0.46999998093E+01 0. -1.
       -5    1    3    3    0  502 -0.35248722240E+03  0.48137800999E+03 -0.67041514678E+03  0.89746899082E+03  0.46999998093E+01 0.  1.
</event>
<event>
 5   0  0.2484507E-03  0.1194525E+04  0.7818609E-02  0.9117663E-01
        2   -1    0    0  501    0  0.00000000000E+00  0.00000000000E+00  0.16704630032E+04  0.16704630032E+04  0.25500000920E-02 0. -1.
       -2   -1    0    0    0  501  0.00000000000E+00  0.00000000000E+00 -0.21354699872E+03  0.21354699874E+03  0.25500000920E-02 0.  1.
    10030    2    1    2    0    0  0.00000000000E+00  0.00000000000E+00  0.14569160044E+04  0.18840100019E+04  0.11945247772E+04 0.  0.
        2    1    3    3  502    0  0.16100362690E+03  0.57480612172E+03  0.75992769569E+03  0.96634069982E+03  0.25500000920E-02 0. -1.
       -2    1    3    3    0  502 -0.16100362690E+03 -0.57480612172E+03  0.69698830875E+03  0.91766930208E+03  0.25500000920E-02 0.  1.
</event>
<event>
 5   0  0.1469851E-03  0.1202639E+04  0.7818609E-02  0.9110550E-01
        1   -1    0    0  501    0  0.00000000000E+00  0.00000000000E+00  0.12483246953E+04  0.12483246953E+04  0.50400001928E-02 0. -1.
       -1   -1    0    0    0  501  0.00000000000E+00  0.00000000000E+00 -0.28965632228E+03  0.28965632232E+03  0.50400001928E-02 0.  1.
    10030    2    1    2    0    0  0.00000000000E+00  0.00000000000E+00  0.95866837303E+03  0.15379810176E+04  0.12026389987E+04 0.  0.
        5    1    3    3  502    0 -0.56502576791E+03 -0.20076725137E+03  0.42212216801E+03  0.73332859098E+03  0.46999998093E+01 0. -1.
       -5    1    3    3    0  502  0.56502576791E+03  0.20076725137E+03  0.53654620502E+03  0.80465242667E+03  0.46999998093E+01 0.  1.
</event>
<event>
 5   0  0.2517023E-03  0.1201867E+04  0.7818609E-02  0.9111224E-01
        2   -1    0    0  501    0  0.00000000000E+00  0.00000000000E+00  0.61732169786E+03  0.61732169787E+03  0.25500000920E-02 0.  1.
       -2   -1    0    0    0  501  0.00000000000E+00  0.00000000000E+00 -0.58498040781E+03  0.58498040781E+03  0.25500000920E-02 0. -1.
    10030    2    1    2    0    0  0.00000000000E+00  0.00000000000E+00  0.32341290055E+02  0.12023021057E+04  0.12018670452E+04 0.  0.
        3    1    3    3  502    0 -0.44468902998E+03 -0.39216472793E+03  0.11408140937E+03  0.60378480056E+03  0.10100000352E+00 0.  1.
       -3    1    3    3    0  502  0.44468902998E+03  0.39216472793E+03 -0.81740119311E+02  0.59851730512E+03  0.10100000352E+00 0. -1.
</event>
<event>
 5   0  0.1403154E-03  0.1240327E+04  0.7818609E-02  0.9078272E-01
       -1   -1    0    0    0  501  0.00000000000E+00  0.00000000000E+00  0.60915530858E+03  0.60915530860E+03  0.50400001928E-02 0.  1.
        1   -1    0    0  501    0  0.00000000000E+00  0.00000000000E+00 -0.63137102602E+03  0.63137102604E+03  0.50400001928E-02 0. -1.
    10030    2    1    2    0    0  0.00000000000E+00  0.00000000000E+00 -0.22215717439E+02  0.12405263346E+04  0.12403273958E+04 0.  0.
        3    1    3    3  502    0  0.41346902456E+03  0.93850858178E+02  0.44155548017E+03  0.61215673657E+03  0.10100000352E+00 0.  1.
       -3    1    3    3    0  502 -0.41346902456E+03 -0.93850858178E+02 -0.46377119761E+03  0.62836959808E+03  0.10100000352E+00 0. -1.
</event>
<event>
 5   0  0.2579442E-03  0.1205901E+04  0.7818609E-02  0.9107707E-01
        2   -1    0    0  501    0  0.00000000000E+00  0.00000000000E+00  0.74209188233E+03  0.74209188234E+03  0.25500000920E-02 0.  1.
       -2   -1    0    0    0  501  0.00000000000E+00  0.00000000000E+00 -0.48989785857E+03  0.48989785858E+03  0.25500000920E-02 0. -1.
    10030    2    1    2    0    0  0.00000000000E+00  0.00000000000E+00  0.25219402377E+03  0.12319897409E+04  0.12059008650E+04 0.  0.
        4    1    3    3  502    0 -0.52574433918E+03 -0.12554576450E+03 -0.14685103449E+03  0.56012113725E+03  0.12699999809E+01 0. -1.
       -4    1    3    3    0  502  0.52574433918E+03  0.12554576450E+03  0.39904505826E+03  0.67186860366E+03  0.12699999809E+01 0.  1.
</event>
<event>
 5   0  0.1423024E-03  0.1179289E+04  0.7818609E-02  0.9131180E-01
        1   -1    0    0  501    0  0.00000000000E+00  0.00000000000E+00  0.43645798629E+03  0.43645798632E+03  0.50400001928E-02 0. -1.
       -1   -1    0    0    0  501  0.00000000000E+00  0.00000000000E+00 -0.79659587028E+03  0.79659587030E+03  0.50400001928E-02 0.  1.
    10030    2    1    2    0    0  0.00000000000E+00  0.00000000000E+00 -0.36013788399E+03  0.12330538566E+04  0.11792889883E+04 0.  0.
        2    1    3    3  502    0  0.39145056248E+03 -0.33870016237E+03  0.11516802944E+03  0.53029710340E+03  0.25500000920E-02 0. -1.
       -2    1    3    3    0  502 -0.39145056248E+03  0.33870016237E+03 -0.47530591342E+03  0.70275675322E+03  0.25500000920E-02 0.  1.
</event>
<event>
 5   0  0.1404833E-03  0.1197542E+04  0.7818609E-02  0.9115011E-01
       -1   -1    0    0    0  501  0.00000000000E+00  0.00000000000E+00  0.62326738222E+03  0.62326738224E+03  0.50400001928E-02 0. -1.
        1   -1    0    0  501    0  0.00000000000E+00  0.00000000000E+00 -0.57523708682E+03  0.57523708685E+03  0.50400001928E-02 0.  1.
    10030    2    1    2    0    0  0.00000000000E+00  0.00000000000E+00  0.48030295393E+02  0.11985044691E+04  0.11975416707E+04 0.  0.
        1    1    3    3  502    0 -0.36176396497E+03 -0.31733970399E+03 -0.33257014318E+03  0.58496201094E+03  0.50400001928E-02 0.  1.
       -1    1    3    3    0  502  0.36176396497E+03  0.31733970399E+03  0.38060043857E+03  0.61354245815E+03  0.50400001928E-02 0. -1.
</event>
<event>
 5   0  0.2499890E-03  0.1196648E+04  0.7818609E-02  0.9115796E-01
        2   -1    0    0  501    0  0.00000000000E+00  0.00000000000E+00  0.11973045130E+04  0.11973045130E+04  0.25500000920E-02 0.  1.
       -2   -1    0    0    0  501  0.00000000000E+00  0.00000000000E+00 -0.29899785360E+03  0.29899785361E+03  0.25500000920E-02 0. -1.
    10030    2    1    2    0    0  0.00000000000E+00  0.00000000000E+00  0.89830665937E+03  0.14963023666E+04  0.11966477836E+04 0.  0.
        5    1    3    3  502    0 -0.35041863522E+03  0.18865651461E+01 -0.15722879729E+03  0.38410905187E+03  0.46999998093E+01 0. -1.
       -5    1    3    3    0  502  0.35041863522E+03 -0.18865651461E+01  0.10555354567E+04  0.11121933147E+04  0.46999998093E+01 0.  1.
</event>
<event>
 5   0  0.1469851E-03  0.1191059E+04  0.7818609E-02  0.9120718E-01
       -1   -1    0    0    0  501  0.00000000000E+00  0.00000000000E+00  0.25821611016E+03  0.25821611021E+03  0.50400001928E-02 0. -1.
        1   -1    0    0  501    0  0.00000000000E+00  0.00000000000E+00 -0.13734836280E+04  0.13734836280E+04  0.50400001928E-02 0.  1.
    10030    2    1    2    0    0  0.00000000000E+00  0.00000000000E+00 -0.11152675178E+04  0.16316997382E+04  0.11910593601E+04 0.  0.
        5    1    3    3  502    0  0.36992370674E+03 -0.38009245291E+03 -0.92858526814E+03  0.10693953954E+04  0.46999998093E+01 0.  1.
       -5    1    3    3    0  502 -0.36992370674E+03  0.38009245291E+03 -0.18668224969E+03  0.56230434278E+03  0.46999998093E+01 0. -1.
</event>
<event>
 5   0  0.2517023E-03  0.1212295E+04  0.7818609E-02  0.9102163E-01
       -2   -1    0    0    0  501  0.00000000000E+00  0.00000000000E+00  0.22951251032E+03  0.22951251034E+03  0.25500000920E-02 0. -1.
        2   -1    0    0  501    0  0.00000000000E+00  0.00000000000E+00 -0.16008479032E+04  0.16008479032E+04  0.25500000920E-02 0.  1.
    10030    2    1    2    0    0  0.00000000000E+00  0.00000000000E+00 -0.13713353928E+04  0.18303604135E+04  0.12122947182E+04 0.  0.
        3    1    3    3  502    0 -0.20391267298E+03 -0.70383139522E+02  0.16959598039E+03  0.27440293602E+03  0.10100000352E+00 0. -1.
       -3    1    3    3    0  502  0.20391267298E+03  0.70383139522E+02 -0.15409313732E+04  0.15559574775E+04  0.10100000352E+00 0.  1.
</event>
<event>
 5   0  0.2580244E-03  0.1191451E+04  0.7818609E-02  0.9120372E-01
       -2   -1    0    0    0  501  0.00000000000E+00  0.00000000000E+00  0.21841255833E+03  0.21841255835E+03  0.25500000920E-02 0.  1.
        2   -1    0    0  501    0  0.00000000000E+00  0.00000000000E+00 -0.16248563666E+04  0.16248563666E+04  0.25500000920E-02 0. -1.
    10030    2    1    2    0    0  0.00000000000E+00  0.00000000000E+00 -0.14064438082E+04  0.18432689249E+04  0.11914512763E+04 0.  0.
        1    1    3    3  502    0  0.16852859885E+03 -0.57005754883E+03 -0.76356865098E+03  0.96767999999E+03  0.50400001928E-02 0.  1.
       -1    1    3    3    0  502 -0.16852859885E+03  0.57005754883E+03 -0.64287515727E+03  0.87558892493E+03  0.50400001928E-02 0. -1.
</event>
<event>
 5   0  0.1423024E-03  0.1211637E+04  0.7818609E-02  0.9102731E-01
       -1   -1    0    0    0  501  0.00000000000E+00  0.00000000000E+00  0.31102529888E+03  0.31102529892E+03  0.50400001928E-02 0.  1.
        1   -1    0    0  501    0  0.00000000000E+00  0.00000000000E+00 -0.11800197881E+04  0.11800197881E+04  0.50400001928E-02 0. -1.
    10030    2    1    2    0    0  0.00000000000E+00  0.00000000000E+00 -0.86899448926E+03  0.14910450871E+04  0.12116369214E+04 0.  0.
        2    1    3    3  502    0 -0.48754130951E+03  0.32380495356E+02  0.62427760008E+01  0.48865529489E+03  0.25500000920E-02 0.  1.
       -2    1    3    3    0  502  0.48754130951E+03 -0.32380495356E+02 -0.87523726526E+03  0.10023897922E+04  0.25500000920E-02 0. -1.
</event>
<event>
 5   0  0.1423024E-03  0.1202548E+04  0.7818609E-02  0.9110629E-01
       -1   -1    0    0    0  501  0.00000000000E+00  0.00000000000E+00  0.17383775319E+03  0.17383775326E+03  0.50400001928E-02 0. -1.
        1   -1    0    0  501    0  0.00000000000E+00  0.00000000000E+00 -0.20797003373E+04  0.20797003373E+04  0.50400001928E-02 0.  1.
    10030    2    1    2    0    0  0.00000000000E+00  0.00000000000E+00 -0.19058625841E+04  0.22535380906E+04  0.12025480182E+04 0.  0.
        2    1    3    3  502    0 -0.13363115092E+03  0.31505578050E+03 -0.18793869358E+04  0.19102912562E+04  0.25500000920E-02 0.  1.
       -2    1    3    3    0  502  0.13363115092E+03 -0.31505578050E+03 -0.26475648361E+02  0.34324683434E+03  0.25500000920E-02 0. -1.
</event>
<event>
 5   0  0.2517023E-03  0.1128849E+04  0.7818609E-02  0.9177521E-01
       -2   -1    0    0    0  501  0.00000000000E+00  0.00000000000E+00  0.13173058251E+03  0.13173058254E+03  0.25500000920E-02 0.  1.
        2   -1    0    0  501    0  0.00000000000E+00  0.00000000000E+00 -0.24183835517E+04  0.24183835517E+04  0.25500000920E-02 0. -1.
    10030    2    1    2    0    0  0.00000000000E+00  0.00000000000E+00 -0.22866529692E+04  0.25501141342E+04  0.11288491025E+04 0.  0.
        3    1    3    3  502    0  0.15631864884E+02 -0.42736827895E+03 -0.31119309786E+03  0.52889427621E+03  0.10100000352E+00 0. -1.
       -3    1    3    3    0  502 -0.15631864884E+02  0.42736827895E+03 -0.19754598713E+04  0.20212198580E+04  0.10100000352E+00 0.  1.
</event>
<event>
 5   0  0.2499890E-03  0.1202092E+04  0.7818609E-02  0.9111027E-01
       -2   -1    0    0    0  501  0.00000000000E+00  0.00000000000E+00  0.25287395077E+03  0.25287395078E+03  0.25500000920E-02 0.  1.
        2   -1    0    0  501    0  0.00000000000E+00  0.00000000000E+00 -0.14286032428E+04  0.14286032428E+04  0.25500000920E-02 0. -1.
    10030    2    1    2    0    0  0.00000000000E+00  0.00000000000E+00 -0.11757292920E+04  0.16814771936E+04  0.12020924192E+04 0.  0.
        5    1    3    3  502    0  0.26179298548E+03 -0.52948317011E+03 -0.74329089816E+03  0.94941637017E+03  0.46999998093E+01 0. -1.
       -5    1    3    3    0  502 -0.26179298548E+03  0.52948317011E+03 -0.43243839385E+03  0.73206082339E+03  0.46999998093E+01 0.  1.
</event>
<event>
 5   0  0.1455076E-03  0.1218492E+04  0.7818609E-02  0.9096823E-01
        1   -1    0    0  501    0  0.00000000000E+00  0.00000000000E+00  0.29793703758E+03  0.29793703762E+03  0.50400001928E-02 0. -1.
       -1   -1    0    0    0  501  0.00000000000E+00  0.00000000000E+00 -0.12458358430E+04  0.12458358431E+04  0.50400001928E-02 0.  1.
    10030    2    1    2    0    0  0.00000000000E+00  0.00000000000E+00 -0.94789880547E+03  0.15437728807E+04  0.12184919211E+04 0.  0.
        4    1    3    3  502    0  0.30448000087E+03 -0.54732066875E+02  0.19102071733E+03  0.36358519968E+03  0.12699999809E+01 0. -1.
       -4    1    3    3    0  502 -0.30448000087E+03  0.54732066875E+02 -0.11389195228E+04  0.11801876810E+04  0.12699999809E+01 0.  1.
</event>
<event>
 5   0  0.1455076E-03  0.1202604E+04  0.7818609E-02  0.9110580E-01
       -1   -1    0    0    0  501  0.00000000000E+00  0.00000000000E+00  0.11317378738E+04  0.11317378738E+04  0.50400001928E-02 0.  1.
        1   -1    0    0  501    0  0.00000000000E+00  0.00000000000E+00 -0.31947700444E+03  0.31947700448E+03  0.50400001928E-02 0. -1.
    10030    2    1    2    0    0  0.00000000000E+00  0.00000000000E+00  0.81226086933E+03  0.14512148783E+04  0.12026042171E+04 0.  0.
        4    1    3    3  502    0 -0.22319039221E+03  0.41705759668E+03 -0.41842651885E+02  0.47487199384E+03  0.12699999809E+01 0. -1.
       -4    1    3    3    0  502  0.22319039221E+03 -0.41705759668E+03  0.85410352122E+03  0.97634288443E+03  0.12699999809E+01 0.  1.
</event>
<event>
 5   0  0.1404833E-03  0.1201297E+04  0.7818609E-02  0.9111722E-01
        1   -1    0    0  501    0  0.00000000000E+00  0.00000000000E+00  0.64928230533E+03  0.64928230535E+03  0.50400001928E-02 0. -1.
       -1   -1    0    0    0  501  0.00000000000E+00  0.00000000000E+00 -0.55565790572E+03  0.55565790574E+03  0.50400001928E-02 0.  1.
    10030    2    1    2    0    0  0.00000000000E+00  0.00000000000E+00  0.93624399610E+02  0.12049402111E+04  0.12012973754E+04 0.  0.
        1    1    3    3  502    0  0.47890134562E+03  0.23210648239E+03 -0.23252634633E+03  0.58076537411E+03  0.50400001928E-02 0.  1.
       -1    1    3    3    0  502 -0.47890134562E+03 -0.23210648239E+03  0.32615074594E+03  0.62417483697E+03  0.50400001928E-02 0. -1.
</event>
<event>
 5   0  0.1404833E-03  0.1206209E+04  0.7818609E-02  0.9107439E-01
       -1   -1    0    0    0  501  0.00000000000E+00  0.00000000000E+00  0.95021100065E+03  0.95021100067E+03  0.50400001928E-02 0.  1.
        1   -1    0    0  501    0  0.00000000000E+00  0.00000000000E+00 -0.38279408847E+03  0.38279408851E+03  0.50400001928E-02 0. -1.
    10030    2    1    2    0    0  0.00000000000E+00  0.00000000000E+00  0.56741691218E+03  0.13330050892E+04  0.12062091923E+04 0.  0.
        1    1    3    3  502    0 -0.40336673797E+03 -0.44533780873E+03  0.22623518862E+03  0.64203804387E+03  0.50400001928E-02 0. -1.
       -1    1    3    3    0  502  0.40336673797E+03  0.44533780873E+03  0.34118172356E+03  0.69096704530E+03  0.50400001928E-02 0.  1.
</event>
<event>
 5   0  0.1423024E-03  0.1211727E+04  0.7818609E-02  0.9102654E-01
        1   -1    0    0  501    0  0.00000000000E+00  0.00000000000E+00  0.12287854357E+04  0.12287854357E+04  0.50400001928E-02 0.  1.
       -1   -1    0    0    0  501  0.00000000000E+00  0.00000000000E+00 -0.29872610579E+03  0.29872610583E+03  0.50400001928E-02 0. -1.
    10030    2    1    2    0    0  0.00000000000E+00  0.00000000000E+00  0.93005932993E+03  0.15275115416E+04  0.12117265172E+04 0.  0.
        2    1    3    3  502    0 -0.26680083568E+03 -0.36174058380E+03 -0.47080171158E+02  0.45194632249E+03  0.25500000920E-02 0. -1.
       -2    1    3    3    0  502  0.26680083568E+03  0.36174058380E+03  0.97713950109E+03  0.10755652191E+04  0.25500000920E-02 0.  1.
</event>
<event>
 5   0  0.1469851E-03  0.1173866E+04  0.7818609E-02  0.9136045E-01
       -1   -1    0    0    0  501  0.00000000000E+00  0.00000000000E+00  0.32357935739E+03  0.32357935743E+03  0.50400001928E-02 0.  1.
        1   -1    0    0  501    0  0.00000000000E+00  0.00000000000E+00 -0.10646231993E+04  0.10646231993E+04  0.50400001928E-02 0. -1.
    10030    2    1    2    0    0  0.00000000000E+00  0.00000000000E+00 -0.74104384188E+03  0.13882025567E+04  0.11738655642E+04 0.  0.
        5    1    3    3  502    0 -0.46927329232E+03  0.27572647415E+03 -0.63022242860E+03  0.83273339728E+03  0.46999998093E+01 0. -1.
       -5    1    3    3    0  502  0.46927329232E+03 -0.27572647415E+03 -0.11082141328E+03  0.55546915943E+03  0.46999998093E+01 0.  1.
</event>
<event>
 5   0  0.1423024E-03  0.1213912E+04  0.7818609E-02  0.9100766E-01
        1   -1    0    0  501    0  0.00000000000E+00  0.00000000000E+00  0.27360211672E+03  0.27360211677E+03  0.50400001928E-02 0.  1.
       -1   -1    0    0    0  501  0.00000000000E+00  0.00000000000E+00 -0.13464652377E+04  0.13464652377E+04  0.50400001928E-02 0. -1.
    10030    2    1    2    0    0  0.00000000000E+00  0.00000000000E+00 -0.10728631209E+04  0.16200673544E+04  0.12139122525E+04 0.  0.
        2    1    3    3  502    0  0.43741367754E+03  0.31994009812E+03 -0.90119878389E+03  0.10515948078E+04  0.25500000920E-02 0. -1.
       -2    1    3    3    0  502 -0.43741367754E+03 -0.31994009812E+03 -0.17166433706E+03  0.56847254666E+03  0.25500000920E-02 0.  1.
</event>
<event>
 5   0  0.2580244E-03  0.1155059E+04  0.7818609E-02  0.9153129E-01
        2   -1    0    0  501    0  0.00000000000E+00  0.00000000000E+00  0.15155972107E+04  0.15155972107E+04  0.25500000920E-02 0. -1.
       -2   -1    0    0    0  501  0.00000000000E+00  0.00000000000E+00 -0.22007188148E+03  0.22007188149E+03  0.25500000920E-02 0.  1.
    10030    2    1    2    0    0  0.00000000000E+00  0.00000000000E+00  0.12955253292E+04  0.17356690922E+04  0.11550590110E+04 0.  0.
        1    1    3    3  502    0  0.50543481779E+03 -0.24043160570E+03  0.86169420703E+03  0.10275157510E+04  0.50400001928E-02 0. -1.
       -1    1    3    3    0  502 -0.50543481779E+03  0.24043160570E+03  0.43383112218E+03  0.70815334120E+03  0.50400001928E-02 0.  1.
</event>
<event>
 5   0  0.2580244E-03  0.1215844E+04  0.7818609E-02  0.9099101E-01
       -2   -1    0    0    0  501  0.00000000000E+00  0.00000000000E+00  0.92342545195E+03  0.92342545195E+03  0.25500000920E-02 0. -1.
        2   -1    0    0  501    0  0.00000000000E+00  0.00000000000E+00 -0.40021515574E+03  0.40021515575E+03  0.25500000920E-02 0.  1.
    10030    2    1    2    0    0  0.00000000000E+00  0.00000000000E+00  0.52321029621E+03  0.13236406077E+04  0.12158435114E+04 0.  0.
        1    1    3    3  502    0  0.18233843428E+02 -0.54637057443E+03  0.55110607943E+03  0.77625458998E+03  0.50400001928E-02 0. -1.
       -1    1    3    3    0  502 -0.18233843428E+02  0.54637057443E+03 -0.27895783222E+02  0.54738601772E+03  0.50400001928E-02 0.  1.
</event>
<event>
 5   0  0.2484507E-03  0.1193404E+04  0.7818609E-02  0.9118649E-01
       -2   -1    0    0    0  501  0.00000000000E+00  0.00000000000E+00  0.61805890423E+03  0.61805890423E+03  0.25500000920E-02 0.  1.
        2   -1    0    0  501    0  0.00000000000E+00  0.00000000000E+00 -0.57608347050E+03  0.57608347050E+03  0.25500000920E-02 0. -1.
    10030    2    1    2    0    0  0.00000000000E+00  0.00000000000E+00  0.41975433730E+02  0.11941423747E+04  0.11934044051E+04 0.  0.
        2    1    3    3  502    0 -0.69497907619E+02  0.12183481909E+03 -0.55935354617E+03  0.57667154597E+03  0.25500000920E-02 0. -1.
       -2    1    3    3    0  502  0.69497907619E+02 -0.12183481909E+03  0.60132897990E+03  0.61747082877E+03  0.25500000920E-02 0.  1.
</event>
<event>
 5   0  0.1455076E-03  0.1192126E+04  0.7818609E-02  0.9119777E-01
       -1   -1    0    0    0  501  0.00000000000E+00  0.00000000000E+00  0.77737620243E+03  0.77737620245E+03  0.50400001928E-02 0.  1.
        1   -1    0    0  501    0  0.00000000000E+00  0.00000000000E+00 -0.45703855770E+03  0.45703855772E+03  0.50400001928E-02 0. -1.
    10030    2    1    2    0    0  0.00000000000E+00  0.00000000000E+00  0.32033764474E+03  0.12344147602E+04  0.11921256618E+04 0.  0.
        4    1    3    3  502    0 -0.30201295290E+03 -0.11455456190E+03 -0.35855566288E+03  0.48259542855E+03  0.12699999809E+01 0. -1.
       -4    1    3    3    0  502  0.30201295290E+03  0.11455456190E+03  0.67889330762E+03  0.75181933162E+03  0.12699999809E+01 0.  1.
</event>
<event>
 5   0  0.1455076E-03  0.1194557E+04  0.7818609E-02  0.9117634E-01
        1   -1    0    0  501    0  0.00000000000E+00  0.00000000000E+00  0.18613849056E+04  0.18613849056E+04  0.50400001928E-02 0. -1.
       -1   -1    0    0    0  501  0.00000000000E+00  0.00000000000E+00 -0.19165398102E+03  0.19165398108E+03  0.50400001928E-02 0.  1.
    10030    2    1    2    0    0  0.00000000000E+00  0.00000000000E+00  0.16697309246E+04  0.20530388867E+04  0.11945573698E+04 0.  0.
        4    1    3    3  502    0  0.35493407174E+03 -0.21505781762E+03  0.96616826264E+02  0.42610384206E+03  0.12699999809E+01 0.  1.
       -4    1    3    3    0  502 -0.35493407174E+03  0.21505781762E+03  0.15731140983E+04  0.16269350446E+04  0.12699999809E+01 0. -1.
</event>
<event>
 5   0  0.1404833E-03  0.1188088E+04  0.7818609E-02  0.9123347E-01
       -1   -1    0    0    0  501  0.00000000000E+00  0.00000000000E+00  0.37083510430E+03  0.37083510433E+03  0.50400001928E-02 0.  1.
        1   -1    0    0  501    0  0.00000000000E+00  0.00000000000E+00 -0.95160423606E+03  0.95160423607E+03  0.50400001928E-02 0. -1.
    10030    2    1    2    0    0  0.00000000000E+00  0.00000000000E+00 -0.58076913176E+03  0.13224393404E+04  0.11880879701E+04 0.  0.
        1    1    3    3  502    0  0.72485664253E+02  0.58745611688E+03 -0.23440422743E+03  0.63663506238E+03  0.50400001928E-02 0.  1.
       -1    1    3    3    0  502 -0.72485664253E+02 -0.58745611688E+03 -0.34636490432E+03  0.68580427803E+03  0.50400001928E-02 0. -1.
</event>
<event>
 5   0  0.1423024E-03  0.1188958E+04  0.7818609E-02  0.9122576E-01
        1   -1    0    0  501    0  0.00000000000E+00  0.00000000000E+00  0.31926279668E+03  0.31926279672E+03  0.50400001928E-02 0. -1.
       -1   -1    0    0    0  501  0.00000000000E+00  0.00000000000E+00 -0.11069425034E+04  0.11069425034E+04  0.50400001928E-02 0.  1.
    10030    2    1    2    0    0  0.00000000000E+00  0.00000000000E+00 -0.78767970674E+03  0.14262053002E+04  0.11889584676E+04 0.  0.
        2    1    3    3  502    0  0.40897222101E+03 -0.72907990022E+02  0.11625700956E+03  0.43138097413E+03  0.25500000920E-02 0. -1.
       -2    1    3    3    0  502 -0.40897222101E+03  0.72907990022E+02 -0.90393671630E+03  0.99482432602E+03  0.25500000920E-02 0.  1.
</event>
<event>
 5   0  0.1423024E-03  0.1181960E+04  0.7818609E-02  0.9128796E-01
       -1   -1    0    0    0  501  0.00000000000E+00  0.00000000000E+00  0.33794391674E+03  0.33794391677E+03  0.50400001928E-02 0. -1.
        1   -1    0    0  501    0  0.00000000000E+00  0.00000000000E+00 -0.10334764492E+04  0.10334764492E+04  0.50400001928E-02 0.  1.
    10030    2    1    2    0    0  0.00000000000E+00  0.00000000000E+00 -0.69553253248E+03  0.13714203660E+04  0.11819595241E+04 0.  0.
        2    1    3    3  502    0 -0.20089256089E+03  0.55520500089E+03 -0.31826044543E+03  0.67074594681E+03  0.25500000920E-02 0. -1.
       -2    1    3    3    0  502  0.20089256089E+03 -0.55520500089E+03 -0.37727208705E+03  0.70067441919E+03  0.25500000920E-02 0.  1.
</event>
<event>
 5   0  0.2517023E-03  0.1212445E+04  0.7818609E-02  0.9102032E-01
        2   -1    0    0  501    0  0.00000000000E+00  0.00000000000E+00  0.77797349464E+03  0.77797349465E+03  0.25500000920E-02 0. -1.
       -2   -1    0    0    0  501  0.00000000000E+00  0.00000000000E+00 -0.47238863980E+03  0.47238863981E+03  0.25500000920E-02 0.  1.
    10030    2    1    2    0    0  0.00000000000E+00  0.00000000000E+00  0.30558485484E+03  0.12503621345E+04  0.12124452003E+04 0.  0.
        3    1    3    3  502    0  0.14367913437E+03 -0.56943369784E+03  0.30785215333E+03  0.66307721149E+03  0.10100000352E+00 0. -1.
       -3    1    3    3    0  502 -0.14367913437E+03  0.56943369784E+03 -0.22672984837E+01  0.58728492296E+03  0.10100000352E+00 0.  1.
</event>
<event>
 5   0  0.2580244E-03  0.1210079E+04  0.7818609E-02  0.9104079E-01
        2   -1    0    0  501    0  0.00000000000E+00  0.00000000000E+00  0.66793467145E+03  0.66793467146E+03  0.25500000920E-02 0. -1.
       -2   -1    0    0    0  501  0.00000000000E+00  0.00000000000E+00 -0.54806721454E+03  0.54806721455E+03  0.25500000920E-02 0.  1.
    10030    2    1    2    0    0  0.00000000000E+00  0.00000000000E+00  0.11986745691E+03  0.12160018860E+04  0.12100794931E+04 0.  0.
        1    1    3    3  502    0 -0.47012396892E+02 -0.11813535232E+03 -0.53449069181E+03  0.54940552107E+03  0.50400001928E-02 0.  1.
       -1    1    3    3    0  502  0.47012396892E+02  0.11813535232E+03  0.65435814872E+03  0.66659636494E+03  0.50400001928E-02 0. -1.
</event>
<event>
 5   0  0.2517023E-03  0.1191663E+04  0.7818609E-02  0.9120185E-01
       -2   -1    0    0    0  501  0.00000000000E+00  0.00000000000E+00  0.56811923157E+03  0.56811923158E+03  0.25500000920E-02 0.  1.
        2   -1    0    0  501    0  0.00000000000E+00  0.00000000000E+00 -0.62489586051E+03  0.62489586051E+03  0.25500000920E-02 0. -1.
    10030    2    1    2    0    0  0.00000000000E+00  0.00000000000E+00 -0.56776628935E+02  0.11930150921E+04  0.11916633016E+04 0.  0.
        3    1    3    3  502    0 -0.53721362427E+03 -0.25619076460E+03 -0.56405054498E+02  0.59784088714E+03  0.10100000352E+00 0.  1.
       -3    1    3    3    0  502  0.53721362427E+03  0.25619076460E+03 -0.37157443628E+00  0.59517420495E+03  0.10100000352E+00 0. -1.
</event>
<event>
 5   0  0.1404833E-03  0.1209000E+04  0.7818609E-02  0.9105016E-01
       -1   -1    0    0    0  501  0.00000000000E+00  0.00000000000E+00  0.54933634823E+03  0.54933634826E+03  0.50400001928E-02 0.  1.
        1   -1    0    0  501    0  0.00000000000E+00  0.00000000000E+00 -0.66520264391E+03  0.66520264393E+03  0.50400001928E-02 0. -1.
    10030    2    1    2    0    0  0.00000000000E+00  0.00000000000E+00 -0.11586629567E+03  0.12145389922E+04  0.12089995720E+04 0.  0.
        1    1    3    3  502    0  0.50394859331E+01 -0.17773974994E+03  0.52247105338E+03  0.55189928137E+03  0.50400001928E-02 0.  1.
       -1    1    3    3    0  502 -0.50394859331E+01  0.17773974994E+03 -0.63833734905E+03  0.66263971081E+03  0.50400001928E-02 0. -1.
</event>
<event>
 5   0  0.2484507E-03  0.1202892E+04  0.7818609E-02  0.9110329E-01
        2   -1    0    0  501    0  0.00000000000E+00  0.00000000000E+00  0.99950811892E+03  0.99950811892E+03  0.25500000920E-02 0.  1.
       -2   -1    0    0    0  501  0.00000000000E+00  0.00000000000E+00 -0.36191519879E+03  0.36191519880E+03  0.25500000920E-02 0. -1.
    10030    2    1    2    0    0  0.00000000000E+00  0.00000000000E+00  0.63759292013E+03  0.13614233177E+04  0.12028918148E+04 0.  0.
        2    1    3    3  502    0 -0.13476169907E+03  0.15691640937E+03 -0.32039422930E+03  0.38136063934E+03  0.25500000920E-02 0. -1.
       -2    1    3    3    0  502  0.13476169907E+03 -0.15691640937E+03  0.95798714943E+03  0.98006267837E+03  0.25500000920E-02 0.  1.
</event>
<event>
 5   0  0.2484507E-03  0.1207949E+04  0.7818609E-02  0.9105927E-01
        2   -1    0    0  501    0  0.00000000000E+00  0.00000000000E+00  0.10419258246E+04  0.10419258246E+04  0.25500000920E-02 0. -1.
       -2   -1    0    0    0  501  0.00000000000E+00  0.00000000000E+00 -0.35010677810E+03  0.35010677811E+03  0.25500000920E-02 0.  1.
    10030    2    1    2    0    0  0.00000000000E+00  0.00000000000E+00  0.69181904645E+03  0.13920326027E+04  0.12079491603E+04 0.  0.
        2    1    3    3  502    0  0.42344741778E+01 -0.10700622219E+03 -0.33907859284E+03  0.35558761858E+03  0.25500000920E-02 0.  1.
       -2    1    3    3    0  502 -0.42344741778E+01  0.10700622219E+03  0.10308976393E+04  0.10364449841E+04  0.25500000920E-02 0. -1.
</event>
<event>
 5   0  0.1455076E-03  0.1196551E+04  0.7818609E-02  0.9115881E-01
       -1   -1    0    0    0  501  0.00000000000E+00  0.00000000000E+00  0.42884441111E+03  0.42884441114E+03  0.50400001928E-02 0. -1.
        1   -1    0    0  501    0  0.00000000000E+00  0.00000000000E+00 -0.83464688419E+03  0.83464688420E+03  0.50400001928E-02 0.  1.
    10030    2    1    2    0    0  0.00000000000E+00  0.00000000000E+00 -0.40580247308E+03  0.12634912953E+04  0.11965511298E+04 0.  0.
        4    1    3    3  502    0 -0.26759489191E+03 -0.34821193246E+03 -0.63192329632E+03  0.76953703057E+03  0.12699999809E+01 0.  1.
       -4    1    3    3    0  502  0.26759489191E+03  0.34821193246E+03  0.22612082324E+03  0.49395426478E+03  0.12699999809E+01 0. -1.
</event>
<event>
 5   0  0.1423024E-03  0.1200991E+04  0.7818609E-02  0.9111990E-01
       -1   -1    0    0    0  501  0.00000000000E+00  0.00000000000E+00  0.41264195493E+03  0.41264195496E+03  0.50400001928E-02 0.  1.
        1   -1    0    0  501    0  0.00000000000E+00  0.00000000000E+00 -0.87386848831E+03  0.87386848833E+03  0.50400001928E-02 0. -1.
    10030    2    1    2    0    0  0.00000000000E+00  0.00000000000E+00 -0.46122653338E+03  0.12865104433E+04  0.12009909265E+04 0.  0.
        2    1    3    3  502    0 -0.85319866766E+02 -0.40941963263E+03 -0.69221654445E+03  0.80874449591E+03  0.25500000920E-02 0. -1.
       -2    1    3    3    0  502  0.85319866766E+02  0.40941963263E+03  0.23099001107E+03  0.47776594737E+03  0.25500000920E-02 0.  1.
</event>
<event>
 5   0  0.1469851E-03  0.1286843E+04  0.7818609E-02  0.9040065E-01
       -1   -1    0    0    0  501  0.00000000000E+00  0.00000000000E+00  0.42279461493E+03  0.42279461496E+03  0.50400001928E-02 0.  1.
        1   -1    0    0  501    0  0.00000000000E+00  0.00000000000E+00 -0.97917760672E+03  0.97917760673E+03  0.50400001928E-02 0. -1.
    10030    2    1    2    0    0  0.00000000000E+00  0.00000000000E+00 -0.55638299179E+03  0.14019722217E+04  0.12868426776E+04 0.  0.
        5    1    3    3  502    0  0.45796356577E+03  0.44379965588E+03 -0.37114903678E+03  0.73787699492E+03  0.46999998093E+01 0. -1.
       -5    1    3    3    0  502 -0.45796356577E+03 -0.44379965588E+03 -0.18523395501E+03  0.66409522677E+03  0.46999998093E+01 0.  1.
</event>
<event>
 5   0  0.2579442E-03  0.1197419E+04  0.7818609E-02  0.9115118E-01
        2   -1    0    0  501    0  0.00000000000E+00  0.00000000000E+00  0.12803812406E+04  0.12803812406E+04  0.25500000920E-02 0.  1.
       -2   -1    0    0    0  501  0.00000000000E+00  0.00000000000E+00 -0.27995829115E+03  0.27995829116E+03  0.25500000920E-02 0. -1.
    10030    2    1    2    0    0  0.00000000000E+00  0.00000000000E+00  0.10004229494E+04  0.15603395317E+04  0.11974194656E+04 0.  0.
        4    1    3    3  502    0  0.12230526363E+03  0.96778618430E+02  0.12534432242E+04  0.12631097370E+04  0.12699999809E+01 0.  1.
       -4    1    3    3    0  502 -0.12230526363E+03 -0.96778618430E+02 -0.25302027482E+03  0.29722979471E+03  0.12699999809E+01 0. -1.
</event>
<event>
 5   0  0.1469851E-03  0.1206674E+04  0.7818609E-02  0.9107035E-01
        1   -1    0    0  501    0  0.00000000000E+00  0.00000000000E+00  0.15932467529E+04  0.15932467529E+04  0.50400001928E-02 0.  1.
       -1   -1    0    0    0  501  0.00000000000E+00  0.00000000000E+00 -0.22847410099E+03  0.22847410104E+03  0.50400001928E-02 0. -1.
    10030    2    1    2    0    0  0.00000000000E+00  0.00000000000E+00  0.13647726519E+04  0.18217208540E+04  0.12066741392E+04 0.  0.
        5    1    3    3  502    0 -0.19398821860E+03 -0.45265762064E+03  0.15623078715E+03  0.51668220342E+03  0.46999998093E+01 0. -1.
       -5    1    3    3    0  502  0.19398821860E+03  0.45265762064E+03  0.12085418648E+04  0.13050386505E+04  0.46999998093E+01 0.  1.
</event>
<event>
 5   0  0.2580244E-03  0.1215992E+04  0.7818609E-02  0.9098973E-01
       -2   -1    0    0    0  501  0.00000000000E+00  0.00000000000E+00  0.84340471363E+03  0.84340471363E+03  0.25500000920E-02 0.  1.
        2   -1    0    0  501    0  0.00000000000E+00  0.00000000000E+00 -0.43829356439E+03  0.43829356439E+03  0.25500000920E-02 0. -1.
    10030    2    1    2    0    0  0.00000000000E+00  0.00000000000E+00  0.40511114924E+03  0.12816982780E+04  0.12159915430E+04 0.  0.
        1    1    3    3  502    0  0.16122270496E+03  0.10543997931E+03 -0.40527528906E+03  0.44872977367E+03  0.50400001928E-02 0. -1.
       -1    1    3    3    0  502 -0.16122270496E+03 -0.10543997931E+03  0.81038643831E+03  0.83296850436E+03  0.50400001928E-02 0.  1.
</event>
<event>
 5   0  0.1469851E-03  0.1200518E+04  0.7818609E-02  0.9112403E-01
       -1   -1    0    0    0  501  0.00000000000E+00  0.00000000000E+00  0.28151220600E+03  0.28151220605E+03  0.50400001928E-02 0.  1.
        1   -1    0    0  501    0  0.00000000000E+00  0.00000000000E+00 -0.12799122582E+04  0.12799122582E+04  0.50400001928E-02 0. -1.
    10030    2    1    2    0    0  0.00000000000E+00  0.00000000000E+00 -0.99840005215E+03  0.15614244642E+04  0.12005180937E+04 0.  0.
        5    1    3    3  502    0  0.49301291200E+03 -0.32753251619E+03 -0.36946595417E+03  0.69775816860E+03  0.46999998093E+01 0. -1.
       -5    1    3    3    0  502 -0.49301291200E+03  0.32753251619E+03 -0.62893409798E+03  0.86366629561E+03  0.46999998093E+01 0.  1.
</event>
<event>
 5   0  0.1404833E-03  0.1227656E+04  0.7818609E-02  0.9088988E-01
        1   -1    0    0  501    0  0.00000000000E+00  0.00000000000E+00  0.77015993659E+03  0.77015993660E+03  0.50400001928E-02 0. -1.
       -1   -1    0    0    0  501  0.00000000000E+00  0.00000000000E+00 -0.48922964512E+03  0.48922964515E+03  0.50400001928E-02 0.  1.
    10030    2    1    2    0    0  0.00000000000E+00  0.00000000000E+00  0.28093029146E+03  0.12593895818E+04  0.12276564218E+04 0.  0.
        1    1    3    3  502    0  0.14214227482E+02  0.23429373019E+03  0.72230261173E+03  0.75948446936E+03  0.50400001928E-02 0. -1.
       -1    1    3    3    0  502 -0.14214227482E+02 -0.23429373019E+03 -0.44137232027E+03  0.49990511239E+03  0.50400001928E-02 0.  1.
</event>
<event>
 5   0  0.1403154E-03  0.1197915E+04  0.7818609E-02  0.9114684E-01
        1   -1    0    0  501    0  0.00000000000E+00  0.00000000000E+00  0.59352917344E+03  0.59352917346E+03  0.50400001928E-02 0.  1.
       -1   -1    0    0    0  501  0.00000000000E+00  0.00000000000E+00 -0.60443504441E+03  0.60443504443E+03  0.50400001928E-02 0. -1.
    10030    2    1    2    0    0  0.00000000000E+00  0.00000000000E+00 -0.10905870971E+02  0.11979642179E+04  0.11979145751E+04 0.  0.
        3    1    3    3  502    0 -0.26592039028E+02  0.35858225913E+03 -0.48449413167E+03  0.60334314194E+03  0.10100000352E+00 0. -1.
       -3    1    3    3    0  502  0.26592039028E+02 -0.35858225913E+03  0.47358826070E+03  0.59462107596E+03  0.10100000352E+00 0.  1.
</event>
<event>
 5   0  0.1469851E-03  0.1210705E+04  0.7818609E-02  0.9103537E-01
       -1   -1    0    0    0  501  0.00000000000E+00  0.00000000000E+00  0.57545858835E+03  0.57545858837E+03  0.50400001928E-02 0.  1.
        1   -1    0    0  501    0  0.00000000000E+00  0.00000000000E+00 -0.63679976016E+03  0.63679976018E+03  0.50400001928E-02 0. -1.
    10030    2    1    2    0    0  0.00000000000E+00  0.00000000000E+00 -0.61341171804E+02  0.12122583486E+04  0.12107053995E+04 0.  0.
        5    1    3    3  502    0  0.48550518480E+02 -0.28991000831E+03 -0.56052307597E+03  0.63294010337E+03  0.46999998093E+01 0. -1.
       -5    1    3    3    0  502 -0.48550518480E+02  0.28991000831E+03  0.49918190416E+03  0.57931824518E+03  0.46999998093E+01 0.  1.
</event>
<event>
 5   0  0.2579442E-03  0.1196320E+04  0.7818609E-02  0.9116084E-01
        2   -1    0    0  501    0  0.00000000000E+00  0.00000000000E+00  0.15549712996E+04  0.15549712996E+04  0.25500000920E-02 0.  1.
       -2   -1    0    0    0  501  0.00000000000E+00  0.00000000000E+00 -0.23009767463E+03  0.23009767465E+03  0.25500000920E-02 0. -1.
    10030    2    1    2    0    0  0.00000000000E+00  0.00000000000E+00  0.13248736250E+04  0.17850689743E+04  0.11963198238E+04 0.  0.
        4    1    3    3  502    0  0.13028970537E+03 -0.19328819412E+03  0.14844086742E+04  0.15025998996E+04  0.12699999809E+01 0.  1.
       -4    1    3    3    0  502 -0.13028970537E+03  0.19328819412E+03 -0.15953504922E+03  0.28246907467E+03  0.12699999809E+01 0. -1.
</event>
<event>
 5   0  0.2517023E-03  0.1207201E+04  0.7818609E-02  0.9106577E-01
        2   -1    0    0  501    0  0.00000000000E+00  0.00000000000E+00  0.51365866523E+03  0.51365866524E+03  0.25500000920E-02 0. -1.
       -2   -1    0    0    0  501  0.00000000000E+00  0.00000000000E+00 -0.70929136209E+03  0.70929136210E+03  0.25500000920E-02 0.  1.
    10030    2    1    2    0    0  0.00000000000E+00  0.00000000000E+00 -0.19563269687E+03  0.12229500273E+04  0.12072011503E+04 0.  0.
        3    1    3    3  502    0 -0.32368557438E+03  0.34131349760E+03 -0.48099197741E+03  0.67277079845E+03  0.10100000352E+00 0.  1.
       -3    1    3    3    0  502  0.32368557438E+03 -0.34131349760E+03  0.28535928054E+03  0.55017922889E+03  0.10100000352E+00 0. -1.
</event>
<event>
 5   0  0.2484507E-03  0.1201729E+04  0.7818609E-02  0.9111345E-01
        2   -1    0    0  501    0  0.00000000000E+00  0.00000000000E+00  0.38241215680E+03  0.38241215681E+03  0.25500000920E-02 0.  1.
       -2   -1    0    0    0  501  0.00000000000E+00  0.00000000000E+00 -0.94410708921E+03  0.94410708922E+03  0.25500000920E-02 0. -1.
    10030    2    1    2    0    0  0.00000000000E+00  0.00000000000E+00 -0.56169493241E+03  0.13265192460E+04  0.12017288018E+04 0.  0.
        2    1    3    3  502    0 -0.34765879778E+03  0.48995776550E+03 -0.29256986724E+03  0.66822330015E+03  0.25500000920E-02 0. -1.
       -2    1    3    3    0  502  0.34765879778E+03 -0.48995776550E+03 -0.26912506517E+03  0.65829594588E+03  0.25500000920E-02 0.  1.
</event>
<event>
 5   0  0.2580244E-03  0.1156222E+04  0.7818609E-02  0.9152062E-01
        2   -1    0    0  501    0  0.00000000000E+00  0.00000000000E+00  0.89687506507E+03  0.89687506507E+03  0.25500000920E-02 0. -1.
       -2   -1    0    0    0  501  0.00000000000E+00  0.00000000000E+00 -0.37264118933E+03  0.37264118934E+03  0.25500000920E-02 0.  1.
    10030    2    1    2    0    0  0.00000000000E+00  0.00000000000E+00  0.52423387574E+03  0.12695162544E+04  0.11562224543E+04 0.  0.
        1    1    3    3  502    0  0.57330194335E+03 -0.71888498285E+02  0.28322331865E+03  0.64347379332E+03  0.50400001928E-02 0.  1.
       -1    1    3    3    0  502 -0.57330194335E+03  0.71888498285E+02  0.24101055709E+03  0.62604246109E+03  0.50400001928E-02 0. -1.
</event>
<event>
 5   0  0.2499890E-03  0.1199432E+04  0.7818609E-02  0.9113354E-01
        2   -1    0    0  501    0  0.00000000000E+00  0.00000000000E+00  0.16693336428E+04  0.16693336428E+04  0.25500000920E-02 0. -1.
       -2   -1    0    0    0  501  0.00000000000E+00  0.00000000000E+00 -0.21545090151E+03  0.21545090153E+03  0.25500000920E-02 0.  1.
    10030    2    1    2    0    0  0.00000000000E+00  0.00000000000E+00  0.14538827412E+04  0.18847845443E+04  0.11994322628E+04 0.  0.
        5    1    3    3  502    0 -0.51054526576E+03 -0.21954280403E+03  0.37282974159E+03  0.66923808724E+03  0.46999998093E+01 0.  1.
       -5    1    3    3    0  502  0.51054526576E+03  0.21954280403E+03  0.10810529996E+04  0.12155464570E+04  0.46999998093E+01 0. -1.
</event>
<event>
 5   0  0.2517023E-03  0.1193834E+04  0.7818609E-02  0.9118271E-01
        2   -1    0    0  501    0  0.00000000000E+00  0.00000000000E+00  0.10572747943E+04  0.10572747943E+04  0.25500000920E-02 0. -1.
       -2   -1    0    0    0  501  0.00000000000E+00  0.00000000000E+00 -0.33700788775E+03  0.33700788776E+03  0.25500000920E-02 0.  1.
    10030    2    1    2    0    0  0.00000000000E+00  0.00000000000E+00  0.72026690655E+03  0.13942826821E+04  0.11938340675E+04 0.  0.
        3    1    3    3  502    0  0.42152064460E+03  0.23934514724E+03 -0.46699706642E+02  0.48697702834E+03  0.10100000352E+00 0.  1.
       -3    1    3    3    0  502 -0.42152064460E+03 -0.23934514724E+03  0.76696661319E+03  0.90730565373E+03  0.10100000352E+00 0. -1.
</event>
<event>
 5   0  0.1404833E-03  0.1228844E+04  0.7818609E-02  0.9087978E-01
        1   -1    0    0  501    0  0.00000000000E+00  0.00000000000E+00  0.21208194132E+04  0.21208194132E+04  0.50400001928E-02 0.  1.
       -1   -1    0    0    0  501  0.00000000000E+00  0.00000000000E+00 -0.17800397064E+03  0.17800397071E+03  0.50400001928E-02 0. -1.
    10030    2    1    2    0    0  0.00000000000E+00  0.00000000000E+00  0.19428154425E+04  0.22988233839E+04  0.12288438089E+04 0.  0.
        1    1    3    3  502    0 -0.31387315710E+03 -0.37827823527E+03  0.16610505627E+04  0.17322527973E+04  0.50400001928E-02 0.  1.
       -1    1    3    3    0  502  0.31387315710E+03  0.37827823527E+03  0.28176487986E+03  0.56657058658E+03  0.50400001928E-02 0. -1.
</event>
<event>
 5   0  0.1403154E-03  0.1209199E+04  0.7818609E-02  0.9104843E-01
        1   -1    0    0  501    0  0.00000000000E+00  0.00000000000E+00  0.97304145461E+03  0.97304145462E+03  0.50400001928E-02 0. -1.
       -1   -1    0    0    0  501  0.00000000000E+00  0.00000000000E+00 -0.37566778300E+03  0.37566778303E+03  0.50400001928E-02 0.  1.
    10030    2    1    2    0    0  0.00000000000E+00  0.00000000000E+00  0.59737367161E+03  0.13487092377E+04  0.12091986207E+04 0.  0.
        3    1    3    3  502    0 -0.55456531928E+03 -0.14876030331E+03  0.87447770473E+02  0.58079208324E+03  0.10100000352E+00 0.  1.
       -3    1    3    3    0  502  0.55456531928E+03  0.14876030331E+03  0.50992590114E+03  0.76791715442E+03  0.10100000352E+00 0. -1.
</event>
<event>
 5   0  0.1469851E-03  0.1168022E+04  0.7818609E-02  0.9141317E-01
       -1   -1    0    0    0  501  0.00000000000E+00  0.00000000000E+00  0.31806174954E+03  0.31806174958E+03  0.50400001928E-02 0. -1.
        1   -1    0    0  501    0  0.00000000000E+00  0.00000000000E+00 -0.10723344333E+04  0.10723344333E+04  0.50400001928E-02 0.  1.
    10030    2    1    2    0    0  0.00000000000E+00  0.00000000000E+00 -0.75427268378E+03  0.13903961829E+04  0.11680215169E+04 0.  0.
        5    1    3    3  502    0  0.34675148337E+03 -0.22549814628E+03  0.11361521523E+03  0.42897145864E+03  0.46999998093E+01 0. -1.
       -5    1    3    3    0  502 -0.34675148337E+03  0.22549814628E+03 -0.86788789901E+03  0.96142472427E+03  0.46999998093E+01 0.  1.
</event>
<event>
 5   0  0.1403154E-03  0.1199575E+04  0.7818609E-02  0.9113229E-01
        1   -1    0    0  501    0  0.00000000000E+00  0.00000000000E+00  0.71720952329E+03  0.71720952330E+03  0.50400001928E-02 0.  1.
       -1   -1    0    0    0  501  0.00000000000E+00  0.00000000000E+00 -0.50158979185E+03  0.50158979187E+03  0.50400001928E-02 0. -1.
    10030    2    1    2    0    0  0.00000000000E+00  0.00000000000E+00  0.21561973144E+03  0.12187993152E+04  0.11995748839E+04 0.  0.
        3    1    3    3  502    0 -0.19763586421E+03  0.52151302976E+03  0.33204842398E+03  0.64907005870E+03  0.10100000352E+00 0. -1.
       -3    1    3    3    0  502  0.19763586421E+03 -0.52151302976E+03 -0.11642869254E+03  0.56972925647E+03  0.10100000352E+00 0.  1.
</event>
<event>
 5   0  0.2484507E-03  0.1201558E+04  0.7818609E-02  0.9111494E-01
       -2   -1    0    0    0  501  0.00000000000E+00  0.00000000000E+00  0.26277714629E+03  0.26277714630E+03  0.25500000920E-02 0. -1.
        2   -1    0    0  501    0  0.00000000000E+00  0.00000000000E+00 -0.13735410051E+04  0.13735410051E+04  0.25500000920E-02 0.  1.
    10030    2    1    2    0    0  0.00000000000E+00  0.00000000000E+00 -0.11107638588E+04  0.16363181514E+04  0.12015576318E+04 0.  0.
        2    1    3    3  502    0 -0.35353481467E+03 -0.31344136775E+03 -0.50029248810E+02  0.47511607207E+03  0.25500000920E-02 0. -1.
       -2    1    3    3    0  502  0.35353481467E+03  0.31344136775E+03 -0.10607346100E+04  0.11612020793E+04  0.25500000920E-02 0.  1.
</event>
<event>
 5   0  0.2517023E-03  0.1203037E+04  0.7818609E-02  0.9110202E-01
       -2   -1    0    0    0  501  0.00000000000E+00  0.00000000000E+00  0.38057381174E+03  0.38057381175E+03  0.25500000920E-02 0. -1.
        2   -1    0    0  501    0  0.00000000000E+00  0.00000000000E+00 -0.95073423331E+03  0.95073423331E+03  0.25500000920E-02 0.  1.
    10030    2    1    2    0    0  0.00000000000E+00  0.00000000000E+00 -0.57016042157E+03  0.13313080451E+04  0.12030370753E+04 0.  0.
        3    1    3    3  502    0 -0.38280692561E+02  0.97242004030E+02  0.37045067858E+03  0.38490925454E+03  0.10100000352E+00 0. -1.
       -3    1    3    3    0  502  0.38280692561E+02 -0.97242004030E+02 -0.94061110015E+03  0.94639879052E+03  0.10100000352E+00 0.  1.
</event>
<event>
 5   0  0.1403154E-03  0.1189369E+04  0.7818609E-02  0.9122213E-01
       -1   -1    0    0    0  501  0.00000000000E+00  0.00000000000E+00  0.28840852547E+03  0.28840852552E+03  0.50400001928E-02 0. -1.
        1   -1    0    0  501    0  0.00000000000E+00  0.00000000000E+00 -0.12262112505E+04  0.12262112505E+04  0.50400001928E-02 0.  1.
    10030    2    1    2    0    0  0.00000000000E+00  0.00000000000E+00 -0.93780272499E+03  0.15146197760E+04  0.11893692088E+04 0.  0.
        3    1    3    3  502    0 -0.43683466570E+03 -0.36583268161E+03 -0.25206919247E+03  0.62305454343E+03  0.10100000352E+00 0. -1.
       -3    1    3    3    0  502  0.43683466570E+03  0.36583268161E+03 -0.68573353253E+03  0.89156523257E+03  0.10100000352E+00 0.  1.
</event>
<event>
 5   0  0.1423024E-03  0.1231663E+04  0.7818609E-02  0.9085584E-01
       -1   -1    0    0    0  501  0.00000000000E+00  0.00000000000E+00  0.45432587594E+03  0.45432587597E+03  0.50400001928E-02 0. -1.
        1   -1    0    0  501    0  0.00000000000E+00  0.00000000000E+00 -0.83475018343E+03  0.83475018345E+03  0.50400001928E-02 0.  1.
    10030    2    1    2    0    0  0.00000000000E+00  0.00000000000E+00 -0.38042430749E+03  0.12890760594E+04  0.12316632792E+04 0.  0.
        2    1    3    3  502    0  0.51439914259E+03  0.52616871950E+02  0.15985418039E+03  0.54122857658E+03  0.25500000920E-02 0. -1.
       -2    1    3    3    0  502 -0.51439914259E+03 -0.52616871950E+02 -0.54027848788E+03  0.74784748284E+03  0.25500000920E-02 0.  1.
</event>
<event>
 5   0  0.2484507E-03  0.1138853E+04  0.7818609E-02  0.9168129E-01
        2   -1    0    0  501    0  0.00000000000E+00  0.00000000000E+00  0.17446053587E+04  0.17446053587E+04  0.25500000920E-02 0.  1.
       -2   -1    0    0    0  501  0.00000000000E+00  0.00000000000E+00 -0.18585670748E+03  0.18585670750E+03  0.25500000920E-02 0. -1.
    10030    2    1    2    0    0  0.00000000000E+00  0.00000000000E+00  0.15587486512E+04  0.19304620662E+04  0.11388531211E+04 0.  0.
        2    1    3    3  502    0  0.43146821485E+03 -0.23067124461E+03  0.12732040392E+04  0.13639730822E+04  0.25500000920E-02 0.  1.
       -2    1    3    3    0  502 -0.43146821485E+03  0.23067124461E+03  0.28554461198E+03  0.56648898396E+03  0.25500000920E-02 0. -1.
</event>
<event>
 5   0  0.1455076E-03  0.1201565E+04  0.7818609E-02  0.9111488E-01
       -1   -1    0    0    0  501  0.00000000000E+00  0.00000000000E+00  0.57963575137E+03  0.57963575139E+03  0.50400001928E-02 0.  1.
        1   -1    0    0  501    0  0.00000000000E+00  0.00000000000E+00 -0.62270047541E+03  0.62270047543E+03  0.50400001928E-02 0. -1.
    10030    2    1    2    0    0  0.00000000000E+00  0.00000000000E+00 -0.43064724041E+02  0.12023362268E+04  0.12015647431E+04 0.  0.
        4    1    3    3  502    0 -0.19625811313E+02 -0.39926124013E+03  0.42724543593E+03  0.58509399737E+03  0.12699999809E+01 0.  1.
       -4    1    3    3    0  502  0.19625811313E+02  0.39926124013E+03 -0.47031015997E+03  0.61724222945E+03  0.12699999809E+01 0. -1.
</event>
<event>
 5   0  0.9678750E-04  0.1151904E+04  0.7818609E-02  0.9156029E-01
        3   -1    0    0  501    0  0.00000000000E+00  0.00000000000E+00  0.49369278126E+03  0.49369279159E+03  0.10100000352E+00 0. -1.
       -3   -1    0    0    0  501  0.00000000000E+00  0.00000000000E+00 -0.67191695253E+03  0.67191696012E+03  0.10100000352E+00 0.  1.
    10030    2    1    2    0    0  0.00000000000E+00  0.00000000000E+00 -0.17822417127E+03  0.11656097517E+04  0.11519037451E+04 0.  0.
        1    1    3    3  502    0  0.45129017970E+02  0.26152591572E+03 -0.60635770285E+03  0.66189281359E+03  0.50400001928E-02 0.  1.
       -1    1    3    3    0  502 -0.45129017970E+02 -0.26152591572E+03  0.42813353158E+03  0.50371693812E+03  0.50400001928E-02 0. -1.
</event>
<event>
 5   0  0.2580244E-03  0.1203143E+04  0.7818609E-02  0.9110110E-01
       -2   -1    0    0    0  501  0.00000000000E+00  0.00000000000E+00  0.49954102817E+03  0.49954102818E+03  0.25500000920E-02 0. -1.
        2   -1    0    0  501    0  0.00000000000E+00  0.00000000000E+00 -0.72444197256E+03  0.72444197257E+03  0.25500000920E-02 0.  1.
    10030    2    1    2    0    0  0.00000000000E+00  0.00000000000E+00 -0.22490094439E+03  0.12239830007E+04  0.12031433628E+04 0.  0.
        1    1    3    3  502    0  0.92515499915E+02 -0.11725239060E+03 -0.70528003961E+03  0.72092106025E+03  0.50400001928E-02 0.  1.
       -1    1    3    3    0  502 -0.92515499915E+02  0.11725239060E+03  0.48037909522E+03  0.50306194049E+03  0.50400001928E-02 0. -1.
</event>
<event>
 5   0  0.1455076E-03  0.1201228E+04  0.7818609E-02  0.9111783E-01
        1   -1    0    0  501    0  0.00000000000E+00  0.00000000000E+00  0.60293369481E+03  0.60293369483E+03  0.50400001928E-02 0. -1.
       -1   -1    0    0    0  501  0.00000000000E+00  0.00000000000E+00 -0.59830281321E+03  0.59830281323E+03  0.50400001928E-02 0.  1.
    10030    2    1    2    0    0  0.00000000000E+00  0.00000000000E+00  0.46308816006E+01  0.12012365081E+04  0.12012275818E+04 0.  0.
        4    1    3    3  502    0  0.86336756150E+01 -0.23154631539E+03  0.55643784579E+03  0.60275444889E+03  0.12699999809E+01 0. -1.
       -4    1    3    3    0  502 -0.86336756150E+01  0.23154631539E+03 -0.55180696419E+03  0.59848205918E+03  0.12699999809E+01 0.  1.
</event>
<event>
 5   0  0.1404833E-03  0.1210508E+04  0.7818609E-02  0.9103708E-01
        1   -1    0    0  501    0  0.00000000000E+00  0.00000000000E+00  0.68437208214E+03  0.68437208216E+03  0.50400001928E-02 0. -1.
       -1   -1    0    0    0  501  0.00000000000E+00  0.00000000000E+00 -0.53528243351E+03  0.53528243353E+03  0.50400001928E-02 0.  1.
    10030    2    1    2    0    0  0.00000000000E+00  0.00000000000E+00  0.14908964864E+03  0.12196545157E+04  0.12105079158E+04 0.  0.
        1    1    3    3  502    0 -0.36987557947E+03 -0.17384697395E+03 -0.37526053883E+03  0.55484338931E+03  0.50400001928E-02 0.  1.
       -1    1    3    3    0  502  0.36987557947E+03  0.17384697395E+03  0.52435018747E+03  0.66481112638E+03  0.50400001928E-02 0. -1.
</event>
<event>
 5   0  0.1423024E-03  0.1166510E+04  0.7818609E-02  0.9142686E-01
        1   -1    0    0  501    0  0.00000000000E+00  0.00000000000E+00  0.30692914155E+03  0.30692914159E+03  0.50400001928E-02 0.  1.
       -1   -1    0    0    0  501  0.00000000000E+00  0.00000000000E+00 -0.11083540435E+04  0.11083540435E+04  0.50400001928E-02 0. -1.
    10030    2    1    2    0    0  0.00000000000E+00  0.00000000000E+00 -0.80142490193E+03  0.14152831851E+04  0.11665095887E+04 0.  0.
        2    1    3    3  502    0  0.44780560750E+03 -0.54675485937E+02 -0.84923747750E+03  0.96162548014E+03  0.25500000920E-02 0. -1.
       -2    1    3    3    0  502 -0.44780560750E+03  0.54675485937E+02  0.47812575563E+02  0.45365770494E+03  0.25500000920E-02 0.  1.
</event>
<event>
 5   0  0.2580244E-03  0.1149064E+04  0.7818609E-02  0.9158647E-01
       -2   -1    0    0    0  501  0.00000000000E+00  0.00000000000E+00  0.47819659293E+03  0.47819659294E+03  0.25500000920E-02 0.  1.
        2   -1    0    0  501    0  0.00000000000E+00  0.00000000000E+00 -0.69027507777E+03  0.69027507778E+03  0.25500000920E-02 0. -1.
    10030    2    1    2    0    0  0.00000000000E+00  0.00000000000E+00 -0.21207848484E+03  0.11684716707E+04  0.11490642983E+04 0.  0.
        1    1    3    3  502    0  0.36457262799E+03 -0.19762638138E+03  0.29831708323E+03  0.51084485890E+03  0.50400001928E-02 0.  1.
       -1    1    3    3    0  502 -0.36457262799E+03  0.19762638138E+03 -0.51039556807E+03  0.65762681182E+03  0.50400001928E-02 0. -1.
</event>
<event>
 5   0  0.2499890E-03  0.1205372E+04  0.7818609E-02  0.9108167E-01
       -2   -1    0    0    0  501  0.00000000000E+00  0.00000000000E+00  0.67125683114E+03  0.67125683115E+03  0.25500000920E-02 0. -1.
        2   -1    0    0  501    0  0.00000000000E+00  0.00000000000E+00 -0.54111985452E+03  0.54111985453E+03  0.25500000920E-02 0.  1.
    10030    2    1    2    0    0  0.00000000000E+00  0.00000000000E+00  0.13013697662E+03  0.12123766857E+04  0.12053719738E+04 0.  0.
        5    1    3    3  502    0 -0.85880272832E+02 -0.48514240727E+03 -0.28403602156E+03  0.56871533137E+03  0.46999998093E+01 0.  1.
       -5    1    3    3    0  502  0.85880272832E+02  0.48514240727E+03  0.41417299818E+03  0.64366135430E+03  0.46999998093E+01 0. -1.
</event>
<event>
 5   0  0.1403154E-03  0.1197495E+04  0.7818609E-02  0.9115052E-01
        1   -1    0    0  501    0  0.00000000000E+00  0.00000000000E+00  0.12670707480E+04  0.12670707480E+04  0.50400001928E-02 0. -1.
       -1   -1    0    0    0  501  0.00000000000E+00  0.00000000000E+00 -0.28293507504E+03  0.28293507508E+03  0.50400001928E-02 0.  1.
    10030    2    1    2    0    0  0.00000000000E+00  0.00000000000E+00  0.98413567293E+03  0.15500058231E+04  0.11974953147E+04 0.  0.
        3    1    3    3  502    0  0.46019786508E+03  0.72705012848E+02  0.52894573499E+01  0.46593570638E+03  0.10100000352E+00 0.  1.
       -3    1    3    3    0  502 -0.46019786508E+03 -0.72705012848E+02  0.97884621558E+03  0.10840701167E+04  0.10100000352E+00 0. -1.
</event>
<event>
 5   0  0.2579442E-03  0.1181727E+04  0.7818609E-02  0.9129003E-01
       -2   -1    0    0    0  501  0.00000000000E+00  0.00000000000E+00  0.37733714845E+03  0.37733714846E+03  0.25500000920E-02 0. -1.
        2   -1    0    0  501    0  0.00000000000E+00  0.00000000000E+00 -0.92521868871E+03  0.92521868871E+03  0.25500000920E-02 0.  1.
    10030    2    1    2    0    0  0.00000000000E+00  0.00000000000E+00 -0.54788154026E+03  0.13025558372E+04  0.11817265025E+04 0.  0.
        4    1    3    3  502    0  0.30524905211E+03  0.29847514470E+03 -0.72418366606E+03  0.84065925969E+03  0.12699999809E+01 0.  1.
       -4    1    3    3    0  502 -0.30524905211E+03 -0.29847514470E+03  0.17630212580E+03  0.46189657747E+03  0.12699999809E+01 0. -1.
</event>
<event>
 5   0  0.1404833E-03  0.1200489E+04  0.7818609E-02  0.9112428E-01
       -1   -1    0    0    0  501  0.00000000000E+00  0.00000000000E+00  0.32206476248E+03  0.32206476252E+03  0.50400001928E-02 0.  1.
        1   -1    0    0  501    0  0.00000000000E+00  0.00000000000E+00 -0.11186993273E+04  0.11186993273E+04  0.50400001928E-02 0. -1.
    10030    2    1    2    0    0  0.00000000000E+00  0.00000000000E+00 -0.79663456479E+03  0.14407640898E+04  0.12004892889E+04 0.  0.
        1    1    3    3  502    0  0.71194101393E+02 -0.51041341492E+03 -0.76764922012E+03  0.92459492719E+03  0.50400001928E-02 0. -1.
       -1    1    3    3    0  502 -0.71194101393E+02  0.51041341492E+03 -0.28985344667E+02  0.51616916262E+03  0.50400001928E-02 0.  1.
</event>
<event>
 5   0  0.1469851E-03  0.1204423E+04  0.7818609E-02  0.9108994E-01
       -1   -1    0    0    0  501  0.00000000000E+00  0.00000000000E+00  0.89742745040E+03  0.89742745041E+03  0.50400001928E-02 0. -1.
        1   -1    0    0  501    0  0.00000000000E+00  0.00000000000E+00 -0.40410935530E+03  0.40410935533E+03  0.50400001928E-02 0.  1.
    10030    2    1    2    0    0  0.00000000000E+00  0.00000000000E+00  0.49331809510E+03  0.13015368057E+04  0.12044232287E+04 0.  0.
        5    1    3    3  502    0 -0.25193347120E+03 -0.52520824564E+03  0.41169002457E+03  0.71331966294E+03  0.46999998093E+01 0. -1.
       -5    1    3    3    0  502  0.25193347120E+03  0.52520824564E+03  0.81628070529E+02  0.58821714281E+03  0.46999998093E+01 0.  1.
</event>
<event>
 5   0  0.1423024E-03  0.1200583E+04  0.7818609E-02  0.9112346E-01
        1   -1    0    0  501    0  0.00000000000E+00  0.00000000000E+00  0.75368618809E+03  0.75368618811E+03  0.50400001928E-02 0. -1.
       -1   -1    0    0    0  501  0.00000000000E+00  0.00000000000E+00 -0.47811695748E+03  0.47811695751E+03  0.50400001928E-02 0.  1.
    10030    2    1    2    0    0  0.00000000000E+00  0.00000000000E+00  0.27556923061E+03  0.12318031456E+04  0.12005834368E+04 0.  0.
        2    1    3    3  502    0 -0.20407636275E+03 -0.49056652940E+03  0.42441905046E+03  0.68002515542E+03  0.25500000920E-02 0.  1.
       -2    1    3    3    0  502  0.20407636275E+03  0.49056652940E+03 -0.14884981985E+03  0.55177799020E+03  0.25500000920E-02 0. -1.
</event>
<event>
 5   0  0.1423024E-03  0.1198859E+04  0.7818609E-02  0.9113856E-01
        1   -1    0    0  501    0  0.00000000000E+00  0.00000000000E+00  0.53626592286E+03  0.53626592289E+03  0.50400001928E-02 0. -1.
       -1   -1    0    0    0  501  0.00000000000E+00  0.00000000000E+00 -0.67003286278E+03  0.67003286280E+03  0.50400001928E-02 0.  1.
    10030    2    1    2    0    0  0.00000000000E+00  0.00000000000E+00 -0.13376693992E+03  0.12062987857E+04  0.11988591102E+04 0.  0.
        2    1    3    3  502    0 -0.44299601923E+03  0.36423236920E+03 -0.24233613070E+03  0.62260540640E+03  0.25500000920E-02 0.  1.
       -2    1    3    3    0  502  0.44299601923E+03 -0.36423236920E+03  0.10856919078E+03  0.58369337929E+03  0.25500000920E-02 0. -1.
</event>
<event>
 5   0  0.1469851E-03  0.1201743E+04  0.7818609E-02  0.9111333E-01
        1   -1    0    0  501    0  0.00000000000E+00  0.00000000000E+00  0.14101032182E+04  0.14101032182E+04  0.50400001928E-02 0.  1.
       -1   -1    0    0    0  501  0.00000000000E+00  0.00000000000E+00 -0.25604248644E+03  0.25604248649E+03  0.50400001928E-02 0. -1.
    10030    2    1    2    0    0  0.00000000000E+00  0.00000000000E+00  0.11540607318E+04  0.16661457047E+04  0.12017426250E+04 0.  0.
        5    1    3    3  502    0  0.46672939262E+03  0.25664030887E+03  0.96255997847E+03  0.11001110745E+04  0.46999998093E+01 0.  1.
       -5    1    3    3    0  502 -0.46672939262E+03 -0.25664030887E+03  0.19150075329E+03  0.56603463020E+03  0.46999998093E+01 0. -1.
</event>
<event>
 5   0  0.1469851E-03  0.1348933E+04  0.7818609E-02  0.8991636E-01
        1   -1    0    0  501    0  0.00000000000E+00  0.00000000000E+00  0.18985514879E+04  0.18985514879E+04  0.50400001928E-02 0.  1.
       -1   -1    0    0    0  501  0.00000000000E+00  0.00000000000E+00 -0.23960642657E+03  0.23960642663E+03  0.50400001928E-02 0. -1.
    10030    2    1    2    0    0  0.00000000000E+00  0.00000000000E+00  0.16589450613E+04  0.21381579145E+04  0.13489331158E+04 0.  0.
        5    1    3    3  502    0 -0.12316497768E+03  0.31373600298E+03 -0.96518516738E+02  0.35062487842E+03  0.46999998093E+01 0. -1.
       -5    1    3    3    0  502  0.12316497768E+03 -0.31373600298E+03  0.17554635781E+04  0.17875330361E+04  0.46999998093E+01 0.  1.
</event>
<event>
 5   0  0.1423024E-03  0.9948154E+03  0.7818609E-02  0.9314250E-01
       -1   -1    0    0    0  501  0.00000000000E+00  0.00000000000E+00  0.23239305328E+03  0.23239305333E+03  0.50400001928E-02 0. -1.
        1   -1    0    0  501    0  0.00000000000E+00  0.00000000000E+00 -0.10646376994E+04  0.10646376994E+04  0.50400001928E-02 0.  1.
    10030    2    1    2    0    0  0.00000000000E+00  0.00000000000E+00 -0.83224464611E+03  0.12970307527E+04  0.99481537109E+03 0.  0.
        2    1    3    3  502    0 -0.58686286770E+02 -0.17521542793E+03 -0.10182277586E+04  0.10348585868E+04  0.25500000920E-02 0.  1.
       -2    1    3    3    0  502  0.58686286770E+02  0.17521542793E+03  0.18598311246E+03  0.26217216589E+03  0.25500000920E-02 0. -1.
</event>
<event>
 5   0  0.1423024E-03  0.1226206E+04  0.7818609E-02  0.9090223E-01
        1   -1    0    0  501    0  0.00000000000E+00  0.00000000000E+00  0.62086760750E+03  0.62086760752E+03  0.50400001928E-02 0. -1.
       -1   -1    0    0    0  501  0.00000000000E+00  0.00000000000E+00 -0.60543560288E+03  0.60543560290E+03  0.50400001928E-02 0.  1.
    10030    2    1    2    0    0  0.00000000000E+00  0.00000000000E+00  0.15432004617E+02  0.12263032104E+04  0.12262061071E+04 0.  0.
        2    1    3    3  502    0  0.57268836370E+03 -0.64148875525E+02 -0.20160493015E+03  0.61051747560E+03  0.25500000920E-02 0. -1.
       -2    1    3    3    0  502 -0.57268836370E+03  0.64148875525E+02  0.21703693477E+03  0.61578573482E+03  0.25500000920E-02 0.  1.
</event>
<event>
 5   0  0.9678750E-04  0.1197641E+04  0.7818609E-02  0.9114924E-01
       -4   -1    0    0    0  501  0.00000000000E+00  0.00000000000E+00  0.76438066441E+03  0.76438171945E+03  0.12699999809E+01 0. -1.
        4   -1    0    0  501    0  0.00000000000E+00  0.00000000000E+00 -0.46911721331E+03  0.46911893239E+03  0.12699999809E+01 0.  1.
    10030    2    1    2    0    0  0.00000000000E+00  0.00000000000E+00  0.29526345110E+03  0.12335006518E+04  0.11976407443E+04 0.  0.
        1    1    3    3  502    0  0.28021141845E+03 -0.37104971124E+03  0.53627559361E+03  0.70978013467E+03  0.50400001928E-02 0. -1.
       -1    1    3    3    0  502 -0.28021141845E+03  0.37104971124E+03 -0.24101214251E+03  0.52372051717E+03  0.50400001928E-02 0.  1.
</event>
<event>
 5   0  0.2580244E-03  0.1169170E+04  0.7818609E-02  0.9140278E-01
        2   -1    0    0  501    0  0.00000000000E+00  0.00000000000E+00  0.77968743518E+03  0.77968743518E+03  0.25500000920E-02 0. -1.
       -2   -1    0    0    0  501  0.00000000000E+00  0.00000000000E+00 -0.43830358110E+03  0.43830358111E+03  0.25500000920E-02 0.  1.
    10030    2    1    2    0    0  0.00000000000E+00  0.00000000000E+00  0.34138385407E+03  0.12179910163E+04  0.11691702955E+04 0.  0.
        1    1    3    3  502    0 -0.57128638138E+03 -0.16010582218E+02  0.29877008734E+03  0.64489381561E+03  0.50400001928E-02 0. -1.
       -1    1    3    3    0  502  0.57128638138E+03  0.16010582218E+02  0.42613766734E+02  0.57309720069E+03  0.50400001928E-02 0.  1.
</event>
<event>
 5   0  0.1469851E-03  0.1216135E+04  0.7818609E-02  0.9098850E-01
        1   -1    0    0  501    0  0.00000000000E+00  0.00000000000E+00  0.15557291024E+04  0.15557291024E+04  0.50400001928E-02 0.  1.
       -1   -1    0    0    0  501  0.00000000000E+00  0.00000000000E+00 -0.23766745461E+03  0.23766745467E+03  0.50400001928E-02 0. -1.
    10030    2    1    2    0    0  0.00000000000E+00  0.00000000000E+00  0.13180616478E+04  0.17933965571E+04  0.12161351502E+04 0.  0.
        5    1    3    3  502    0  0.57306644470E+03 -0.19306827334E+03  0.75280373229E+03  0.96561693106E+03  0.46999998093E+01 0. -1.
       -5    1    3    3    0  502 -0.57306644470E+03  0.19306827334E+03  0.56525791550E+03  0.82777962601E+03  0.46999998093E+01 0.  1.
</event>
<event>
 5   0  0.1423024E-03  0.1171224E+04  0.7818609E-02  0.9138424E-01
       -1   -1    0    0    0  501  0.00000000000E+00  0.00000000000E+00  0.40694307552E+03  0.40694307556E+03  0.50400001928E-02 0.  1.
        1   -1    0    0  501    0  0.00000000000E+00  0.00000000000E+00 -0.84272508533E+03  0.84272508534E+03  0.50400001928E-02 0. -1.
    10030    2    1    2    0    0  0.00000000000E+00  0.00000000000E+00 -0.43578200980E+03  0.12496681609E+04  0.11712235279E+04 0.  0.
        2    1    3    3  502    0  0.42695493003E+03  0.39306822541E+03 -0.13423026449E+03  0.59566005910E+03  0.25500000920E-02 0. -1.
       -2    1    3    3    0  502 -0.42695493003E+03 -0.39306822541E+03 -0.30155174531E+03  0.65400810179E+03  0.25500000920E-02 0.  1.
</event>
<event>
 5   0  0.1404833E-03  0.1191578E+04  0.7818609E-02  0.9120261E-01
        1   -1    0    0  501    0  0.00000000000E+00  0.00000000000E+00  0.96208004750E+03  0.96208004752E+03  0.50400001928E-02 0.  1.
       -1   -1    0    0    0  501  0.00000000000E+00  0.00000000000E+00 -0.36895508324E+03  0.36895508327E+03  0.50400001928E-02 0. -1.
    10030    2    1    2    0    0  0.00000000000E+00  0.00000000000E+00  0.59312496427E+03  0.13310351308E+04  0.11915776501E+04 0.  0.
        1    1    3    3  502    0  0.58564321177E+03 -0.94956338169E+02  0.35743475767E+03  0.69264296984E+03  0.50400001928E-02 0.  1.
       -1    1    3    3    0  502 -0.58564321177E+03  0.94956338169E+02  0.23569020660E+03  0.63839216095E+03  0.50400001928E-02 0. -1.
</event>
<event>
 5   0  0.2499890E-03  0.1190358E+04  0.7818609E-02  0.9121339E-01
       -2   -1    0    0    0  501  0.00000000000E+00  0.00000000000E+00  0.74567795981E+03  0.74567795981E+03  0.25500000920E-02 0. -1.
        2   -1    0    0  501    0  0.00000000000E+00  0.00000000000E+00 -0.47505465768E+03  0.47505465769E+03  0.25500000920E-02 0.  1.
    10030    2    1    2    0    0  0.00000000000E+00  0.00000000000E+00  0.27062330212E+03  0.12207326175E+04  0.11903575731E+04 0.  0.
        5    1    3    3  502    0 -0.88357147841E+02  0.22941509631E+03  0.69115488082E+03  0.73359077916E+03  0.46999998093E+01 0. -1.
       -5    1    3    3    0  502  0.88357147841E+02 -0.22941509631E+03 -0.42053157869E+03  0.48714183834E+03  0.46999998093E+01 0.  1.
</event>
<event>
 5   0  0.2499890E-03  0.1185959E+04  0.7818609E-02  0.9125236E-01
       -2   -1    0    0    0  501  0.00000000000E+00  0.00000000000E+00  0.32800101460E+03  0.32800101461E+03  0.25500000920E-02 0. -1.
        2   -1    0    0  501    0  0.00000000000E+00  0.00000000000E+00 -0.10720237866E+04  0.10720237866E+04  0.25500000920E-02 0.  1.
    10030    2    1    2    0    0  0.00000000000E+00  0.00000000000E+00 -0.74402277196E+03  0.14000248012E+04  0.11859593411E+04 0.  0.
        5    1    3    3  502    0 -0.53073502649E+03  0.38161100191E+02 -0.68090301577E+03  0.86416835443E+03  0.46999998093E+01 0.  1.
       -5    1    3    3    0  502  0.53073502649E+03 -0.38161100191E+02 -0.63119756193E+02  0.53585644676E+03  0.46999998093E+01 0. -1.
</event>
<event>
 5   0  0.2579442E-03  0.1209432E+04  0.7818609E-02  0.9104641E-01
       -2   -1    0    0    0  501  0.00000000000E+00  0.00000000000E+00  0.15075994432E+03  0.15075994434E+03  0.25500000920E-02 0. -1.
        2   -1    0    0  501    0  0.00000000000E+00  0.00000000000E+00 -0.24255873561E+04  0.24255873561E+04  0.25500000920E-02 0.  1.
    10030    2    1    2    0    0  0.00000000000E+00  0.00000000000E+00 -0.22748274118E+04  0.25763473005E+04  0.12094319572E+04 0.  0.
        4    1    3    3  502    0 -0.12662341492E+03 -0.59069849183E+03 -0.11946369608E+04  0.13386998463E+04  0.12699999809E+01 0. -1.
       -4    1    3    3    0  502  0.12662341492E+03  0.59069849183E+03 -0.10801904510E+04  0.12376474542E+04  0.12699999809E+01 0.  1.
</event>
<event>
 5   0  0.1469851E-03  0.1190840E+04  0.7818609E-02  0.9120912E-01
       -1   -1    0    0    0  501  0.00000000000E+00  0.00000000000E+00  0.66436038087E+03  0.66436038088E+03  0.50400001928E-02 0. -1.
        1   -1    0    0  501    0  0.00000000000E+00  0.00000000000E+00 -0.53363366361E+03  0.53363366363E+03  0.50400001928E-02 0.  1.
    10030    2    1    2    0    0  0.00000000000E+00  0.00000000000E+00  0.13072671726E+03  0.11979940445E+04  0.11908401472E+04 0.  0.
        5    1    3    3  502    0  0.88954926982E+02  0.46359451117E+03 -0.29968030462E+03  0.55916296801E+03  0.46999998093E+01 0. -1.
       -5    1    3    3    0  502 -0.88954926982E+02 -0.46359451117E+03  0.43040702188E+03  0.63883107650E+03  0.46999998093E+01 0.  1.
</event>
<event>
 5   0  0.2484507E-03  0.1180407E+04  0.7818609E-02  0.9130181E-01
       -2   -1    0    0    0  501  0.00000000000E+00  0.00000000000E+00  0.73822577986E+03  0.73822577986E+03  0.25500000920E-02 0.  1.
        2   -1    0    0  501    0  0.00000000000E+00  0.00000000000E+00 -0.47186109745E+03  0.47186109745E+03  0.25500000920E-02 0. -1.
    10030    2    1    2    0    0  0.00000000000E+00  0.00000000000E+00  0.26636468241E+03  0.12100868773E+04  0.11804067547E+04 0.  0.
        2    1    3    3  502    0 -0.43461780836E+03  0.38176347973E+03  0.13174655465E+02  0.57862731127E+03  0.25500000920E-02 0. -1.
       -2    1    3    3    0  502  0.43461780836E+03 -0.38176347973E+03  0.25319002694E+03  0.63145956604E+03  0.25500000920E-02 0.  1.
</event>
<event>
 5   0  0.1423024E-03  0.1197234E+04  0.7818609E-02  0.9115281E-01
       -1   -1    0    0    0  501  0.00000000000E+00  0.00000000000E+00  0.19214026790E+03  0.19214026797E+03  0.50400001928E-02 0. -1.
        1   -1    0    0  501    0  0.00000000000E+00  0.00000000000E+00 -0.18650038997E+04  0.18650038997E+04  0.50400001928E-02 0.  1.
    10030    2    1    2    0    0  0.00000000000E+00  0.00000000000E+00 -0.16728636318E+04  0.20571441677E+04  0.11972340606E+04 0.  0.
        2    1    3    3  502    0 -0.14479296387E+03  0.41199672499E+03 -0.13292328482E+03  0.45648100009E+03  0.25500000920E-02 0. -1.
       -2    1    3    3    0  502  0.14479296387E+03 -0.41199672499E+03 -0.15399403470E+04  0.16006631676E+04  0.25500000920E-02 0.  1.
</event>
<event>
 5   0  0.2484507E-03  0.1190860E+04  0.7818609E-02  0.9120895E-01
        2   -1    0    0  501    0  0.00000000000E+00  0.00000000000E+00  0.58222832389E+03  0.58222832390E+03  0.25500000920E-02 0. -1.
       -2   -1    0    0    0  501  0.00000000000E+00  0.00000000000E+00 -0.60893102546E+03  0.60893102546E+03  0.25500000920E-02 0.  1.
    10030    2    1    2    0    0  0.00000000000E+00  0.00000000000E+00 -0.26702701564E+02  0.11911593494E+04  0.11908600091E+04 0.  0.
        2    1    3    3  502    0 -0.17749824691E+03  0.54009067242E+03 -0.19040807164E+03  0.59954882690E+03  0.25500000920E-02 0.  1.
       -2    1    3    3    0  502  0.17749824691E+03 -0.54009067242E+03  0.16370537008E+03  0.59161052246E+03  0.25500000920E-02 0. -1.
</event>
<event>
 5   0  0.1469851E-03  0.1209700E+04  0.7818609E-02  0.9104408E-01
       -1   -1    0    0    0  501  0.00000000000E+00  0.00000000000E+00  0.25498209139E+03  0.25498209144E+03  0.50400001928E-02 0. -1.
        1   -1    0    0  501    0  0.00000000000E+00  0.00000000000E+00 -0.14347817873E+04  0.14347817874E+04  0.50400001928E-02 0.  1.
    10030    2    1    2    0    0  0.00000000000E+00  0.00000000000E+00 -0.11797996960E+04  0.16897638788E+04  0.12097002288E+04 0.  0.
        5    1    3    3  502    0 -0.28560906865E+03 -0.28049453305E+03 -0.12232298752E+04  0.12870754215E+04  0.46999998093E+01 0.  1.
       -5    1    3    3    0  502  0.28560906865E+03  0.28049453305E+03  0.43430179219E+02  0.40268845728E+03  0.46999998093E+01 0. -1.
</event>
<event>
 5   0  0.2579442E-03  0.1202701E+04  0.7818609E-02  0.9110496E-01
       -2   -1    0    0    0  501  0.00000000000E+00  0.00000000000E+00  0.55026875091E+03  0.55026875092E+03  0.25500000920E-02 0.  1.
        2   -1    0    0  501    0  0.00000000000E+00  0.00000000000E+00 -0.65717417330E+03  0.65717417330E+03  0.25500000920E-02 0. -1.
    10030    2    1    2    0    0  0.00000000000E+00  0.00000000000E+00 -0.10690542239E+03  0.12074429242E+04  0.12027009794E+04 0.  0.
        4    1    3    3  502    0 -0.40792492288E+03  0.44053127877E+03 -0.87501741248E+02  0.60673611884E+03  0.12699999809E+01 0. -1.
       -4    1    3    3    0  502  0.40792492288E+03 -0.44053127877E+03 -0.19403681140E+02  0.60070680538E+03  0.12699999809E+01 0.  1.
</event>
<event>
 5   0  0.1404833E-03  0.1206503E+04  0.7818609E-02  0.9107183E-01
        1   -1    0    0  501    0  0.00000000000E+00  0.00000000000E+00  0.15901544607E+04  0.15901544607E+04  0.50400001928E-02 0.  1.
       -1   -1    0    0    0  501  0.00000000000E+00  0.00000000000E+00 -0.22885351981E+03  0.22885351987E+03  0.50400001928E-02 0. -1.
    10030    2    1    2    0    0  0.00000000000E+00  0.00000000000E+00  0.13613009409E+04  0.18190079806E+04  0.12065031213E+04 0.  0.
        1    1    3    3  502    0  0.35078274800E+03 -0.39125821280E+03  0.11273404589E+04  0.12437958175E+04  0.50400001928E-02 0.  1.
       -1    1    3    3    0  502 -0.35078274800E+03  0.39125821280E+03  0.23396048198E+03  0.57521216306E+03  0.50400001928E-02 0. -1.
</event>
<event>
 5   0  0.1469851E-03  0.1206037E+04  0.7818609E-02  0.9107589E-01
        1   -1    0    0  501    0  0.00000000000E+00  0.00000000000E+00  0.13166845574E+04  0.13166845575E+04  0.50400001928E-02 0.  1.
       -1   -1    0    0    0  501  0.00000000000E+00  0.00000000000E+00 -0.27617191870E+03  0.27617191875E+03  0.50400001928E-02 0. -1.
    10030    2    1    2    0    0  0.00000000000E+00  0.00000000000E+00  0.10405126387E+04  0.15928564762E+04  0.12060369822E+04 0.  0.
        5    1    3    3  502    0  0.23006520854E+03 -0.82876331624E+02 -0.20772053299E+03  0.32088689027E+03  0.46999998093E+01 0. -1.
       -5    1    3    3    0  502 -0.23006520854E+03  0.82876331624E+02  0.12482331717E+04  0.12719695859E+04  0.46999998093E+01 0.  1.
</event>
<event>
 5   0  0.1455076E-03  0.1211118E+04  0.7818609E-02  0.9103180E-01
        1   -1    0    0  501    0  0.00000000000E+00  0.00000000000E+00  0.66376002286E+03  0.66376002288E+03  0.50400001928E-02 0. -1.
       -1   -1    0    0    0  501  0.00000000000E+00  0.00000000000E+00 -0.55246122320E+03  0.55246122323E+03  0.50400001928E-02 0.  1.
    10030    2    1    2    0    0  0.00000000000E+00  0.00000000000E+00  0.11129879965E+03  0.12162212461E+04  0.12111179532E+04 0.  0.
        4    1    3    3  502    0 -0.17272456727E+03 -0.21181057778E+03 -0.48700018669E+03  0.55845169150E+03  0.12699999809E+01 0.  1.
       -4    1    3    3    0  502  0.17272456727E+03  0.21181057778E+03  0.59829898635E+03  0.65776955460E+03  0.12699999809E+01 0. -1.
</event>
<event>
 5   0  0.2484507E-03  0.1194607E+04  0.7818609E-02  0.9117590E-01
       -2   -1    0    0    0  501  0.00000000000E+00  0.00000000000E+00  0.27427059489E+03  0.27427059490E+03  0.25500000920E-02 0.  1.
        2   -1    0    0  501    0  0.00000000000E+00  0.00000000000E+00 -0.13008003391E+04  0.13008003391E+04  0.25500000920E-02 0. -1.
    10030    2    1    2    0    0  0.00000000000E+00  0.00000000000E+00 -0.10265297442E+04  0.15750709340E+04  0.11946066848E+04 0.  0.
        2    1    3    3  502    0  0.43410530209E+03  0.34465589879E+03 -0.80671644194E+03  0.97878829150E+03  0.25500000920E-02 0. -1.
       -2    1    3    3    0  502 -0.43410530209E+03 -0.34465589879E+03 -0.21981330224E+03  0.59628264248E+03  0.25500000920E-02 0.  1.
</event>
<event>
 5   0  0.2517023E-03  0.1203286E+04  0.7818609E-02  0.9109985E-01
        2   -1    0    0  501    0  0.00000000000E+00  0.00000000000E+00  0.13635168173E+04  0.13635168173E+04  0.25500000920E-02 0. -1.
       -2   -1    0    0    0  501  0.00000000000E+00  0.00000000000E+00 -0.26547096150E+03  0.26547096151E+03  0.25500000920E-02 0.  1.
    10030    2    1    2    0    0  0.00000000000E+00  0.00000000000E+00  0.10980458558E+04  0.16289877788E+04  0.12032857026E+04 0.  0.
        3    1    3    3  502    0  0.40151562092E+03 -0.23834973505E+03  0.35389862624E+02  0.46827112084E+03  0.10100000352E+00 0.  1.
       -3    1    3    3    0  502 -0.40151562092E+03  0.23834973505E+03  0.10626559931E+04  0.11607166579E+04  0.10100000352E+00 0. -1.
</event>
<event>
 5   0  0.1469851E-03  0.1197839E+04  0.7818609E-02  0.9114750E-01
        1   -1    0    0  501    0  0.00000000000E+00  0.00000000000E+00  0.12193698350E+04  0.12193698350E+04  0.50400001928E-02 0. -1.
       -1   -1    0    0    0  501  0.00000000000E+00  0.00000000000E+00 -0.29417227780E+03  0.29417227784E+03  0.50400001928E-02 0.  1.
    10030    2    1    2    0    0  0.00000000000E+00  0.00000000000E+00  0.92519755722E+03  0.15135421129E+04  0.11978393914E+04 0.  0.
        5    1    3    3  502    0  0.21823282713E+03  0.36424053106E+03  0.99627306544E+03  0.10829953103E+04  0.46999998093E+01 0. -1.
       -5    1    3    3    0  502 -0.21823282713E+03 -0.36424053106E+03 -0.71075508223E+02  0.43054680253E+03  0.46999998093E+01 0.  1.
</event>
<event>
 5   0  0.2499890E-03  0.1185231E+04  0.7818609E-02  0.9125883E-01
       -2   -1    0    0    0  501  0.00000000000E+00  0.00000000000E+00  0.25924853962E+03  0.25924853963E+03  0.25500000920E-02 0.  1.
        2   -1    0    0  501    0  0.00000000000E+00  0.00000000000E+00 -0.13546575812E+04  0.13546575812E+04  0.25500000920E-02 0. -1.
    10030    2    1    2    0    0  0.00000000000E+00  0.00000000000E+00 -0.10954090416E+04  0.16139061208E+04  0.11852307786E+04 0.  0.
        5    1    3    3  502    0 -0.19062162155E+03 -0.76141810056E+02  0.20926849617E+03  0.29317157319E+03  0.46999998093E+01 0.  1.
       -5    1    3    3    0  502  0.19062162155E+03  0.76141810056E+02 -0.13046775377E+04  0.13207345476E+04  0.46999998093E+01 0. -1.
</event>
<event>
 5   0  0.2499890E-03  0.1013645E+04  0.7818609E-02  0.9293705E-01
        2   -1    0    0  501    0  0.00000000000E+00  0.00000000000E+00  0.10909532492E+04  0.10909532492E+04  0.25500000920E-02 0. -1.
       -2   -1    0    0    0  501  0.00000000000E+00  0.00000000000E+00 -0.23545354164E+03  0.23545354165E+03  0.25500000920E-02 0.  1.
    10030    2    1    2    0    0  0.00000000000E+00  0.00000000000E+00  0.85549970755E+03  0.13264067908E+04  0.10136445260E+04 0.  0.
        5    1    3    3  502    0  0.36269663715E+03  0.69195415520E+02  0.88200760699E+03  0.95618845680E+03  0.46999998093E+01 0. -1.
       -5    1    3    3    0  502 -0.36269663715E+03 -0.69195415520E+02 -0.26507899444E+02  0.37021833404E+03  0.46999998093E+01 0.  1.
</event>
<event>
 5   0  0.2499890E-03  0.1202242E+04  0.7818609E-02  0.9110896E-01
        2   -1    0    0  501    0  0.00000000000E+00  0.00000000000E+00  0.10031483873E+04  0.10031483873E+04  0.25500000920E-02 0. -1.
       -2   -1    0    0    0  501  0.00000000000E+00  0.00000000000E+00 -0.36021231553E+03  0.36021231554E+03  0.25500000920E-02 0.  1.
    10030    2    1    2    0    0  0.00000000000E+00  0.00000000000E+00  0.64293607179E+03  0.13633607029E+04  0.12022419115E+04 0.  0.
        5    1    3    3  502    0  0.96053632148E+02 -0.42522543173E+03  0.79079330819E+03  0.90300560037E+03  0.46999998093E+01 0. -1.
       -5    1    3    3    0  502 -0.96053632148E+02  0.42522543173E+03 -0.14785723640E+03  0.46035510249E+03  0.46999998093E+01 0.  1.
</event>
<event>
 5   0  0.1455076E-03  0.1127099E+04  0.7818609E-02  0.9179174E-01
        1   -1    0    0  501    0  0.00000000000E+00  0.00000000000E+00  0.57700949808E+03  0.57700949810E+03  0.50400001928E-02 0. -1.
       -1   -1    0    0    0  501  0.00000000000E+00  0.00000000000E+00 -0.55040396773E+03  0.55040396775E+03  0.50400001928E-02 0.  1.
    10030    2    1    2    0    0  0.00000000000E+00  0.00000000000E+00  0.26605530351E+02  0.11274134659E+04  0.11270994937E+04 0.  0.
        4    1    3    3  502    0 -0.49641361682E+03  0.23278989348E+03  0.14360451564E+03  0.56678168926E+03  0.12699999809E+01 0. -1.
       -4    1    3    3    0  502  0.49641361682E+03 -0.23278989348E+03 -0.11699898529E+03  0.56063177660E+03  0.12699999809E+01 0.  1.
</event>
<event>
 5   0  0.2579442E-03  0.1201643E+04  0.7818609E-02  0.9111420E-01
        2   -1    0    0  501    0  0.00000000000E+00  0.00000000000E+00  0.95000021356E+03  0.95000021357E+03  0.25500000920E-02 0.  1.
       -2   -1    0    0    0  501  0.00000000000E+00  0.00000000000E+00 -0.37998573722E+03  0.37998573723E+03  0.25500000920E-02 0. -1.
    10030    2    1    2    0    0  0.00000000000E+00  0.00000000000E+00  0.57001447634E+03  0.13299859508E+04  0.12016430943E+04 0.  0.
        4    1    3    3  502    0 -0.32840637836E+03 -0.15625334309E+03  0.81433264390E+03  0.89185487855E+03  0.12699999809E+01 0.  1.
       -4    1    3    3    0  502  0.32840637836E+03  0.15625334309E+03 -0.24431816756E+03  0.43813107225E+03  0.12699999809E+01 0. -1.
</event>
<event>
 5   0  0.1404833E-03  0.1201862E+04  0.7818609E-02  0.9111229E-01
        1   -1    0    0  501    0  0.00000000000E+00  0.00000000000E+00  0.38713864334E+03  0.38713864338E+03  0.50400001928E-02 0.  1.
       -1   -1    0    0    0  501  0.00000000000E+00  0.00000000000E+00 -0.93278703467E+03  0.93278703468E+03  0.50400001928E-02 0. -1.
    10030    2    1    2    0    0  0.00000000000E+00  0.00000000000E+00 -0.54564839132E+03  0.13199256781E+04  0.12018617344E+04 0.  0.
        1    1    3    3  502    0  0.17134411622E+03  0.30594214085E+03  0.26313042519E+03  0.43840280610E+03  0.50400001928E-02 0.  1.
       -1    1    3    3    0  502 -0.17134411622E+03 -0.30594214085E+03 -0.80877881651E+03  0.88152287196E+03  0.50400001928E-02 0. -1.
</event>
<event>
 5   0  0.1404833E-03  0.1207977E+04  0.7818609E-02  0.9105903E-01
       -1   -1    0    0    0  501  0.00000000000E+00  0.00000000000E+00  0.28451509554E+03  0.28451509558E+03  0.50400001928E-02 0. -1.
        1   -1    0    0  501    0  0.00000000000E+00  0.00000000000E+00 -0.12821895671E+04  0.12821895671E+04  0.50400001928E-02 0.  1.
    10030    2    1    2    0    0  0.00000000000E+00  0.00000000000E+00 -0.99767447157E+03  0.15667046627E+04  0.12079772965E+04 0.  0.
        1    1    3    3  502    0  0.30579149495E+03 -0.33122443692E+03  0.22510916487E+02  0.45135884547E+03  0.50400001928E-02 0. -1.
       -1    1    3    3    0  502 -0.30579149495E+03  0.33122443692E+03 -0.10201853881E+04  0.11153458172E+04  0.50400001928E-02 0.  1.
</event>
<event>
 5   0  0.1423024E-03  0.1190123E+04  0.7818609E-02  0.9121546E-01
       -1   -1    0    0    0  501  0.00000000000E+00  0.00000000000E+00  0.16454948524E+03  0.16454948532E+03  0.50400001928E-02 0. -1.
        1   -1    0    0  501    0  0.00000000000E+00  0.00000000000E+00 -0.21519262735E+04  0.21519262735E+04  0.50400001928E-02 0.  1.
    10030    2    1    2    0    0  0.00000000000E+00  0.00000000000E+00 -0.19873767883E+04  0.23164757589E+04  0.11901232889E+04 0.  0.
        2    1    3    3  502    0  0.13159197531E+01  0.43470807038E+03 -0.17846272450E+04  0.18368089835E+04  0.25500000920E-02 0.  1.
       -2    1    3    3    0  502 -0.13159197531E+01 -0.43470807038E+03 -0.20274954327E+03  0.47966677538E+03  0.25500000920E-02 0. -1.
</event>
<event>
 5   0  0.2579442E-03  0.1225631E+04  0.7818609E-02  0.9090713E-01
       -2   -1    0    0    0  501  0.00000000000E+00  0.00000000000E+00  0.33556652947E+03  0.33556652948E+03  0.25500000920E-02 0.  1.
        2   -1    0    0  501    0  0.00000000000E+00  0.00000000000E+00 -0.11191305205E+04  0.11191305205E+04  0.25500000920E-02 0. -1.
    10030    2    1    2    0    0  0.00000000000E+00  0.00000000000E+00 -0.78356399100E+03  0.14546970500E+04  0.12256308495E+04 0.  0.
        4    1    3    3  502    0 -0.58791760966E+03 -0.17289885482E+03 -0.39172695584E+03  0.72731887819E+03  0.12699999809E+01 0. -1.
       -4    1    3    3    0  502  0.58791760966E+03  0.17289885482E+03 -0.39183703517E+03  0.72737817177E+03  0.12699999809E+01 0.  1.
</event>
<event>
 5   0  0.1455076E-03  0.1203400E+04  0.7818609E-02  0.9109886E-01
       -1   -1    0    0    0  501  0.00000000000E+00  0.00000000000E+00  0.54498989023E+03  0.54498989025E+03  0.50400001928E-02 0.  1.
        1   -1    0    0  501    0  0.00000000000E+00  0.00000000000E+00 -0.66431109535E+03  0.66431109537E+03  0.50400001928E-02 0. -1.
    10030    2    1    2    0    0  0.00000000000E+00  0.00000000000E+00 -0.11932120512E+03  0.12093009856E+04  0.12033999019E+04 0.  0.
        4    1    3    3  502    0 -0.36301193088E+03  0.38393112761E+03  0.22960584803E+03  0.57610869726E+03  0.12699999809E+01 0.  1.
       -4    1    3    3    0  502  0.36301193088E+03 -0.38393112761E+03 -0.34892705316E+03  0.63319228835E+03  0.12699999809E+01 0. -1.
</event>
<event>
 5   0  0.1403154E-03  0.1181561E+04  0.7818609E-02  0.9129151E-01
        1   -1    0    0  501    0  0.00000000000E+00  0.00000000000E+00  0.17689637533E+04  0.17689637533E+04  0.50400001928E-02 0.  1.
       -1   -1    0    0    0  501  0.00000000000E+00  0.00000000000E+00 -0.19730281209E+03  0.19730281216E+03  0.50400001928E-02 0. -1.
    10030    2    1    2    0    0  0.00000000000E+00  0.00000000000E+00  0.15716609412E+04  0.19662665654E+04  0.11815608712E+04 0.  0.
        3    1    3    3  502    0  0.13543090082E+02  0.48409148442E+03  0.22274182347E+03  0.53304963249E+03  0.10100000352E+00 0. -1.
       -3    1    3    3    0  502 -0.13543090082E+02 -0.48409148442E+03  0.13489191177E+04  0.14332169330E+04  0.10100000352E+00 0.  1.
</event>
<event>
 5   0  0.2580244E-03  0.1184973E+04  0.7818609E-02  0.9126112E-01
       -2   -1    0    0    0  501  0.00000000000E+00  0.00000000000E+00  0.39522735367E+03  0.39522735368E+03  0.25500000920E-02 0. -1.
        2   -1    0    0  501    0  0.00000000000E+00  0.00000000000E+00 -0.88819860114E+03  0.88819860114E+03  0.25500000920E-02 0.  1.
    10030    2    1    2    0    0  0.00000000000E+00  0.00000000000E+00 -0.49297124746E+03  0.12834259548E+04  0.11849732194E+04 0.  0.
        1    1    3    3  502    0  0.19374093740E+03 -0.55729992722E+03 -0.30502854172E+03  0.66419964694E+03  0.50400001928E-02 0. -1.
       -1    1    3    3    0  502 -0.19374093740E+03  0.55729992722E+03 -0.18794270575E+03  0.61922630788E+03  0.50400001928E-02 0.  1.
</event>
<event>
 5   0  0.2499890E-03  0.1199750E+04  0.7818609E-02  0.9113075E-01
       -2   -1    0    0    0  501  0.00000000000E+00  0.00000000000E+00  0.24819568739E+03  0.24819568740E+03  0.25500000920E-02 0.  1.
        2   -1    0    0  501    0  0.00000000000E+00  0.00000000000E+00 -0.14498645786E+04  0.14498645786E+04  0.25500000920E-02 0. -1.
    10030    2    1    2    0    0  0.00000000000E+00  0.00000000000E+00 -0.12016688912E+04  0.16980602660E+04  0.11997502002E+04 0.  0.
        5    1    3    3  502    0  0.24654259375E+03 -0.29099873234E+03  0.54463391831E+02  0.38529451567E+03  0.46999998093E+01 0.  1.
       -5    1    3    3    0  502 -0.24654259375E+03  0.29099873234E+03 -0.12561322830E+04  0.13127657503E+04  0.46999998093E+01 0. -1.
</event>
<event>
 5   0  0.1455076E-03  0.1200912E+04  0.7818609E-02  0.9112058E-01
        1   -1    0    0  501    0  0.00000000000E+00  0.00000000000E+00  0.12220361658E+04  0.12220361658E+04  0.50400001928E-02 0. -1.
       -1   -1    0    0    0  501  0.00000000000E+00  0.00000000000E+00 -0.29503841470E+03  0.29503841475E+03  0.50400001928E-02 0.  1.
    10030    2    1    2    0    0  0.00000000000E+00  0.00000000000E+00  0.92699775114E+03  0.15170745806E+04  0.12009123417E+04 0.  0.
        4    1    3    3  502    0  0.25930765007E+03 -0.37907598135E+03 -0.25121415660E+02  0.45996929837E+03  0.12699999809E+01 0.  1.
       -4    1    3    3    0  502 -0.25930765007E+03  0.37907598135E+03  0.95211916680E+03  0.10571052822E+04  0.12699999809E+01 0. -1.
</event>
<event>
 5   0  0.2579442E-03  0.1230849E+04  0.7818609E-02  0.9086275E-01
        2   -1    0    0  501    0  0.00000000000E+00  0.00000000000E+00  0.82478056706E+03  0.82478056706E+03  0.25500000920E-02 0. -1.
       -2   -1    0    0    0  501  0.00000000000E+00  0.00000000000E+00 -0.45920952709E+03  0.45920952710E+03  0.25500000920E-02 0.  1.
    10030    2    1    2    0    0  0.00000000000E+00  0.00000000000E+00  0.36557103996E+03  0.12839900942E+04  0.12308486408E+04 0.  0.
        4    1    3    3  502    0  0.41457275053E+03  0.42249696245E+03  0.35849537652E+03  0.69202225155E+03  0.12699999809E+01 0. -1.
       -4    1    3    3    0  502 -0.41457275053E+03 -0.42249696245E+03  0.70756634487E+01  0.59196784260E+03  0.12699999809E+01 0.  1.
</event>
<event>
 5   0  0.2484507E-03  0.1194938E+04  0.7818609E-02  0.9117299E-01
        2   -1    0    0  501    0  0.00000000000E+00  0.00000000000E+00  0.68478288848E+03  0.68478288849E+03  0.25500000920E-02 0.  1.
       -2   -1    0    0    0  501  0.00000000000E+00  0.00000000000E+00 -0.52128814190E+03  0.52128814190E+03  0.25500000920E-02 0. -1.
    10030    2    1    2    0    0  0.00000000000E+00  0.00000000000E+00  0.16349474659E+03  0.12060710304E+04  0.11949379893E+04 0.  0.
        2    1    3    3  502    0  0.46079769980E+03  0.35173732723E+03 -0.64222078074E+02  0.58324792569E+03  0.25500000920E-02 0.  1.
       -2    1    3    3    0  502 -0.46079769980E+03 -0.35173732723E+03  0.22771682466E+03  0.62282310470E+03  0.25500000920E-02 0. -1.
</event>
<event>
 5   0  0.1404833E-03  0.1199130E+04  0.7818609E-02  0.9113618E-01
       -1   -1    0    0    0  501  0.00000000000E+00  0.00000000000E+00  0.85034465607E+03  0.85034465609E+03  0.50400001928E-02 0.  1.
        1   -1    0    0  501    0  0.00000000000E+00  0.00000000000E+00 -0.42274416468E+03  0.42274416471E+03  0.50400001928E-02 0. -1.
    10030    2    1    2    0    0  0.00000000000E+00  0.00000000000E+00  0.42760049140E+03  0.12730888208E+04  0.11991300869E+04 0.  0.
        1    1    3    3  502    0  0.85171619743E+02 -0.53025226903E+03  0.49680551223E+03  0.73159920081E+03  0.50400001928E-02 0.  1.
       -1    1    3    3    0  502 -0.85171619743E+02  0.53025226903E+03 -0.69205020835E+02  0.54148961999E+03  0.50400001928E-02 0. -1.
</event>
<event>
 5   0  0.2484507E-03  0.1204502E+04  0.7818609E-02  0.9108925E-01
        2   -1    0    0  501    0  0.00000000000E+00  0.00000000000E+00  0.51497512261E+03  0.51497512262E+03  0.25500000920E-02 0. -1.
       -2   -1    0    0    0  501  0.00000000000E+00  0.00000000000E+00 -0.70431815748E+03  0.70431815749E+03  0.25500000920E-02 0.  1.
    10030    2    1    2    0    0  0.00000000000E+00  0.00000000000E+00 -0.18934303487E+03  0.12192932801E+04  0.12045021038E+04 0.  0.
        2    1    3    3  502    0 -0.28371089199E+03 -0.85553771248E+02  0.43607120376E+03  0.52722804626E+03  0.25500000920E-02 0. -1.
       -2    1    3    3    0  502  0.28371089199E+03  0.85553771248E+02 -0.62541423863E+03  0.69206523384E+03  0.25500000920E-02 0.  1.
</event>
<event>
 5   0  0.1423024E-03  0.1190484E+04  0.7818609E-02  0.9121227E-01
        1   -1    0    0  501    0  0.00000000000E+00  0.00000000000E+00  0.42367106418E+03  0.42367106421E+03  0.50400001928E-02 0. -1.
       -1   -1    0    0    0  501  0.00000000000E+00  0.00000000000E+00 -0.83629230996E+03  0.83629230998E+03  0.50400001928E-02 0.  1.
    10030    2    1    2    0    0  0.00000000000E+00  0.00000000000E+00 -0.41262124578E+03  0.12599633742E+04  0.11904836882E+04 0.  0.
        2    1    3    3  502    0  0.38684880166E+03 -0.44547494851E+03 -0.12288823315E+03  0.60266196408E+03  0.25500000920E-02 0. -1.
       -2    1    3    3    0  502 -0.38684880166E+03  0.44547494851E+03 -0.28973301263E+03  0.65730141010E+03  0.25500000920E-02 0.  1.
</event>
<event>
 5   0  0.1455076E-03  0.1200849E+04  0.7818609E-02  0.9112114E-01
        1   -1    0    0  501    0  0.00000000000E+00  0.00000000000E+00  0.63249440818E+03  0.63249440820E+03  0.50400001928E-02 0.  1.
       -1   -1    0    0    0  501  0.00000000000E+00  0.00000000000E+00 -0.56998078775E+03  0.56998078778E+03  0.50400001928E-02 0. -1.
    10030    2    1    2    0    0  0.00000000000E+00  0.00000000000E+00  0.62513620429E+02  0.12024751960E+04  0.12008491347E+04 0.  0.
        4    1    3    3  502    0  0.19583332980E+02  0.52660092618E+03  0.31942418996E+03  0.61621868555E+03  0.12699999809E+01 0.  1.
       -4    1    3    3    0  502 -0.19583332980E+02 -0.52660092618E+03 -0.25691056953E+03  0.58625651043E+03  0.12699999809E+01 0. -1.
</event>
<event>
 5   0  0.2580244E-03  0.1197287E+04  0.7818609E-02  0.9115234E-01
        2   -1    0    0  501    0  0.00000000000E+00  0.00000000000E+00  0.21557765028E+04  0.21557765028E+04  0.25500000920E-02 0.  1.
       -2   -1    0    0    0  501  0.00000000000E+00  0.00000000000E+00 -0.16623906437E+03  0.16623906439E+03  0.25500000920E-02 0. -1.
    10030    2    1    2    0    0  0.00000000000E+00  0.00000000000E+00  0.19895374384E+04  0.23220155672E+04  0.11972873821E+04 0.  0.
        1    1    3    3  502    0 -0.11957620311E+03  0.45339735838E+03  0.27299342585E+03  0.54257998813E+03  0.50400001928E-02 0. -1.
       -1    1    3    3    0  502  0.11957620311E+03 -0.45339735838E+03  0.17165440126E+04  0.17794355791E+04  0.50400001928E-02 0.  1.
</event>
<event>
 5   0  0.2484507E-03  0.1175794E+04  0.7818609E-02  0.9134312E-01
        2   -1    0    0  501    0  0.00000000000E+00  0.00000000000E+00  0.22010977766E+04  0.22010977766E+04  0.25500000920E-02 0.  1.
       -2   -1    0    0    0  501  0.00000000000E+00  0.00000000000E+00 -0.15702287189E+03  0.15702287191E+03  0.25500000920E-02 0. -1.
    10030    2    1    2    0    0  0.00000000000E+00  0.00000000000E+00  0.20440749047E+04  0.23581206485E+04  0.11757936795E+04 0.  0.
        2    1    3    3  502    0 -0.48072092729E+03  0.26064627168E+03  0.58912701349E+03  0.80380328869E+03  0.25500000920E-02 0. -1.
       -2    1    3    3    0  502  0.48072092729E+03 -0.26064627168E+03  0.14549478912E+04  0.15543173598E+04  0.25500000920E-02 0.  1.
</event>
<event>
 5   0  0.1404833E-03  0.1210176E+04  0.7818609E-02  0.9103996E-01
        1   -1    0    0  501    0  0.00000000000E+00  0.00000000000E+00  0.14892166379E+04  0.14892166379E+04  0.50400001928E-02 0. -1.
       -1   -1    0    0    0  501  0.00000000000E+00  0.00000000000E+00 -0.24585516039E+03  0.24585516044E+03  0.50400001928E-02 0.  1.
    10030    2    1    2    0    0  0.00000000000E+00  0.00000000000E+00  0.12433614775E+04  0.17350717983E+04  0.12101761779E+04 0.  0.
        1    1    3    3  502    0 -0.38448142180E+03  0.27328259412E+03  0.11650308026E+04  0.12569033818E+04  0.50400001928E-02 0. -1.
       -1    1    3    3    0  502  0.38448142180E+03 -0.27328259412E+03  0.78330674854E+02  0.47816841658E+03  0.50400001928E-02 0.  1.
</event>
<event>
 5   0  0.1423024E-03  0.1200879E+04  0.7818609E-02  0.9112088E-01
        1   -1    0    0  501    0  0.00000000000E+00  0.00000000000E+00  0.87247644126E+03  0.87247644128E+03  0.50400001928E-02 0. -1.
       -1   -1    0    0    0  501  0.00000000000E+00  0.00000000000E+00 -0.41322302477E+03  0.41322302480E+03  0.50400001928E-02 0.  1.
    10030    2    1    2    0    0  0.00000000000E+00  0.00000000000E+00  0.45925341649E+03  0.12856994661E+04  0.12008786019E+04 0.  0.
        2    1    3    3  502    0 -0.14665022619E+03  0.39111858700E+03  0.69142472343E+03  0.80780454697E+03  0.25500000920E-02 0. -1.
       -2    1    3    3    0  502  0.14665022619E+03 -0.39111858700E+03 -0.23217130694E+03  0.47789491911E+03  0.25500000920E-02 0.  1.
</event>
<event>
 5   0  0.2580244E-03  0.1203068E+04  0.7818609E-02  0.9110175E-01
        2   -1    0    0  501    0  0.00000000000E+00  0.00000000000E+00  0.11159595798E+04  0.11159595798E+04  0.25500000920E-02 0.  1.
       -2   -1    0    0    0  501  0.00000000000E+00  0.00000000000E+00 -0.32424405094E+03  0.32424405095E+03  0.25500000920E-02 0. -1.
    10030    2    1    2    0    0  0.00000000000E+00  0.00000000000E+00  0.79171552887E+03  0.14402036308E+04  0.12030681691E+04 0.  0.
        1    1    3    3  502    0  0.13210276339E+03  0.40586831677E+03  0.90327243312E+03  0.99904019895E+03  0.50400001928E-02 0.  1.
       -1    1    3    3    0  502 -0.13210276339E+03 -0.40586831677E+03 -0.11155690425E+03  0.44116343181E+03  0.50400001928E-02 0. -1.
</event>
<event>
 5   0  0.1423024E-03  0.1198588E+04  0.7818609E-02  0.9114093E-01
        1   -1    0    0  501    0  0.00000000000E+00  0.00000000000E+00  0.10795264858E+04  0.10795264858E+04  0.50400001928E-02 0.  1.
       -1   -1    0    0    0  501  0.00000000000E+00  0.00000000000E+00 -0.33269530301E+03  0.33269530305E+03  0.50400001928E-02 0. -1.
    10030    2    1    2    0    0  0.00000000000E+00  0.00000000000E+00  0.74683118282E+03  0.14122217889E+04  0.11985881550E+04 0.  0.
        2    1    3    3  502    0  0.13992048967E+03  0.34090423559E+03  0.93026219910E+03  0.10005904259E+04  0.25500000920E-02 0.  1.
       -2    1    3    3    0  502 -0.13992048967E+03 -0.34090423559E+03 -0.18343101628E+03  0.41163136301E+03  0.25500000920E-02 0. -1.
</event>
<event>
 5   0  0.1403154E-03  0.1228536E+04  0.7818609E-02  0.9088240E-01
        1   -1    0    0  501    0  0.00000000000E+00  0.00000000000E+00  0.80532090013E+03  0.80532090015E+03  0.50400001928E-02 0.  1.
       -1   -1    0    0    0  501  0.00000000000E+00  0.00000000000E+00 -0.46853992933E+03  0.46853992936E+03  0.50400001928E-02 0. -1.
    10030    2    1    2    0    0  0.00000000000E+00  0.00000000000E+00  0.33678097080E+03  0.12738608295E+04  0.12285357100E+04 0.  0.
        3    1    3    3  502    0  0.90976656617E+02  0.58193276106E+03 -0.12405518071E+02  0.58913190164E+03  0.10100000352E+00 0. -1.
       -3    1    3    3    0  502 -0.90976656617E+02 -0.58193276106E+03  0.34918648887E+03  0.68472892787E+03  0.10100000352E+00 0.  1.
</event>
<event>
 5   0  0.2579442E-03  0.1192619E+04  0.7818609E-02  0.9119342E-01
        2   -1    0    0  501    0  0.00000000000E+00  0.00000000000E+00  0.22397870835E+04  0.22397870835E+04  0.25500000920E-02 0. -1.
       -2   -1    0    0    0  501  0.00000000000E+00  0.00000000000E+00 -0.15875839232E+03  0.15875839234E+03  0.25500000920E-02 0.  1.
    10030    2    1    2    0    0  0.00000000000E+00  0.00000000000E+00  0.20810286911E+04  0.23985454758E+04  0.11926189610E+04 0.  0.
        4    1    3    3  502    0  0.83016480836E+02  0.20195904631E+03  0.21564882710E+04  0.21675152752E+04  0.12699999809E+01 0. -1.
       -4    1    3    3    0  502 -0.83016480836E+02 -0.20195904631E+03 -0.75459579875E+02  0.23103020056E+03  0.12699999809E+01 0.  1.
</event>
<event>
 5   0  0.2579442E-03  0.1265480E+04  0.7818609E-02  0.9057397E-01
        2   -1    0    0  501    0  0.00000000000E+00  0.00000000000E+00  0.30379403250E+04  0.30379403250E+04  0.25500000920E-02 0. -1.
       -2   -1    0    0    0  501  0.00000000000E+00  0.00000000000E+00 -0.13178666636E+03  0.13178666638E+03  0.25500000920E-02 0.  1.
    10030    2    1    2    0    0  0.00000000000E+00  0.00000000000E+00  0.29061536587E+04  0.31697269914E+04  0.12654801904E+04 0.  0.
        4    1    3    3  502    0 -0.33718543766E+03 -0.87317446820E+01  0.27939744594E+04  0.28142610319E+04  0.12699999809E+01 0. -1.
       -4    1    3    3    0  502  0.33718543766E+03  0.87317446820E+01  0.11217919924E+03  0.35546595952E+03  0.12699999809E+01 0.  1.
</event>
<event>
 5   0  0.2579442E-03  0.1188175E+04  0.7818609E-02  0.9123270E-01
       -2   -1    0    0    0  501  0.00000000000E+00  0.00000000000E+00  0.37677695682E+03  0.37677695683E+03  0.25500000920E-02 0. -1.
        2   -1    0    0  501    0  0.00000000000E+00  0.00000000000E+00 -0.93673425973E+03  0.93673425974E+03  0.25500000920E-02 0.  1.
    10030    2    1    2    0    0  0.00000000000E+00  0.00000000000E+00 -0.55995730292E+03  0.13135112166E+04  0.11881748756E+04 0.  0.
        4    1    3    3  502    0 -0.23957318589E+03  0.46436234913E+03 -0.59248261515E+03  0.78997782553E+03  0.12699999809E+01 0.  1.
       -4    1    3    3    0  502  0.23957318589E+03 -0.46436234913E+03  0.32525312233E+02  0.52353339103E+03  0.12699999809E+01 0. -1.
</event>
<event>
 5   0  0.2517023E-03  0.1204167E+04  0.7818609E-02  0.9109217E-01
        2   -1    0    0  501    0  0.00000000000E+00  0.00000000000E+00  0.99939278897E+03  0.99939278897E+03  0.25500000920E-02 0. -1.
       -2   -1    0    0    0  501  0.00000000000E+00  0.00000000000E+00 -0.36272465411E+03  0.36272465412E+03  0.25500000920E-02 0.  1.
    10030    2    1    2    0    0  0.00000000000E+00  0.00000000000E+00  0.63666813486E+03  0.13621174431E+04  0.12041667720E+04 0.  0.
        3    1    3    3  502    0 -0.50132727411E+03 -0.95457023074E+02  0.67971293228E+03  0.84997103453E+03  0.10100000352E+00 0. -1.
       -3    1    3    3    0  502  0.50132727411E+03  0.95457023074E+02 -0.43044797425E+02  0.51214640856E+03  0.10100000352E+00 0.  1.
</event>
<event>
 5   0  0.1404833E-03  0.1158698E+04  0.7818609E-02  0.9149796E-01
        1   -1    0    0  501    0  0.00000000000E+00  0.00000000000E+00  0.98674292023E+03  0.98674292024E+03  0.50400001928E-02 0. -1.
       -1   -1    0    0    0  501  0.00000000000E+00  0.00000000000E+00 -0.34015490937E+03  0.34015490941E+03  0.50400001928E-02 0.  1.
    10030    2    1    2    0    0  0.00000000000E+00  0.00000000000E+00  0.64658801086E+03  0.13268978297E+04  0.11586983190E+04 0.  0.
        1    1    3    3  502    0  0.15661272085E+03  0.26565768922E+03 -0.23835407331E+03  0.38976174320E+03  0.50400001928E-02 0.  1.
       -1    1    3    3    0  502 -0.15661272085E+03 -0.26565768922E+03  0.88494208417E+03  0.93713608645E+03  0.50400001928E-02 0. -1.
</event>
<event>
 5   0  0.2484507E-03  0.1193886E+04  0.7818609E-02  0.9118225E-01
       -2   -1    0    0    0  501  0.00000000000E+00  0.00000000000E+00  0.63800519750E+03  0.63800519750E+03  0.25500000920E-02 0.  1.
        2   -1    0    0  501    0  0.00000000000E+00  0.00000000000E+00 -0.55852325389E+03  0.55852325390E+03  0.25500000920E-02 0. -1.
    10030    2    1    2    0    0  0.00000000000E+00  0.00000000000E+00  0.79481943602E+02  0.11965284514E+04  0.11938856543E+04 0.  0.
        2    1    3    3  502    0  0.49433665788E+03 -0.17103972750E+03  0.32798398162E+03  0.61741137981E+03  0.25500000920E-02 0.  1.
       -2    1    3    3    0  502 -0.49433665788E+03  0.17103972750E+03 -0.24850203801E+03  0.57911707160E+03  0.25500000920E-02 0. -1.
</event>
<event>
 5   0  0.2580244E-03  0.1192869E+04  0.7818609E-02  0.9119121E-01
        2   -1    0    0  501    0  0.00000000000E+00  0.00000000000E+00  0.68097613697E+03  0.68097613697E+03  0.25500000920E-02 0. -1.
       -2   -1    0    0    0  501  0.00000000000E+00  0.00000000000E+00 -0.52238880787E+03  0.52238880787E+03  0.25500000920E-02 0.  1.
    10030    2    1    2    0    0  0.00000000000E+00  0.00000000000E+00  0.15858732910E+03  0.12033649448E+04  0.11928693346E+04 0.  0.
        1    1    3    3  502    0 -0.81298375252E+02  0.45372544194E+03 -0.30253109781E+03  0.55136309965E+03  0.50400001928E-02 0.  1.
       -1    1    3    3    0  502  0.81298375252E+02 -0.45372544194E+03  0.46111842691E+03  0.65200184520E+03  0.50400001928E-02 0. -1.
</event>
<event>
 5   0  0.1423024E-03  0.1195515E+04  0.7818609E-02  0.9116791E-01
       -1   -1    0    0    0  501  0.00000000000E+00  0.00000000000E+00  0.48787308649E+03  0.48787308652E+03  0.50400001928E-02 0. -1.
        1   -1    0    0  501    0  0.00000000000E+00  0.00000000000E+00 -0.73239121439E+03  0.73239121441E+03  0.50400001928E-02 0.  1.
    10030    2    1    2    0    0  0.00000000000E+00  0.00000000000E+00 -0.24451812790E+03  0.12202643009E+04  0.11955148888E+04 0.  0.
        2    1    3    3  502    0  0.30568209345E+03  0.38165197118E+02 -0.64512932128E+03  0.71490556419E+03  0.25500000920E-02 0.  1.
       -2    1    3    3    0  502 -0.30568209345E+03 -0.38165197118E+02  0.40061119338E+03  0.50535873673E+03  0.25500000920E-02 0. -1.
</event>
<event>
 5   0  0.1423024E-03  0.1222357E+04  0.7818609E-02  0.9093509E-01
        1   -1    0    0  501    0  0.00000000000E+00  0.00000000000E+00  0.54886557628E+03  0.54886557630E+03  0.50400001928E-02 0.  1.
       -1   -1    0    0    0  501  0.00000000000E+00  0.00000000000E+00 -0.68056624884E+03  0.68056624886E+03  0.50400001928E-02 0. -1.
    10030    2    1    2    0    0  0.00000000000E+00  0.00000000000E+00 -0.13170067257E+03  0.12294318252E+04  0.12223573723E+04 0.  0.
        2    1    3    3  502    0 -0.38437252751E+03  0.11781834679E+03  0.39715725555E+03  0.56511705724E+03  0.25500000920E-02 0.  1.
       -2    1    3    3    0  502  0.38437252751E+03 -0.11781834679E+03 -0.52885792812E+03  0.66431476792E+03  0.25500000920E-02 0. -1.
</event>
<event>
 5   0  0.2580244E-03  0.1177021E+04  0.7818609E-02  0.9133211E-01
        2   -1    0    0  501    0  0.00000000000E+00  0.00000000000E+00  0.13179235280E+04  0.13179235280E+04  0.25500000920E-02 0. -1.
       -2   -1    0    0    0  501  0.00000000000E+00  0.00000000000E+00 -0.26279578032E+03  0.26279578033E+03  0.25500000920E-02 0.  1.
    10030    2    1    2    0    0  0.00000000000E+00  0.00000000000E+00  0.10551277477E+04  0.15807193084E+04  0.11770212266E+04 0.  0.
        1    1    3    3  502    0  0.16267448172E+03 -0.37584726703E+03 -0.40028065259E+02  0.41149289322E+03  0.50400001928E-02 0.  1.
       -1    1    3    3    0  502 -0.16267448172E+03  0.37584726703E+03  0.10951558130E+04  0.11692264151E+04  0.50400001928E-02 0. -1.
</event>
<event>
 5   0  0.2579442E-03  0.1207054E+04  0.7818609E-02  0.9106704E-01
        2   -1    0    0  501    0  0.00000000000E+00  0.00000000000E+00  0.81771189752E+03  0.81771189752E+03  0.25500000920E-02 0.  1.
       -2   -1    0    0    0  501  0.00000000000E+00  0.00000000000E+00 -0.44544423416E+03  0.44544423416E+03  0.25500000920E-02 0. -1.
    10030    2    1    2    0    0  0.00000000000E+00  0.00000000000E+00  0.37226766336E+03  0.12631561317E+04  0.12070543483E+04 0.  0.
        4    1    3    3  502    0  0.29933779013E+03  0.51437157825E+03  0.29110662828E+03  0.66251484137E+03  0.12699999809E+01 0.  1.
       -4    1    3    3    0  502 -0.29933779013E+03 -0.51437157825E+03  0.81161035082E+02  0.60064129031E+03  0.12699999809E+01 0. -1.
</event>
<event>
 5   0  0.2579442E-03  0.1208002E+04  0.7818609E-02  0.9105881E-01
       -2   -1    0    0    0  501  0.00000000000E+00  0.00000000000E+00  0.97458509450E+03  0.97458509450E+03  0.25500000920E-02 0. -1.
        2   -1    0    0  501    0  0.00000000000E+00  0.00000000000E+00 -0.37433086013E+03  0.37433086013E+03  0.25500000920E-02 0.  1.
    10030    2    1    2    0    0  0.00000000000E+00  0.00000000000E+00  0.60025423437E+03  0.13489159546E+04  0.12080021137E+04 0.  0.
        4    1    3    3  502    0  0.18636268107E+03  0.57172316020E+03  0.23678987802E+03  0.64627353345E+03  0.12699999809E+01 0.  1.
       -4    1    3    3    0  502 -0.18636268107E+03 -0.57172316020E+03  0.36346435635E+03  0.70264242118E+03  0.12699999809E+01 0. -1.
</event>
<event>
 5   0  0.1403154E-03  0.1218246E+04  0.7818609E-02  0.9097034E-01
       -1   -1    0    0    0  501  0.00000000000E+00  0.00000000000E+00  0.50018700911E+03  0.50018700914E+03  0.50400001928E-02 0. -1.
        1   -1    0    0  501    0  0.00000000000E+00  0.00000000000E+00 -0.74178392582E+03  0.74178392584E+03  0.50400001928E-02 0.  1.
    10030    2    1    2    0    0  0.00000000000E+00  0.00000000000E+00 -0.24159691670E+03  0.12419709350E+04  0.12182457606E+04 0.  0.
        3    1    3    3  502    0  0.36262319559E+02 -0.33538955575E+03 -0.63785372223E+03  0.72156669206E+03  0.10100000352E+00 0.  1.
       -3    1    3    3    0  502 -0.36262319559E+02  0.33538955575E+03  0.39625680552E+03  0.52040424292E+03  0.10100000352E+00 0. -1.
</event>
<event>
 5   0  0.9678750E-04  0.1212215E+04  0.7818609E-02  0.9102232E-01
        3   -1    0    0  501    0  0.00000000000E+00  0.00000000000E+00  0.56018858475E+03  0.56018859385E+03  0.10100000352E+00 0. -1.
       -3   -1    0    0    0  501  0.00000000000E+00  0.00000000000E+00 -0.65579033223E+03  0.65579034001E+03  0.10100000352E+00 0.  1.
    10030    2    1    2    0    0  0.00000000000E+00  0.00000000000E+00 -0.95601747483E+02  0.12159789339E+04  0.12122149452E+04 0.  0.
        5    1    3    3  502    0  0.58656775317E+03 -0.10148695913E+03  0.66495217143E+02  0.59900336880E+03  0.46999998093E+01 0. -1.
       -5    1    3    3    0  502 -0.58656775317E+03  0.10148695913E+03 -0.16209696463E+03  0.61697556506E+03  0.46999998093E+01 0.  1.
</event>
<event>
 5   0  0.1403154E-03  0.1215096E+04  0.7818609E-02  0.9099744E-01
       -1   -1    0    0    0  501  0.00000000000E+00  0.00000000000E+00  0.59468782039E+03  0.59468782041E+03  0.50400001928E-02 0.  1.
        1   -1    0    0  501    0  0.00000000000E+00  0.00000000000E+00 -0.62068669503E+03  0.62068669505E+03  0.50400001928E-02 0. -1.
    10030    2    1    2    0    0  0.00000000000E+00  0.00000000000E+00 -0.25998874643E+02  0.12153745155E+04  0.12150964041E+04 0.  0.
        3    1    3    3  502    0  0.58056737480E+03  0.16768022752E+03  0.49781737294E+02  0.60634426438E+03  0.10100000352E+00 0.  1.
       -3    1    3    3    0  502 -0.58056737480E+03 -0.16768022752E+03 -0.75780611937E+02  0.60903025108E+03  0.10100000352E+00 0. -1.
</event>
<event>
 5   0  0.2484507E-03  0.1200968E+04  0.7818609E-02  0.9112009E-01
       -2   -1    0    0    0  501  0.00000000000E+00  0.00000000000E+00  0.24205360105E+03  0.24205360107E+03  0.25500000920E-02 0.  1.
        2   -1    0    0  501    0  0.00000000000E+00  0.00000000000E+00 -0.14896753122E+04  0.14896753122E+04  0.25500000920E-02 0. -1.
    10030    2    1    2    0    0  0.00000000000E+00  0.00000000000E+00 -0.12476217111E+04  0.17317289132E+04  0.12009683988E+04 0.  0.
        2    1    3    3  502    0  0.20732082002E+03  0.35836210079E+03  0.33533978893E+01  0.41402483377E+03  0.25500000920E-02 0.  1.
       -2    1    3    3    0  502 -0.20732082002E+03 -0.35836210079E+03 -0.12509751090E+04  0.13177040795E+04  0.25500000920E-02 0. -1.
</event>
<event>
 5   0  0.1423024E-03  0.1189695E+04  0.7818609E-02  0.9121925E-01
       -1   -1    0    0    0  501  0.00000000000E+00  0.00000000000E+00  0.27032632947E+03  0.27032632952E+03  0.50400001928E-02 0. -1.
        1   -1    0    0  501    0  0.00000000000E+00  0.00000000000E+00 -0.13089493076E+04  0.13089493076E+04  0.50400001928E-02 0.  1.
    10030    2    1    2    0    0  0.00000000000E+00  0.00000000000E+00 -0.10386229781E+04  0.15792756371E+04  0.11896948547E+04 0.  0.
        2    1    3    3  502    0 -0.40360441154E+03 -0.21339266374E+03 -0.10255092899E+04  0.11225427625E+04  0.25500000920E-02 0.  1.
       -2    1    3    3    0  502  0.40360441154E+03  0.21339266374E+03 -0.13113688234E+02  0.45673287464E+03  0.25500000920E-02 0. -1.
</event>
<event>
 5   0  0.1423024E-03  0.1158418E+04  0.7818609E-02  0.9150053E-01
        1   -1    0    0  501    0  0.00000000000E+00  0.00000000000E+00  0.10230521449E+04  0.10230521449E+04  0.50400001928E-02 0.  1.
       -1   -1    0    0    0  501  0.00000000000E+00  0.00000000000E+00 -0.32792357141E+03  0.32792357145E+03  0.50400001928E-02 0. -1.
    10030    2    1    2    0    0  0.00000000000E+00  0.00000000000E+00  0.69512857352E+03  0.13509757164E+04  0.11584177366E+04 0.  0.
        2    1    3    3  502    0 -0.51751650101E+03  0.88301182667E+02  0.62226218634E+02  0.52867053065E+03  0.25500000920E-02 0. -1.
       -2    1    3    3    0  502  0.51751650101E+03 -0.88301182667E+02  0.63290235489E+03  0.82230518575E+03  0.25500000920E-02 0.  1.
</event>
<event>
 5   0  0.1404833E-03  0.1207147E+04  0.7818609E-02  0.9106624E-01
       -1   -1    0    0    0  501  0.00000000000E+00  0.00000000000E+00  0.30871572905E+03  0.30871572909E+03  0.50400001928E-02 0. -1.
        1   -1    0    0  501    0  0.00000000000E+00  0.00000000000E+00 -0.11800527270E+04  0.11800527271E+04  0.50400001928E-02 0.  1.
    10030    2    1    2    0    0  0.00000000000E+00  0.00000000000E+00 -0.87133699799E+03  0.14887684561E+04  0.12071467814E+04 0.  0.
        1    1    3    3  502    0  0.34321261670E+03 -0.19695381511E+03  0.12641540135E+03  0.41541131336E+03  0.50400001928E-02 0. -1.
       -1    1    3    3    0  502 -0.34321261670E+03  0.19695381511E+03 -0.99775239934E+03  0.10733571428E+04  0.50400001928E-02 0.  1.
</event>
<event>
 5   0  0.2484507E-03  0.1201625E+04  0.7818609E-02  0.9111435E-01
       -2   -1    0    0    0  501  0.00000000000E+00  0.00000000000E+00  0.73172476860E+03  0.73172476860E+03  0.25500000920E-02 0.  1.
        2   -1    0    0  501    0  0.00000000000E+00  0.00000000000E+00 -0.49332153762E+03  0.49332153762E+03  0.25500000920E-02 0. -1.
    10030    2    1    2    0    0  0.00000000000E+00  0.00000000000E+00  0.23840323098E+03  0.12250463062E+04  0.12016248798E+04 0.  0.
        2    1    3    3  502    0  0.38544140773E+03 -0.68143354344E+02  0.58390075663E+03  0.70295710334E+03  0.25500000920E-02 0.  1.
       -2    1    3    3    0  502 -0.38544140773E+03  0.68143354344E+02 -0.34549752565E+03  0.52208920289E+03  0.25500000920E-02 0. -1.
</event>
<event>
 5   0  0.2579442E-03  0.1188887E+04  0.7818609E-02  0.9122640E-01
        2   -1    0    0  501    0  0.00000000000E+00  0.00000000000E+00  0.12185539230E+04  0.12185539230E+04  0.25500000920E-02 0.  1.
       -2   -1    0    0    0  501  0.00000000000E+00  0.00000000000E+00 -0.28998549157E+03  0.28998549158E+03  0.25500000920E-02 0. -1.
    10030    2    1    2    0    0  0.00000000000E+00  0.00000000000E+00  0.92856843143E+03  0.15085394146E+04  0.11888868043E+04 0.  0.
        4    1    3    3  502    0  0.11929647353E+03  0.55728598034E+03  0.24984178896E+03  0.62227152023E+03  0.12699999809E+01 0. -1.
       -4    1    3    3    0  502 -0.11929647353E+03 -0.55728598034E+03  0.67872664247E+03  0.88626789436E+03  0.12699999809E+01 0.  1.
</event>
<event>
 5   0  0.1404833E-03  0.1200593E+04  0.7818609E-02  0.9112338E-01
       -1   -1    0    0    0  501  0.00000000000E+00  0.00000000000E+00  0.34692778123E+03  0.34692778126E+03  0.50400001928E-02 0.  1.
        1   -1    0    0  501    0  0.00000000000E+00  0.00000000000E+00 -0.10387054116E+04  0.10387054116E+04  0.50400001928E-02 0. -1.
    10030    2    1    2    0    0  0.00000000000E+00  0.00000000000E+00 -0.69177763038E+03  0.13856331929E+04  0.12005927933E+04 0.  0.
        1    1    3    3  502    0 -0.39414838417E+03 -0.39283798652E+03 -0.60571068089E+03  0.82253271143E+03  0.50400001928E-02 0. -1.
       -1    1    3    3    0  502  0.39414838417E+03  0.39283798652E+03 -0.86066949484E+02  0.56310048145E+03  0.50400001928E-02 0.  1.
</event>
<event>
 5   0  0.2580244E-03  0.1204817E+04  0.7818609E-02  0.9108651E-01
        2   -1    0    0  501    0  0.00000000000E+00  0.00000000000E+00  0.69823718689E+03  0.69823718690E+03  0.25500000920E-02 0. -1.
       -2   -1    0    0    0  501  0.00000000000E+00  0.00000000000E+00 -0.51973148035E+03  0.51973148036E+03  0.25500000920E-02 0.  1.
    10030    2    1    2    0    0  0.00000000000E+00  0.00000000000E+00  0.17850570654E+03  0.12179686673E+04  0.12048167442E+04 0.  0.
        1    1    3    3  502    0 -0.19875249728E+03 -0.23922668526E+03  0.61079532948E+03  0.68542169258E+03  0.50400001928E-02 0. -1.
       -1    1    3    3    0  502  0.19875249728E+03  0.23922668526E+03 -0.43228962294E+03  0.53254697468E+03  0.50400001928E-02 0.  1.
</event>
<event>
 5   0  0.1423024E-03  0.1196134E+04  0.7818609E-02  0.9116247E-01
        1   -1    0    0  501    0  0.00000000000E+00  0.00000000000E+00  0.46477208996E+03  0.46477208999E+03  0.50400001928E-02 0.  1.
       -1   -1    0    0    0  501  0.00000000000E+00  0.00000000000E+00 -0.76958992322E+03  0.76958992324E+03  0.50400001928E-02 0. -1.
    10030    2    1    2    0    0  0.00000000000E+00  0.00000000000E+00 -0.30481783327E+03  0.12343620132E+04  0.11961336331E+04 0.  0.
        2    1    3    3  502    0 -0.31064692693E+03  0.41099000694E+03  0.16105835751E+03  0.53977226081E+03  0.25500000920E-02 0.  1.
       -2    1    3    3    0  502  0.31064692693E+03 -0.41099000694E+03 -0.46587619078E+03  0.69458975241E+03  0.25500000920E-02 0. -1.
</event>
<event>
 5   0  0.1404833E-03  0.1203673E+04  0.7818609E-02  0.9109648E-01
       -1   -1    0    0    0  501  0.00000000000E+00  0.00000000000E+00  0.52248465804E+03  0.52248465807E+03  0.50400001928E-02 0. -1.
        1   -1    0    0  501    0  0.00000000000E+00  0.00000000000E+00 -0.69323932752E+03  0.69323932754E+03  0.50400001928E-02 0.  1.
    10030    2    1    2    0    0  0.00000000000E+00  0.00000000000E+00 -0.17075466948E+03  0.12157239856E+04  0.12036725684E+04 0.  0.
        1    1    3    3  502    0 -0.51258996666E+03  0.18211459692E+03 -0.34542892701E+03  0.64438757280E+03  0.50400001928E-02 0.  1.
       -1    1    3    3    0  502  0.51258996666E+03 -0.18211459692E+03  0.17467425754E+03  0.57133641281E+03  0.50400001928E-02 0. -1.
</event>
<event>
 5   0  0.1404833E-03  0.1079040E+04  0.7818609E-02  0.9225865E-01
       -1   -1    0    0    0  501  0.00000000000E+00  0.00000000000E+00  0.35700410838E+03  0.35700410841E+03  0.50400001928E-02 0. -1.
        1   -1    0    0  501    0  0.00000000000E+00  0.00000000000E+00 -0.81534580431E+03  0.81534580432E+03  0.50400001928E-02 0.  1.
    10030    2    1    2    0    0  0.00000000000E+00  0.00000000000E+00 -0.45834169593E+03  0.11723499127E+04  0.10790399472E+04 0.  0.
        1    1    3    3  502    0  0.68255483550E+02 -0.17649224856E+03  0.31976624665E+03  0.37156261566E+03  0.50400001928E-02 0. -1.
       -1    1    3    3    0  502 -0.68255483550E+02  0.17649224856E+03 -0.77810794258E+03  0.80078729708E+03  0.50400001928E-02 0.  1.
</event>
<event>
 5   0  0.1404833E-03  0.1199501E+04  0.7818609E-02  0.9113293E-01
       -1   -1    0    0    0  501  0.00000000000E+00  0.00000000000E+00  0.49932139236E+03  0.49932139239E+03  0.50400001928E-02 0.  1.
        1   -1    0    0  501    0  0.00000000000E+00  0.00000000000E+00 -0.72037943557E+03  0.72037943558E+03  0.50400001928E-02 0. -1.
    10030    2    1    2    0    0  0.00000000000E+00  0.00000000000E+00 -0.22105804320E+03  0.12197008280E+04  0.11995013344E+04 0.  0.
        1    1    3    3  502    0 -0.45026829140E+03  0.16598786850E+03 -0.47631922101E+03  0.67614606932E+03  0.50400001928E-02 0. -1.
       -1    1    3    3    0  502  0.45026829140E+03 -0.16598786850E+03  0.25526117781E+03  0.54355475865E+03  0.50400001928E-02 0.  1.
</event>
<event>
 5   0  0.1404833E-03  0.1186286E+04  0.7818609E-02  0.9124946E-01
       -1   -1    0    0    0  501  0.00000000000E+00  0.00000000000E+00  0.16902510136E+03  0.16902510143E+03  0.50400001928E-02 0.  1.
        1   -1    0    0  501    0  0.00000000000E+00  0.00000000000E+00 -0.20814575909E+04  0.20814575909E+04  0.50400001928E-02 0. -1.
    10030    2    1    2    0    0  0.00000000000E+00  0.00000000000E+00 -0.19124324896E+04  0.22504826924E+04  0.11862859358E+04 0.  0.
        1    1    3    3  502    0 -0.32613375578E+03  0.41551544073E+03 -0.14680851674E+04  0.15602212557E+04  0.50400001928E-02 0. -1.
       -1    1    3    3    0  502  0.32613375578E+03 -0.41551544073E+03 -0.44434732221E+03  0.69026143665E+03  0.50400001928E-02 0.  1.
</event>
<event>
 5   0  0.1423024E-03  0.1196735E+04  0.7818609E-02  0.9115719E-01
        1   -1    0    0  501    0  0.00000000000E+00  0.00000000000E+00  0.20064416152E+03  0.20064416158E+03  0.50400001928E-02 0.  1.
       -1   -1    0    0    0  501  0.00000000000E+00  0.00000000000E+00 -0.17844717030E+04  0.17844717030E+04  0.50400001928E-02 0. -1.
    10030    2    1    2    0    0  0.00000000000E+00  0.00000000000E+00 -0.15838275414E+04  0.19851158645E+04  0.11967352734E+04 0.  0.
        2    1    3    3  502    0 -0.85144175853E+02  0.53755546117E+03 -0.37945375214E+03  0.66347611452E+03  0.25500000920E-02 0. -1.
       -2    1    3    3    0  502  0.85144175853E+02 -0.53755546117E+03 -0.12043737893E+04  0.13216397500E+04  0.25500000920E-02 0.  1.
</event>
<event>
 5   0  0.1455076E-03  0.1211547E+04  0.7818609E-02  0.9102809E-01
       -1   -1    0    0    0  501  0.00000000000E+00  0.00000000000E+00  0.49840081784E+03  0.49840081787E+03  0.50400001928E-02 0. -1.
        1   -1    0    0  501    0  0.00000000000E+00  0.00000000000E+00 -0.73627852479E+03  0.73627852481E+03  0.50400001928E-02 0.  1.
    10030    2    1    2    0    0  0.00000000000E+00  0.00000000000E+00 -0.23787770695E+03  0.12346793427E+04  0.12115474715E+04 0.  0.
        4    1    3    3  502    0  0.39029587331E+03  0.12212504076E+03 -0.57436596874E+03  0.70508387675E+03  0.12699999809E+01 0.  1.
       -4    1    3    3    0  502 -0.39029587331E+03 -0.12212504076E+03  0.33648826180E+03  0.52959546593E+03  0.12699999809E+01 0. -1.
</event>
<event>
 5   0  0.2484507E-03  0.1202998E+04  0.7818609E-02  0.9110236E-01
       -2   -1    0    0    0  501  0.00000000000E+00  0.00000000000E+00  0.21894561050E+03  0.21894561051E+03  0.25500000920E-02 0. -1.
        2   -1    0    0  501    0  0.00000000000E+00  0.00000000000E+00 -0.16524700863E+04  0.16524700863E+04  0.25500000920E-02 0.  1.
    10030    2    1    2    0    0  0.00000000000E+00  0.00000000000E+00 -0.14335244758E+04  0.18714156968E+04  0.12029980414E+04 0.  0.
        2    1    3    3  502    0 -0.54394028001E+03 -0.13659308728E+03 -0.10549898392E+04  0.11947938151E+04  0.25500000920E-02 0.  1.
       -2    1    3    3    0  502  0.54394028001E+03  0.13659308728E+03 -0.37853463655E+03  0.67662188169E+03  0.25500000920E-02 0. -1.
</event>
<event>
 5   0  0.1423024E-03  0.1308601E+04  0.7818609E-02  0.9022772E-01
        1   -1    0    0  501    0  0.00000000000E+00  0.00000000000E+00  0.12935622786E+04  0.12935622786E+04  0.50400001928E-02 0.  1.
       -1   -1    0    0    0  501  0.00000000000E+00  0.00000000000E+00 -0.33095378540E+03  0.33095378544E+03  0.50400001928E-02 0. -1.
    10030    2    1    2    0    0  0.00000000000E+00  0.00000000000E+00  0.96260849322E+03  0.16245160641E+04  0.13086012881E+04 0.  0.
        2    1    3    3  502    0 -0.56048392410E+02 -0.50586728757E+02  0.12881363931E+04  0.12903471651E+04  0.25500000920E-02 0.  1.
       -2    1    3    3    0  502  0.56048392410E+02  0.50586728757E+02 -0.32552789986E+03  0.33416889893E+03  0.25500000920E-02 0. -1.
</event>
<event>
 5   0  0.1469851E-03  0.1184156E+04  0.7818609E-02  0.9126839E-01
       -1   -1    0    0    0  501  0.00000000000E+00  0.00000000000E+00  0.30988219624E+03  0.30988219628E+03  0.50400001928E-02 0. -1.
        1   -1    0    0  501    0  0.00000000000E+00  0.00000000000E+00 -0.11312565092E+04  0.11312565092E+04  0.50400001928E-02 0.  1.
    10030    2    1    2    0    0  0.00000000000E+00  0.00000000000E+00 -0.82137431296E+03  0.14411387055E+04  0.11841558202E+04 0.  0.
        5    1    3    3  502    0 -0.15779656389E+03  0.43346515045E+02  0.28179007177E+03  0.32589325014E+03  0.46999998093E+01 0. -1.
       -5    1    3    3    0  502  0.15779656389E+03 -0.43346515045E+02 -0.11031643847E+04  0.11152454553E+04  0.46999998093E+01 0.  1.
</event>
<event>
 5   0  0.2580244E-03  0.1288368E+04  0.7818609E-02  0.9038841E-01
        2   -1    0    0  501    0  0.00000000000E+00  0.00000000000E+00  0.16072011953E+04  0.16072011953E+04  0.25500000920E-02 0.  1.
       -2   -1    0    0    0  501  0.00000000000E+00  0.00000000000E+00 -0.25819602440E+03  0.25819602442E+03  0.25500000920E-02 0. -1.
    10030    2    1    2    0    0  0.00000000000E+00  0.00000000000E+00  0.13490051709E+04  0.18653972197E+04  0.12883678963E+04 0.  0.
        1    1    3    3  502    0  0.26120929020E+03 -0.13821748536E+03  0.15032629188E+04  0.15320358252E+04  0.50400001928E-02 0.  1.
       -1    1    3    3    0  502 -0.26120929020E+03  0.13821748536E+03 -0.15425774792E+03  0.33336139453E+03  0.50400001928E-02 0. -1.
</event>
<event>
 5   0  0.2580244E-03  0.1190171E+04  0.7818609E-02  0.9121504E-01
       -2   -1    0    0    0  501  0.00000000000E+00  0.00000000000E+00  0.19668658995E+03  0.19668658997E+03  0.25500000920E-02 0.  1.
        2   -1    0    0  501    0  0.00000000000E+00  0.00000000000E+00 -0.18004613082E+04  0.18004613082E+04  0.25500000920E-02 0. -1.
    10030    2    1    2    0    0  0.00000000000E+00  0.00000000000E+00 -0.16037747182E+04  0.19971478982E+04  0.11901707358E+04 0.  0.
        1    1    3    3  502    0  0.25165948436E+02  0.44870514747E+02 -0.17967227151E+04  0.17974590963E+04  0.50400001928E-02 0. -1.
       -1    1    3    3    0  502 -0.25165948436E+02 -0.44870514747E+02  0.19294799686E+03  0.19968880182E+03  0.50400001928E-02 0.  1.
</event>
<event>
 5   0  0.2484507E-03  0.1213995E+04  0.7818609E-02  0.9100694E-01
        2   -1    0    0  501    0  0.00000000000E+00  0.00000000000E+00  0.80975790645E+03  0.80975790645E+03  0.25500000920E-02 0.  1.
       -2   -1    0    0    0  501  0.00000000000E+00  0.00000000000E+00 -0.45500777552E+03  0.45500777552E+03  0.25500000920E-02 0. -1.
    10030    2    1    2    0    0  0.00000000000E+00  0.00000000000E+00  0.35475013093E+03  0.12647656820E+04  0.12139952944E+04 0.  0.
        2    1    3    3  502    0  0.38203765277E+03 -0.36294752751E+03  0.49124247108E+03  0.72041851813E+03  0.25500000920E-02 0.  1.
       -2    1    3    3    0  502 -0.38203765277E+03  0.36294752751E+03 -0.13649234015E+03  0.54434716385E+03  0.25500000920E-02 0. -1.
</event>
<event>
 5   0  0.2499890E-03  0.1213987E+04  0.7818609E-02  0.9100701E-01
        2   -1    0    0  501    0  0.00000000000E+00  0.00000000000E+00  0.12895362067E+04  0.12895362067E+04  0.25500000920E-02 0.  1.
       -2   -1    0    0    0  501  0.00000000000E+00  0.00000000000E+00 -0.28571585215E+03  0.28571585216E+03  0.25500000920E-02 0. -1.
    10030    2    1    2    0    0  0.00000000000E+00  0.00000000000E+00  0.10038203545E+04  0.15752520588E+04  0.12139867152E+04 0.  0.
        5    1    3    3  502    0  0.69905778425E+02 -0.16788902436E+03 -0.24950893327E+03  0.30878850389E+03  0.46999998093E+01 0. -1.
       -5    1    3    3    0  502 -0.69905778425E+02  0.16788902436E+03  0.12533292878E+04  0.12664635549E+04  0.46999998093E+01 0.  1.
</event>
<event>
 5   0  0.1455076E-03  0.1206169E+04  0.7818609E-02  0.9107474E-01
       -1   -1    0    0    0  501  0.00000000000E+00  0.00000000000E+00  0.23990925961E+03  0.23990925966E+03  0.50400001928E-02 0. -1.
        1   -1    0    0  501    0  0.00000000000E+00  0.00000000000E+00 -0.15160343357E+04  0.15160343358E+04  0.50400001928E-02 0.  1.
    10030    2    1    2    0    0  0.00000000000E+00  0.00000000000E+00 -0.12761250761E+04  0.17559435954E+04  0.12061686036E+04 0.  0.
        4    1    3    3  502    0  0.17318471507E+03  0.32948624843E+03 -0.13288481302E+04  0.13799974999E+04  0.12699999809E+01 0.  1.
       -4    1    3    3    0  502 -0.17318471507E+03 -0.32948624843E+03  0.52723054113E+02  0.37594609557E+03  0.12699999809E+01 0. -1.
</event>
<event>
 5   0  0.2580244E-03  0.1265218E+04  0.7818609E-02  0.9057612E-01
        2   -1    0    0  501    0  0.00000000000E+00  0.00000000000E+00  0.11288003898E+04  0.11288003898E+04  0.25500000920E-02 0.  1.
       -2   -1    0    0    0  501  0.00000000000E+00  0.00000000000E+00 -0.35453031310E+03  0.35453031311E+03  0.25500000920E-02 0. -1.
    10030    2    1    2    0    0  0.00000000000E+00  0.00000000000E+00  0.77427007669E+03  0.14833307029E+04  0.12652176977E+04 0.  0.
        1    1    3    3  502    0  0.59554855161E+02 -0.18930554686E+03  0.10913615371E+04  0.11092580293E+04  0.50400001928E-02 0.  1.
       -1    1    3    3    0  502 -0.59554855161E+02  0.18930554686E+03 -0.31709146042E+03  0.37407267361E+03  0.50400001928E-02 0. -1.
</event>
<event>
 5   0  0.1404833E-03  0.1204542E+04  0.7818609E-02  0.9108890E-01
        1   -1    0    0  501    0  0.00000000000E+00  0.00000000000E+00  0.12852820786E+04  0.12852820786E+04  0.50400001928E-02 0.  1.
       -1   -1    0    0    0  501  0.00000000000E+00  0.00000000000E+00 -0.28221866823E+03  0.28221866827E+03  0.50400001928E-02 0. -1.
    10030    2    1    2    0    0  0.00000000000E+00  0.00000000000E+00  0.10030634103E+04  0.15675007468E+04  0.12045423970E+04 0.  0.
        1    1    3    3  502    0  0.12976838171E+03 -0.35592232249E+02  0.12654702056E+04  0.12726042123E+04  0.50400001928E-02 0.  1.
       -1    1    3    3    0  502 -0.12976838171E+03  0.35592232249E+02 -0.26240679524E+03  0.29489653457E+03  0.50400001928E-02 0. -1.
</event>
<event>
 5   0  0.9678750E-04  0.1213241E+04  0.7818609E-02  0.9101345E-01
        4   -1    0    0  501    0  0.00000000000E+00  0.00000000000E+00  0.38250622440E+03  0.38250833273E+03  0.12699999809E+01 0. -1.
       -4   -1    0    0    0  501  0.00000000000E+00  0.00000000000E+00 -0.96203973912E+03  0.96204057740E+03  0.12699999809E+01 0.  1.
    10030    2    1    2    0    0  0.00000000000E+00  0.00000000000E+00 -0.57953351472E+03  0.13445489101E+04  0.12132405685E+04 0.  0.
        5    1    3    3  502    0  0.67979561129E+02 -0.60060909402E+03 -0.23311059680E+03  0.64785426208E+03  0.46999998093E+01 0. -1.
       -5    1    3    3    0  502 -0.67979561129E+02  0.60060909402E+03 -0.34642291792E+03  0.69669464805E+03  0.46999998093E+01 0.  1.
</event>
<event>
 5   0  0.1404833E-03  0.1195303E+04  0.7818609E-02  0.9116977E-01
        1   -1    0    0  501    0  0.00000000000E+00  0.00000000000E+00  0.38841398898E+03  0.38841398901E+03  0.50400001928E-02 0.  1.
       -1   -1    0    0    0  501  0.00000000000E+00  0.00000000000E+00 -0.91960514676E+03  0.91960514677E+03  0.50400001928E-02 0. -1.
    10030    2    1    2    0    0  0.00000000000E+00  0.00000000000E+00 -0.53119115778E+03  0.13080191358E+04  0.11953033144E+04 0.  0.
        1    1    3    3  502    0  0.32648711133E+03 -0.42508030651E+03  0.23722659503E+02  0.53651641675E+03  0.50400001928E-02 0.  1.
       -1    1    3    3    0  502 -0.32648711133E+03  0.42508030651E+03 -0.55491381728E+03  0.77150271904E+03  0.50400001928E-02 0. -1.
</event>
<event>
 5   0  0.1469851E-03  0.1247110E+04  0.7818609E-02  0.9072592E-01
        1   -1    0    0  501    0  0.00000000000E+00  0.00000000000E+00  0.19194651950E+04  0.19194651950E+04  0.50400001928E-02 0.  1.
       -1   -1    0    0    0  501  0.00000000000E+00  0.00000000000E+00 -0.20256729629E+03  0.20256729635E+03  0.50400001928E-02 0. -1.
    10030    2    1    2    0    0  0.00000000000E+00  0.00000000000E+00  0.17168978987E+04  0.21220324913E+04  0.12471100592E+04 0.  0.
        5    1    3    3  502    0  0.24108590116E+03  0.74866412212E+02  0.18285938908E+04  0.18459428753E+04  0.46999998093E+01 0.  1.
       -5    1    3    3    0  502 -0.24108590116E+03 -0.74866412212E+02 -0.11169599214E+03  0.27608961601E+03  0.46999998093E+01 0. -1.
</event>
<event>
 5   0  0.1423024E-03  0.1181470E+04  0.7818609E-02  0.9129232E-01
        1   -1    0    0  501    0  0.00000000000E+00  0.00000000000E+00  0.35534855997E+03  0.35534856000E+03  0.50400001928E-02 0.  1.
       -1   -1    0    0    0  501  0.00000000000E+00  0.00000000000E+00 -0.98204360140E+03  0.98204360142E+03  0.50400001928E-02 0. -1.
    10030    2    1    2    0    0  0.00000000000E+00  0.00000000000E+00 -0.62669504144E+03  0.13373921614E+04  0.11814698974E+04 0.  0.
        2    1    3    3  502    0 -0.35704278578E+03 -0.27011781228E+02  0.21850952982E+03  0.41947062094E+03  0.25500000920E-02 0.  1.
       -2    1    3    3    0  502  0.35704278578E+03  0.27011781228E+02 -0.84520457126E+03  0.91792154048E+03  0.25500000920E-02 0. -1.
</event>
<event>
 5   0  0.2580244E-03  0.1183858E+04  0.7818609E-02  0.9127104E-01
       -2   -1    0    0    0  501  0.00000000000E+00  0.00000000000E+00  0.33254751256E+03  0.33254751257E+03  0.25500000920E-02 0.  1.
        2   -1    0    0  501    0  0.00000000000E+00  0.00000000000E+00 -0.10536243271E+04  0.10536243271E+04  0.25500000920E-02 0. -1.
    10030    2    1    2    0    0  0.00000000000E+00  0.00000000000E+00 -0.72107681451E+03  0.13861718397E+04  0.11838583516E+04 0.  0.
        1    1    3    3  502    0 -0.11723082111E+03  0.18426821885E+03  0.28364694801E+03  0.35798524137E+03  0.50400001928E-02 0.  1.
       -1    1    3    3    0  502  0.11723082111E+03 -0.18426821885E+03 -0.10047237625E+04  0.10281865983E+04  0.50400001928E-02 0. -1.
</event>
<event>
 5   0  0.2517023E-03  0.1150895E+04  0.7818609E-02  0.9156958E-01
       -2   -1    0    0    0  501  0.00000000000E+00  0.00000000000E+00  0.13836983913E+03  0.13836983915E+03  0.25500000920E-02 0. -1.
        2   -1    0    0  501    0  0.00000000000E+00  0.00000000000E+00 -0.23931496325E+04  0.23931496325E+04  0.25500000920E-02 0.  1.
    10030    2    1    2    0    0  0.00000000000E+00  0.00000000000E+00 -0.22547797933E+04  0.25315194716E+04  0.11508948339E+04 0.  0.
        3    1    3    3  502    0 -0.51543664581E+03 -0.20041208902E+03 -0.77752208508E+03  0.95413863996E+03  0.10100000352E+00 0. -1.
       -3    1    3    3    0  502  0.51543664581E+03  0.20041208902E+03 -0.14772577082E+04  0.15773808316E+04  0.10100000352E+00 0.  1.
</event>
<event>
 5   0  0.1404833E-03  0.1170835E+04  0.7818609E-02  0.9138775E-01
       -1   -1    0    0    0  501  0.00000000000E+00  0.00000000000E+00  0.31580177714E+03  0.31580177718E+03  0.50400001928E-02 0.  1.
        1   -1    0    0  501    0  0.00000000000E+00  0.00000000000E+00 -0.10852177431E+04  0.10852177432E+04  0.50400001928E-02 0. -1.
    10030    2    1    2    0    0  0.00000000000E+00  0.00000000000E+00 -0.76941596601E+03  0.14010195203E+04  0.11708350728E+04 0.  0.
        1    1    3    3  502    0 -0.53524926552E+03 -0.17853702886E+02 -0.10178603130E+03  0.54513386167E+03  0.50400001928E-02 0.  1.
       -1    1    3    3    0  502  0.53524926552E+03  0.17853702886E+02 -0.66762993472E+03  0.85588565866E+03  0.50400001928E-02 0. -1.
</event>
<event>
 5   0  0.1423024E-03  0.1196572E+04  0.7818609E-02  0.9115863E-01
       -1   -1    0    0    0  501  0.00000000000E+00  0.00000000000E+00  0.31666978333E+03  0.31666978337E+03  0.50400001928E-02 0.  1.
        1   -1    0    0  501    0  0.00000000000E+00  0.00000000000E+00 -0.11303442686E+04  0.11303442686E+04  0.50400001928E-02 0. -1.
    10030    2    1    2    0    0  0.00000000000E+00  0.00000000000E+00 -0.81367448530E+03  0.14470140520E+04  0.11965715602E+04 0.  0.
        2    1    3    3  502    0  0.39787683624E+03 -0.44680641816E+03 -0.40444217578E+03  0.72216024931E+03  0.25500000920E-02 0. -1.
       -2    1    3    3    0  502 -0.39787683624E+03  0.44680641816E+03 -0.40923230951E+03  0.72485380270E+03  0.25500000920E-02 0.  1.
</event>
<event>
 5   0  0.9678750E-04  0.1281766E+04  0.7818609E-02  0.9044151E-01
       -3   -1    0    0    0  501  0.00000000000E+00  0.00000000000E+00  0.35360364564E+03  0.35360366007E+03  0.10100000352E+00 0. -1.
        3   -1    0    0  501    0  0.00000000000E+00  0.00000000000E+00 -0.11615579753E+04  0.11615579797E+04  0.10100000352E+00 0.  1.
    10030    2    1    2    0    0  0.00000000000E+00  0.00000000000E+00 -0.80795432965E+03  0.15151616397E+04  0.12817662017E+04 0.  0.
        1    1    3    3  502    0 -0.44456124779E+03 -0.13613627197E+03 -0.92538875562E+03  0.10356216185E+04  0.50400001928E-02 0.  1.
       -1    1    3    3    0  502  0.44456124779E+03  0.13613627197E+03  0.11743442598E+03  0.47954002128E+03  0.50400001928E-02 0. -1.
</event>
<event>
 5   0  0.1455076E-03  0.1214284E+04  0.7818609E-02  0.9100445E-01
       -1   -1    0    0    0  501  0.00000000000E+00  0.00000000000E+00  0.28647782194E+03  0.28647782198E+03  0.50400001928E-02 0. -1.
        1   -1    0    0  501    0  0.00000000000E+00  0.00000000000E+00 -0.12867365451E+04  0.12867365451E+04  0.50400001928E-02 0.  1.
    10030    2    1    2    0    0  0.00000000000E+00  0.00000000000E+00 -0.10002587232E+04  0.15732143671E+04  0.12142841231E+04 0.  0.
        4    1    3    3  502    0  0.57697726138E+03  0.14582009631E+03 -0.65588929168E+03  0.88564024100E+03  0.12699999809E+01 0.  1.
       -4    1    3    3    0  502 -0.57697726138E+03 -0.14582009631E+03 -0.34436943148E+03  0.68757412609E+03  0.12699999809E+01 0. -1.
</event>
<event>
 5   0  0.1423024E-03  0.1173540E+04  0.7818609E-02  0.9136337E-01
       -1   -1    0    0    0  501  0.00000000000E+00  0.00000000000E+00  0.35030473977E+03  0.35030473981E+03  0.50400001928E-02 0. -1.
        1   -1    0    0  501    0  0.00000000000E+00  0.00000000000E+00 -0.98285644297E+03  0.98285644299E+03  0.50400001928E-02 0.  1.
    10030    2    1    2    0    0  0.00000000000E+00  0.00000000000E+00 -0.63255170320E+03  0.13331611828E+04  0.11735404050E+04 0.  0.
        2    1    3    3  502    0 -0.18905800483E+03  0.21427750752E+03 -0.89846791498E+03  0.94281619294E+03  0.25500000920E-02 0.  1.
       -2    1    3    3    0  502  0.18905800483E+03 -0.21427750752E+03  0.26591621178E+03  0.39034498986E+03  0.25500000920E-02 0. -1.
</event>
<event>
 5   0  0.1403154E-03  0.1204141E+04  0.7818609E-02  0.9109239E-01
        1   -1    0    0  501    0  0.00000000000E+00  0.00000000000E+00  0.69163080085E+03  0.69163080087E+03  0.50400001928E-02 0.  1.
       -1   -1    0    0    0  501  0.00000000000E+00  0.00000000000E+00 -0.52410774189E+03  0.52410774192E+03  0.50400001928E-02 0. -1.
    10030    2    1    2    0    0  0.00000000000E+00  0.00000000000E+00  0.16752305896E+03  0.12157385428E+04  0.12041412829E+04 0.  0.
        3    1    3    3  502    0 -0.35013067270E+03  0.48835439309E+03  0.12164013806E+03  0.61308876568E+03  0.10100000352E+00 0.  1.
       -3    1    3    3    0  502  0.35013067270E+03 -0.48835439309E+03  0.45882920904E+02  0.60264977711E+03  0.10100000352E+00 0. -1.
</event>
<event>
 5   0  0.2580244E-03  0.1220673E+04  0.7818609E-02  0.9094951E-01
        2   -1    0    0  501    0  0.00000000000E+00  0.00000000000E+00  0.12691611749E+04  0.12691611749E+04  0.25500000920E-02 0. -1.
       -2   -1    0    0    0  501  0.00000000000E+00  0.00000000000E+00 -0.29350935570E+03  0.29350935571E+03  0.25500000920E-02 0.  1.
    10030    2    1    2    0    0  0.00000000000E+00  0.00000000000E+00  0.97565181923E+03  0.15626705306E+04  0.12206730582E+04 0.  0.
        1    1    3    3  502    0  0.94561872886E+02  0.54374725519E+03  0.15422484758E+03  0.57305176814E+03  0.50400001928E-02 0.  1.
       -1    1    3    3    0  502 -0.94561872886E+02 -0.54374725519E+03  0.82142697165E+03  0.98961876251E+03  0.50400001928E-02 0. -1.
</event>
<event>
 5   0  0.1469851E-03  0.1207347E+04  0.7818609E-02  0.9106450E-01
       -1   -1    0    0    0  501  0.00000000000E+00  0.00000000000E+00  0.66873285973E+03  0.66873285975E+03  0.50400001928E-02 0. -1.
        1   -1    0    0  501    0  0.00000000000E+00  0.00000000000E+00 -0.54494317814E+03  0.54494317816E+03  0.50400001928E-02 0.  1.
    10030    2    1    2    0    0  0.00000000000E+00  0.00000000000E+00  0.12378968159E+03  0.12136760379E+04  0.12073465284E+04 0.  0.
        5    1    3    3  502    0 -0.52538272534E+03 -0.43955909671E+02  0.35744329752E+03  0.63698267717E+03  0.46999998093E+01 0. -1.
       -5    1    3    3    0  502  0.52538272534E+03  0.43955909671E+02 -0.23365361593E+03  0.57669336073E+03  0.46999998093E+01 0.  1.
</event>
<event>
 5   0  0.2484507E-03  0.1204620E+04  0.7818609E-02  0.9108822E-01
       -2   -1    0    0    0  501  0.00000000000E+00  0.00000000000E+00  0.53487047111E+03  0.53487047112E+03  0.25500000920E-02 0. -1.
        2   -1    0    0  501    0  0.00000000000E+00  0.00000000000E+00 -0.67825275283E+03  0.67825275283E+03  0.25500000920E-02 0.  1.
    10030    2    1    2    0    0  0.00000000000E+00  0.00000000000E+00 -0.14338228172E+03  0.12131232240E+04  0.12046200554E+04 0.  0.
        2    1    3    3  502    0  0.23937513280E+03  0.48504724686E+03 -0.33852577632E+03  0.63809951193E+03  0.25500000920E-02 0.  1.
       -2    1    3    3    0  502 -0.23937513280E+03 -0.48504724686E+03  0.19514349460E+03  0.57502371202E+03  0.25500000920E-02 0. -1.
</event>
<event>
 5   0  0.1423024E-03  0.1205562E+04  0.7818609E-02  0.9108002E-01
        1   -1    0    0  501    0  0.00000000000E+00  0.00000000000E+00  0.74852335205E+03  0.74852335207E+03  0.50400001928E-02 0.  1.
       -1   -1    0    0    0  501  0.00000000000E+00  0.00000000000E+00 -0.48541568755E+03  0.48541568758E+03  0.50400001928E-02 0. -1.
    10030    2    1    2    0    0  0.00000000000E+00  0.00000000000E+00  0.26310766450E+03  0.12339390396E+04  0.12055620724E+04 0.  0.
        2    1    3    3  502    0 -0.39134257048E+03  0.21692613448E+03  0.54496581071E+03  0.70511962825E+03  0.25500000920E-02 0.  1.
       -2    1    3    3    0  502  0.39134257048E+03 -0.21692613448E+03 -0.28185814621E+03  0.52881941140E+03  0.25500000920E-02 0. -1.
</event>
<event>
 5   0  0.2517023E-03  0.1196395E+04  0.7818609E-02  0.9116018E-01
       -2   -1    0    0    0  501  0.00000000000E+00  0.00000000000E+00  0.29062038412E+03  0.29062038413E+03  0.25500000920E-02 0. -1.
        2   -1    0    0  501    0  0.00000000000E+00  0.00000000000E+00 -0.12312972032E+04  0.12312972032E+04  0.25500000920E-02 0.  1.
    10030    2    1    2    0    0  0.00000000000E+00  0.00000000000E+00 -0.94067681910E+03  0.15219175874E+04  0.11963946944E+04 0.  0.
        3    1    3    3  502    0 -0.45669837091E+03  0.37702753871E+03 -0.57765373696E+03  0.82728895614E+03  0.10100000352E+00 0. -1.
       -3    1    3    3    0  502  0.45669837091E+03 -0.37702753871E+03 -0.36302308214E+03  0.69462863121E+03  0.10100000352E+00 0.  1.
</event>
<event>
 5   0  0.1404833E-03  0.1074281E+04  0.7818609E-02  0.9230628E-01
        1   -1    0    0  501    0  0.00000000000E+00  0.00000000000E+00  0.81528471162E+03  0.81528471164E+03  0.50400001928E-02 0. -1.
       -1   -1    0    0    0  501  0.00000000000E+00  0.00000000000E+00 -0.35388854612E+03  0.35388854615E+03  0.50400001928E-02 0.  1.
    10030    2    1    2    0    0  0.00000000000E+00  0.00000000000E+00  0.46139616550E+03  0.11691732578E+04  0.10742810085E+04 0.  0.
        1    1    3    3  502    0 -0.73624596163E+01  0.50030915555E+03  0.44328916248E+03  0.66848241453E+03  0.50400001928E-02 0.  1.
       -1    1    3    3    0  502  0.73624596163E+01 -0.50030915555E+03  0.18107003017E+02  0.50069084326E+03  0.50400001928E-02 0. -1.
</event>
<event>
 5   0  0.2517023E-03  0.1194229E+04  0.7818609E-02  0.9117923E-01
       -2   -1    0    0    0  501  0.00000000000E+00  0.00000000000E+00  0.61882887592E+03  0.61882887592E+03  0.25500000920E-02 0. -1.
        2   -1    0    0  501    0  0.00000000000E+00  0.00000000000E+00 -0.57616182456E+03  0.57616182457E+03  0.25500000920E-02 0.  1.
    10030    2    1    2    0    0  0.00000000000E+00  0.00000000000E+00  0.42667051352E+02  0.11949907005E+04  0.11942287457E+04 0.  0.
        3    1    3    3  502    0  0.13660938862E+03  0.52300530639E+03 -0.23249915116E+03  0.58843227398E+03  0.10100000352E+00 0.  1.
       -3    1    3    3    0  502 -0.13660938862E+03 -0.52300530639E+03  0.27516620251E+03  0.60655842651E+03  0.10100000352E+00 0. -1.
</event>
<event>
 5   0  0.1403154E-03  0.1200629E+04  0.7818609E-02  0.9112306E-01
       -1   -1    0    0    0  501  0.00000000000E+00  0.00000000000E+00  0.29143701883E+03  0.29143701888E+03  0.50400001928E-02 0.  1.
        1   -1    0    0  501    0  0.00000000000E+00  0.00000000000E+00 -0.12365534503E+04  0.12365534503E+04  0.50400001928E-02 0. -1.
    10030    2    1    2    0    0  0.00000000000E+00  0.00000000000E+00 -0.94511643147E+03  0.15279904692E+04  0.12006289206E+04 0.  0.
        3    1    3    3  502    0 -0.58673710525E+02 -0.34576119320E+02  0.28650471962E+03  0.29448782131E+03  0.10100000352E+00 0.  1.
       -3    1    3    3    0  502  0.58673710525E+02  0.34576119320E+02 -0.12316211511E+04  0.12335026479E+04  0.10100000352E+00 0. -1.
</event>
<event>
 5   0  0.1469851E-03  0.1188794E+04  0.7818609E-02  0.9122722E-01
        1   -1    0    0  501    0  0.00000000000E+00  0.00000000000E+00  0.47143282554E+03  0.47143282557E+03  0.50400001928E-02 0. -1.
       -1   -1    0    0    0  501  0.00000000000E+00  0.00000000000E+00 -0.74943384066E+03  0.74943384067E+03  0.50400001928E-02 0.  1.
    10030    2    1    2    0    0  0.00000000000E+00  0.00000000000E+00 -0.27800101511E+03  0.12208666662E+04  0.11887938645E+04 0.  0.
        5    1    3    3  502    0 -0.24995316595E+03 -0.38637599177E+03 -0.52534491322E+03  0.69840701602E+03  0.46999998093E+01 0.  1.
       -5    1    3    3    0  502  0.24995316595E+03  0.38637599177E+03  0.24734389811E+03  0.52245965022E+03  0.46999998093E+01 0. -1.
</event>
<event>
 5   0  0.1403154E-03  0.1190443E+04  0.7818609E-02  0.9121263E-01
       -1   -1    0    0    0  501  0.00000000000E+00  0.00000000000E+00  0.33236560793E+03  0.33236560797E+03  0.50400001928E-02 0. -1.
        1   -1    0    0  501    0  0.00000000000E+00  0.00000000000E+00 -0.10659598889E+04  0.10659598890E+04  0.50400001928E-02 0.  1.
    10030    2    1    2    0    0  0.00000000000E+00  0.00000000000E+00 -0.73359428102E+03  0.13983254969E+04  0.11904426178E+04 0.  0.
        3    1    3    3  502    0  0.23601595067E+03  0.44764173992E+03  0.12974219476E+01  0.50605172640E+03  0.10100000352E+00 0. -1.
       -3    1    3    3    0  502 -0.23601595067E+03 -0.44764173992E+03 -0.73489170296E+03  0.89227377053E+03  0.10100000352E+00 0.  1.
</event>
<event>
 5   0  0.2499890E-03  0.1221728E+04  0.7818609E-02  0.9094048E-01
        2   -1    0    0  501    0  0.00000000000E+00  0.00000000000E+00  0.47960095348E+03  0.47960095349E+03  0.25500000920E-02 0.  1.
       -2   -1    0    0    0  501  0.00000000000E+00  0.00000000000E+00 -0.77805285052E+03  0.77805285052E+03  0.25500000920E-02 0. -1.
    10030    2    1    2    0    0  0.00000000000E+00  0.00000000000E+00 -0.29845189704E+03  0.12576538040E+04  0.12217281023E+04 0.  0.
        5    1    3    3  502    0 -0.14686117699E+03  0.54260414423E+03  0.96854404780E+02  0.57042995045E+03  0.46999998093E+01 0.  1.
       -5    1    3    3    0  502  0.14686117699E+03 -0.54260414423E+03 -0.39530630182E+03  0.68722385356E+03  0.46999998093E+01 0. -1.
</event>
<event>
 5   0  0.2580244E-03  0.1191662E+04  0.7818609E-02  0.9120186E-01
        2   -1    0    0  501    0  0.00000000000E+00  0.00000000000E+00  0.90020565680E+03  0.90020565680E+03  0.25500000920E-02 0.  1.
       -2   -1    0    0    0  501  0.00000000000E+00  0.00000000000E+00 -0.39437055769E+03  0.39437055770E+03  0.25500000920E-02 0. -1.
    10030    2    1    2    0    0  0.00000000000E+00  0.00000000000E+00  0.50583509911E+03  0.12945762145E+04  0.11916620442E+04 0.  0.
        1    1    3    3  502    0  0.38535699529E+03  0.44668712947E+03  0.34371297831E+03  0.68276497929E+03  0.50400001928E-02 0.  1.
       -1    1    3    3    0  502 -0.38535699529E+03 -0.44668712947E+03  0.16212212080E+03  0.61181123521E+03  0.50400001928E-02 0. -1.
</event>
<event>
 5   0  0.2580244E-03  0.1194784E+04  0.7818609E-02  0.9117434E-01
        2   -1    0    0  501    0  0.00000000000E+00  0.00000000000E+00  0.98879266053E+03  0.98879266053E+03  0.25500000920E-02 0. -1.
       -2   -1    0    0    0  501  0.00000000000E+00  0.00000000000E+00 -0.36092223338E+03  0.36092223339E+03  0.25500000920E-02 0.  1.
    10030    2    1    2    0    0  0.00000000000E+00  0.00000000000E+00  0.62787042715E+03  0.13497148939E+04  0.11947840900E+04 0.  0.
        1    1    3    3  502    0 -0.32935317185E+02  0.58392245523E+03  0.45149152464E+03  0.73884691627E+03  0.50400001928E-02 0. -1.
       -1    1    3    3    0  502  0.32935317185E+02 -0.58392245523E+03  0.17637890251E+03  0.61086797765E+03  0.50400001928E-02 0.  1.
</event>
<event>
 5   0  0.1423024E-03  0.1187239E+04  0.7818609E-02  0.9124100E-01
        1   -1    0    0  501    0  0.00000000000E+00  0.00000000000E+00  0.52816508601E+03  0.52816508603E+03  0.50400001928E-02 0.  1.
       -1   -1    0    0    0  501  0.00000000000E+00  0.00000000000E+00 -0.66718580473E+03  0.66718580475E+03  0.50400001928E-02 0. -1.
    10030    2    1    2    0    0  0.00000000000E+00  0.00000000000E+00 -0.13902071872E+03  0.11953508908E+04  0.11872392311E+04 0.  0.
        2    1    3    3  502    0  0.16930739774E+00 -0.41654481484E+03  0.35631503046E+03  0.54815145022E+03  0.25500000920E-02 0.  1.
       -2    1    3    3    0  502 -0.16930739774E+00  0.41654481484E+03 -0.49533574919E+03  0.64719944056E+03  0.25500000920E-02 0. -1.
</event>
<event>
 5   0  0.9678750E-04  0.1201069E+04  0.7818609E-02  0.9111922E-01
       -4   -1    0    0    0  501  0.00000000000E+00  0.00000000000E+00  0.53951549159E+03  0.53951698635E+03  0.12699999809E+01 0. -1.
        4   -1    0    0  501    0  0.00000000000E+00  0.00000000000E+00 -0.66845151967E+03  0.66845272611E+03  0.12699999809E+01 0.  1.
    10030    2    1    2    0    0  0.00000000000E+00  0.00000000000E+00 -0.12893602808E+03  0.12079697125E+04  0.12010688269E+04 0.  0.
        4    1    3    3  502    0 -0.60208350709E+02 -0.23948227023E+03  0.48609220947E+03  0.54521926989E+03  0.12699999809E+01 0. -1.
       -4    1    3    3    0  502  0.60208350709E+02  0.23948227023E+03 -0.61502823755E+03  0.66275044258E+03  0.12699999809E+01 0.  1.
</event>
<event>
 5   0  0.2484507E-03  0.1177561E+04  0.7818609E-02  0.9132727E-01
       -2   -1    0    0    0  501  0.00000000000E+00  0.00000000000E+00  0.27462512239E+03  0.27462512240E+03  0.25500000920E-02 0. -1.
        2   -1    0    0  501    0  0.00000000000E+00  0.00000000000E+00 -0.12623113708E+04  0.12623113708E+04  0.25500000920E-02 0.  1.
    10030    2    1    2    0    0  0.00000000000E+00  0.00000000000E+00 -0.98768624837E+03  0.15369364932E+04  0.11775608939E+04 0.  0.
        2    1    3    3  502    0 -0.12564106467E+02 -0.21473335582E+02  0.27393877121E+03  0.27506619438E+03  0.25500000920E-02 0. -1.
       -2    1    3    3    0  502  0.12564106467E+02  0.21473335582E+02 -0.12616250196E+04  0.12618702988E+04  0.25500000920E-02 0.  1.
</event>
<event>
 5   0  0.1469851E-03  0.1174365E+04  0.7818609E-02  0.9135596E-01
       -1   -1    0    0    0  501  0.00000000000E+00  0.00000000000E+00  0.30267985423E+03  0.30267985427E+03  0.50400001928E-02 0.  1.
        1   -1    0    0  501    0  0.00000000000E+00  0.00000000000E+00 -0.11391019131E+04  0.11391019131E+04  0.50400001928E-02 0. -1.
    10030    2    1    2    0    0  0.00000000000E+00  0.00000000000E+00 -0.83642205886E+03  0.14417817674E+04  0.11743648514E+04 0.  0.
        5    1    3    3  502    0  0.14566063768E+03 -0.42734810417E+02 -0.11145713992E+04  0.11248710056E+04  0.46999998093E+01 0. -1.
       -5    1    3    3    0  502 -0.14566063768E+03  0.42734810417E+02  0.27814934033E+03  0.31691076176E+03  0.46999998093E+01 0.  1.
</event>
<event>
 5   0  0.1455076E-03  0.1343985E+04  0.7818609E-02  0.8995394E-01
       -1   -1    0    0    0  501  0.00000000000E+00  0.00000000000E+00  0.53713990715E+03  0.53713990718E+03  0.50400001928E-02 0.  1.
        1   -1    0    0  501    0  0.00000000000E+00  0.00000000000E+00 -0.84070073886E+03  0.84070073888E+03  0.50400001928E-02 0. -1.
    10030    2    1    2    0    0  0.00000000000E+00  0.00000000000E+00 -0.30356083171E+03  0.13778406461E+04  0.13439849952E+04 0.  0.
        4    1    3    3  502    0 -0.14499916552E+03 -0.26252567902E+03 -0.76828382861E+03  0.82474610902E+03  0.12699999809E+01 0. -1.
       -4    1    3    3    0  502  0.14499916552E+03  0.26252567902E+03  0.46472299690E+03  0.55309453703E+03  0.12699999809E+01 0.  1.
</event>
<event>
 5   0  0.1403154E-03  0.1111241E+04  0.7818609E-02  0.9194304E-01
       -1   -1    0    0    0  501  0.00000000000E+00  0.00000000000E+00  0.70484225791E+03  0.70484225793E+03  0.50400001928E-02 0.  1.
        1   -1    0    0  501    0  0.00000000000E+00  0.00000000000E+00 -0.43799069207E+03  0.43799069209E+03  0.50400001928E-02 0. -1.
    10030    2    1    2    0    0  0.00000000000E+00  0.00000000000E+00  0.26685156584E+03  0.11428329500E+04  0.11112413750E+04 0.  0.
        3    1    3    3  502    0 -0.44752136783E+03  0.27617386384E+03  0.31787608154E+03  0.61448563136E+03  0.10100000352E+00 0.  1.
       -3    1    3    3    0  502  0.44752136783E+03 -0.27617386384E+03 -0.51024515694E+02  0.52834731866E+03  0.10100000352E+00 0. -1.
</event>
<event>
 5   0  0.1403154E-03  0.1217483E+04  0.7818609E-02  0.9097690E-01
       -1   -1    0    0    0  501  0.00000000000E+00  0.00000000000E+00  0.28752808668E+03  0.28752808672E+03  0.50400001928E-02 0. -1.
        1   -1    0    0  501    0  0.00000000000E+00  0.00000000000E+00 -0.12888002794E+04  0.12888002794E+04  0.50400001928E-02 0.  1.
    10030    2    1    2    0    0  0.00000000000E+00  0.00000000000E+00 -0.10012721927E+04  0.15763283661E+04  0.12174831062E+04 0.  0.
        3    1    3    3  502    0 -0.30146817091E+02 -0.18576436283E+03  0.24891757633E+03  0.31205319913E+03  0.10100000352E+00 0. -1.
       -3    1    3    3    0  502  0.30146817091E+02  0.18576436283E+03 -0.12501897691E+04  0.12642751670E+04  0.10100000352E+00 0.  1.
</event>
<event>
 5   0  0.2484507E-03  0.1203083E+04  0.7818609E-02  0.9110162E-01
        2   -1    0    0  501    0  0.00000000000E+00  0.00000000000E+00  0.14979646285E+04  0.14979646285E+04  0.25500000920E-02 0.  1.
       -2   -1    0    0    0  501  0.00000000000E+00  0.00000000000E+00 -0.24156272690E+03  0.24156272691E+03  0.25500000920E-02 0. -1.
    10030    2    1    2    0    0  0.00000000000E+00  0.00000000000E+00  0.12564019016E+04  0.17395273554E+04  0.12030834060E+04 0.  0.
        2    1    3    3  502    0  0.35488936147E+03 -0.47272170822E+03  0.78946898888E+03  0.98624213898E+03  0.25500000920E-02 0. -1.
       -2    1    3    3    0  502 -0.35488936147E+03  0.47272170822E+03  0.46693291274E+03  0.75328521644E+03  0.25500000920E-02 0.  1.
</event>
<event>
 5   0  0.2484507E-03  0.1198554E+04  0.7818609E-02  0.9114123E-01
       -2   -1    0    0    0  501  0.00000000000E+00  0.00000000000E+00  0.15139522419E+04  0.15139522419E+04  0.25500000920E-02 0.  1.
        2   -1    0    0  501    0  0.00000000000E+00  0.00000000000E+00 -0.23721542154E+03  0.23721542156E+03  0.25500000920E-02 0. -1.
    10030    2    1    2    0    0  0.00000000000E+00  0.00000000000E+00  0.12767368203E+04  0.17511676634E+04  0.11985538274E+04 0.  0.
        2    1    3    3  502    0  0.37546754361E+03 -0.37883609314E+03  0.10375370917E+04  0.11666087084E+04  0.25500000920E-02 0.  1.
       -2    1    3    3    0  502 -0.37546754361E+03  0.37883609314E+03  0.23919972862E+03  0.58455895506E+03  0.25500000920E-02 0. -1.
</event>
<event>
 5   0  0.1455076E-03  0.1182365E+04  0.7818609E-02  0.9128434E-01
       -1   -1    0    0    0  501  0.00000000000E+00  0.00000000000E+00  0.39691405871E+03  0.39691405874E+03  0.50400001928E-02 0.  1.
        1   -1    0    0  501    0  0.00000000000E+00  0.00000000000E+00 -0.88053500850E+03  0.88053500852E+03  0.50400001928E-02 0. -1.
    10030    2    1    2    0    0  0.00000000000E+00  0.00000000000E+00 -0.48362094979E+03  0.12774490673E+04  0.11823649590E+04 0.  0.
        4    1    3    3  502    0 -0.30538934440E+03  0.50605168393E+03 -0.22883857905E+03  0.63381358982E+03  0.12699999809E+01 0.  1.
       -4    1    3    3    0  502  0.30538934440E+03 -0.50605168393E+03 -0.25478237074E+03  0.64363547744E+03  0.12699999809E+01 0. -1.
</event>
<event>
 5   0  0.1404833E-03  0.1174299E+04  0.7818609E-02  0.9135655E-01
       -1   -1    0    0    0  501  0.00000000000E+00  0.00000000000E+00  0.25865209343E+03  0.25865209348E+03  0.50400001928E-02 0. -1.
        1   -1    0    0  501    0  0.00000000000E+00  0.00000000000E+00 -0.13328500781E+04  0.13328500782E+04  0.50400001928E-02 0.  1.
    10030    2    1    2    0    0  0.00000000000E+00  0.00000000000E+00 -0.10741979847E+04  0.15915021716E+04  0.11742988768E+04 0.  0.
        1    1    3    3  502    0  0.13692087366E+03 -0.13696507894E+03  0.21411876608E+03  0.28871024316E+03  0.50400001928E-02 0. -1.
       -1    1    3    3    0  502 -0.13692087366E+03  0.13696507894E+03 -0.12883167508E+04  0.13027919285E+04  0.50400001928E-02 0.  1.
</event>
<event>
 5   0  0.1404833E-03  0.1208598E+04  0.7818609E-02  0.9105364E-01
       -1   -1    0    0    0  501  0.00000000000E+00  0.00000000000E+00  0.11095411818E+04  0.11095411818E+04  0.50400001928E-02 0.  1.
        1   -1    0    0  501    0  0.00000000000E+00  0.00000000000E+00 -0.32912468697E+03  0.32912468701E+03  0.50400001928E-02 0. -1.
    10030    2    1    2    0    0  0.00000000000E+00  0.00000000000E+00  0.78041649482E+03  0.14386658688E+04  0.12085981866E+04 0.  0.
        1    1    3    3  502    0  0.37635606652E+03 -0.46941726080E+03  0.45734429692E+03  0.75575145351E+03  0.50400001928E-02 0.  1.
       -1    1    3    3    0  502 -0.37635606652E+03  0.46941726080E+03  0.32307219791E+03  0.68291441530E+03  0.50400001928E-02 0. -1.
</event>
<event>
 5   0  0.9678750E-04  0.1168733E+04  0.7818609E-02  0.9140673E-01
       -3   -1    0    0    0  501  0.00000000000E+00  0.00000000000E+00  0.16528840515E+04  0.16528840546E+04  0.10100000352E+00 0.  1.
        3   -1    0    0  501    0  0.00000000000E+00  0.00000000000E+00 -0.20659913354E+03  0.20659915823E+03  0.10100000352E+00 0. -1.
    10030    2    1    2    0    0  0.00000000000E+00  0.00000000000E+00  0.14462849180E+04  0.18594832128E+04  0.11687333977E+04 0.  0.
        3    1    3    3  502    0  0.38197295184E+03 -0.38456441231E+03  0.37568918189E+03  0.65949639479E+03  0.10100000352E+00 0. -1.
       -3    1    3    3    0  502 -0.38197295184E+03  0.38456441231E+03  0.10705957361E+04  0.11999868180E+04  0.10100000352E+00 0.  1.
</event>
<event>
 5   0  0.1469851E-03  0.1199719E+04  0.7818609E-02  0.9113102E-01
        1   -1    0    0  501    0  0.00000000000E+00  0.00000000000E+00  0.98928976948E+03  0.98928976950E+03  0.50400001928E-02 0. -1.
       -1   -1    0    0    0  501  0.00000000000E+00  0.00000000000E+00 -0.36372709916E+03  0.36372709920E+03  0.50400001928E-02 0.  1.
    10030    2    1    2    0    0  0.00000000000E+00  0.00000000000E+00  0.62556267032E+03  0.13530168687E+04  0.11997191307E+04 0.  0.
        5    1    3    3  502    0 -0.20320617101E+03  0.37706870905E+03  0.78636196787E+03  0.89546680217E+03  0.46999998093E+01 0. -1.
       -5    1    3    3    0  502  0.20320617101E+03 -0.37706870905E+03 -0.16079929755E+03  0.45755006652E+03  0.46999998093E+01 0.  1.
</event>
<event>
 5   0  0.2580244E-03  0.1205666E+04  0.7818609E-02  0.9107911E-01
        2   -1    0    0  501    0  0.00000000000E+00  0.00000000000E+00  0.18594166667E+04  0.18594166667E+04  0.25500000920E-02 0. -1.
       -2   -1    0    0    0  501  0.00000000000E+00  0.00000000000E+00 -0.19544181578E+03  0.19544181580E+03  0.25500000920E-02 0.  1.
    10030    2    1    2    0    0  0.00000000000E+00  0.00000000000E+00  0.16639748509E+04  0.20548584825E+04  0.12056662385E+04 0.  0.
        1    1    3    3  502    0  0.18708662523E+03 -0.57131446270E+03  0.90832465770E+03  0.10892452912E+04  0.50400001928E-02 0.  1.
       -1    1    3    3    0  502 -0.18708662523E+03  0.57131446270E+03  0.75565019320E+03  0.96561319126E+03  0.50400001928E-02 0. -1.
</event>
<event>
 5   0  0.2517023E-03  0.1202220E+04  0.7818609E-02  0.9110915E-01
       -2   -1    0    0    0  501  0.00000000000E+00  0.00000000000E+00  0.38877049412E+03  0.38877049413E+03  0.25500000920E-02 0.  1.
        2   -1    0    0  501    0  0.00000000000E+00  0.00000000000E+00 -0.92942602631E+03  0.92942602631E+03  0.25500000920E-02 0. -1.
    10030    2    1    2    0    0  0.00000000000E+00  0.00000000000E+00 -0.54065553219E+03  0.13181965204E+04  0.12022203051E+04 0.  0.
        3    1    3    3  502    0  0.51456402247E+03  0.30225069774E+03 -0.19124671772E+03  0.62666333445E+03  0.10100000352E+00 0.  1.
       -3    1    3    3    0  502 -0.51456402247E+03 -0.30225069774E+03 -0.34940881447E+03  0.69153318599E+03  0.10100000352E+00 0. -1.
</event>
<event>
 5   0  0.2580244E-03  0.1210789E+04  0.7818609E-02  0.9103465E-01
        2   -1    0    0  501    0  0.00000000000E+00  0.00000000000E+00  0.85602334603E+03  0.85602334604E+03  0.25500000920E-02 0.  1.
       -2   -1    0    0    0  501  0.00000000000E+00  0.00000000000E+00 -0.42814529084E+03  0.42814529085E+03  0.25500000920E-02 0. -1.
    10030    2    1    2    0    0  0.00000000000E+00  0.00000000000E+00  0.42787805519E+03  0.12841686369E+04  0.12107887751E+04 0.  0.
        1    1    3    3  502    0  0.56943382306E+03  0.13780500818E+02 -0.35692704862E+01  0.56961172808E+03  0.50400001928E-02 0.  1.
       -1    1    3    3    0  502 -0.56943382306E+03 -0.13780500818E+02  0.43144732568E+03  0.71455690880E+03  0.50400001928E-02 0. -1.
</event>
<event>
 5   0  0.2517023E-03  0.1198876E+04  0.7818609E-02  0.9113841E-01
       -2   -1    0    0    0  501  0.00000000000E+00  0.00000000000E+00  0.21609133315E+03  0.21609133317E+03  0.25500000920E-02 0. -1.
        2   -1    0    0  501    0  0.00000000000E+00  0.00000000000E+00 -0.16628430041E+04  0.16628430041E+04  0.25500000920E-02 0.  1.
    10030    2    1    2    0    0  0.00000000000E+00  0.00000000000E+00 -0.14467516710E+04  0.18789343373E+04  0.11988760763E+04 0.  0.
        3    1    3    3  502    0 -0.16420876457E+03  0.40421513826E+03 -0.13676105302E+04  0.14355183625E+04  0.10100000352E+00 0.  1.
       -3    1    3    3    0  502  0.16420876457E+03 -0.40421513826E+03 -0.79141140717E+02  0.44341597481E+03  0.10100000352E+00 0. -1.
</event>
<event>
 5   0  0.2499890E-03  0.1206477E+04  0.7818609E-02  0.9107206E-01
       -2   -1    0    0    0  501  0.00000000000E+00  0.00000000000E+00  0.36846132621E+03  0.36846132622E+03  0.25500000920E-02 0. -1.
        2   -1    0    0  501    0  0.00000000000E+00  0.00000000000E+00 -0.98761102529E+03  0.98761102529E+03  0.25500000920E-02 0.  1.
    10030    2    1    2    0    0  0.00000000000E+00  0.00000000000E+00 -0.61914969908E+03  0.13560723515E+04  0.12064766358E+04 0.  0.
        5    1    3    3  502    0  0.44874450070E+03  0.11948173036E+03 -0.74231521808E+03  0.87561491752E+03  0.46999998093E+01 0.  1.
       -5    1    3    3    0  502 -0.44874450070E+03 -0.11948173036E+03  0.12316551900E+03  0.48045743399E+03  0.46999998093E+01 0. -1.
</event>
<event>
 5   0  0.9678750E-04  0.1137569E+04  0.7818609E-02  0.9169329E-01
        4   -1    0    0  501    0  0.00000000000E+00  0.00000000000E+00  0.24243269444E+03  0.24243602091E+03  0.12699999809E+01 0.  1.
       -4   -1    0    0    0  501  0.00000000000E+00  0.00000000000E+00 -0.13344431012E+04  0.13344437055E+04  0.12699999809E+01 0. -1.
    10030    2    1    2    0    0  0.00000000000E+00  0.00000000000E+00 -0.10920104067E+04  0.15768797264E+04  0.11375688740E+04 0.  0.
        4    1    3    3  502    0 -0.53013813735E+03  0.10288186238E+03 -0.79351959899E+03  0.95984690923E+03  0.12699999809E+01 0. -1.
       -4    1    3    3    0  502  0.53013813735E+03 -0.10288186238E+03 -0.29849080775E+03  0.61703281719E+03  0.12699999809E+01 0.  1.
</event>
<event>
 5   0  0.1404833E-03  0.1196587E+04  0.7818609E-02  0.9115849E-01
        1   -1    0    0  501    0  0.00000000000E+00  0.00000000000E+00  0.45407305522E+03  0.45407305525E+03  0.50400001928E-02 0.  1.
       -1   -1    0    0    0  501  0.00000000000E+00  0.00000000000E+00 -0.78832043153E+03  0.78832043155E+03  0.50400001928E-02 0. -1.
    10030    2    1    2    0    0  0.00000000000E+00  0.00000000000E+00 -0.33424737631E+03  0.12423934868E+04  0.11965869243E+04 0.  0.
        1    1    3    3  502    0 -0.25614867956E+03  0.44498103534E+03  0.15177363764E+03  0.53540218991E+03  0.50400001928E-02 0.  1.
       -1    1    3    3    0  502  0.25614867956E+03 -0.44498103534E+03 -0.48602101395E+03  0.70699129689E+03  0.50400001928E-02 0. -1.
</event>
<event>
 5   0  0.2580244E-03  0.1211471E+04  0.7818609E-02  0.9102875E-01
       -2   -1    0    0    0  501  0.00000000000E+00  0.00000000000E+00  0.68407786591E+03  0.68407786592E+03  0.25500000920E-02 0.  1.
        2   -1    0    0  501    0  0.00000000000E+00  0.00000000000E+00 -0.53636485347E+03  0.53636485348E+03  0.25500000920E-02 0. -1.
    10030    2    1    2    0    0  0.00000000000E+00  0.00000000000E+00  0.14771301244E+03  0.12204427194E+04  0.12114707166E+04 0.  0.
        1    1    3    3  502    0  0.22547893326E+03 -0.67837898444E+02 -0.48837399196E+03  0.54217329873E+03  0.50400001928E-02 0. -1.
       -1    1    3    3    0  502 -0.22547893326E+03  0.67837898444E+02  0.63608700440E+03  0.67826942066E+03  0.50400001928E-02 0.  1.
</event>
<event>
 5   0  0.1403154E-03  0.1228180E+04  0.7818609E-02  0.9088542E-01
        1   -1    0    0  501    0  0.00000000000E+00  0.00000000000E+00  0.13673471506E+04  0.13673471506E+04  0.50400001928E-02 0. -1.
       -1   -1    0    0    0  501  0.00000000000E+00  0.00000000000E+00 -0.27579422992E+03  0.27579422996E+03  0.50400001928E-02 0.  1.
    10030    2    1    2    0    0  0.00000000000E+00  0.00000000000E+00  0.10915529207E+04  0.16431413806E+04  0.12281798801E+04 0.  0.
        3    1    3    3  502    0 -0.58188247848E+03  0.19495238913E+03  0.51548059511E+03  0.80144488702E+03  0.10100000352E+00 0.  1.
       -3    1    3    3    0  502  0.58188247848E+03 -0.19495238913E+03  0.57607232560E+03  0.84169649358E+03  0.10100000352E+00 0. -1.
</event>
<event>
 5   0  0.1423024E-03  0.1211216E+04  0.7818609E-02  0.9103095E-01
        1   -1    0    0  501    0  0.00000000000E+00  0.00000000000E+00  0.98458732594E+03  0.98458732595E+03  0.50400001928E-02 0.  1.
       -1   -1    0    0    0  501  0.00000000000E+00  0.00000000000E+00 -0.37250243769E+03  0.37250243772E+03  0.50400001928E-02 0. -1.
    10030    2    1    2    0    0  0.00000000000E+00  0.00000000000E+00  0.61208488825E+03  0.13570897637E+04  0.12112162137E+04 0.  0.
        2    1    3    3  502    0  0.37480864069E+03 -0.47226509832E+03  0.24221360855E+03  0.64975631771E+03  0.25500000920E-02 0. -1.
       -2    1    3    3    0  502 -0.37480864069E+03  0.47226509832E+03  0.36987127970E+03  0.70733344596E+03  0.25500000920E-02 0.  1.
</event>
<event>
 5   0  0.1455076E-03  0.1221869E+04  0.7818609E-02  0.9093927E-01
       -1   -1    0    0    0  501  0.00000000000E+00  0.00000000000E+00  0.40516355664E+03  0.40516355667E+03  0.50400001928E-02 0. -1.
        1   -1    0    0  501    0  0.00000000000E+00  0.00000000000E+00 -0.92121020656E+03  0.92121020658E+03  0.50400001928E-02 0.  1.
    10030    2    1    2    0    0  0.00000000000E+00  0.00000000000E+00 -0.51604664992E+03  0.13263737633E+04  0.12218687388E+04 0.  0.
        4    1    3    3  502    0 -0.10442157820E+03  0.50774936797E+03  0.92933211508E+02  0.52664170113E+03  0.12699999809E+01 0. -1.
       -4    1    3    3    0  502  0.10442157820E+03 -0.50774936797E+03 -0.60897986143E+03  0.79973206213E+03  0.12699999809E+01 0.  1.
</event>
<event>
 5   0  0.2579442E-03  0.1192674E+04  0.7818609E-02  0.9119293E-01
        2   -1    0    0  501    0  0.00000000000E+00  0.00000000000E+00  0.16886100286E+04  0.16886100286E+04  0.25500000920E-02 0.  1.
       -2   -1    0    0    0  501  0.00000000000E+00  0.00000000000E+00 -0.21059791923E+03  0.21059791924E+03  0.25500000920E-02 0. -1.
    10030    2    1    2    0    0  0.00000000000E+00  0.00000000000E+00  0.14780121093E+04  0.18992079478E+04  0.11926739008E+04 0.  0.
        4    1    3    3  502    0  0.18966508759E+03 -0.20291387958E+03  0.15793158611E+04  0.16035545173E+04  0.12699999809E+01 0.  1.
       -4    1    3    3    0  502 -0.18966508759E+03  0.20291387958E+03 -0.10130375172E+03  0.29565343054E+03  0.12699999809E+01 0. -1.
</event>
<event>
 5   0  0.1469851E-03  0.1109166E+04  0.7818609E-02  0.9196304E-01
       -1   -1    0    0    0  501  0.00000000000E+00  0.00000000000E+00  0.26349142221E+03  0.26349142226E+03  0.50400001928E-02 0.  1.
        1   -1    0    0  501    0  0.00000000000E+00  0.00000000000E+00 -0.11672566333E+04  0.11672566333E+04  0.50400001928E-02 0. -1.
    10030    2    1    2    0    0  0.00000000000E+00  0.00000000000E+00 -0.90376521106E+03  0.14307480555E+04  0.11091656512E+04 0.  0.
        5    1    3    3  502    0  0.26118667391E+03 -0.11656038591E+03  0.16098464261E+03  0.32824220836E+03  0.46999998093E+01 0.  1.
       -5    1    3    3    0  502 -0.26118667391E+03  0.11656038591E+03 -0.10647498537E+04  0.11025058472E+04  0.46999998093E+01 0. -1.
</event>
<event>
 5   0  0.1469851E-03  0.1200561E+04  0.7818609E-02  0.9112366E-01
        1   -1    0    0  501    0  0.00000000000E+00  0.00000000000E+00  0.19800903896E+04  0.19800903897E+04  0.50400001928E-02 0. -1.
       -1   -1    0    0    0  501  0.00000000000E+00  0.00000000000E+00 -0.18197981408E+03  0.18197981415E+03  0.50400001928E-02 0.  1.
    10030    2    1    2    0    0  0.00000000000E+00  0.00000000000E+00  0.17981105756E+04  0.21620702038E+04  0.12005606708E+04 0.  0.
        5    1    3    3  502    0 -0.65456659684E+02 -0.55577399033E+03  0.12900797314E+04  0.14062350821E+04  0.46999998093E+01 0.  1.
       -5    1    3    3    0  502  0.65456659684E+02  0.55577399033E+03  0.50803084412E+03  0.75583512171E+03  0.46999998093E+01 0. -1.
</event>
<event>
 5   0  0.1469851E-03  0.1252492E+04  0.7818609E-02  0.9068111E-01
        1   -1    0    0  501    0  0.00000000000E+00  0.00000000000E+00  0.19371830137E+04  0.19371830137E+04  0.50400001928E-02 0. -1.
       -1   -1    0    0    0  501  0.00000000000E+00  0.00000000000E+00 -0.20245080092E+03  0.20245080098E+03  0.50400001928E-02 0.  1.
    10030    2    1    2    0    0  0.00000000000E+00  0.00000000000E+00  0.17347322128E+04  0.21396338147E+04  0.12524923197E+04 0.  0.
        5    1    3    3  502    0 -0.84844678758E+02 -0.17912806946E+03 -0.14742314730E+03  0.24706509090E+03  0.46999998093E+01 0.  1.
       -5    1    3    3    0  502  0.84844678758E+02  0.17912806946E+03  0.18821553601E+04  0.18925687238E+04  0.46999998093E+01 0. -1.
</event>
<event>
 5   0  0.2499890E-03  0.1161708E+04  0.7818609E-02  0.9147050E-01
       -2   -1    0    0    0  501  0.00000000000E+00  0.00000000000E+00  0.31331956398E+03  0.31331956399E+03  0.25500000920E-02 0.  1.
        2   -1    0    0  501    0  0.00000000000E+00  0.00000000000E+00 -0.10768283631E+04  0.10768283631E+04  0.25500000920E-02 0. -1.
    10030    2    1    2    0    0  0.00000000000E+00  0.00000000000E+00 -0.76350879913E+03  0.13901479271E+04  0.11617080411E+04 0.  0.
        5    1    3    3  502    0 -0.69966901284E+02  0.10535885344E+03 -0.10601281226E+04  0.10676561158E+04  0.46999998093E+01 0. -1.
       -5    1    3    3    0  502  0.69966901284E+02 -0.10535885344E+03  0.29661932349E+03  0.32249181128E+03  0.46999998093E+01 0.  1.
</event>
<event>
 5   0  0.2580244E-03  0.1180405E+04  0.7818609E-02  0.9130183E-01
        2   -1    0    0  501    0  0.00000000000E+00  0.00000000000E+00  0.10556708231E+04  0.10556708231E+04  0.25500000920E-02 0. -1.
       -2   -1    0    0    0  501  0.00000000000E+00  0.00000000000E+00 -0.32996952080E+03  0.32996952081E+03  0.25500000920E-02 0.  1.
    10030    2    1    2    0    0  0.00000000000E+00  0.00000000000E+00  0.72570130231E+03  0.13856403439E+04  0.11804053467E+04 0.  0.
        1    1    3    3  502    0 -0.52955351334E+03  0.10365330617E+03  0.64352120702E+03  0.83981573889E+03  0.50400001928E-02 0. -1.
       -1    1    3    3    0  502  0.52955351334E+03 -0.10365330617E+03  0.82180095295E+02  0.54582460504E+03  0.50400001928E-02 0.  1.
</event>
<event>
 5   0  0.1423024E-03  0.1204553E+04  0.7818609E-02  0.9108881E-01
       -1   -1    0    0    0  501  0.00000000000E+00  0.00000000000E+00  0.68371800665E+03  0.68371800667E+03  0.50400001928E-02 0. -1.
        1   -1    0    0  501    0  0.00000000000E+00  0.00000000000E+00 -0.53053585001E+03  0.53053585003E+03  0.50400001928E-02 0.  1.
    10030    2    1    2    0    0  0.00000000000E+00  0.00000000000E+00  0.15318215664E+03  0.12142538567E+04  0.12045528861E+04 0.  0.
        2    1    3    3  502    0 -0.16741447924E+03  0.55987384837E+03  0.22354088259E+03  0.62566513419E+03  0.25500000920E-02 0. -1.
       -2    1    3    3    0  502  0.16741447924E+03 -0.55987384837E+03 -0.70358725950E+02  0.58858872251E+03  0.25500000920E-02 0.  1.
</event>
<event>
 5   0  0.9678750E-04  0.1179342E+04  0.7818609E-02  0.9131133E-01
        4   -1    0    0  501    0  0.00000000000E+00  0.00000000000E+00  0.34754478169E+03  0.34754710210E+03  0.12699999809E+01 0.  1.
       -4   -1    0    0    0  501  0.00000000000E+00  0.00000000000E+00 -0.10004747943E+04  0.10004756004E+04  0.12699999809E+01 0. -1.
    10030    2    1    2    0    0  0.00000000000E+00  0.00000000000E+00 -0.65293001264E+03  0.13480227025E+04  0.11793420221E+04 0.  0.
        2    1    3    3  502    0 -0.24584918627E+03  0.43013896483E+03 -0.69196742802E+03  0.85104657505E+03  0.25500000920E-02 0. -1.
       -2    1    3    3    0  502  0.24584918627E+03 -0.43013896483E+03  0.39037415379E+02  0.49697612745E+03  0.25500000920E-02 0.  1.
</event>
<event>
 5   0  0.2580244E-03  0.1197528E+04  0.7818609E-02  0.9115023E-01
       -2   -1    0    0    0  501  0.00000000000E+00  0.00000000000E+00  0.73235795940E+03  0.73235795940E+03  0.25500000920E-02 0. -1.
        2   -1    0    0  501    0  0.00000000000E+00  0.00000000000E+00 -0.48953939644E+03  0.48953939645E+03  0.25500000920E-02 0.  1.
    10030    2    1    2    0    0  0.00000000000E+00  0.00000000000E+00  0.24281856296E+03  0.12218973558E+04  0.11975275753E+04 0.  0.
        1    1    3    3  502    0  0.29069731106E+03  0.22978807989E+03  0.60131083361E+03  0.70631593991E+03  0.50400001928E-02 0. -1.
       -1    1    3    3    0  502 -0.29069731106E+03 -0.22978807989E+03 -0.35849227066E+03  0.51558141594E+03  0.50400001928E-02 0.  1.
</event>
<event>
 5   0  0.9678750E-04  0.1148605E+04  0.7818609E-02  0.9159071E-01
        3   -1    0    0  501    0  0.00000000000E+00  0.00000000000E+00  0.24149604807E+03  0.24149606919E+03  0.10100000352E+00 0. -1.
       -3   -1    0    0    0  501  0.00000000000E+00  0.00000000000E+00 -0.13657515957E+04  0.13657515995E+04  0.10100000352E+00 0.  1.
    10030    2    1    2    0    0  0.00000000000E+00  0.00000000000E+00 -0.11242555477E+04  0.16072476686E+04  0.11486054727E+04 0.  0.
        4    1    3    3  502    0 -0.11575751354E+03  0.27300327129E+03  0.12608410752E+03  0.32222570218E+03  0.12699999809E+01 0. -1.
       -4    1    3    3    0  502  0.11575751354E+03 -0.27300327129E+03 -0.12503396552E+04  0.12850219665E+04  0.12699999809E+01 0.  1.
</event>
<event>
 5   0  0.2580244E-03  0.1210835E+04  0.7818609E-02  0.9103425E-01
       -2   -1    0    0    0  501  0.00000000000E+00  0.00000000000E+00  0.49442809838E+03  0.49442809838E+03  0.25500000920E-02 0. -1.
        2   -1    0    0  501    0  0.00000000000E+00  0.00000000000E+00 -0.74132175313E+03  0.74132175313E+03  0.25500000920E-02 0.  1.
    10030    2    1    2    0    0  0.00000000000E+00  0.00000000000E+00 -0.24689365475E+03  0.12357498515E+04  0.12108349263E+04 0.  0.
        1    1    3    3  502    0  0.56454618111E+03 -0.15222010377E+03 -0.28367071136E+03  0.64988646939E+03  0.50400001928E-02 0. -1.
       -1    1    3    3    0  502 -0.56454618111E+03  0.15222010377E+03  0.36777056609E+02  0.58586338212E+03  0.50400001928E-02 0.  1.
</event>
<event>
 5   0  0.2517023E-03  0.1207417E+04  0.7818609E-02  0.9106389E-01
        2   -1    0    0  501    0  0.00000000000E+00  0.00000000000E+00  0.69535926645E+03  0.69535926646E+03  0.25500000920E-02 0. -1.
       -2   -1    0    0    0  501  0.00000000000E+00  0.00000000000E+00 -0.52413735662E+03  0.52413735663E+03  0.25500000920E-02 0.  1.
    10030    2    1    2    0    0  0.00000000000E+00  0.00000000000E+00  0.17122190983E+03  0.12194966231E+04  0.12074166933E+04 0.  0.
        3    1    3    3  502    0 -0.59984041782E+03 -0.29194471250E+02  0.23326214769E+02  0.60100329990E+03  0.10100000352E+00 0.  1.
       -3    1    3    3    0  502  0.59984041782E+03  0.29194471250E+02  0.14789569506E+03  0.61849332318E+03  0.10100000352E+00 0. -1.
</event>
<event>
 5   0  0.1455076E-03  0.1205594E+04  0.7818609E-02  0.9107975E-01
        1   -1    0    0  501    0  0.00000000000E+00  0.00000000000E+00  0.74421464987E+03  0.74421464989E+03  0.50400001928E-02 0. -1.
       -1   -1    0    0    0  501  0.00000000000E+00  0.00000000000E+00 -0.48825155401E+03  0.48825155404E+03  0.50400001928E-02 0.  1.
    10030    2    1    2    0    0  0.00000000000E+00  0.00000000000E+00  0.25596309586E+03  0.12324662039E+04  0.12055935623E+04 0.  0.
        4    1    3    3  502    0  0.38042183443E+03  0.30548979770E+03  0.48987444590E+03  0.69139234466E+03  0.12699999809E+01 0. -1.
       -4    1    3    3    0  502 -0.38042183443E+03 -0.30548979770E+03 -0.23391135003E+03  0.54107385927E+03  0.12699999809E+01 0.  1.
</event>
<event>
 5   0  0.1455076E-03  0.1199323E+04  0.7818609E-02  0.9113450E-01
       -1   -1    0    0    0  501  0.00000000000E+00  0.00000000000E+00  0.68844196854E+03  0.68844196856E+03  0.50400001928E-02 0. -1.
        1   -1    0    0  501    0  0.00000000000E+00  0.00000000000E+00 -0.52232972170E+03  0.52232972172E+03  0.50400001928E-02 0.  1.
    10030    2    1    2    0    0  0.00000000000E+00  0.00000000000E+00  0.16611224685E+03  0.12107716903E+04  0.11993226453E+04 0.  0.
        4    1    3    3  502    0 -0.48873868726E+03 -0.11508082534E+03 -0.24791956175E+03  0.55997751989E+03  0.12699999809E+01 0.  1.
       -4    1    3    3    0  502  0.48873868726E+03  0.11508082534E+03  0.41403180860E+03  0.65079417039E+03  0.12699999809E+01 0. -1.
</event>
<event>
 5   0  0.1404833E-03  0.1239485E+04  0.7818609E-02  0.9078981E-01
       -1   -1    0    0    0  501  0.00000000000E+00  0.00000000000E+00  0.61855244465E+03  0.61855244467E+03  0.50400001928E-02 0.  1.
        1   -1    0    0  501    0  0.00000000000E+00  0.00000000000E+00 -0.62093470846E+03  0.62093470848E+03  0.50400001928E-02 0. -1.
    10030    2    1    2    0    0  0.00000000000E+00  0.00000000000E+00 -0.23822638109E+01  0.12394871532E+04  0.12394848638E+04 0.  0.
        1    1    3    3  502    0 -0.12889785676E+03  0.97679622702E+02 -0.59946033377E+03  0.62089343526E+03  0.50400001928E-02 0. -1.
       -1    1    3    3    0  502  0.12889785676E+03 -0.97679622702E+02  0.59707806996E+03  0.61859371789E+03  0.50400001928E-02 0.  1.
</event>
<event>
 5   0  0.2499890E-03  0.1166076E+04  0.7818609E-02  0.9143079E-01
        2   -1    0    0  501    0  0.00000000000E+00  0.00000000000E+00  0.32224839506E+03  0.32224839507E+03  0.25500000920E-02 0.  1.
       -2   -1    0    0    0  501  0.00000000000E+00  0.00000000000E+00 -0.10548800326E+04  0.10548800326E+04  0.25500000920E-02 0. -1.
    10030    2    1    2    0    0  0.00000000000E+00  0.00000000000E+00 -0.73263163757E+03  0.13771284277E+04  0.11660761510E+04 0.  0.
        5    1    3    3  502    0 -0.42798037712E+03  0.22767843407E+03  0.16199655334E+02  0.48506617216E+03  0.46999998093E+01 0.  1.
       -5    1    3    3    0  502  0.42798037712E+03 -0.22767843407E+03 -0.74883129290E+03  0.89206225554E+03  0.46999998093E+01 0. -1.
</event>
<event>
 5   0  0.1404833E-03  0.1203927E+04  0.7818609E-02  0.9109427E-01
       -1   -1    0    0    0  501  0.00000000000E+00  0.00000000000E+00  0.15590618588E+04  0.15590618588E+04  0.50400001928E-02 0.  1.
        1   -1    0    0  501    0  0.00000000000E+00  0.00000000000E+00 -0.23242167150E+03  0.23242167155E+03  0.50400001928E-02 0. -1.
    10030    2    1    2    0    0  0.00000000000E+00  0.00000000000E+00  0.13266401873E+04  0.17914835304E+04  0.12039265148E+04 0.  0.
        1    1    3    3  502    0 -0.57105943614E+02 -0.21504122021E+03  0.14956299713E+04  0.15120888950E+04  0.50400001928E-02 0.  1.
       -1    1    3    3    0  502  0.57105943614E+02  0.21504122021E+03 -0.16898978398E+03  0.27939463542E+03  0.50400001928E-02 0. -1.
</event>
<event>
 5   0  0.9678750E-04  0.1134022E+04  0.7818609E-02  0.9172652E-01
       -3   -1    0    0    0  501  0.00000000000E+00  0.00000000000E+00  0.73927233657E+03  0.73927234347E+03  0.10100000352E+00 0. -1.
        3   -1    0    0  501    0  0.00000000000E+00  0.00000000000E+00 -0.43488897063E+03  0.43488898236E+03  0.10100000352E+00 0.  1.
    10030    2    1    2    0    0  0.00000000000E+00  0.00000000000E+00  0.30438336593E+03  0.11741613258E+04  0.11340218629E+04 0.  0.
        1    1    3    3  502    0  0.38854888949E+03  0.25646442720E+03  0.48731001877E+03  0.67395496612E+03  0.50400001928E-02 0. -1.
       -1    1    3    3    0  502 -0.38854888949E+03 -0.25646442720E+03 -0.18292665283E+03  0.50020635970E+03  0.50400001928E-02 0.  1.
</event>
<event>
 5   0  0.2499890E-03  0.1202457E+04  0.7818609E-02  0.9110709E-01
       -2   -1    0    0    0  501  0.00000000000E+00  0.00000000000E+00  0.68567079766E+03  0.68567079767E+03  0.25500000920E-02 0. -1.
        2   -1    0    0  501    0  0.00000000000E+00  0.00000000000E+00 -0.52718537154E+03  0.52718537154E+03  0.25500000920E-02 0.  1.
    10030    2    1    2    0    0  0.00000000000E+00  0.00000000000E+00  0.15848542612E+03  0.12128561692E+04  0.12024568420E+04 0.  0.
        5    1    3    3  502    0 -0.59934753702E+03 -0.25244496807E+02  0.38912294583E+02  0.60115805860E+03  0.46999998093E+01 0. -1.
       -5    1    3    3    0  502  0.59934753702E+03  0.25244496807E+02  0.11957313154E+03  0.61169811062E+03  0.46999998093E+01 0.  1.
</event>
<event>
 5   0  0.2580244E-03  0.1194353E+04  0.7818609E-02  0.9117814E-01
        2   -1    0    0  501    0  0.00000000000E+00  0.00000000000E+00  0.70961040936E+03  0.70961040937E+03  0.25500000920E-02 0.  1.
       -2   -1    0    0    0  501  0.00000000000E+00  0.00000000000E+00 -0.50255731268E+03  0.50255731269E+03  0.25500000920E-02 0. -1.
    10030    2    1    2    0    0  0.00000000000E+00  0.00000000000E+00  0.20705309668E+03  0.12121677221E+04  0.11943532147E+04 0.  0.
        1    1    3    3  502    0 -0.51171764132E+03  0.25431622935E+03  0.27957334151E+03  0.63615480998E+03  0.50400001928E-02 0.  1.
       -1    1    3    3    0  502  0.51171764132E+03 -0.25431622935E+03 -0.72520244837E+02  0.57601291208E+03  0.50400001928E-02 0. -1.
</event>
<event>
 5   0  0.2579442E-03  0.1215452E+04  0.7818609E-02  0.9099438E-01
        2   -1    0    0  501    0  0.00000000000E+00  0.00000000000E+00  0.64688312956E+03  0.64688312956E+03  0.25500000920E-02 0. -1.
       -2   -1    0    0    0  501  0.00000000000E+00  0.00000000000E+00 -0.57093946972E+03  0.57093946972E+03  0.25500000920E-02 0.  1.
    10030    2    1    2    0    0  0.00000000000E+00  0.00000000000E+00  0.75943659840E+02  0.12178225993E+04  0.12154523618E+04 0.  0.
        4    1    3    3  502    0 -0.13880734898E+03 -0.58222572703E+03 -0.67472269545E+02  0.60233578460E+03  0.12699999809E+01 0.  1.
       -4    1    3    3    0  502  0.13880734898E+03  0.58222572703E+03  0.14341592939E+03  0.61548681469E+03  0.12699999809E+01 0. -1.
</event>
<event>
 5   0  0.2499890E-03  0.1198778E+04  0.7818609E-02  0.9113927E-01
       -2   -1    0    0    0  501  0.00000000000E+00  0.00000000000E+00  0.71344996906E+03  0.71344996907E+03  0.25500000920E-02 0. -1.
        2   -1    0    0  501    0  0.00000000000E+00  0.00000000000E+00 -0.50356309272E+03  0.50356309273E+03  0.25500000920E-02 0.  1.
    10030    2    1    2    0    0  0.00000000000E+00  0.00000000000E+00  0.20988687634E+03  0.12170130618E+04  0.11987778325E+04 0.  0.
        5    1    3    3  502    0 -0.27158076397E+03 -0.73101192090E+02 -0.43239516421E+03  0.51583676068E+03  0.46999998093E+01 0.  1.
       -5    1    3    3    0  502  0.27158076397E+03  0.73101192090E+02  0.64228204055E+03  0.70117630112E+03  0.46999998093E+01 0. -1.
</event>
<event>
 5   0  0.1455076E-03  0.1225767E+04  0.7818609E-02  0.9090597E-01
       -1   -1    0    0    0  501  0.00000000000E+00  0.00000000000E+00  0.66386471987E+03  0.66386471989E+03  0.50400001928E-02 0. -1.
        1   -1    0    0  501    0  0.00000000000E+00  0.00000000000E+00 -0.56581761668E+03  0.56581761671E+03  0.50400001928E-02 0.  1.
    10030    2    1    2    0    0  0.00000000000E+00  0.00000000000E+00  0.98047103190E+02  0.12296823366E+04  0.12257672758E+04 0.  0.
        4    1    3    3  502    0  0.51499235437E+03 -0.19552503050E+03 -0.22049338683E+03  0.59335158982E+03  0.12699999809E+01 0. -1.
       -4    1    3    3    0  502 -0.51499235437E+03  0.19552503050E+03  0.31854049002E+03  0.63633074677E+03  0.12699999809E+01 0.  1.
</event>
<event>
 5   0  0.2580244E-03  0.1191582E+04  0.7818609E-02  0.9120257E-01
        2   -1    0    0  501    0  0.00000000000E+00  0.00000000000E+00  0.83267015803E+03  0.83267015804E+03  0.25500000920E-02 0. -1.
       -2   -1    0    0    0  501  0.00000000000E+00  0.00000000000E+00 -0.42629939217E+03  0.42629939218E+03  0.25500000920E-02 0.  1.
    10030    2    1    2    0    0  0.00000000000E+00  0.00000000000E+00  0.40637076586E+03  0.12589695502E+04  0.11915817761E+04 0.  0.
        1    1    3    3  502    0  0.57673689458E+03 -0.14783539165E+03  0.22647833522E+03  0.63700328488E+03  0.50400001928E-02 0.  1.
       -1    1    3    3    0  502 -0.57673689458E+03  0.14783539165E+03  0.17989243064E+03  0.62196626534E+03  0.50400001928E-02 0. -1.
</event>
<event>
 5   0  0.1455076E-03  0.1257125E+04  0.7818609E-02  0.9064274E-01
        1   -1    0    0  501    0  0.00000000000E+00  0.00000000000E+00  0.10080846795E+04  0.10080846795E+04  0.50400001928E-02 0.  1.
       -1   -1    0    0    0  501  0.00000000000E+00  0.00000000000E+00 -0.39192241794E+03  0.39192241797E+03  0.50400001928E-02 0. -1.
    10030    2    1    2    0    0  0.00000000000E+00  0.00000000000E+00  0.61616226154E+03  0.14000070975E+04  0.12571252684E+04 0.  0.
        4    1    3    3  502    0 -0.24889392269E+03 -0.27643029532E+03 -0.25619003686E+03  0.45166009433E+03  0.12699999809E+01 0. -1.
       -4    1    3    3    0  502  0.24889392269E+03  0.27643029532E+03  0.87235229840E+03  0.94834700313E+03  0.12699999809E+01 0.  1.
</event>
<event>
 5   0  0.1423024E-03  0.1187454E+04  0.7818609E-02  0.9123909E-01
        1   -1    0    0  501    0  0.00000000000E+00  0.00000000000E+00  0.81288925744E+03  0.81288925746E+03  0.50400001928E-02 0. -1.
       -1   -1    0    0    0  501  0.00000000000E+00  0.00000000000E+00 -0.43365320017E+03  0.43365320020E+03  0.50400001928E-02 0.  1.
    10030    2    1    2    0    0  0.00000000000E+00  0.00000000000E+00  0.37923605727E+03  0.12465424577E+04  0.11874544672E+04 0.  0.
        2    1    3    3  502    0  0.65971148555E+02  0.26866270533E+03  0.74109713268E+03  0.79104791369E+03  0.25500000920E-02 0. -1.
       -2    1    3    3    0  502 -0.65971148555E+02 -0.26866270533E+03 -0.36186107541E+03  0.45549454396E+03  0.25500000920E-02 0.  1.
</event>
<event>
 5   0  0.9678750E-04  0.1200639E+04  0.7818609E-02  0.9112297E-01
        4   -1    0    0  501    0  0.00000000000E+00  0.00000000000E+00  0.25309139697E+03  0.25309458335E+03  0.12699999809E+01 0.  1.
       -4   -1    0    0    0  501  0.00000000000E+00  0.00000000000E+00 -0.14239148112E+04  0.14239153776E+04  0.12699999809E+01 0. -1.
    10030    2    1    2    0    0  0.00000000000E+00  0.00000000000E+00 -0.11708234143E+04  0.16770099610E+04  0.12006393887E+04 0.  0.
        3    1    3    3  502    0  0.20537558541E+03  0.26804195718E+03  0.10786479616E+03  0.35448617229E+03  0.10100000352E+00 0.  1.
       -3    1    3    3    0  502 -0.20537558541E+03 -0.26804195718E+03 -0.12786882104E+04  0.13225237887E+04  0.10100000352E+00 0. -1.
</event>
<event>
 5   0  0.1404833E-03  0.1167730E+04  0.7818609E-02  0.9141581E-01
        1   -1    0    0  501    0  0.00000000000E+00  0.00000000000E+00  0.68841121648E+03  0.68841121650E+03  0.50400001928E-02 0. -1.
       -1   -1    0    0    0  501  0.00000000000E+00  0.00000000000E+00 -0.49519560758E+03  0.49519560761E+03  0.50400001928E-02 0.  1.
    10030    2    1    2    0    0  0.00000000000E+00  0.00000000000E+00  0.19321560889E+03  0.11836068241E+04  0.11677297815E+04 0.  0.
        1    1    3    3  502    0 -0.48818726256E+03  0.30227741990E+03  0.20387566801E+03  0.60931414717E+03  0.50400001928E-02 0.  1.
       -1    1    3    3    0  502  0.48818726256E+03 -0.30227741990E+03 -0.10660059121E+02  0.57429267694E+03  0.50400001928E-02 0. -1.
</event>
<event>
 5   0  0.1455076E-03  0.1205837E+04  0.7818609E-02  0.9107763E-01
        1   -1    0    0  501    0  0.00000000000E+00  0.00000000000E+00  0.14101079345E+04  0.14101079345E+04  0.50400001928E-02 0. -1.
       -1   -1    0    0    0  501  0.00000000000E+00  0.00000000000E+00 -0.25778931796E+03  0.25778931801E+03  0.50400001928E-02 0.  1.
    10030    2    1    2    0    0  0.00000000000E+00  0.00000000000E+00  0.11523186165E+04  0.16678972525E+04  0.12058370748E+04 0.  0.
        4    1    3    3  502    0  0.61970533110E+02  0.56719612198E+03  0.84564063193E+03  0.10201281679E+04  0.12699999809E+01 0. -1.
       -4    1    3    3    0  502 -0.61970533110E+02 -0.56719612198E+03  0.30667798458E+03  0.64776908454E+03  0.12699999809E+01 0.  1.
</event>
<event>
 5   0  0.2579442E-03  0.1206343E+04  0.7818609E-02  0.9107323E-01
        2   -1    0    0  501    0  0.00000000000E+00  0.00000000000E+00  0.96077579331E+03  0.96077579331E+03  0.25500000920E-02 0. -1.
       -2   -1    0    0    0  501  0.00000000000E+00  0.00000000000E+00 -0.37866879011E+03  0.37866879011E+03  0.25500000920E-02 0.  1.
    10030    2    1    2    0    0  0.00000000000E+00  0.00000000000E+00  0.58210700320E+03  0.13394445834E+04  0.12063429151E+04 0.  0.
        4    1    3    3  502    0 -0.29865310061E+02  0.44756316007E+03 -0.15668753115E+03  0.47513925781E+03  0.12699999809E+01 0.  1.
       -4    1    3    3    0  502  0.29865310061E+02 -0.44756316007E+03  0.73879453435E+03  0.86430532561E+03  0.12699999809E+01 0. -1.
</event>
<event>
 5   0  0.2484507E-03  0.1064690E+04  0.7818609E-02  0.9240307E-01
        2   -1    0    0  501    0  0.00000000000E+00  0.00000000000E+00  0.58788600051E+03  0.58788600051E+03  0.25500000920E-02 0. -1.
       -2   -1    0    0    0  501  0.00000000000E+00  0.00000000000E+00 -0.48205144419E+03  0.48205144420E+03  0.25500000920E-02 0.  1.
    10030    2    1    2    0    0  0.00000000000E+00  0.00000000000E+00  0.10583455632E+03  0.10699374447E+04  0.10646901814E+04 0.  0.
        2    1    3    3  502    0 -0.11489325610E+03 -0.28545590217E+03 -0.38362641658E+03  0.49178731163E+03  0.25500000920E-02 0.  1.
       -2    1    3    3    0  502  0.11489325610E+03  0.28545590217E+03  0.48946097289E+03  0.57815013308E+03  0.25500000920E-02 0. -1.
</event>
<event>
 5   0  0.1403154E-03  0.1224801E+04  0.7818609E-02  0.9091421E-01
        1   -1    0    0  501    0  0.00000000000E+00  0.00000000000E+00  0.16387247359E+04  0.16387247359E+04  0.50400001928E-02 0.  1.
       -1   -1    0    0    0  501  0.00000000000E+00  0.00000000000E+00 -0.22885747606E+03  0.22885747611E+03  0.50400001928E-02 0. -1.
    10030    2    1    2    0    0  0.00000000000E+00  0.00000000000E+00  0.14098672599E+04  0.18675822121E+04  0.12248010566E+04 0.  0.
        3    1    3    3  502    0 -0.29716290631E+03 -0.29213702944E+03  0.13892032546E+04  0.14503570352E+04  0.10100000352E+00 0.  1.
       -3    1    3    3    0  502  0.29716290631E+03  0.29213702944E+03  0.20664005268E+02  0.41722517682E+03  0.10100000352E+00 0. -1.
</event>
<event>
 5   0  0.2484507E-03  0.1209037E+04  0.7818609E-02  0.9104983E-01
        2   -1    0    0  501    0  0.00000000000E+00  0.00000000000E+00  0.18290463022E+04  0.18290463022E+04  0.25500000920E-02 0.  1.
       -2   -1    0    0    0  501  0.00000000000E+00  0.00000000000E+00 -0.19979969337E+03  0.19979969339E+03  0.25500000920E-02 0. -1.
    10030    2    1    2    0    0  0.00000000000E+00  0.00000000000E+00  0.16292466088E+04  0.20288459956E+04  0.12090374525E+04 0.  0.
        2    1    3    3  502    0  0.17951786552E+03  0.57335598846E+03  0.70231639086E+03  0.92423593656E+03  0.25500000920E-02 0.  1.
       -2    1    3    3    0  502 -0.17951786552E+03 -0.57335598846E+03  0.92693021798E+03  0.11046100591E+04  0.25500000920E-02 0. -1.
</event>
<event>
 5   0  0.1469851E-03  0.1198239E+04  0.7818609E-02  0.9114400E-01
       -1   -1    0    0    0  501  0.00000000000E+00  0.00000000000E+00  0.47314921088E+03  0.47314921091E+03  0.50400001928E-02 0.  1.
        1   -1    0    0  501    0  0.00000000000E+00  0.00000000000E+00 -0.75862726199E+03  0.75862726201E+03  0.50400001928E-02 0. -1.
    10030    2    1    2    0    0  0.00000000000E+00  0.00000000000E+00 -0.28547805111E+03  0.12317764729E+04  0.11982385245E+04 0.  0.
        5    1    3    3  502    0 -0.35569445727E+03 -0.40987074844E+03  0.11815411245E+03  0.55542331752E+03  0.46999998093E+01 0.  1.
       -5    1    3    3    0  502  0.35569445727E+03  0.40987074844E+03 -0.40363216355E+03  0.67635315539E+03  0.46999998093E+01 0. -1.
</event>
<event>
 5   0  0.2580244E-03  0.1177490E+04  0.7818609E-02  0.9132791E-01
        2   -1    0    0  501    0  0.00000000000E+00  0.00000000000E+00  0.13978953832E+04  0.13978953832E+04  0.25500000920E-02 0.  1.
       -2   -1    0    0    0  501  0.00000000000E+00  0.00000000000E+00 -0.24795879944E+03  0.24795879945E+03  0.25500000920E-02 0. -1.
    10030    2    1    2    0    0  0.00000000000E+00  0.00000000000E+00  0.11499365837E+04  0.16458541826E+04  0.11774896364E+04 0.  0.
        1    1    3    3  502    0 -0.36012079396E+02 -0.31588537891E+03  0.12675888917E+04  0.13068519583E+04  0.50400001928E-02 0.  1.
       -1    1    3    3    0  502  0.36012079396E+02  0.31588537891E+03 -0.11765230802E+03  0.33900222430E+03  0.50400001928E-02 0. -1.
</event>
<event>
 5   0  0.2579442E-03  0.1200404E+04  0.7818609E-02  0.9112503E-01
        2   -1    0    0  501    0  0.00000000000E+00  0.00000000000E+00  0.23080580256E+04  0.23080580256E+04  0.25500000920E-02 0. -1.
       -2   -1    0    0    0  501  0.00000000000E+00  0.00000000000E+00 -0.15608043158E+03  0.15608043160E+03  0.25500000920E-02 0.  1.
    10030    2    1    2    0    0  0.00000000000E+00  0.00000000000E+00  0.21519775940E+04  0.24641384572E+04  0.12004044198E+04 0.  0.
        4    1    3    3  502    0 -0.17311175162E+03 -0.17243784644E+03  0.22013388702E+04  0.22148582175E+04  0.12699999809E+01 0. -1.
       -4    1    3    3    0  502  0.17311175162E+03  0.17243784644E+03 -0.49361276127E+02  0.24928023972E+03  0.12699999809E+01 0.  1.
</event>
<event>
 5   0  0.1403154E-03  0.1088203E+04  0.7818609E-02  0.9216767E-01
       -1   -1    0    0    0  501  0.00000000000E+00  0.00000000000E+00  0.33815296267E+03  0.33815296271E+03  0.50400001928E-02 0.  1.
        1   -1    0    0  501    0  0.00000000000E+00  0.00000000000E+00 -0.87548117810E+03  0.87548117812E+03  0.50400001928E-02 0. -1.
    10030    2    1    2    0    0  0.00000000000E+00  0.00000000000E+00 -0.53732821543E+03  0.12136341408E+04  0.10882032056E+04 0.  0.
        3    1    3    3  502    0 -0.51939233987E+03 -0.10313933555E+03 -0.40814090678E+03  0.66856946927E+03  0.10100000352E+00 0.  1.
       -3    1    3    3    0  502  0.51939233987E+03  0.10313933555E+03 -0.12918730865E+03  0.54506467155E+03  0.10100000352E+00 0. -1.
</event>
<event>
 5   0  0.2579442E-03  0.1176889E+04  0.7818609E-02  0.9133330E-01
        2   -1    0    0  501    0  0.00000000000E+00  0.00000000000E+00  0.14964481246E+04  0.14964481247E+04  0.25500000920E-02 0.  1.
       -2   -1    0    0    0  501  0.00000000000E+00  0.00000000000E+00 -0.23139252432E+03  0.23139252433E+03  0.25500000920E-02 0. -1.
    10030    2    1    2    0    0  0.00000000000E+00  0.00000000000E+00  0.12650556003E+04  0.17278406490E+04  0.11768889652E+04 0.  0.
        4    1    3    3  502    0  0.10260721434E+03 -0.51341213126E+02  0.14798649601E+04  0.14843065969E+04  0.12699999809E+01 0.  1.
       -4    1    3    3    0  502 -0.10260721434E+03  0.51341213126E+02 -0.21480935974E+03  0.24353405210E+03  0.12699999809E+01 0. -1.
</event>
<event>
 5   0  0.2499890E-03  0.1208227E+04  0.7818609E-02  0.9105685E-01
       -2   -1    0    0    0  501  0.00000000000E+00  0.00000000000E+00  0.47119279927E+03  0.47119279928E+03  0.25500000920E-02 0. -1.
        2   -1    0    0  501    0  0.00000000000E+00  0.00000000000E+00 -0.77453078769E+03  0.77453078769E+03  0.25500000920E-02 0.  1.
    10030    2    1    2    0    0  0.00000000000E+00  0.00000000000E+00 -0.30333798841E+03  0.12457235870E+04  0.12082273461E+04 0.  0.
        5    1    3    3  502    0  0.35072368207E+03  0.21961559947E+03 -0.60543309307E+03  0.73335491604E+03  0.46999998093E+01 0.  1.
       -5    1    3    3    0  502 -0.35072368207E+03 -0.21961559947E+03  0.30209510466E+03  0.51236867093E+03  0.46999998093E+01 0. -1.
</event>
<event>
 5   0  0.2580244E-03  0.1189148E+04  0.7818609E-02  0.9122409E-01
        2   -1    0    0  501    0  0.00000000000E+00  0.00000000000E+00  0.89221404796E+03  0.89221404797E+03  0.25500000920E-02 0.  1.
       -2   -1    0    0    0  501  0.00000000000E+00  0.00000000000E+00 -0.39622589992E+03  0.39622589993E+03  0.25500000920E-02 0. -1.
    10030    2    1    2    0    0  0.00000000000E+00  0.00000000000E+00  0.49598814804E+03  0.12884399479E+04  0.11891481221E+04 0.  0.
        1    1    3    3  502    0 -0.55197942861E+03 -0.15936891118E+03  0.82114150808E+02  0.58036408680E+03  0.50400001928E-02 0. -1.
       -1    1    3    3    0  502  0.55197942861E+03  0.15936891118E+03  0.41387399723E+03  0.70807586110E+03  0.50400001928E-02 0.  1.
</event>
<event>
 5   0  0.1455076E-03  0.1167087E+04  0.7818609E-02  0.9142163E-01
       -1   -1    0    0    0  501  0.00000000000E+00  0.00000000000E+00  0.52128968902E+03  0.52128968904E+03  0.50400001928E-02 0.  1.
        1   -1    0    0  501    0  0.00000000000E+00  0.00000000000E+00 -0.65323163508E+03  0.65323163510E+03  0.50400001928E-02 0. -1.
    10030    2    1    2    0    0  0.00000000000E+00  0.00000000000E+00 -0.13194194606E+03  0.11745213241E+04  0.11670868279E+04 0.  0.
        4    1    3    3  502    0  0.16850791663E+02 -0.57424938815E+03 -0.16897035799E+03  0.59883128154E+03  0.12699999809E+01 0. -1.
       -4    1    3    3    0  502 -0.16850791663E+02  0.57424938815E+03  0.37028411925E+02  0.57569004261E+03  0.12699999809E+01 0.  1.
</event>
<event>
 5   0  0.2580244E-03  0.1079078E+04  0.7818609E-02  0.9225827E-01
       -2   -1    0    0    0  501  0.00000000000E+00  0.00000000000E+00  0.53613497467E+03  0.53613497468E+03  0.25500000920E-02 0.  1.
        2   -1    0    0  501    0  0.00000000000E+00  0.00000000000E+00 -0.54296483051E+03  0.54296483052E+03  0.25500000920E-02 0. -1.
    10030    2    1    2    0    0  0.00000000000E+00  0.00000000000E+00 -0.68298558432E+01  0.10790998052E+04  0.10790781912E+04 0.  0.
        1    1    3    3  502    0 -0.74031407514E+02  0.27437643347E+02 -0.53715678883E+03  0.54292807017E+03  0.50400001928E-02 0. -1.
       -1    1    3    3    0  502  0.74031407514E+02 -0.27437643347E+02  0.53032693298E+03  0.53617173503E+03  0.50400001928E-02 0.  1.
</event>
<event>
 5   0  0.1423024E-03  0.1139024E+04  0.7818609E-02  0.9167969E-01
        1   -1    0    0  501    0  0.00000000000E+00  0.00000000000E+00  0.58996695571E+03  0.58996695573E+03  0.50400001928E-02 0. -1.
       -1   -1    0    0    0  501  0.00000000000E+00  0.00000000000E+00 -0.54976652077E+03  0.54976652079E+03  0.50400001928E-02 0.  1.
    10030    2    1    2    0    0  0.00000000000E+00  0.00000000000E+00  0.40200434947E+02  0.11397334765E+04  0.11390242853E+04 0.  0.
        2    1    3    3  502    0 -0.20890566505E+03  0.19404467139E+03 -0.47320691109E+03  0.55246691494E+03  0.25500000920E-02 0.  1.
       -2    1    3    3    0  502  0.20890566505E+03 -0.19404467139E+03  0.51340734604E+03  0.58726656159E+03  0.25500000920E-02 0. -1.
</event>
<event>
 5   0  0.2517023E-03  0.1196082E+04  0.7818609E-02  0.9116293E-01
       -2   -1    0    0    0  501  0.00000000000E+00  0.00000000000E+00  0.34575934135E+03  0.34575934136E+03  0.25500000920E-02 0.  1.
        2   -1    0    0  501    0  0.00000000000E+00  0.00000000000E+00 -0.10343995016E+04  0.10343995016E+04  0.25500000920E-02 0. -1.
    10030    2    1    2    0    0  0.00000000000E+00  0.00000000000E+00 -0.68864016029E+03  0.13801588430E+04  0.11960824226E+04 0.  0.
        3    1    3    3  502    0  0.11569155469E+03 -0.54477917688E+03 -0.59576531444E+03  0.81553982581E+03  0.10100000352E+00 0. -1.
       -3    1    3    3    0  502 -0.11569155469E+03  0.54477917688E+03 -0.92874845846E+02  0.56461901720E+03  0.10100000352E+00 0.  1.
</event>
<event>
 5   0  0.1455076E-03  0.1188453E+04  0.7818609E-02  0.9123024E-01
       -1   -1    0    0    0  501  0.00000000000E+00  0.00000000000E+00  0.50583321170E+03  0.50583321172E+03  0.50400001928E-02 0.  1.
        1   -1    0    0  501    0  0.00000000000E+00  0.00000000000E+00 -0.69806579078E+03  0.69806579080E+03  0.50400001928E-02 0. -1.
    10030    2    1    2    0    0  0.00000000000E+00  0.00000000000E+00 -0.19223257909E+03  0.12038990025E+04  0.11884525417E+04 0.  0.
        4    1    3    3  502    0  0.56494199264E+03  0.10805140538E+03  0.55050195338E+02  0.57781199205E+03  0.12699999809E+01 0.  1.
       -4    1    3    3    0  502 -0.56494199264E+03 -0.10805140538E+03 -0.24728277443E+03  0.62608701047E+03  0.12699999809E+01 0. -1.
</event>
<event>
 5   0  0.1455076E-03  0.1198555E+04  0.7818609E-02  0.9114122E-01
        1   -1    0    0  501    0  0.00000000000E+00  0.00000000000E+00  0.61294170902E+03  0.61294170904E+03  0.50400001928E-02 0. -1.
       -1   -1    0    0    0  501  0.00000000000E+00  0.00000000000E+00 -0.58591772258E+03  0.58591772260E+03  0.50400001928E-02 0.  1.
    10030    2    1    2    0    0  0.00000000000E+00  0.00000000000E+00  0.27023986447E+02  0.11988594316E+04  0.11985548135E+04 0.  0.
        4    1    3    3  502    0  0.53274120782E+03 -0.15311793830E+03 -0.21430343850E+03  0.59429443392E+03  0.12699999809E+01 0. -1.
       -4    1    3    3    0  502 -0.53274120782E+03  0.15311793830E+03  0.24132742495E+03  0.60456499772E+03  0.12699999809E+01 0.  1.
</event>
<event>
 5   0  0.2580244E-03  0.1203402E+04  0.7818609E-02  0.9109884E-01
       -2   -1    0    0    0  501  0.00000000000E+00  0.00000000000E+00  0.57847095138E+03  0.57847095138E+03  0.25500000920E-02 0.  1.
        2   -1    0    0  501    0  0.00000000000E+00  0.00000000000E+00 -0.62586431591E+03  0.62586431592E+03  0.25500000920E-02 0. -1.
    10030    2    1    2    0    0  0.00000000000E+00  0.00000000000E+00 -0.47393364534E+02  0.12043352673E+04  0.12034023870E+04 0.  0.
        1    1    3    3  502    0  0.53493680648E+03  0.25877412064E+03  0.70837614439E+02  0.59844749151E+03  0.50400001928E-02 0.  1.
       -1    1    3    3    0  502 -0.53493680648E+03 -0.25877412064E+03 -0.11823097897E+03  0.60588777580E+03  0.50400001928E-02 0. -1.
</event>
<event>
 5   0  0.2579442E-03  0.1213364E+04  0.7818609E-02  0.9101239E-01
        2   -1    0    0  501    0  0.00000000000E+00  0.00000000000E+00  0.96018575127E+03  0.96018575127E+03  0.25500000920E-02 0. -1.
       -2   -1    0    0    0  501  0.00000000000E+00  0.00000000000E+00 -0.38332452847E+03  0.38332452848E+03  0.25500000920E-02 0.  1.
    10030    2    1    2    0    0  0.00000000000E+00  0.00000000000E+00  0.57686122280E+03  0.13435102798E+04  0.12133635075E+04 0.  0.
        4    1    3    3  502    0  0.90854968440E+01 -0.26980938818E+03  0.89001231797E+03  0.93005547750E+03  0.12699999809E+01 0. -1.
       -4    1    3    3    0  502 -0.90854968440E+01  0.26980938818E+03 -0.31315109516E+03  0.41345480225E+03  0.12699999809E+01 0.  1.
</event>
<event>
 5   0  0.1469851E-03  0.1194066E+04  0.7818609E-02  0.9118066E-01
        1   -1    0    0  501    0  0.00000000000E+00  0.00000000000E+00  0.16489277801E+03  0.16489277808E+03  0.50400001928E-02 0. -1.
       -1   -1    0    0    0  501  0.00000000000E+00  0.00000000000E+00 -0.21616991237E+04  0.21616991237E+04  0.50400001928E-02 0.  1.
    10030    2    1    2    0    0  0.00000000000E+00  0.00000000000E+00 -0.19968063457E+04  0.23265919018E+04  0.11940662860E+04 0.  0.
        5    1    3    3  502    0  0.28886621548E+03  0.51447683782E+03 -0.82092865385E+03  0.10109777702E+04  0.46999998093E+01 0.  1.
       -5    1    3    3    0  502 -0.28886621548E+03 -0.51447683782E+03 -0.11758776918E+04  0.13156141316E+04  0.46999998093E+01 0. -1.
</event>
<event>
 5   0  0.2580244E-03  0.1217629E+04  0.7818609E-02  0.9097564E-01
       -2   -1    0    0    0  501  0.00000000000E+00  0.00000000000E+00  0.43021854991E+03  0.43021854992E+03  0.25500000920E-02 0.  1.
        2   -1    0    0  501    0  0.00000000000E+00  0.00000000000E+00 -0.86155090886E+03  0.86155090886E+03  0.25500000920E-02 0. -1.
    10030    2    1    2    0    0  0.00000000000E+00  0.00000000000E+00 -0.43133235895E+03  0.12917694588E+04  0.12176291434E+04 0.  0.
        1    1    3    3  502    0 -0.44108734210E+03 -0.35805949138E+03 -0.44783016194E+03  0.72340617684E+03  0.50400001928E-02 0. -1.
       -1    1    3    3    0  502  0.44108734210E+03  0.35805949138E+03  0.16497802991E+02  0.56836328194E+03  0.50400001928E-02 0.  1.
</event>
<event>
 5   0  0.2517023E-03  0.1200333E+04  0.7818609E-02  0.9112565E-01
       -2   -1    0    0    0  501  0.00000000000E+00  0.00000000000E+00  0.28746074395E+03  0.28746074396E+03  0.25500000920E-02 0. -1.
        2   -1    0    0  501    0  0.00000000000E+00  0.00000000000E+00 -0.12530401425E+04  0.12530401425E+04  0.25500000920E-02 0.  1.
    10030    2    1    2    0    0  0.00000000000E+00  0.00000000000E+00 -0.96557939859E+03  0.15405008865E+04  0.12003330398E+04 0.  0.
        3    1    3    3  502    0 -0.30137039876E+03 -0.37457662711E+03 -0.21716787737E+02  0.48125190482E+03  0.10100000352E+00 0. -1.
       -3    1    3    3    0  502  0.30137039876E+03  0.37457662711E+03 -0.94386261086E+03  0.10592489817E+04  0.10100000352E+00 0.  1.
</event>
<event>
 5   0  0.1404833E-03  0.1195305E+04  0.7818609E-02  0.9116976E-01
       -1   -1    0    0    0  501  0.00000000000E+00  0.00000000000E+00  0.18792856453E+03  0.18792856460E+03  0.50400001928E-02 0.  1.
        1   -1    0    0  501    0  0.00000000000E+00  0.00000000000E+00 -0.19006616901E+04  0.19006616901E+04  0.50400001928E-02 0. -1.
    10030    2    1    2    0    0  0.00000000000E+00  0.00000000000E+00 -0.17127331255E+04  0.20885902547E+04  0.11953051881E+04 0.  0.
        1    1    3    3  502    0  0.85907880555E+02 -0.20773118965E+03 -0.18239765140E+04  0.18377765736E+04  0.50400001928E-02 0. -1.
       -1    1    3    3    0  502 -0.85907880555E+02  0.20773118965E+03  0.11124338844E+03  0.25081368103E+03  0.50400001928E-02 0.  1.
</event>
<event>
 5   0  0.1455076E-03  0.1201012E+04  0.7818609E-02  0.9111971E-01
        1   -1    0    0  501    0  0.00000000000E+00  0.00000000000E+00  0.66107317306E+03  0.66107317308E+03  0.50400001928E-02 0. -1.
       -1   -1    0    0    0  501  0.00000000000E+00  0.00000000000E+00 -0.54548771720E+03  0.54548771722E+03  0.50400001928E-02 0.  1.
    10030    2    1    2    0    0  0.00000000000E+00  0.00000000000E+00  0.11558545587E+03  0.12065608903E+04  0.12010117337E+04 0.  0.
        4    1    3    3  502    0 -0.73285050658E+02  0.42145561926E+03 -0.36559267287E+03  0.56272120363E+03  0.12699999809E+01 0.  1.
       -4    1    3    3    0  502  0.73285050658E+02 -0.42145561926E+03  0.48117812874E+03  0.64383968667E+03  0.12699999809E+01 0. -1.
</event>
<event>
 5   0  0.1403154E-03  0.1201756E+04  0.7818609E-02  0.9111321E-01
       -1   -1    0    0    0  501  0.00000000000E+00  0.00000000000E+00  0.10140316943E+04  0.10140316943E+04  0.50400001928E-02 0.  1.
        1   -1    0    0  501    0  0.00000000000E+00  0.00000000000E+00 -0.35605803996E+03  0.35605804000E+03  0.50400001928E-02 0. -1.
    10030    2    1    2    0    0  0.00000000000E+00  0.00000000000E+00  0.65797365435E+03  0.13700897343E+04  0.12017556117E+04 0.  0.
        3    1    3    3  502    0  0.45965631162E+03 -0.25289315317E+03  0.66296270792E+03  0.84543387324E+03  0.10100000352E+00 0.  1.
       -3    1    3    3    0  502 -0.45965631162E+03  0.25289315317E+03 -0.49890535610E+01  0.52465586110E+03  0.10100000352E+00 0. -1.
</event>
<event>
 5   0  0.1469851E-03  0.1206317E+04  0.7818609E-02  0.9107345E-01
       -1   -1    0    0    0  501  0.00000000000E+00  0.00000000000E+00  0.49242000566E+03  0.49242000568E+03  0.50400001928E-02 0.  1.
        1   -1    0    0  501    0  0.00000000000E+00  0.00000000000E+00 -0.73880053968E+03  0.73880053970E+03  0.50400001928E-02 0. -1.
    10030    2    1    2    0    0  0.00000000000E+00  0.00000000000E+00 -0.24638053403E+03  0.12312205454E+04  0.12063169831E+04 0.  0.
        5    1    3    3  502    0 -0.14291222281E+03 -0.47125135577E+03  0.23224657276E+03  0.54448352068E+03  0.46999998093E+01 0.  1.
       -5    1    3    3    0  502  0.14291222281E+03  0.47125135577E+03 -0.47862710679E+03  0.68673702470E+03  0.46999998093E+01 0. -1.
</event>
<event>
 5   0  0.9678750E-04  0.1204835E+04  0.7818609E-02  0.9108635E-01
       -3   -1    0    0    0  501  0.00000000000E+00  0.00000000000E+00  0.22570712027E+03  0.22570714287E+03  0.10100000352E+00 0.  1.
        3   -1    0    0  501    0  0.00000000000E+00  0.00000000000E+00 -0.16078659130E+04  0.16078659161E+04  0.10100000352E+00 0. -1.
    10030    2    1    2    0    0  0.00000000000E+00  0.00000000000E+00 -0.13821587927E+04  0.18335730590E+04  0.12048349408E+04 0.  0.
        5    1    3    3  502    0 -0.26548663975E+03  0.50157159431E+03 -0.99858076368E+03  0.11485829755E+04  0.46999998093E+01 0. -1.
       -5    1    3    3    0  502  0.26548663975E+03 -0.50157159431E+03 -0.38357802902E+03  0.68499008347E+03  0.46999998093E+01 0.  1.
</event>
<event>
 5   0  0.1403154E-03  0.1197401E+04  0.7818609E-02  0.9115135E-01
        1   -1    0    0  501    0  0.00000000000E+00  0.00000000000E+00  0.10864078050E+04  0.10864078050E+04  0.50400001928E-02 0. -1.
       -1   -1    0    0    0  501  0.00000000000E+00  0.00000000000E+00 -0.32993343578E+03  0.32993343582E+03  0.50400001928E-02 0.  1.
    10030    2    1    2    0    0  0.00000000000E+00  0.00000000000E+00  0.75647436925E+03  0.14163412409E+04  0.11974009517E+04 0.  0.
        3    1    3    3  502    0  0.46003633699E+03  0.29874868732E+02  0.83007255173E+03  0.94949796759E+03  0.10100000352E+00 0. -1.
       -3    1    3    3    0  502 -0.46003633699E+03 -0.29874868732E+02 -0.73598182483E+02  0.46684327327E+03  0.10100000352E+00 0.  1.
</event>
<event>
 5   0  0.2579442E-03  0.1197748E+04  0.7818609E-02  0.9114830E-01
       -2   -1    0    0    0  501  0.00000000000E+00  0.00000000000E+00  0.94262838364E+03  0.94262838364E+03  0.25500000920E-02 0. -1.
        2   -1    0    0  501    0  0.00000000000E+00  0.00000000000E+00 -0.38047890849E+03  0.38047890849E+03  0.25500000920E-02 0.  1.
    10030    2    1    2    0    0  0.00000000000E+00  0.00000000000E+00  0.56214947515E+03  0.13231072921E+04  0.11977482515E+04 0.  0.
        4    1    3    3  502    0  0.16336260217E+03 -0.57394695887E+03  0.33681536740E+03  0.68523620453E+03  0.12699999809E+01 0. -1.
       -4    1    3    3    0  502 -0.16336260217E+03  0.57394695887E+03  0.22533410776E+03  0.63787108761E+03  0.12699999809E+01 0.  1.
</event>
<event>
 5   0  0.2580244E-03  0.1185410E+04  0.7818609E-02  0.9125724E-01
        2   -1    0    0  501    0  0.00000000000E+00  0.00000000000E+00  0.11868355856E+04  0.11868355856E+04  0.25500000920E-02 0. -1.
       -2   -1    0    0    0  501  0.00000000000E+00  0.00000000000E+00 -0.29599628998E+03  0.29599628999E+03  0.25500000920E-02 0.  1.
    10030    2    1    2    0    0  0.00000000000E+00  0.00000000000E+00  0.89083929564E+03  0.14828318756E+04  0.11854095160E+04 0.  0.
        1    1    3    3  502    0 -0.13809242237E+03  0.22240013041E+03 -0.21975903535E+03  0.34179726267E+03  0.50400001928E-02 0.  1.
       -1    1    3    3    0  502  0.13809242237E+03 -0.22240013041E+03  0.11105983310E+04  0.11410346129E+04  0.50400001928E-02 0. -1.
</event>
<event>
 5   0  0.1423024E-03  0.1202313E+04  0.7818609E-02  0.9110834E-01
        1   -1    0    0  501    0  0.00000000000E+00  0.00000000000E+00  0.78953636358E+03  0.78953636360E+03  0.50400001928E-02 0.  1.
       -1   -1    0    0    0  501  0.00000000000E+00  0.00000000000E+00 -0.45772339444E+03  0.45772339447E+03  0.50400001928E-02 0. -1.
    10030    2    1    2    0    0  0.00000000000E+00  0.00000000000E+00  0.33181296914E+03  0.12472597581E+04  0.12023132111E+04 0.  0.
        2    1    3    3  502    0  0.54576886736E+03 -0.10934560527E+03 -0.69671261712E+02  0.56095828961E+03  0.25500000920E-02 0. -1.
       -2    1    3    3    0  502 -0.54576886736E+03  0.10934560527E+03  0.40148423086E+03  0.68630146845E+03  0.25500000920E-02 0.  1.
</event>
<event>
 5   0  0.2499890E-03  0.1202884E+04  0.7818609E-02  0.9110336E-01
       -2   -1    0    0    0  501  0.00000000000E+00  0.00000000000E+00  0.14063346929E+04  0.14063346929E+04  0.25500000920E-02 0. -1.
        2   -1    0    0  501    0  0.00000000000E+00  0.00000000000E+00 -0.25721652762E+03  0.25721652764E+03  0.25500000920E-02 0.  1.
    10030    2    1    2    0    0  0.00000000000E+00  0.00000000000E+00  0.11491181653E+04  0.16635512206E+04  0.12028840782E+04 0.  0.
        5    1    3    3  502    0  0.38108975007E+03  0.32299906898E+03  0.11141389928E+03  0.51185246226E+03  0.46999998093E+01 0.  1.
       -5    1    3    3    0  502 -0.38108975007E+03 -0.32299906898E+03  0.10377042660E+04  0.11516987583E+04  0.46999998093E+01 0. -1.
</event>
<event>
 5   0  0.1423024E-03  0.1200515E+04  0.7818609E-02  0.9112406E-01
        1   -1    0    0  501    0  0.00000000000E+00  0.00000000000E+00  0.42911888838E+03  0.42911888841E+03  0.50400001928E-02 0. -1.
       -1   -1    0    0    0  501  0.00000000000E+00  0.00000000000E+00 -0.83964829493E+03  0.83964829494E+03  0.50400001928E-02 0.  1.
    10030    2    1    2    0    0  0.00000000000E+00  0.00000000000E+00 -0.41052940655E+03  0.12687671834E+04  0.12005147945E+04 0.  0.
        2    1    3    3  502    0  0.22693947910E+03 -0.51523541263E+03  0.14753340937E+02  0.56319332265E+03  0.25500000920E-02 0. -1.
       -2    1    3    3    0  502 -0.22693947910E+03  0.51523541263E+03 -0.42528274748E+03  0.70557386071E+03  0.25500000920E-02 0.  1.
</event>
<event>
 5   0  0.2484507E-03  0.1227870E+04  0.7818609E-02  0.9088806E-01
       -2   -1    0    0    0  501  0.00000000000E+00  0.00000000000E+00  0.30071644782E+03  0.30071644783E+03  0.25500000920E-02 0.  1.
        2   -1    0    0  501    0  0.00000000000E+00  0.00000000000E+00 -0.12533942813E+04  0.12533942813E+04  0.25500000920E-02 0. -1.
    10030    2    1    2    0    0  0.00000000000E+00  0.00000000000E+00 -0.95267783348E+03  0.15541107291E+04  0.12278701495E+04 0.  0.
        2    1    3    3  502    0 -0.17342275227E+03 -0.38337095715E+03 -0.10421880364E+04  0.11239237719E+04  0.25500000920E-02 0. -1.
       -2    1    3    3    0  502  0.17342275227E+03  0.38337095715E+03  0.89510202881E+02  0.43018695729E+03  0.25500000920E-02 0.  1.
</event>
<event>
 5   0  0.2517023E-03  0.1187180E+04  0.7818609E-02  0.9124152E-01
       -2   -1    0    0    0  501  0.00000000000E+00  0.00000000000E+00  0.56548589465E+03  0.56548589465E+03  0.25500000920E-02 0. -1.
        2   -1    0    0  501    0  0.00000000000E+00  0.00000000000E+00 -0.62309083042E+03  0.62309083043E+03  0.25500000920E-02 0.  1.
    10030    2    1    2    0    0  0.00000000000E+00  0.00000000000E+00 -0.57604935778E+02  0.11885767251E+04  0.11871799791E+04 0.  0.
        3    1    3    3  502    0  0.16873196562E+03  0.50908917909E+03 -0.28347705397E+03  0.60663128737E+03  0.10100000352E+00 0.  1.
       -3    1    3    3    0  502 -0.16873196562E+03 -0.50908917909E+03  0.22587211819E+03  0.58194543771E+03  0.10100000352E+00 0. -1.
</event>
<event>
 5   0  0.9678750E-04  0.1186315E+04  0.7818609E-02  0.9124920E-01
        3   -1    0    0  501    0  0.00000000000E+00  0.00000000000E+00  0.31950039135E+03  0.31950040732E+03  0.10100000352E+00 0. -1.
       -3   -1    0    0    0  501  0.00000000000E+00  0.00000000000E+00 -0.11012066226E+04  0.11012066272E+04  0.10100000352E+00 0.  1.
    10030    2    1    2    0    0  0.00000000000E+00  0.00000000000E+00 -0.78170623124E+03  0.14207070345E+04  0.11863152389E+04 0.  0.
        4    1    3    3  502    0  0.11279241375E+03  0.69830476155E+02 -0.10832115469E+04  0.10913053158E+04  0.12699999809E+01 0.  1.
       -4    1    3    3    0  502 -0.11279241375E+03 -0.69830476155E+02  0.30150531571E+03  0.32940171872E+03  0.12699999809E+01 0. -1.
</event>
<event>
 5   0  0.2580244E-03  0.1196630E+04  0.7818609E-02  0.9115811E-01
       -2   -1    0    0    0  501  0.00000000000E+00  0.00000000000E+00  0.72324018907E+03  0.72324018908E+03  0.25500000920E-02 0. -1.
        2   -1    0    0  501    0  0.00000000000E+00  0.00000000000E+00 -0.49496805269E+03  0.49496805270E+03  0.25500000920E-02 0.  1.
    10030    2    1    2    0    0  0.00000000000E+00  0.00000000000E+00  0.22827213638E+03  0.12182082418E+04  0.11966299144E+04 0.  0.
        1    1    3    3  502    0 -0.14151891344E+03 -0.31960487576E+03 -0.38021903228E+03  0.51647012692E+03  0.50400001928E-02 0.  1.
       -1    1    3    3    0  502  0.14151891344E+03  0.31960487576E+03  0.60849116867E+03  0.70173811485E+03  0.50400001928E-02 0. -1.
</event>
<event>
 5   0  0.2579442E-03  0.1177284E+04  0.7818609E-02  0.9132975E-01
       -2   -1    0    0    0  501  0.00000000000E+00  0.00000000000E+00  0.35559836897E+03  0.35559836897E+03  0.25500000920E-02 0. -1.
        2   -1    0    0  501    0  0.00000000000E+00  0.00000000000E+00 -0.97441222161E+03  0.97441222161E+03  0.25500000920E-02 0.  1.
    10030    2    1    2    0    0  0.00000000000E+00  0.00000000000E+00 -0.61881385264E+03  0.13300105906E+04  0.11772839873E+04 0.  0.
        4    1    3    3  502    0 -0.55585047198E+03  0.53336094766E+02 -0.99012585829E+02  0.56711514815E+03  0.12699999809E+01 0. -1.
       -4    1    3    3    0  502  0.55585047198E+03 -0.53336094766E+02 -0.51980126681E+03  0.76289544244E+03  0.12699999809E+01 0.  1.
</event>
<event>
 5   0  0.1469851E-03  0.1169135E+04  0.7818609E-02  0.9140310E-01
        1   -1    0    0  501    0  0.00000000000E+00  0.00000000000E+00  0.10736926031E+04  0.10736926031E+04  0.50400001928E-02 0.  1.
       -1   -1    0    0    0  501  0.00000000000E+00  0.00000000000E+00 -0.31826520471E+03  0.31826520475E+03  0.50400001928E-02 0. -1.
    10030    2    1    2    0    0  0.00000000000E+00  0.00000000000E+00  0.75542739836E+03  0.13919578078E+04  0.11691347162E+04 0.  0.
        5    1    3    3  502    0 -0.97470016829E+02 -0.30982592670E+03 -0.20092237267E+03  0.38194816255E+03  0.46999998093E+01 0. -1.
       -5    1    3    3    0  502  0.97470016829E+02  0.30982592670E+03  0.95634977103E+03  0.10100096453E+04  0.46999998093E+01 0.  1.
</event>
<event>
 5   0  0.1423024E-03  0.1199622E+04  0.7818609E-02  0.9113188E-01
       -1   -1    0    0    0  501  0.00000000000E+00  0.00000000000E+00  0.92796312921E+03  0.92796312923E+03  0.50400001928E-02 0.  1.
        1   -1    0    0  501    0  0.00000000000E+00  0.00000000000E+00 -0.38770177807E+03  0.38770177810E+03  0.50400001928E-02 0. -1.
    10030    2    1    2    0    0  0.00000000000E+00  0.00000000000E+00  0.54026135114E+03  0.13156649073E+04  0.11996215323E+04 0.  0.
        2    1    3    3  502    0 -0.13995947962E+01 -0.33998968181E+02  0.92690369633E+03  0.92752808635E+03  0.25500000920E-02 0.  1.
       -2    1    3    3    0  502  0.13995947962E+01  0.33998968181E+02 -0.38664234518E+03  0.38813682098E+03  0.25500000920E-02 0. -1.
</event>
<event>
 5   0  0.1469851E-03  0.1204910E+04  0.7818609E-02  0.9108569E-01
        1   -1    0    0  501    0  0.00000000000E+00  0.00000000000E+00  0.66809368507E+03  0.66809368509E+03  0.50400001928E-02 0.  1.
       -1   -1    0    0    0  501  0.00000000000E+00  0.00000000000E+00 -0.54326543994E+03  0.54326543996E+03  0.50400001928E-02 0. -1.
    10030    2    1    2    0    0  0.00000000000E+00  0.00000000000E+00  0.12482824514E+03  0.12113591251E+04  0.12049103033E+04 0.  0.
        5    1    3    3  502    0  0.31167009237E+03 -0.55783466668E+02  0.57768045373E+03  0.65877677422E+03  0.46999998093E+01 0.  1.
       -5    1    3    3    0  502 -0.31167009237E+03  0.55783466668E+02 -0.45285220859E+03  0.55258235084E+03  0.46999998093E+01 0. -1.
</event>
<event>
 5   0  0.2517023E-03  0.1158313E+04  0.7818609E-02  0.9150148E-01
       -2   -1    0    0    0  501  0.00000000000E+00  0.00000000000E+00  0.20838807359E+03  0.20838807360E+03  0.25500000920E-02 0.  1.
        2   -1    0    0  501    0  0.00000000000E+00  0.00000000000E+00 -0.16096044088E+04  0.16096044088E+04  0.25500000920E-02 0. -1.
    10030    2    1    2    0    0  0.00000000000E+00  0.00000000000E+00 -0.14012163352E+04  0.18179924824E+04  0.11583131908E+04 0.  0.
        3    1    3    3  502    0  0.66037013534E+02 -0.27922939738E+03 -0.14902054412E+04  0.15175777445E+04  0.10100000352E+00 0. -1.
       -3    1    3    3    0  502 -0.66037013534E+02  0.27922939738E+03  0.88989106016E+02  0.30041473784E+03  0.10100000352E+00 0.  1.
</event>
<event>
 5   0  0.2484507E-03  0.1204931E+04  0.7818609E-02  0.9108551E-01
        2   -1    0    0  501    0  0.00000000000E+00  0.00000000000E+00  0.12042833602E+04  0.12042833602E+04  0.25500000920E-02 0.  1.
       -2   -1    0    0    0  501  0.00000000000E+00  0.00000000000E+00 -0.30139476016E+03  0.30139476017E+03  0.25500000920E-02 0. -1.
    10030    2    1    2    0    0  0.00000000000E+00  0.00000000000E+00  0.90288860003E+03  0.15056781204E+04  0.12049310263E+04 0.  0.
        2    1    3    3  502    0 -0.57166480554E+03  0.76184601601E+02  0.23371319031E+03  0.62227533998E+03  0.25500000920E-02 0. -1.
       -2    1    3    3    0  502  0.57166480554E+03 -0.76184601601E+02  0.66917540972E+03  0.88340278039E+03  0.25500000920E-02 0.  1.
</event>
<event>
 5   0  0.2499890E-03  0.1196896E+04  0.7818609E-02  0.9115578E-01
        2   -1    0    0  501    0  0.00000000000E+00  0.00000000000E+00  0.35806191710E+03  0.35806191711E+03  0.25500000920E-02 0. -1.
       -2   -1    0    0    0  501  0.00000000000E+00  0.00000000000E+00 -0.10002183055E+04  0.10002183055E+04  0.25500000920E-02 0.  1.
    10030    2    1    2    0    0  0.00000000000E+00  0.00000000000E+00 -0.64215638838E+03  0.13582802226E+04  0.11968961258E+04 0.  0.
        5    1    3    3  502    0  0.22448634329E+03  0.85886352650E+02  0.30085661069E+03  0.38510696448E+03  0.46999998093E+01 0. -1.
       -5    1    3    3    0  502 -0.22448634329E+03 -0.85886352650E+02 -0.94301299907E+03  0.97317325811E+03  0.46999998093E+01 0.  1.
</event>
<event>
 5   0  0.1455076E-03  0.1201340E+04  0.7818609E-02  0.9111685E-01
       -1   -1    0    0    0  501  0.00000000000E+00  0.00000000000E+00  0.18552590057E+04  0.18552590057E+04  0.50400001928E-02 0. -1.
        1   -1    0    0  501    0  0.00000000000E+00  0.00000000000E+00 -0.19447651114E+03  0.19447651121E+03  0.50400001928E-02 0.  1.
    10030    2    1    2    0    0  0.00000000000E+00  0.00000000000E+00  0.16607824946E+04  0.20497355169E+04  0.12013397501E+04 0.  0.
        4    1    3    3  502    0 -0.50944299475E+03 -0.13868596757E+03  0.34169823172E+03  0.62890798767E+03  0.12699999809E+01 0.  1.
       -4    1    3    3    0  502  0.50944299475E+03  0.13868596757E+03  0.13190842629E+04  0.14208275293E+04  0.12699999809E+01 0. -1.
</event>
<event>
 5   0  0.1404833E-03  0.1185638E+04  0.7818609E-02  0.9125521E-01
        1   -1    0    0  501    0  0.00000000000E+00  0.00000000000E+00  0.10427435481E+04  0.10427435481E+04  0.50400001928E-02 0. -1.
       -1   -1    0    0    0  501  0.00000000000E+00  0.00000000000E+00 -0.33702873925E+03  0.33702873929E+03  0.50400001928E-02 0.  1.
    10030    2    1    2    0    0  0.00000000000E+00  0.00000000000E+00  0.70571480885E+03  0.13797722874E+04  0.11856382980E+04 0.  0.
        1    1    3    3  502    0  0.39296255220E+03 -0.40099549927E+03  0.57432742492E+03  0.80316184477E+03  0.50400001928E-02 0.  1.
       -1    1    3    3    0  502 -0.39296255220E+03  0.40099549927E+03  0.13138738393E+03  0.57661044263E+03  0.50400001928E-02 0. -1.
</event>
<event>
 5   0  0.2484507E-03  0.1207648E+04  0.7818609E-02  0.9106189E-01
       -2   -1    0    0    0  501  0.00000000000E+00  0.00000000000E+00  0.47865834531E+03  0.47865834532E+03  0.25500000920E-02 0.  1.
        2   -1    0    0  501    0  0.00000000000E+00  0.00000000000E+00 -0.76171906785E+03  0.76171906785E+03  0.25500000920E-02 0. -1.
    10030    2    1    2    0    0  0.00000000000E+00  0.00000000000E+00 -0.28306072253E+03  0.12403774132E+04  0.12076476119E+04 0.  0.
        2    1    3    3  502    0  0.55588868972E+03  0.22586387749E+03 -0.21101336059E+03  0.63604509657E+03  0.25500000920E-02 0.  1.
       -2    1    3    3    0  502 -0.55588868972E+03 -0.22586387749E+03 -0.72047361948E+02  0.60433231660E+03  0.25500000920E-02 0. -1.
</event>
<event>
 5   0  0.9678750E-04  0.1206932E+04  0.7818609E-02  0.9106811E-01
        3   -1    0    0  501    0  0.00000000000E+00  0.00000000000E+00  0.52670530439E+03  0.52670531407E+03  0.10100000352E+00 0.  1.
       -3   -1    0    0    0  501  0.00000000000E+00  0.00000000000E+00 -0.69141330209E+03  0.69141330947E+03  0.10100000352E+00 0. -1.
    10030    2    1    2    0    0  0.00000000000E+00  0.00000000000E+00 -0.16470799771E+03  0.12181186235E+04  0.12069317530E+04 0.  0.
        4    1    3    3  502    0 -0.34153352932E+03 -0.27130089861E+02  0.41902843693E+03  0.54126484948E+03  0.12699999809E+01 0.  1.
       -4    1    3    3    0  502  0.34153352932E+03  0.27130089861E+02 -0.58373643464E+03  0.67685377406E+03  0.12699999809E+01 0. -1.
</event>
<event>
 5   0  0.1455076E-03  0.1202020E+04  0.7818609E-02  0.9111090E-01
        1   -1    0    0  501    0  0.00000000000E+00  0.00000000000E+00  0.57728296216E+03  0.57728296219E+03  0.50400001928E-02 0.  1.
       -1   -1    0    0    0  501  0.00000000000E+00  0.00000000000E+00 -0.62571260688E+03  0.62571260690E+03  0.50400001928E-02 0. -1.
    10030    2    1    2    0    0  0.00000000000E+00  0.00000000000E+00 -0.48429644713E+02  0.12029955691E+04  0.12020203446E+04 0.  0.
        4    1    3    3  502    0 -0.28763038804E+03  0.20682514709E+03  0.46167235662E+03  0.58193716100E+03  0.12699999809E+01 0.  1.
       -4    1    3    3    0  502  0.28763038804E+03 -0.20682514709E+03 -0.51010200133E+03  0.62105840808E+03  0.12699999809E+01 0. -1.
</event>
<event>
 5   0  0.2579442E-03  0.1205952E+04  0.7818609E-02  0.9107662E-01
       -2   -1    0    0    0  501  0.00000000000E+00  0.00000000000E+00  0.18937178748E+03  0.18937178750E+03  0.25500000920E-02 0.  1.
        2   -1    0    0  501    0  0.00000000000E+00  0.00000000000E+00 -0.19199287840E+04  0.19199287840E+04  0.25500000920E-02 0. -1.
    10030    2    1    2    0    0  0.00000000000E+00  0.00000000000E+00 -0.17305569965E+04  0.21093005715E+04  0.12059524795E+04 0.  0.
        4    1    3    3  502    0 -0.23979926523E+03  0.28073032555E+03 -0.16991037823E+04  0.17387548646E+04  0.12699999809E+01 0. -1.
       -4    1    3    3    0  502  0.23979926523E+03 -0.28073032555E+03 -0.31453214191E+02  0.37054570686E+03  0.12699999809E+01 0.  1.
</event>
<event>
 5   0  0.1469851E-03  0.1207019E+04  0.7818609E-02  0.9106735E-01
       -1   -1    0    0    0  501  0.00000000000E+00  0.00000000000E+00  0.27491959573E+03  0.27491959577E+03  0.50400001928E-02 0.  1.
        1   -1    0    0  501    0  0.00000000000E+00  0.00000000000E+00 -0.13248366477E+04  0.13248366477E+04  0.50400001928E-02 0. -1.
    10030    2    1    2    0    0  0.00000000000E+00  0.00000000000E+00 -0.10499170520E+04  0.15997562435E+04  0.12070187333E+04 0.  0.
        5    1    3    3  502    0  0.18295925888E+03  0.43419574017E+03 -0.25163658519E+02  0.47186367830E+03  0.46999998093E+01 0.  1.
       -5    1    3    3    0  502 -0.18295925888E+03 -0.43419574017E+03 -0.10247533935E+04  0.11278925652E+04  0.46999998093E+01 0. -1.
</event>
<event>
 5   0  0.2499890E-03  0.1201538E+04  0.7818609E-02  0.9111511E-01
       -2   -1    0    0    0  501  0.00000000000E+00  0.00000000000E+00  0.15960420774E+03  0.15960420776E+03  0.25500000920E-02 0. -1.
        2   -1    0    0  501    0  0.00000000000E+00  0.00000000000E+00 -0.22613654597E+04  0.22613654597E+04  0.25500000920E-02 0.  1.
    10030    2    1    2    0    0  0.00000000000E+00  0.00000000000E+00 -0.21017612519E+04  0.24209696674E+04  0.12015380853E+04 0.  0.
        5    1    3    3  502    0  0.59297479368E+03 -0.68168560830E+02 -0.11880605159E+04  0.13295773531E+04  0.46999998093E+01 0.  1.
       -5    1    3    3    0  502 -0.59297479368E+03  0.68168560830E+02 -0.91370073606E+03  0.10913923143E+04  0.46999998093E+01 0. -1.
</event>
<event>
 5   0  0.2580244E-03  0.1198442E+04  0.7818609E-02  0.9114221E-01
       -2   -1    0    0    0  501  0.00000000000E+00  0.00000000000E+00  0.69167697025E+03  0.69167697025E+03  0.25500000920E-02 0.  1.
        2   -1    0    0  501    0  0.00000000000E+00  0.00000000000E+00 -0.51912384302E+03  0.51912384302E+03  0.25500000920E-02 0. -1.
    10030    2    1    2    0    0  0.00000000000E+00  0.00000000000E+00  0.17255312723E+03  0.12108008133E+04  0.11984423339E+04 0.  0.
        1    1    3    3  502    0 -0.17816376143E+03 -0.44805659544E+03 -0.27315745816E+03  0.55417689918E+03  0.50400001928E-02 0. -1.
       -1    1    3    3    0  502  0.17816376143E+03  0.44805659544E+03  0.44571058539E+03  0.65662391410E+03  0.50400001928E-02 0.  1.
</event>
<event>
 5   0  0.1404833E-03  0.1199314E+04  0.7818609E-02  0.9113457E-01
       -1   -1    0    0    0  501  0.00000000000E+00  0.00000000000E+00  0.25138011147E+03  0.25138011152E+03  0.50400001928E-02 0. -1.
        1   -1    0    0  501    0  0.00000000000E+00  0.00000000000E+00 -0.14304575602E+04  0.14304575602E+04  0.50400001928E-02 0.  1.
    10030    2    1    2    0    0  0.00000000000E+00  0.00000000000E+00 -0.11790774488E+04  0.16818376718E+04  0.11993141056E+04 0.  0.
        1    1    3    3  502    0  0.42655734590E+03 -0.13783189339E+02 -0.11802646043E+04  0.12550560473E+04  0.50400001928E-02 0.  1.
       -1    1    3    3    0  502 -0.42655734590E+03  0.13783189339E+02  0.11871555158E+01  0.42678162450E+03  0.50400001928E-02 0. -1.
</event>
<event>
 5   0  0.9678750E-04  0.1194521E+04  0.7818609E-02  0.9117666E-01
        3   -1    0    0  501    0  0.00000000000E+00  0.00000000000E+00  0.63113184831E+03  0.63113185639E+03  0.10100000352E+00 0.  1.
       -3   -1    0    0    0  501  0.00000000000E+00  0.00000000000E+00 -0.56520666793E+03  0.56520667695E+03  0.10100000352E+00 0. -1.
    10030    2    1    2    0    0  0.00000000000E+00  0.00000000000E+00  0.65925180377E+02  0.11963385333E+04  0.11945207227E+04 0.  0.
        5    1    3    3  502    0 -0.11467652555E+03  0.49892319980E+03  0.34103887251E+03  0.61514605369E+03  0.46999998093E+01 0.  1.
       -5    1    3    3    0  502  0.11467652555E+03 -0.49892319980E+03 -0.27511369214E+03  0.58119247965E+03  0.46999998093E+01 0. -1.
</event>
<event>
 5   0  0.1423024E-03  0.1115148E+04  0.7818609E-02  0.9190552E-01
        1   -1    0    0  501    0  0.00000000000E+00  0.00000000000E+00  0.68877773497E+03  0.68877773499E+03  0.50400001928E-02 0.  1.
       -1   -1    0    0    0  501  0.00000000000E+00  0.00000000000E+00 -0.45136284825E+03  0.45136284828E+03  0.50400001928E-02 0. -1.
    10030    2    1    2    0    0  0.00000000000E+00  0.00000000000E+00  0.23741488672E+03  0.11401405833E+04  0.11151478472E+04 0.  0.
        2    1    3    3  502    0  0.55339286357E+03 -0.88823083972E+01  0.49619895526E+02  0.55568398473E+03  0.25500000920E-02 0. -1.
       -2    1    3    3    0  502 -0.55339286357E+03  0.88823083972E+01  0.18779499119E+03  0.58445659853E+03  0.25500000920E-02 0.  1.
</event>
<event>
 5   0  0.1455076E-03  0.1200488E+04  0.7818609E-02  0.9112430E-01
        1   -1    0    0  501    0  0.00000000000E+00  0.00000000000E+00  0.71873196645E+03  0.71873196647E+03  0.50400001928E-02 0.  1.
       -1   -1    0    0    0  501  0.00000000000E+00  0.00000000000E+00 -0.50128921530E+03  0.50128921532E+03  0.50400001928E-02 0. -1.
    10030    2    1    2    0    0  0.00000000000E+00  0.00000000000E+00  0.21744275116E+03  0.12200211818E+04  0.12004875401E+04 0.  0.
        4    1    3    3  502    0  0.38140122505E+03 -0.22778031097E+03  0.51894800114E+03  0.68312473628E+03  0.12699999809E+01 0.  1.
       -4    1    3    3    0  502 -0.38140122505E+03  0.22778031097E+03 -0.30150524998E+03  0.53689644551E+03  0.12699999809E+01 0. -1.
</event>
<event>
 5   0  0.1455076E-03  0.1224324E+04  0.7818609E-02  0.9091828E-01
        1   -1    0    0  501    0  0.00000000000E+00  0.00000000000E+00  0.63351477699E+03  0.63351477701E+03  0.50400001928E-02 0.  1.
       -1   -1    0    0    0  501  0.00000000000E+00  0.00000000000E+00 -0.59152876186E+03  0.59152876188E+03  0.50400001928E-02 0. -1.
    10030    2    1    2    0    0  0.00000000000E+00  0.00000000000E+00  0.41986015129E+02  0.12250435389E+04  0.12243238325E+04 0.  0.
        4    1    3    3  502    0 -0.32770514795E+03  0.70193525956E+02 -0.49158032337E+03  0.59495430270E+03  0.12699999809E+01 0. -1.
       -4    1    3    3    0  502  0.32770514795E+03 -0.70193525956E+02  0.53356633850E+03  0.63008923619E+03  0.12699999809E+01 0.  1.
</event>
<event>
 5   0  0.1404833E-03  0.1209555E+04  0.7818609E-02  0.9104534E-01
       -1   -1    0    0    0  501  0.00000000000E+00  0.00000000000E+00  0.60059015920E+03  0.60059015922E+03  0.50400001928E-02 0.  1.
        1   -1    0    0  501    0  0.00000000000E+00  0.00000000000E+00 -0.60899437494E+03  0.60899437496E+03  0.50400001928E-02 0. -1.
    10030    2    1    2    0    0  0.00000000000E+00  0.00000000000E+00 -0.84042157390E+01  0.12095845342E+04  0.12095553375E+04 0.  0.
        1    1    3    3  502    0 -0.35317975815E+03 -0.45051050762E+03  0.19089327138E+03  0.60343674078E+03  0.50400001928E-02 0.  1.
       -1    1    3    3    0  502  0.35317975815E+03  0.45051050762E+03 -0.19929748712E+03  0.60614779340E+03  0.50400001928E-02 0. -1.
</event>
<event>
 5   0  0.2499890E-03  0.1184081E+04  0.7818609E-02  0.9126906E-01
       -2   -1    0    0    0  501  0.00000000000E+00  0.00000000000E+00  0.56341623087E+03  0.56341623088E+03  0.25500000920E-02 0. -1.
        2   -1    0    0  501    0  0.00000000000E+00  0.00000000000E+00 -0.62211884463E+03  0.62211884464E+03  0.25500000920E-02 0.  1.
    10030    2    1    2    0    0  0.00000000000E+00  0.00000000000E+00 -0.58702613764E+02  0.11855350755E+04  0.11840808327E+04 0.  0.
        5    1    3    3  502    0 -0.11382007541E+02 -0.31995785236E+03 -0.52794603012E+03  0.61745581065E+03  0.46999998093E+01 0.  1.
       -5    1    3    3    0  502  0.11382007541E+02  0.31995785236E+03  0.46924341636E+03  0.56807926487E+03  0.46999998093E+01 0. -1.
</event>
<event>
 5   0  0.2484507E-03  0.1264285E+04  0.7818609E-02  0.9058377E-01
       -2   -1    0    0    0  501  0.00000000000E+00  0.00000000000E+00  0.57942578264E+03  0.57942578264E+03  0.25500000920E-02 0. -1.
        2   -1    0    0  501    0  0.00000000000E+00  0.00000000000E+00 -0.68965502627E+03  0.68965502628E+03  0.25500000920E-02 0.  1.
    10030    2    1    2    0    0  0.00000000000E+00  0.00000000000E+00 -0.11022924364E+03  0.12690808089E+04  0.12642846252E+04 0.  0.
        2    1    3    3  502    0  0.12380680234E+03  0.61846754444E+03 -0.12839827265E+02  0.63086851958E+03  0.25500000920E-02 0.  1.
       -2    1    3    3    0  502 -0.12380680234E+03 -0.61846754444E+03 -0.97389416371E+02  0.63821228934E+03  0.25500000920E-02 0. -1.
</event>
<event>
 5   0  0.1423024E-03  0.1213732E+04  0.7818609E-02  0.9100921E-01
       -1   -1    0    0    0  501  0.00000000000E+00  0.00000000000E+00  0.37536099674E+03  0.37536099677E+03  0.50400001928E-02 0.  1.
        1   -1    0    0  501    0  0.00000000000E+00  0.00000000000E+00 -0.98115276942E+03  0.98115276943E+03  0.50400001928E-02 0. -1.
    10030    2    1    2    0    0  0.00000000000E+00  0.00000000000E+00 -0.60579177268E+03  0.13565137662E+04  0.12137322300E+04 0.  0.
        2    1    3    3  502    0 -0.38826280338E+03 -0.43897875335E+03 -0.47902992484E+03  0.75691480318E+03  0.25500000920E-02 0. -1.
       -2    1    3    3    0  502  0.38826280338E+03  0.43897875335E+03 -0.12676184784E+03  0.59959896302E+03  0.25500000920E-02 0.  1.
</event>
<event>
 5   0  0.1404833E-03  0.1205127E+04  0.7818609E-02  0.9108381E-01
       -1   -1    0    0    0  501  0.00000000000E+00  0.00000000000E+00  0.24293100614E+03  0.24293100619E+03  0.50400001928E-02 0. -1.
        1   -1    0    0  501    0  0.00000000000E+00  0.00000000000E+00 -0.14945914731E+04  0.14945914731E+04  0.50400001928E-02 0.  1.
    10030    2    1    2    0    0  0.00000000000E+00  0.00000000000E+00 -0.12516604669E+04  0.17375224793E+04  0.12051267325E+04 0.  0.
        1    1    3    3  502    0 -0.54783872475E+02 -0.11819341588E+03 -0.14740449891E+04  0.14797903859E+04  0.50400001928E-02 0.  1.
       -1    1    3    3    0  502  0.54783872475E+02  0.11819341588E+03  0.22238452216E+03  0.25773209339E+03  0.50400001928E-02 0. -1.
</event>
<event>
 5   0  0.1403154E-03  0.1121525E+04  0.7818609E-02  0.9184462E-01
        1   -1    0    0  501    0  0.00000000000E+00  0.00000000000E+00  0.18323972081E+04  0.18323972081E+04  0.50400001928E-02 0.  1.
       -1   -1    0    0    0  501  0.00000000000E+00  0.00000000000E+00 -0.17160836247E+03  0.17160836254E+03  0.50400001928E-02 0. -1.
    10030    2    1    2    0    0  0.00000000000E+00  0.00000000000E+00  0.16607888457E+04  0.20040055707E+04  0.11215251836E+04 0.  0.
        3    1    3    3  502    0 -0.25018004221E+03 -0.30886403891E+03  0.12358530833E+03  0.41624558459E+03  0.10100000352E+00 0. -1.
       -3    1    3    3    0  502  0.25018004221E+03  0.30886403891E+03  0.15372035373E+04  0.15877599861E+04  0.10100000352E+00 0.  1.
</event>
<event>
 5   0  0.1404833E-03  0.1188041E+04  0.7818609E-02  0.9123389E-01
        1   -1    0    0  501    0  0.00000000000E+00  0.00000000000E+00  0.87103267195E+03  0.87103267196E+03  0.50400001928E-02 0.  1.
       -1   -1    0    0    0  501  0.00000000000E+00  0.00000000000E+00 -0.40510602898E+03  0.40510602901E+03  0.50400001928E-02 0. -1.
    10030    2    1    2    0    0  0.00000000000E+00  0.00000000000E+00  0.46592664297E+03  0.12761387010E+04  0.11880413913E+04 0.  0.
        1    1    3    3  502    0  0.53293104680E+03 -0.19526578724E+03  0.44706304866E+02  0.56933547407E+03  0.50400001928E-02 0.  1.
       -1    1    3    3    0  502 -0.53293104680E+03  0.19526578724E+03  0.42122033810E+03  0.70680322691E+03  0.50400001928E-02 0. -1.
</event>
<event>
 5   0  0.1455076E-03  0.1333332E+04  0.7818609E-02  0.9003542E-01
       -1   -1    0    0    0  501  0.00000000000E+00  0.00000000000E+00  0.35932838476E+03  0.35932838479E+03  0.50400001928E-02 0.  1.
        1   -1    0    0  501    0  0.00000000000E+00  0.00000000000E+00 -0.12368737849E+04  0.12368737849E+04  0.50400001928E-02 0. -1.
    10030    2    1    2    0    0  0.00000000000E+00  0.00000000000E+00 -0.87754540012E+03  0.15962021697E+04  0.13333324556E+04 0.  0.
        4    1    3    3  502    0 -0.66575878971E+02 -0.46715208158E+03 -0.10025524744E+04  0.11080507623E+04  0.12699999809E+01 0. -1.
       -4    1    3    3    0  502  0.66575878971E+02  0.46715208158E+03  0.12500707430E+03  0.48815140737E+03  0.12699999809E+01 0.  1.
</event>
<event>
 5   0  0.1455076E-03  0.1189160E+04  0.7818609E-02  0.9122398E-01
       -1   -1    0    0    0  501  0.00000000000E+00  0.00000000000E+00  0.64406744496E+03  0.64406744498E+03  0.50400001928E-02 0. -1.
        1   -1    0    0  501    0  0.00000000000E+00  0.00000000000E+00 -0.54889454079E+03  0.54889454081E+03  0.50400001928E-02 0.  1.
    10030    2    1    2    0    0  0.00000000000E+00  0.00000000000E+00  0.95172904170E+02  0.11929619858E+04  0.11891595426E+04 0.  0.
        4    1    3    3  502    0  0.10811681749E+03 -0.89426154110E+02 -0.53204754436E+03  0.55023857155E+03  0.12699999809E+01 0.  1.
       -4    1    3    3    0  502 -0.10811681749E+03  0.89426154110E+02  0.62722044853E+03  0.64272341424E+03  0.12699999809E+01 0. -1.
</event>
<event>
 5   0  0.1403154E-03  0.1179017E+04  0.7818609E-02  0.9131423E-01
       -1   -1    0    0    0  501  0.00000000000E+00  0.00000000000E+00  0.35199278437E+03  0.35199278441E+03  0.50400001928E-02 0.  1.
        1   -1    0    0  501    0  0.00000000000E+00  0.00000000000E+00 -0.98729457284E+03  0.98729457285E+03  0.50400001928E-02 0. -1.
    10030    2    1    2    0    0  0.00000000000E+00  0.00000000000E+00 -0.63530178847E+03  0.13392873573E+04  0.11790174990E+04 0.  0.
        3    1    3    3  502    0  0.25107452810E+03  0.46838372269E+03 -0.60747872994E+03  0.80712585628E+03  0.10100000352E+00 0. -1.
       -3    1    3    3    0  502 -0.25107452810E+03 -0.46838372269E+03 -0.27823058526E+02  0.53216150099E+03  0.10100000352E+00 0.  1.
</event>
<event>
 5   0  0.2484507E-03  0.1221621E+04  0.7818609E-02  0.9094140E-01
       -2   -1    0    0    0  501  0.00000000000E+00  0.00000000000E+00  0.37819250339E+03  0.37819250340E+03  0.25500000920E-02 0.  1.
        2   -1    0    0  501    0  0.00000000000E+00  0.00000000000E+00 -0.98650599462E+03  0.98650599462E+03  0.25500000920E-02 0. -1.
    10030    2    1    2    0    0  0.00000000000E+00  0.00000000000E+00 -0.60831349123E+03  0.13646984980E+04  0.12216205167E+04 0.  0.
        2    1    3    3  502    0 -0.45598712639E+02 -0.21413090213E+03  0.33285514816E+03  0.39840160078E+03  0.25500000920E-02 0.  1.
       -2    1    3    3    0  502  0.45598712639E+02  0.21413090213E+03 -0.94116863939E+03  0.96629689724E+03  0.25500000920E-02 0. -1.
</event>
<event>
 5   0  0.1469851E-03  0.1188482E+04  0.7818609E-02  0.9122999E-01
        1   -1    0    0  501    0  0.00000000000E+00  0.00000000000E+00  0.22769693539E+04  0.22769693539E+04  0.50400001928E-02 0. -1.
       -1   -1    0    0    0  501  0.00000000000E+00  0.00000000000E+00 -0.15508432379E+03  0.15508432387E+03  0.50400001928E-02 0.  1.
    10030    2    1    2    0    0  0.00000000000E+00  0.00000000000E+00  0.21218850301E+04  0.24320536778E+04  0.11884818091E+04 0.  0.
        5    1    3    3  502    0  0.14998296541E+03 -0.33649592200E+03  0.10685946339E+03  0.38362146754E+03  0.46999998093E+01 0.  1.
       -5    1    3    3    0  502 -0.14998296541E+03  0.33649592200E+03  0.20150255667E+04  0.20484322103E+04  0.46999998093E+01 0. -1.
</event>
<event>
 5   0  0.2580244E-03  0.1198949E+04  0.7818609E-02  0.9113777E-01
        2   -1    0    0  501    0  0.00000000000E+00  0.00000000000E+00  0.15719473803E+04  0.15719473803E+04  0.25500000920E-02 0. -1.
       -2   -1    0    0    0  501  0.00000000000E+00  0.00000000000E+00 -0.22861440819E+03  0.22861440820E+03  0.25500000920E-02 0.  1.
    10030    2    1    2    0    0  0.00000000000E+00  0.00000000000E+00  0.13433329721E+04  0.18005617885E+04  0.11989492401E+04 0.  0.
        1    1    3    3  502    0  0.19594387826E+03  0.40587746557E+03  0.12652780794E+04  0.13431526863E+04  0.50400001928E-02 0. -1.
       -1    1    3    3    0  502 -0.19594387826E+03 -0.40587746557E+03  0.78054892715E+02  0.45740910221E+03  0.50400001928E-02 0.  1.
</event>
<event>
 5   0  0.1403154E-03  0.1204504E+04  0.7818609E-02  0.9108924E-01
       -1   -1    0    0    0  501  0.00000000000E+00  0.00000000000E+00  0.19942714258E+03  0.19942714264E+03  0.50400001928E-02 0.  1.
        1   -1    0    0  501    0  0.00000000000E+00  0.00000000000E+00 -0.18187457716E+04  0.18187457716E+04  0.50400001928E-02 0. -1.
    10030    2    1    2    0    0  0.00000000000E+00  0.00000000000E+00 -0.16193186291E+04  0.20181729143E+04  0.12045036694E+04 0.  0.
        3    1    3    3  502    0  0.41298802077E+02  0.52202316015E+03 -0.13080913077E+04  0.14090126508E+04  0.10100000352E+00 0.  1.
       -3    1    3    3    0  502 -0.41298802077E+02 -0.52202316015E+03 -0.31122732138E+03  0.60916026344E+03  0.10100000352E+00 0. -1.
</event>
<event>
 5   0  0.2580244E-03  0.1174887E+04  0.7818609E-02  0.9135126E-01
        2   -1    0    0  501    0  0.00000000000E+00  0.00000000000E+00  0.31848899503E+03  0.31848899504E+03  0.25500000920E-02 0. -1.
       -2   -1    0    0    0  501  0.00000000000E+00  0.00000000000E+00 -0.10835228198E+04  0.10835228198E+04  0.25500000920E-02 0.  1.
    10030    2    1    2    0    0  0.00000000000E+00  0.00000000000E+00 -0.76503382475E+03  0.14020118148E+04  0.11748873886E+04 0.  0.
        1    1    3    3  502    0  0.46122253942E+03 -0.29883184830E+03 -0.13488333222E+03  0.56588003832E+03  0.50400001928E-02 0. -1.
       -1    1    3    3    0  502 -0.46122253942E+03  0.29883184830E+03 -0.63015049252E+03  0.83613177650E+03  0.50400001928E-02 0.  1.
</event>
<event>
 5   0  0.1404833E-03  0.1190202E+04  0.7818609E-02  0.9121476E-01
        1   -1    0    0  501    0  0.00000000000E+00  0.00000000000E+00  0.49502258982E+03  0.49502258984E+03  0.50400001928E-02 0. -1.
       -1   -1    0    0    0  501  0.00000000000E+00  0.00000000000E+00 -0.71541223541E+03  0.71541223543E+03  0.50400001928E-02 0.  1.
    10030    2    1    2    0    0  0.00000000000E+00  0.00000000000E+00 -0.22038964560E+03  0.12104348253E+04  0.11902020292E+04 0.  0.
        1    1    3    3  502    0 -0.11528867548E+03  0.26004529078E+03  0.42140528756E+03  0.50842644341E+03  0.50400001928E-02 0. -1.
       -1    1    3    3    0  502  0.11528867548E+03 -0.26004529078E+03 -0.64179493316E+03  0.70200838186E+03  0.50400001928E-02 0.  1.
</event>
<event>
 5   0  0.2499890E-03  0.1234086E+04  0.7818609E-02  0.9083533E-01
        2   -1    0    0  501    0  0.00000000000E+00  0.00000000000E+00  0.16056598614E+04  0.16056598614E+04  0.25500000920E-02 0.  1.
       -2   -1    0    0    0  501  0.00000000000E+00  0.00000000000E+00 -0.23712506558E+03  0.23712506560E+03  0.25500000920E-02 0. -1.
    10030    2    1    2    0    0  0.00000000000E+00  0.00000000000E+00  0.13685347958E+04  0.18427849270E+04  0.12340862206E+04 0.  0.
        5    1    3    3  502    0  0.12562075157E+03  0.42157810636E+03  0.13303608453E+04  0.14012104559E+04  0.46999998093E+01 0.  1.
       -5    1    3    3    0  502 -0.12562075157E+03 -0.42157810636E+03  0.38173950449E+02  0.44157447104E+03  0.46999998093E+01 0. -1.
</event>
<event>
 5   0  0.1423024E-03  0.1218836E+04  0.7818609E-02  0.9096527E-01
       -1   -1    0    0    0  501  0.00000000000E+00  0.00000000000E+00  0.21291479138E+03  0.21291479144E+03  0.50400001928E-02 0.  1.
        1   -1    0    0  501    0  0.00000000000E+00  0.00000000000E+00 -0.17443139608E+04  0.17443139608E+04  0.50400001928E-02 0. -1.
    10030    2    1    2    0    0  0.00000000000E+00  0.00000000000E+00 -0.15313991694E+04  0.19572287522E+04  0.12188359088E+04 0.  0.
        2    1    3    3  502    0 -0.54792968528E+03  0.20764473391E+03 -0.49676955325E+03  0.76819480900E+03  0.25500000920E-02 0. -1.
       -2    1    3    3    0  502  0.54792968528E+03 -0.20764473391E+03 -0.10346296161E+04  0.11890339432E+04  0.25500000920E-02 0.  1.
</event>
<event>
 5   0  0.2517023E-03  0.1172087E+04  0.7818609E-02  0.9137645E-01
        2   -1    0    0  501    0  0.00000000000E+00  0.00000000000E+00  0.97960402659E+03  0.97960402659E+03  0.25500000920E-02 0. -1.
       -2   -1    0    0    0  501  0.00000000000E+00  0.00000000000E+00 -0.35059796430E+03  0.35059796431E+03  0.25500000920E-02 0.  1.
    10030    2    1    2    0    0  0.00000000000E+00  0.00000000000E+00  0.62900606229E+03  0.13302019909E+04  0.11720873305E+04 0.  0.
        3    1    3    3  502    0 -0.30748884425E+03  0.11765274698E+03  0.86473134106E+03  0.92528474570E+03  0.10100000352E+00 0. -1.
       -3    1    3    3    0  502  0.30748884425E+03 -0.11765274698E+03 -0.23572527877E+03  0.40491724520E+03  0.10100000352E+00 0.  1.
</event>
<event>
 5   0  0.2484507E-03  0.1198166E+04  0.7818609E-02  0.9114463E-01
        2   -1    0    0  501    0  0.00000000000E+00  0.00000000000E+00  0.25563853710E+03  0.25563853711E+03  0.25500000920E-02 0. -1.
       -2   -1    0    0    0  501  0.00000000000E+00  0.00000000000E+00 -0.14039376957E+04  0.14039376957E+04  0.25500000920E-02 0.  1.
    10030    2    1    2    0    0  0.00000000000E+00  0.00000000000E+00 -0.11482991586E+04  0.16595762328E+04  0.11981662300E+04 0.  0.
        2    1    3    3  502    0 -0.39775143070E+03 -0.29818643632E+03 -0.10372345466E+04  0.11502073100E+04  0.25500000920E-02 0.  1.
       -2    1    3    3    0  502  0.39775143070E+03  0.29818643632E+03 -0.11106461201E+03  0.50936892276E+03  0.25500000920E-02 0. -1.
</event>
<event>
 5   0  0.9678750E-04  0.1189420E+04  0.7818609E-02  0.9122168E-01
       -4   -1    0    0    0  501  0.00000000000E+00  0.00000000000E+00  0.88312199194E+03  0.88312290512E+03  0.12699999809E+01 0. -1.
        4   -1    0    0  501    0  0.00000000000E+00  0.00000000000E+00 -0.40048640060E+03  0.40048841427E+03  0.12699999809E+01 0.  1.
    10030    2    1    2    0    0  0.00000000000E+00  0.00000000000E+00  0.48263559134E+03  0.12836113194E+04  0.11894204073E+04 0.  0.
        5    1    3    3  502    0 -0.54996385605E+03 -0.22613231908E+03  0.23281560795E+03  0.63860885211E+03  0.46999998093E+01 0. -1.
       -5    1    3    3    0  502  0.54996385605E+03  0.22613231908E+03  0.24981998339E+03  0.64500246728E+03  0.46999998093E+01 0.  1.
</event>
<event>
 5   0  0.2499890E-03  0.1198243E+04  0.7818609E-02  0.9114396E-01
       -2   -1    0    0    0  501  0.00000000000E+00  0.00000000000E+00  0.19601419797E+03  0.19601419798E+03  0.25500000920E-02 0. -1.
        2   -1    0    0  501    0  0.00000000000E+00  0.00000000000E+00 -0.18312281537E+04  0.18312281537E+04  0.25500000920E-02 0.  1.
    10030    2    1    2    0    0  0.00000000000E+00  0.00000000000E+00 -0.16352139557E+04  0.20272423516E+04  0.11982432438E+04 0.  0.
        5    1    3    3  502    0 -0.38465566988E+03 -0.24958291234E+03 -0.16526285567E+03  0.48742744687E+03  0.46999998093E+01 0. -1.
       -5    1    3    3    0  502  0.38465566988E+03  0.24958291234E+03 -0.14699511000E+04  0.15398149048E+04  0.46999998093E+01 0.  1.
</event>
<event>
 5   0  0.2499890E-03  0.1197449E+04  0.7818609E-02  0.9115092E-01
        2   -1    0    0  501    0  0.00000000000E+00  0.00000000000E+00  0.14048264612E+04  0.14048264612E+04  0.25500000920E-02 0. -1.
       -2   -1    0    0    0  501  0.00000000000E+00  0.00000000000E+00 -0.25517107623E+03  0.25517107624E+03  0.25500000920E-02 0.  1.
    10030    2    1    2    0    0  0.00000000000E+00  0.00000000000E+00  0.11496553850E+04  0.16599975375E+04  0.11974490888E+04 0.  0.
        5    1    3    3  502    0  0.15999581115E+03  0.46315196150E+03  0.10517166353E+04  0.11602751268E+04  0.46999998093E+01 0. -1.
       -5    1    3    3    0  502 -0.15999581115E+03 -0.46315196150E+03  0.97938749753E+02  0.49972241067E+03  0.46999998093E+01 0.  1.
</event>
<event>
 5   0  0.2517023E-03  0.1230068E+04  0.7818609E-02  0.9086938E-01
        2   -1    0    0  501    0  0.00000000000E+00  0.00000000000E+00  0.68603112215E+03  0.68603112215E+03  0.25500000920E-02 0. -1.
       -2   -1    0    0    0  501  0.00000000000E+00  0.00000000000E+00 -0.55138415350E+03  0.55138415350E+03  0.25500000920E-02 0.  1.
    10030    2    1    2    0    0  0.00000000000E+00  0.00000000000E+00  0.13464696865E+03  0.12374152757E+04  0.12300677860E+04 0.  0.
        3    1    3    3  502    0 -0.28112521369E+02 -0.24760304979E+03  0.63297132843E+03  0.68025752252E+03  0.10100000352E+00 0. -1.
       -3    1    3    3    0  502  0.28112521369E+02  0.24760304979E+03 -0.49832435978E+03  0.55715775313E+03  0.10100000352E+00 0.  1.
</event>
<event>
 5   0  0.2580244E-03  0.1197442E+04  0.7818609E-02  0.9115098E-01
       -2   -1    0    0    0  501  0.00000000000E+00  0.00000000000E+00  0.17368307775E+03  0.17368307777E+03  0.25500000920E-02 0.  1.
        2   -1    0    0  501    0  0.00000000000E+00  0.00000000000E+00 -0.20639140854E+04  0.20639140854E+04  0.25500000920E-02 0. -1.
    10030    2    1    2    0    0  0.00000000000E+00  0.00000000000E+00 -0.18902310076E+04  0.22375971631E+04  0.11974421916E+04 0.  0.
        1    1    3    3  502    0  0.19551854882E+03 -0.43044260675E+03 -0.25863589013E+03  0.53888854537E+03  0.50400001928E-02 0.  1.
       -1    1    3    3    0  502 -0.19551854882E+03  0.43044260675E+03 -0.16315951175E+04  0.16987086178E+04  0.50400001928E-02 0. -1.
</event>
<event>
 5   0  0.1469851E-03  0.1204721E+04  0.7818609E-02  0.9108734E-01
        1   -1    0    0  501    0  0.00000000000E+00  0.00000000000E+00  0.12273363702E+04  0.12273363702E+04  0.50400001928E-02 0.  1.
       -1   -1    0    0    0  501  0.00000000000E+00  0.00000000000E+00 -0.29563052414E+03  0.29563052418E+03  0.50400001928E-02 0. -1.
    10030    2    1    2    0    0  0.00000000000E+00  0.00000000000E+00  0.93170584604E+03  0.15229668944E+04  0.12047208713E+04 0.  0.
        5    1    3    3  502    0 -0.28886580853E+03  0.46118475509E+03  0.79229462751E+03  0.96119077214E+03  0.46999998093E+01 0.  1.
       -5    1    3    3    0  502  0.28886580853E+03 -0.46118475509E+03  0.13941121853E+03  0.56177612224E+03  0.46999998093E+01 0. -1.
</event>
<event>
 5   0  0.1404833E-03  0.1202884E+04  0.7818609E-02  0.9110336E-01
       -1   -1    0    0    0  501  0.00000000000E+00  0.00000000000E+00  0.49159009356E+03  0.49159009359E+03  0.50400001928E-02 0. -1.
        1   -1    0    0  501    0  0.00000000000E+00  0.00000000000E+00 -0.73584216603E+03  0.73584216605E+03  0.50400001928E-02 0.  1.
    10030    2    1    2    0    0  0.00000000000E+00  0.00000000000E+00 -0.24425207247E+03  0.12274322596E+04  0.12028843989E+04 0.  0.
        1    1    3    3  502    0  0.40660481734E+03  0.25630392606E+03 -0.49104750420E+03  0.68712941387E+03  0.50400001928E-02 0.  1.
       -1    1    3    3    0  502 -0.40660481734E+03 -0.25630392606E+03  0.24679543173E+03  0.54030284577E+03  0.50400001928E-02 0. -1.
</event>
<event>
 5   0  0.9678750E-04  0.1188673E+04  0.7818609E-02  0.9122829E-01
       -3   -1    0    0    0  501  0.00000000000E+00  0.00000000000E+00  0.33666826850E+03  0.33666828365E+03  0.10100000352E+00 0.  1.
        3   -1    0    0  501    0  0.00000000000E+00  0.00000000000E+00 -0.10492101728E+04  0.10492101777E+04  0.10100000352E+00 0. -1.
    10030    2    1    2    0    0  0.00000000000E+00  0.00000000000E+00 -0.71254190434E+03  0.13858784613E+04  0.11886728499E+04 0.  0.
        3    1    3    3  502    0  0.16652083787E+03  0.45516549295E+03 -0.75733339683E+03  0.89914331426E+03  0.10100000352E+00 0. -1.
       -3    1    3    3    0  502 -0.16652083787E+03 -0.45516549295E+03  0.44791492494E+02  0.48673514709E+03  0.10100000352E+00 0.  1.
</event>
<event>
 5   0  0.2484507E-03  0.1195457E+04  0.7818609E-02  0.9116843E-01
       -2   -1    0    0    0  501  0.00000000000E+00  0.00000000000E+00  0.51999757174E+03  0.51999757174E+03  0.25500000920E-02 0. -1.
        2   -1    0    0  501    0  0.00000000000E+00  0.00000000000E+00 -0.68707866563E+03  0.68707866564E+03  0.25500000920E-02 0.  1.
    10030    2    1    2    0    0  0.00000000000E+00  0.00000000000E+00 -0.16708109390E+03  0.12070762374E+04  0.11954567959E+04 0.  0.
        2    1    3    3  502    0 -0.40733090765E+03  0.63621706225E+02  0.35346286775E+03  0.54304897451E+03  0.25500000920E-02 0. -1.
       -2    1    3    3    0  502  0.40733090765E+03 -0.63621706225E+02 -0.52054396164E+03  0.66402726287E+03  0.25500000920E-02 0.  1.
</event>
<event>
 5   0  0.1423024E-03  0.1209166E+04  0.7818609E-02  0.9104871E-01
       -1   -1    0    0    0  501  0.00000000000E+00  0.00000000000E+00  0.24573843330E+03  0.24573843335E+03  0.50400001928E-02 0. -1.
        1   -1    0    0  501    0  0.00000000000E+00  0.00000000000E+00 -0.14874368700E+04  0.14874368700E+04  0.50400001928E-02 0.  1.
    10030    2    1    2    0    0  0.00000000000E+00  0.00000000000E+00 -0.12416984367E+04  0.17331753034E+04  0.12091656729E+04 0.  0.
        2    1    3    3  502    0  0.17411385110E+03  0.56360531226E+03 -0.81075691407E+03  0.10026431842E+04  0.25500000920E-02 0.  1.
       -2    1    3    3    0  502 -0.17411385110E+03 -0.56360531226E+03 -0.43094152262E+03  0.73053211913E+03  0.25500000920E-02 0. -1.
</event>
<event>
 5   0  0.2580244E-03  0.1118560E+04  0.7818609E-02  0.9187289E-01
        2   -1    0    0  501    0  0.00000000000E+00  0.00000000000E+00  0.39083373238E+03  0.39083373239E+03  0.25500000920E-02 0. -1.
       -2   -1    0    0    0  501  0.00000000000E+00  0.00000000000E+00 -0.80032476570E+03  0.80032476571E+03  0.25500000920E-02 0.  1.
    10030    2    1    2    0    0  0.00000000000E+00  0.00000000000E+00 -0.40949103332E+03  0.11911584981E+04  0.11185596369E+04 0.  0.
        1    1    3    3  502    0  0.18021206715E+03  0.36261589682E+03  0.20607452280E+03  0.45434941042E+03  0.50400001928E-02 0. -1.
       -1    1    3    3    0  502 -0.18021206715E+03 -0.36261589682E+03 -0.61556555613E+03  0.73680908768E+03  0.50400001928E-02 0.  1.
</event>
<event>
 5   0  0.2499890E-03  0.1195356E+04  0.7818609E-02  0.9116931E-01
       -2   -1    0    0    0  501  0.00000000000E+00  0.00000000000E+00  0.39710704933E+03  0.39710704934E+03  0.25500000920E-02 0. -1.
        2   -1    0    0  501    0  0.00000000000E+00  0.00000000000E+00 -0.89955404985E+03  0.89955404985E+03  0.25500000920E-02 0.  1.
    10030    2    1    2    0    0  0.00000000000E+00  0.00000000000E+00 -0.50244700051E+03  0.12966610992E+04  0.11953564397E+04 0.  0.
        5    1    3    3  502    0  0.46311633815E+02  0.29346487039E+03 -0.81375818004E+03  0.86630875741E+03  0.46999998093E+01 0.  1.
       -5    1    3    3    0  502 -0.46311633815E+02 -0.29346487039E+03  0.31131117953E+03  0.43035234178E+03  0.46999998093E+01 0. -1.
</event>
<event>
 5   0  0.9678750E-04  0.1187866E+04  0.7818609E-02  0.9123544E-01
       -3   -1    0    0    0  501  0.00000000000E+00  0.00000000000E+00  0.48595175288E+03  0.48595176338E+03  0.10100000352E+00 0. -1.
        3   -1    0    0  501    0  0.00000000000E+00  0.00000000000E+00 -0.72590869457E+03  0.72590870159E+03  0.10100000352E+00 0.  1.
    10030    2    1    2    0    0  0.00000000000E+00  0.00000000000E+00 -0.23995694169E+03  0.12118604650E+04  0.11878663446E+04 0.  0.
        3    1    3    3  502    0 -0.33591315810E+03 -0.12797911072E+03  0.36237227550E+03  0.51042137378E+03  0.10100000352E+00 0.  1.
       -3    1    3    3    0  502  0.33591315810E+03  0.12797911072E+03 -0.60232921719E+03  0.70143909118E+03  0.10100000352E+00 0. -1.
</event>
<event>
 5   0  0.1403154E-03  0.1193753E+04  0.7818609E-02  0.9118343E-01
        1   -1    0    0  501    0  0.00000000000E+00  0.00000000000E+00  0.15434751991E+04  0.15434751991E+04  0.50400001928E-02 0. -1.
       -1   -1    0    0    0  501  0.00000000000E+00  0.00000000000E+00 -0.23081762912E+03  0.23081762917E+03  0.50400001928E-02 0.  1.
    10030    2    1    2    0    0  0.00000000000E+00  0.00000000000E+00  0.13126575700E+04  0.17742928283E+04  0.11937525474E+04 0.  0.
        3    1    3    3  502    0  0.41637753722E+03 -0.33742772708E+03  0.26581075137E+03  0.59823330753E+03  0.10100000352E+00 0. -1.
       -3    1    3    3    0  502 -0.41637753722E+03  0.33742772708E+03  0.10468468186E+04  0.11760595208E+04  0.10100000352E+00 0.  1.
</event>
<event>
 5   0  0.1469851E-03  0.1197577E+04  0.7818609E-02  0.9114980E-01
        1   -1    0    0  501    0  0.00000000000E+00  0.00000000000E+00  0.59880454943E+03  0.59880454946E+03  0.50400001928E-02 0.  1.
       -1   -1    0    0    0  501  0.00000000000E+00  0.00000000000E+00 -0.59877200604E+03  0.59877200606E+03  0.50400001928E-02 0. -1.
    10030    2    1    2    0    0  0.00000000000E+00  0.00000000000E+00  0.32543398259E-01  0.11975765555E+04  0.11975765551E+04 0.  0.
        5    1    3    3  502    0  0.16541617673E+03  0.27369918204E+03  0.50622922860E+03  0.59880203378E+03  0.46999998093E+01 0.  1.
       -5    1    3    3    0  502 -0.16541617673E+03 -0.27369918204E+03 -0.50619668520E+03  0.59877452173E+03  0.46999998093E+01 0. -1.
</event>
<event>
 5   0  0.2580244E-03  0.1199419E+04  0.7818609E-02  0.9113365E-01
        2   -1    0    0  501    0  0.00000000000E+00  0.00000000000E+00  0.12472973734E+04  0.12472973734E+04  0.25500000920E-02 0.  1.
       -2   -1    0    0    0  501  0.00000000000E+00  0.00000000000E+00 -0.28834472738E+03  0.28834472739E+03  0.25500000920E-02 0. -1.
    10030    2    1    2    0    0  0.00000000000E+00  0.00000000000E+00  0.95895264603E+03  0.15356421008E+04  0.11994192280E+04 0.  0.
        1    1    3    3  502    0 -0.29290548439E+03  0.35362411418E+03  0.97336846923E+03  0.10762387346E+04  0.50400001928E-02 0.  1.
       -1    1    3    3    0  502  0.29290548439E+03 -0.35362411418E+03 -0.14415823199E+02  0.45940336622E+03  0.50400001928E-02 0. -1.
</event>
<event>
 5   0  0.2579442E-03  0.1205873E+04  0.7818609E-02  0.9107731E-01
        2   -1    0    0  501    0  0.00000000000E+00  0.00000000000E+00  0.12812006164E+04  0.12812006164E+04  0.25500000920E-02 0. -1.
       -2   -1    0    0    0  501  0.00000000000E+00  0.00000000000E+00 -0.28374365519E+03  0.28374365520E+03  0.25500000920E-02 0.  1.
    10030    2    1    2    0    0  0.00000000000E+00  0.00000000000E+00  0.99745696123E+03  0.15649442716E+04  0.12058732038E+04 0.  0.
        4    1    3    3  502    0  0.45954640878E+03  0.25403871133E+03  0.88329818417E+03  0.10275873996E+04  0.12699999809E+01 0. -1.
       -4    1    3    3    0  502 -0.45954640878E+03 -0.25403871133E+03  0.11415877706E+03  0.53735687206E+03  0.12699999809E+01 0.  1.
</event>
<event>
 5   0  0.9678750E-04  0.1185038E+04  0.7818609E-02  0.9126055E-01
        4   -1    0    0  501    0  0.00000000000E+00  0.00000000000E+00  0.30989102481E+03  0.30989362717E+03  0.12699999809E+01 0. -1.
       -4   -1    0    0    0  501  0.00000000000E+00  0.00000000000E+00 -0.11329020843E+04  0.11329027961E+04  0.12699999809E+01 0.  1.
    10030    2    1    2    0    0  0.00000000000E+00  0.00000000000E+00 -0.82301105944E+03  0.14427964233E+04  0.11850376851E+04 0.  0.
        1    1    3    3  502    0 -0.59006159832E+03 -0.77883551487E+01 -0.47644842090E+03  0.75844343631E+03  0.50400001928E-02 0.  1.
       -1    1    3    3    0  502  0.59006159832E+03  0.77883551487E+01 -0.34656263855E+03  0.68435298695E+03  0.50400001928E-02 0. -1.
</event>
<event>
 5   0  0.1455076E-03  0.1188954E+04  0.7818609E-02  0.9122581E-01
        1   -1    0    0  501    0  0.00000000000E+00  0.00000000000E+00  0.28534549203E+03  0.28534549207E+03  0.50400001928E-02 0. -1.
       -1   -1    0    0    0  501  0.00000000000E+00  0.00000000000E+00 -0.12385084291E+04  0.12385084291E+04  0.50400001928E-02 0.  1.
    10030    2    1    2    0    0  0.00000000000E+00  0.00000000000E+00 -0.95316293709E+03  0.15238539212E+04  0.11889538210E+04 0.  0.
        4    1    3    3  502    0  0.16530031505E+02 -0.56868056922E+03 -0.69757439806E+03  0.90015692270E+03  0.12699999809E+01 0.  1.
       -4    1    3    3    0  502 -0.16530031505E+02  0.56868056922E+03 -0.25558853903E+03  0.62369699850E+03  0.12699999809E+01 0. -1.
</event>
<event>
 5   0  0.2517023E-03  0.1218066E+04  0.7818609E-02  0.9097189E-01
       -2   -1    0    0    0  501  0.00000000000E+00  0.00000000000E+00  0.46346349474E+03  0.46346349475E+03  0.25500000920E-02 0. -1.
        2   -1    0    0  501    0  0.00000000000E+00  0.00000000000E+00 -0.80032424617E+03  0.80032424617E+03  0.25500000920E-02 0.  1.
    10030    2    1    2    0    0  0.00000000000E+00  0.00000000000E+00 -0.33686075143E+03  0.12637877409E+04  0.12180657980E+04 0.  0.
        3    1    3    3  502    0 -0.35046779204E+03 -0.32655099133E+03 -0.55865700138E+03  0.73590819984E+03  0.10100000352E+00 0.  1.
       -3    1    3    3    0  502  0.35046779204E+03  0.32655099133E+03  0.22179624995E+03  0.52787954108E+03  0.10100000352E+00 0. -1.
</event>
<event>
 5   0  0.1404833E-03  0.1206191E+04  0.7818609E-02  0.9107455E-01
       -1   -1    0    0    0  501  0.00000000000E+00  0.00000000000E+00  0.37673932569E+03  0.37673932572E+03  0.50400001928E-02 0.  1.
        1   -1    0    0  501    0  0.00000000000E+00  0.00000000000E+00 -0.96545322271E+03  0.96545322272E+03  0.50400001928E-02 0. -1.
    10030    2    1    2    0    0  0.00000000000E+00  0.00000000000E+00 -0.58871389702E+03  0.13421925484E+04  0.12061910232E+04 0.  0.
        1    1    3    3  502    0  0.19212644021E+03  0.27658933934E+03 -0.85107820109E+03  0.91528593132E+03  0.50400001928E-02 0. -1.
       -1    1    3    3    0  502 -0.19212644021E+03 -0.27658933934E+03  0.26236430408E+03  0.42690661712E+03  0.50400001928E-02 0.  1.
</event>
<event>
 5   0  0.2499890E-03  0.1193726E+04  0.7818609E-02  0.9118366E-01
        2   -1    0    0  501    0  0.00000000000E+00  0.00000000000E+00  0.47199231244E+03  0.47199231245E+03  0.25500000920E-02 0.  1.
       -2   -1    0    0    0  501  0.00000000000E+00  0.00000000000E+00 -0.75476911686E+03  0.75476911686E+03  0.25500000920E-02 0. -1.
    10030    2    1    2    0    0  0.00000000000E+00  0.00000000000E+00 -0.28277680442E+03  0.12267614293E+04  0.11937256315E+04 0.  0.
        5    1    3    3  502    0 -0.85292495097E+02  0.91739740232E+02 -0.74108923003E+03  0.75161581045E+03  0.46999998093E+01 0. -1.
       -5    1    3    3    0  502  0.85292495097E+02 -0.91739740232E+02  0.45831242561E+03  0.47514561886E+03  0.46999998093E+01 0.  1.
</event>
<event>
 5   0  0.1423024E-03  0.1197131E+04  0.7818609E-02  0.9115372E-01
       -1   -1    0    0    0  501  0.00000000000E+00  0.00000000000E+00  0.57070228542E+03  0.57070228544E+03  0.50400001928E-02 0. -1.
        1   -1    0    0  501    0  0.00000000000E+00  0.00000000000E+00 -0.62778864295E+03  0.62778864297E+03  0.50400001928E-02 0.  1.
    10030    2    1    2    0    0  0.00000000000E+00  0.00000000000E+00 -0.57086357527E+02  0.11984909284E+04  0.11971305916E+04 0.  0.
        2    1    3    3  502    0  0.47090510194E+03  0.13134316578E+03  0.31721541216E+03  0.58277633785E+03  0.25500000920E-02 0. -1.
       -2    1    3    3    0  502 -0.47090510194E+03 -0.13134316578E+03 -0.37430176969E+03  0.61571459056E+03  0.25500000920E-02 0.  1.
</event>
<event>
 5   0  0.2580244E-03  0.1208043E+04  0.7818609E-02  0.9105845E-01
        2   -1    0    0  501    0  0.00000000000E+00  0.00000000000E+00  0.16650800745E+04  0.16650800745E+04  0.25500000920E-02 0. -1.
       -2   -1    0    0    0  501  0.00000000000E+00  0.00000000000E+00 -0.21911378931E+03  0.21911378932E+03  0.25500000920E-02 0.  1.
    10030    2    1    2    0    0  0.00000000000E+00  0.00000000000E+00  0.14459662852E+04  0.18841938638E+04  0.12080430533E+04 0.  0.
        1    1    3    3  502    0 -0.11701396667E+03  0.45080492573E+03  0.13228618618E+04  0.14024552951E+04  0.50400001928E-02 0. -1.
       -1    1    3    3    0  502  0.11701396667E+03 -0.45080492573E+03  0.12310442338E+03  0.48173856866E+03  0.50400001928E-02 0.  1.
</event>
<event>
 5   0  0.2484507E-03  0.1203061E+04  0.7818609E-02  0.9110182E-01
       -2   -1    0    0    0  501  0.00000000000E+00  0.00000000000E+00  0.23394066625E+03  0.23394066626E+03  0.25500000920E-02 0. -1.
        2   -1    0    0  501    0  0.00000000000E+00  0.00000000000E+00 -0.15467112683E+04  0.15467112683E+04  0.25500000920E-02 0.  1.
    10030    2    1    2    0    0  0.00000000000E+00  0.00000000000E+00 -0.13127706020E+04  0.17806519345E+04  0.12030605381E+04 0.  0.
        2    1    3    3  502    0 -0.20999850785E+03  0.34547500063E+03  0.28605568877E+01  0.40430252553E+03  0.25500000920E-02 0. -1.
       -2    1    3    3    0  502  0.20999850785E+03 -0.34547500063E+03 -0.13156311589E+04  0.13763494090E+04  0.25500000920E-02 0.  1.
</event>
<event>
 5   0  0.9678750E-04  0.1205470E+04  0.7818609E-02  0.9108082E-01
       -3   -1    0    0    0  501  0.00000000000E+00  0.00000000000E+00  0.27616810346E+03  0.27616812193E+03  0.10100000352E+00 0. -1.
        3   -1    0    0  501    0  0.00000000000E+00  0.00000000000E+00 -0.13154659712E+04  0.13154659751E+04  0.10100000352E+00 0.  1.
    10030    2    1    2    0    0  0.00000000000E+00  0.00000000000E+00 -0.10392978678E+04  0.15916340970E+04  0.12054704645E+04 0.  0.
        2    1    3    3  502    0 -0.46965711073E+03  0.14550298664E+03 -0.59341725512E+02  0.49524777755E+03  0.25500000920E-02 0. -1.
       -2    1    3    3    0  502  0.46965711073E+03 -0.14550298664E+03 -0.97995614226E+03  0.10963863195E+04  0.25500000920E-02 0.  1.
</event>
<event>
 5   0  0.1455076E-03  0.1193777E+04  0.7818609E-02  0.9118321E-01
        1   -1    0    0  501    0  0.00000000000E+00  0.00000000000E+00  0.98964225240E+03  0.98964225242E+03  0.50400001928E-02 0.  1.
       -1   -1    0    0    0  501  0.00000000000E+00  0.00000000000E+00 -0.36000459875E+03  0.36000459878E+03  0.50400001928E-02 0. -1.
    10030    2    1    2    0    0  0.00000000000E+00  0.00000000000E+00  0.62963765366E+03  0.13496468512E+04  0.11937767999E+04 0.  0.
        4    1    3    3  502    0  0.21776818792E+03  0.32483387137E+03  0.82462154078E+03  0.91265674056E+03  0.12699999809E+01 0.  1.
       -4    1    3    3    0  502 -0.21776818792E+03 -0.32483387137E+03 -0.19498388713E+03  0.43699011064E+03  0.12699999809E+01 0. -1.
</event>
<event>
 5   0  0.9678750E-04  0.1214583E+04  0.7818609E-02  0.9100187E-01
        3   -1    0    0  501    0  0.00000000000E+00  0.00000000000E+00  0.83474312651E+03  0.83474313262E+03  0.10100000352E+00 0. -1.
       -3   -1    0    0    0  501  0.00000000000E+00  0.00000000000E+00 -0.44181600503E+03  0.44181601658E+03  0.10100000352E+00 0.  1.
    10030    2    1    2    0    0  0.00000000000E+00  0.00000000000E+00  0.39292712148E+03  0.12765591492E+04  0.12145828661E+04 0.  0.
        1    1    3    3  502    0  0.48427592272E+03 -0.11680010142E+03  0.56151567617E+03  0.75064324925E+03  0.50400001928E-02 0. -1.
       -1    1    3    3    0  502 -0.48427592272E+03  0.11680010142E+03 -0.16858855470E+03  0.52591589995E+03  0.50400001928E-02 0.  1.
</event>
<event>
 5   0  0.2579442E-03  0.1208143E+04  0.7818609E-02  0.9105758E-01
       -2   -1    0    0    0  501  0.00000000000E+00  0.00000000000E+00  0.29455747343E+03  0.29455747344E+03  0.25500000920E-02 0.  1.
        2   -1    0    0  501    0  0.00000000000E+00  0.00000000000E+00 -0.12388160807E+04  0.12388160807E+04  0.25500000920E-02 0. -1.
    10030    2    1    2    0    0  0.00000000000E+00  0.00000000000E+00 -0.94425860728E+03  0.15333735541E+04  0.12081432610E+04 0.  0.
        4    1    3    3  502    0 -0.11346877849E+03  0.36001235493E+03 -0.10706971558E+04  0.11352876603E+04  0.12699999809E+01 0. -1.
       -4    1    3    3    0  502  0.11346877849E+03 -0.36001235493E+03  0.12643854852E+03  0.39808589381E+03  0.12699999809E+01 0.  1.
</event>
<event>
 5   0  0.2499890E-03  0.1312613E+04  0.7818609E-02  0.9019622E-01
        2   -1    0    0  501    0  0.00000000000E+00  0.00000000000E+00  0.11988180966E+04  0.11988180966E+04  0.25500000920E-02 0.  1.
       -2   -1    0    0    0  501  0.00000000000E+00  0.00000000000E+00 -0.35930235266E+03  0.35930235267E+03  0.25500000920E-02 0. -1.
    10030    2    1    2    0    0  0.00000000000E+00  0.00000000000E+00  0.83951574398E+03  0.15581204493E+04  0.13126129095E+04 0.  0.
        5    1    3    3  502    0 -0.55403928211E+03 -0.28960817096E+03  0.65681980690E+03  0.90678926302E+03  0.46999998093E+01 0.  1.
       -5    1    3    3    0  502  0.55403928211E+03  0.28960817096E+03  0.18269593708E+03  0.65133118629E+03  0.46999998093E+01 0. -1.
</event>
<event>
 5   0  0.1404833E-03  0.1194283E+04  0.7818609E-02  0.9117876E-01
       -1   -1    0    0    0  501  0.00000000000E+00  0.00000000000E+00  0.81499747919E+03  0.81499747920E+03  0.50400001928E-02 0.  1.
        1   -1    0    0  501    0  0.00000000000E+00  0.00000000000E+00 -0.43752014404E+03  0.43752014407E+03  0.50400001928E-02 0. -1.
    10030    2    1    2    0    0  0.00000000000E+00  0.00000000000E+00  0.37747733514E+03  0.12525176233E+04  0.11942827379E+04 0.  0.
        1    1    3    3  502    0 -0.53367958502E+03  0.12812913275E+03  0.43546931971E+03  0.70061722970E+03  0.50400001928E-02 0.  1.
       -1    1    3    3    0  502  0.53367958502E+03 -0.12812913275E+03 -0.57991984569E+02  0.55190039357E+03  0.50400001928E-02 0. -1.
</event>
<event>
 5   0  0.2579442E-03  0.1205081E+04  0.7818609E-02  0.9108421E-01
       -2   -1    0    0    0  501  0.00000000000E+00  0.00000000000E+00  0.29544207284E+03  0.29544207285E+03  0.25500000920E-02 0.  1.
        2   -1    0    0  501    0  0.00000000000E+00  0.00000000000E+00 -0.12288526647E+04  0.12288526647E+04  0.25500000920E-02 0. -1.
    10030    2    1    2    0    0  0.00000000000E+00  0.00000000000E+00 -0.93341059184E+03  0.15242947375E+04  0.12050805425E+04 0.  0.
        4    1    3    3  502    0 -0.19172059805E+03 -0.56068201838E+03 -0.60487424267E+03  0.84675591276E+03  0.12699999809E+01 0.  1.
       -4    1    3    3    0  502  0.19172059805E+03  0.56068201838E+03 -0.32853634917E+03  0.67753882478E+03  0.12699999809E+01 0. -1.
</event>
<event>
 5   0  0.9678750E-04  0.1036661E+04  0.7818609E-02  0.9269226E-01
       -3   -1    0    0    0  501  0.00000000000E+00  0.00000000000E+00  0.17392367705E+03  0.17392370638E+03  0.10100000352E+00 0. -1.
        3   -1    0    0  501    0  0.00000000000E+00  0.00000000000E+00 -0.15447363503E+04  0.15447363536E+04  0.10100000352E+00 0.  1.
    10030    2    1    2    0    0  0.00000000000E+00  0.00000000000E+00 -0.13708126732E+04  0.17186600600E+04  0.10366605117E+04 0.  0.
        1    1    3    3  502    0 -0.34562063314E+03  0.22005005093E+03 -0.15906987153E+03  0.43952118382E+03  0.50400001928E-02 0. -1.
       -1    1    3    3    0  502  0.34562063314E+03 -0.22005005093E+03 -0.12117428017E+04  0.12791388761E+04  0.50400001928E-02 0.  1.
</event>
<event>
 5   0  0.1403154E-03  0.1071503E+04  0.7818609E-02  0.9233420E-01
        1   -1    0    0  501    0  0.00000000000E+00  0.00000000000E+00  0.75494206680E+03  0.75494206682E+03  0.50400001928E-02 0. -1.
       -1   -1    0    0    0  501  0.00000000000E+00  0.00000000000E+00 -0.38020123910E+03  0.38020123914E+03  0.50400001928E-02 0.  1.
    10030    2    1    2    0    0  0.00000000000E+00  0.00000000000E+00  0.37474082770E+03  0.11351433060E+04  0.10715034471E+04 0.  0.
        3    1    3    3  502    0 -0.31010591053E+03 -0.38456405167E+03  0.40698623065E+03  0.64007264253E+03  0.10100000352E+00 0. -1.
       -3    1    3    3    0  502  0.31010591053E+03  0.38456405167E+03 -0.32245402951E+02  0.49507066343E+03  0.10100000352E+00 0.  1.
</event>
<event>
 5   0  0.1423024E-03  0.1251617E+04  0.7818609E-02  0.9068838E-01
        1   -1    0    0  501    0  0.00000000000E+00  0.00000000000E+00  0.92679221837E+03  0.92679221838E+03  0.50400001928E-02 0.  1.
       -1   -1    0    0    0  501  0.00000000000E+00  0.00000000000E+00 -0.42257215935E+03  0.42257215938E+03  0.50400001928E-02 0. -1.
    10030    2    1    2    0    0  0.00000000000E+00  0.00000000000E+00  0.50422005902E+03  0.13493643778E+04  0.12516174959E+04 0.  0.
        2    1    3    3  502    0  0.26184631151E+02  0.23198608533E+01 -0.42197668069E+03  0.42279467324E+03  0.25500000920E-02 0. -1.
       -2    1    3    3    0  502 -0.26184631151E+02 -0.23198608533E+01  0.92619673972E+03  0.92656970452E+03  0.25500000920E-02 0.  1.
</event>
<event>
 5   0  0.1423024E-03  0.1202034E+04  0.7818609E-02  0.9111078E-01
        1   -1    0    0  501    0  0.00000000000E+00  0.00000000000E+00  0.15734016982E+04  0.15734016982E+04  0.50400001928E-02 0. -1.
       -1   -1    0    0    0  501  0.00000000000E+00  0.00000000000E+00 -0.22957981164E+03  0.22957981169E+03  0.50400001928E-02 0.  1.
    10030    2    1    2    0    0  0.00000000000E+00  0.00000000000E+00  0.13438218866E+04  0.18029815099E+04  0.12020337193E+04 0.  0.
        2    1    3    3  502    0 -0.67565814510E+02  0.43339173606E+03  0.12882171084E+04  0.13608441698E+04  0.25500000920E-02 0. -1.
       -2    1    3    3    0  502  0.67565814510E+02 -0.43339173606E+03  0.55604778227E+02  0.44213734014E+03  0.25500000920E-02 0.  1.
</event>
<event>
 5   0  0.1404833E-03  0.1198921E+04  0.7818609E-02  0.9113802E-01
        1   -1    0    0  501    0  0.00000000000E+00  0.00000000000E+00  0.45303326137E+03  0.45303326140E+03  0.50400001928E-02 0. -1.
       -1   -1    0    0    0  501  0.00000000000E+00  0.00000000000E+00 -0.79321503344E+03  0.79321503346E+03  0.50400001928E-02 0.  1.
    10030    2    1    2    0    0  0.00000000000E+00  0.00000000000E+00 -0.34018177207E+03  0.12462482949E+04  0.11989208374E+04 0.  0.
        1    1    3    3  502    0  0.43213497622E+03 -0.36066519559E+03  0.44284991779E+02  0.56460710367E+03  0.50400001928E-02 0. -1.
       -1    1    3    3    0  502 -0.43213497622E+03  0.36066519559E+03 -0.38446676385E+03  0.68164119119E+03  0.50400001928E-02 0.  1.
</event>
<event>
 5   0  0.1469851E-03  0.1211976E+04  0.7818609E-02  0.9102438E-01
        1   -1    0    0  501    0  0.00000000000E+00  0.00000000000E+00  0.80590366413E+03  0.80590366415E+03  0.50400001928E-02 0. -1.
       -1   -1    0    0    0  501  0.00000000000E+00  0.00000000000E+00 -0.45566409216E+03  0.45566409219E+03  0.50400001928E-02 0.  1.
    10030    2    1    2    0    0  0.00000000000E+00  0.00000000000E+00  0.35023957197E+03  0.12615677563E+04  0.12119758438E+04 0.  0.
        5    1    3    3  502    0  0.41734814528E+03 -0.34806693793E+03  0.45417364561E+03  0.70825550334E+03  0.46999998093E+01 0. -1.
       -5    1    3    3    0  502 -0.41734814528E+03  0.34806693793E+03 -0.10393407364E+03  0.55331225299E+03  0.46999998093E+01 0.  1.
</event>
<event>
 5   0  0.1423024E-03  0.1207529E+04  0.7818609E-02  0.9106291E-01
        1   -1    0    0  501    0  0.00000000000E+00  0.00000000000E+00  0.32720903913E+03  0.32720903916E+03  0.50400001928E-02 0. -1.
       -1   -1    0    0    0  501  0.00000000000E+00  0.00000000000E+00 -0.11140640199E+04  0.11140640199E+04  0.50400001928E-02 0.  1.
    10030    2    1    2    0    0  0.00000000000E+00  0.00000000000E+00 -0.78685498074E+03  0.14412730590E+04  0.12075294075E+04 0.  0.
        2    1    3    3  502    0  0.20584970849E+03  0.51914692439E+02 -0.10680464612E+04  0.10889409906E+04  0.25500000920E-02 0.  1.
       -2    1    3    3    0  502 -0.20584970849E+03 -0.51914692439E+02  0.28119148043E+03  0.35233206844E+03  0.25500000920E-02 0. -1.
</event>
<event>
 5   0  0.2579442E-03  0.1197421E+04  0.7818609E-02  0.9115117E-01
       -2   -1    0    0    0  501  0.00000000000E+00  0.00000000000E+00  0.23466478524E+03  0.23466478525E+03  0.25500000920E-02 0.  1.
        2   -1    0    0  501    0  0.00000000000E+00  0.00000000000E+00 -0.15275173562E+04  0.15275173562E+04  0.25500000920E-02 0. -1.
    10030    2    1    2    0    0  0.00000000000E+00  0.00000000000E+00 -0.12928525709E+04  0.17621821414E+04  0.11974214502E+04 0.  0.
        4    1    3    3  502    0 -0.34823413655E+03  0.48698118920E+03 -0.63769171905E+03  0.87468281905E+03  0.12699999809E+01 0.  1.
       -4    1    3    3    0  502  0.34823413655E+03 -0.48698118920E+03 -0.65516085190E+03  0.88749932239E+03  0.12699999809E+01 0. -1.
</event>
<event>
 5   0  0.2579442E-03  0.1204785E+04  0.7818609E-02  0.9108679E-01
       -2   -1    0    0    0  501  0.00000000000E+00  0.00000000000E+00  0.18851523810E+03  0.18851523812E+03  0.25500000920E-02 0. -1.
        2   -1    0    0  501    0  0.00000000000E+00  0.00000000000E+00 -0.19249199125E+04  0.19249199125E+04  0.25500000920E-02 0.  1.
    10030    2    1    2    0    0  0.00000000000E+00  0.00000000000E+00 -0.17364046744E+04  0.21134351506E+04  0.12047850193E+04 0.  0.
        4    1    3    3  502    0 -0.56619349671E+03  0.16092075711E+03 -0.64352378297E+03  0.87212099960E+03  0.12699999809E+01 0. -1.
       -4    1    3    3    0  502  0.56619349671E+03 -0.16092075711E+03 -0.10928808914E+04  0.12413141510E+04  0.12699999809E+01 0.  1.
</event>
<event>
 5   0  0.2580244E-03  0.1200343E+04  0.7818609E-02  0.9112556E-01
       -2   -1    0    0    0  501  0.00000000000E+00  0.00000000000E+00  0.51070892076E+03  0.51070892077E+03  0.25500000920E-02 0. -1.
        2   -1    0    0  501    0  0.00000000000E+00  0.00000000000E+00 -0.70530561879E+03  0.70530561879E+03  0.25500000920E-02 0.  1.
    10030    2    1    2    0    0  0.00000000000E+00  0.00000000000E+00 -0.19459669803E+03  0.12160145396E+04  0.12003430699E+04 0.  0.
        1    1    3    3  502    0  0.17314318166E+03 -0.22269876157E+03  0.43936559281E+03  0.52212586982E+03  0.50400001928E-02 0. -1.
       -1    1    3    3    0  502 -0.17314318166E+03  0.22269876157E+03 -0.63396229084E+03  0.69388866974E+03  0.50400001928E-02 0.  1.
</event>
<event>
 5   0  0.1455076E-03  0.1177271E+04  0.7818609E-02  0.9132988E-01
        1   -1    0    0  501    0  0.00000000000E+00  0.00000000000E+00  0.15460148793E+04  0.15460148793E+04  0.50400001928E-02 0.  1.
       -1   -1    0    0    0  501  0.00000000000E+00  0.00000000000E+00 -0.22411911048E+03  0.22411911054E+03  0.50400001928E-02 0. -1.
    10030    2    1    2    0    0  0.00000000000E+00  0.00000000000E+00  0.13218957688E+04  0.17701339899E+04  0.11772705375E+04 0.  0.
        4    1    3    3  502    0  0.64959817850E+02  0.78018474306E+02  0.15327499095E+04  0.15361089019E+04  0.12699999809E+01 0.  1.
       -4    1    3    3    0  502 -0.64959817850E+02 -0.78018474306E+02 -0.21085414070E+03  0.23402508801E+03  0.12699999809E+01 0. -1.
</event>
<event>
 5   0  0.1455076E-03  0.1203177E+04  0.7818609E-02  0.9110080E-01
       -1   -1    0    0    0  501  0.00000000000E+00  0.00000000000E+00  0.30873789941E+03  0.30873789945E+03  0.50400001928E-02 0. -1.
        1   -1    0    0  501    0  0.00000000000E+00  0.00000000000E+00 -0.11722207189E+04  0.11722207189E+04  0.50400001928E-02 0.  1.
    10030    2    1    2    0    0  0.00000000000E+00  0.00000000000E+00 -0.86348281952E+03  0.14809586184E+04  0.12031773975E+04 0.  0.
        4    1    3    3  502    0 -0.31506944830E+03  0.31454829590E+03 -0.92974777616E+03  0.10308452492E+04  0.12699999809E+01 0.  1.
       -4    1    3    3    0  502  0.31506944830E+03 -0.31454829590E+03  0.66264956636E+02  0.45011336915E+03  0.12699999809E+01 0. -1.
</event>
<event>
 5   0  0.2499890E-03  0.1220802E+04  0.7818609E-02  0.9094841E-01
       -2   -1    0    0    0  501  0.00000000000E+00  0.00000000000E+00  0.85257094413E+03  0.85257094414E+03  0.25500000920E-02 0. -1.
        2   -1    0    0  501    0  0.00000000000E+00  0.00000000000E+00 -0.43701861286E+03  0.43701861287E+03  0.25500000920E-02 0.  1.
    10030    2    1    2    0    0  0.00000000000E+00  0.00000000000E+00  0.41555233127E+03  0.12895895570E+04  0.12208019846E+04 0.  0.
        5    1    3    3  502    0  0.48864055453E+03  0.31484017079E+03  0.11076226870E+02  0.58141095404E+03  0.46999998093E+01 0.  1.
       -5    1    3    3    0  502 -0.48864055453E+03 -0.31484017079E+03  0.40447610440E+03  0.70817860297E+03  0.46999998093E+01 0. -1.
</event>
<event>
 5   0  0.1469851E-03  0.1201342E+04  0.7818609E-02  0.9111683E-01
       -1   -1    0    0    0  501  0.00000000000E+00  0.00000000000E+00  0.42161644915E+03  0.42161644918E+03  0.50400001928E-02 0.  1.
        1   -1    0    0  501    0  0.00000000000E+00  0.00000000000E+00 -0.85576740617E+03  0.85576740619E+03  0.50400001928E-02 0. -1.
    10030    2    1    2    0    0  0.00000000000E+00  0.00000000000E+00 -0.43415095703E+03  0.12773838554E+04  0.12013419415E+04 0.  0.
        5    1    3    3  502    0  0.18279732678E+00  0.44174434034E+03 -0.64983288757E+03  0.78577539246E+03  0.46999998093E+01 0. -1.
       -5    1    3    3    0  502 -0.18279732678E+00 -0.44174434034E+03  0.21568193054E+03  0.49160846290E+03  0.46999998093E+01 0.  1.
</event>
<event>
 5   0  0.1469851E-03  0.1186882E+04  0.7818609E-02  0.9124417E-01
       -1   -1    0    0    0  501  0.00000000000E+00  0.00000000000E+00  0.28079250639E+03  0.28079250644E+03  0.50400001928E-02 0.  1.
        1   -1    0    0  501    0  0.00000000000E+00  0.00000000000E+00 -0.12542074870E+04  0.12542074870E+04  0.50400001928E-02 0. -1.
    10030    2    1    2    0    0  0.00000000000E+00  0.00000000000E+00 -0.97341498058E+03  0.15349999934E+04  0.11868817361E+04 0.  0.
        5    1    3    3  502    0  0.42773949097E+03 -0.11656287002E+03 -0.99686997258E+03  0.10910177849E+04  0.46999998093E+01 0. -1.
       -5    1    3    3    0  502 -0.42773949097E+03  0.11656287002E+03  0.23454992004E+02  0.44398220849E+03  0.46999998093E+01 0.  1.
</event>
<event>
 5   0  0.2484507E-03  0.1195760E+04  0.7818609E-02  0.9116576E-01
       -2   -1    0    0    0  501  0.00000000000E+00  0.00000000000E+00  0.24815891344E+03  0.24815891345E+03  0.25500000920E-02 0.  1.
        2   -1    0    0  501    0  0.00000000000E+00  0.00000000000E+00 -0.14404493387E+04  0.14404493387E+04  0.25500000920E-02 0. -1.
    10030    2    1    2    0    0  0.00000000000E+00  0.00000000000E+00 -0.11922904253E+04  0.16886082521E+04  0.11957597464E+04 0.  0.
        2    1    3    3  502    0  0.56926589790E+03 -0.14181481621E+03 -0.75891344603E+03  0.95923131891E+03  0.25500000920E-02 0. -1.
       -2    1    3    3    0  502 -0.56926589790E+03  0.14181481621E+03 -0.43337697922E+03  0.72937693323E+03  0.25500000920E-02 0.  1.
</event>
<event>
 5   0  0.1403154E-03  0.1208792E+04  0.7818609E-02  0.9105195E-01
        1   -1    0    0  501    0  0.00000000000E+00  0.00000000000E+00  0.69985695854E+03  0.69985695856E+03  0.50400001928E-02 0. -1.
       -1   -1    0    0    0  501  0.00000000000E+00  0.00000000000E+00 -0.52195607917E+03  0.52195607920E+03  0.50400001928E-02 0.  1.
    10030    2    1    2    0    0  0.00000000000E+00  0.00000000000E+00  0.17790087937E+03  0.12218130378E+04  0.12087921146E+04 0.  0.
        3    1    3    3  502    0  0.10826180261E+03 -0.55156405876E+03  0.31349438948E+03  0.64360101868E+03  0.10100000352E+00 0. -1.
       -3    1    3    3    0  502 -0.10826180261E+03  0.55156405876E+03 -0.13559351011E+03  0.57821201907E+03  0.10100000352E+00 0.  1.
</event>
<event>
 5   0  0.2517023E-03  0.1197151E+04  0.7818609E-02  0.9115354E-01
        2   -1    0    0  501    0  0.00000000000E+00  0.00000000000E+00  0.14284526434E+04  0.14284526434E+04  0.25500000920E-02 0. -1.
       -2   -1    0    0    0  501  0.00000000000E+00  0.00000000000E+00 -0.25082588359E+03  0.25082588360E+03  0.25500000920E-02 0.  1.
    10030    2    1    2    0    0  0.00000000000E+00  0.00000000000E+00  0.11776267598E+04  0.16792785270E+04  0.11971514465E+04 0.  0.
        3    1    3    3  502    0  0.35686688607E+03  0.17368215059E+03  0.12173444503E+04  0.12804089130E+04  0.10100000352E+00 0. -1.
       -3    1    3    3    0  502 -0.35686688607E+03 -0.17368215059E+03 -0.39717690450E+02  0.39886961396E+03  0.10100000352E+00 0.  1.
</event>
<event>
 5   0  0.9678750E-04  0.1229601E+04  0.7818609E-02  0.9087334E-01
       -3   -1    0    0    0  501  0.00000000000E+00  0.00000000000E+00  0.77303305291E+03  0.77303305951E+03  0.10100000352E+00 0. -1.
        3   -1    0    0  501    0  0.00000000000E+00  0.00000000000E+00 -0.48895649425E+03  0.48895650468E+03  0.10100000352E+00 0.  1.
    10030    2    1    2    0    0  0.00000000000E+00  0.00000000000E+00  0.28407655866E+03  0.12619895642E+04  0.12296008169E+04 0.  0.
        1    1    3    3  502    0 -0.11880231979E+03  0.51030913616E+03  0.47214711953E+03  0.70530299031E+03  0.50400001928E-02 0. -1.
       -1    1    3    3    0  502  0.11880231979E+03 -0.51030913616E+03 -0.18807056087E+03  0.55668657387E+03  0.50400001928E-02 0.  1.
</event>
<event>
 5   0  0.2579442E-03  0.1149216E+04  0.7818609E-02  0.9158507E-01
        2   -1    0    0  501    0  0.00000000000E+00  0.00000000000E+00  0.12822396493E+04  0.12822396493E+04  0.25500000920E-02 0. -1.
       -2   -1    0    0    0  501  0.00000000000E+00  0.00000000000E+00 -0.25749811074E+03  0.25749811075E+03  0.25500000920E-02 0.  1.
    10030    2    1    2    0    0  0.00000000000E+00  0.00000000000E+00  0.10247415386E+04  0.15397377601E+04  0.11492158844E+04 0.  0.
        4    1    3    3  502    0  0.25251058904E+01  0.57224238760E+03  0.58205341000E+03  0.81624476190E+03  0.12699999809E+01 0. -1.
       -4    1    3    3    0  502 -0.25251058904E+01 -0.57224238760E+03  0.44268812857E+03  0.72349299817E+03  0.12699999809E+01 0.  1.
</event>
<event>
 5   0  0.2579442E-03  0.1267162E+04  0.7818609E-02  0.9056019E-01
        2   -1    0    0  501    0  0.00000000000E+00  0.00000000000E+00  0.27576227111E+03  0.27576227112E+03  0.25500000920E-02 0. -1.
       -2   -1    0    0    0  501  0.00000000000E+00  0.00000000000E+00 -0.14556924404E+04  0.14556924404E+04  0.25500000920E-02 0.  1.
    10030    2    1    2    0    0  0.00000000000E+00  0.00000000000E+00 -0.11799301693E+04  0.17314547115E+04  0.12671622681E+04 0.  0.
        4    1    3    3  502    0 -0.54627695661E+02 -0.20794609661E+03  0.22439028039E+03  0.31077061486E+03  0.12699999809E+01 0. -1.
       -4    1    3    3    0  502  0.54627695661E+02  0.20794609661E+03 -0.14043204497E+04  0.14206840967E+04  0.12699999809E+01 0.  1.
</event>
<event>
 5   0  0.1423024E-03  0.1191824E+04  0.7818609E-02  0.9120043E-01
        1   -1    0    0  501    0  0.00000000000E+00  0.00000000000E+00  0.10483990721E+04  0.10483990721E+04  0.50400001928E-02 0.  1.
       -1   -1    0    0    0  501  0.00000000000E+00  0.00000000000E+00 -0.33871764048E+03  0.33871764051E+03  0.50400001928E-02 0. -1.
    10030    2    1    2    0    0  0.00000000000E+00  0.00000000000E+00  0.70968143160E+03  0.13871167126E+04  0.11918242488E+04 0.  0.
        2    1    3    3  502    0 -0.44237095733E+03 -0.27713239520E+03  0.20310727852E+02  0.52240497130E+03  0.25500000920E-02 0. -1.
       -2    1    3    3    0  502  0.44237095733E+03  0.27713239520E+03  0.68937070374E+03  0.86471174130E+03  0.25500000920E-02 0.  1.
</event>
<event>
 5   0  0.2580244E-03  0.1194036E+04  0.7818609E-02  0.9118093E-01
        2   -1    0    0  501    0  0.00000000000E+00  0.00000000000E+00  0.10172320815E+04  0.10172320815E+04  0.25500000920E-02 0. -1.
       -2   -1    0    0    0  501  0.00000000000E+00  0.00000000000E+00 -0.35039265013E+03  0.35039265014E+03  0.25500000920E-02 0.  1.
    10030    2    1    2    0    0  0.00000000000E+00  0.00000000000E+00  0.66683943138E+03  0.13676247317E+04  0.11940362555E+04 0.  0.
        1    1    3    3  502    0 -0.34812523835E+03 -0.21113171294E+03  0.83354923304E+03  0.92767025699E+03  0.50400001928E-02 0. -1.
       -1    1    3    3    0  502  0.34812523835E+03  0.21113171294E+03 -0.16670980166E+03  0.43995447467E+03  0.50400001928E-02 0.  1.
</event>
<event>
 5   0  0.1404833E-03  0.1267169E+04  0.7818609E-02  0.9056014E-01
        1   -1    0    0  501    0  0.00000000000E+00  0.00000000000E+00  0.86189163884E+03  0.86189163885E+03  0.50400001928E-02 0. -1.
       -1   -1    0    0    0  501  0.00000000000E+00  0.00000000000E+00 -0.46575356866E+03  0.46575356869E+03  0.50400001928E-02 0.  1.
    10030    2    1    2    0    0  0.00000000000E+00  0.00000000000E+00  0.39613807018E+03  0.13276452075E+04  0.12671686654E+04 0.  0.
        1    1    3    3  502    0  0.37251974602E+03 -0.48832913310E+03  0.36103267004E+03  0.71244711542E+03  0.50400001928E-02 0. -1.
       -1    1    3    3    0  502 -0.37251974602E+03  0.48832913310E+03  0.35105400135E+02  0.61519809212E+03  0.50400001928E-02 0.  1.
</event>
<event>
 5   0  0.1469851E-03  0.1200946E+04  0.7818609E-02  0.9112029E-01
        1   -1    0    0  501    0  0.00000000000E+00  0.00000000000E+00  0.14984563046E+04  0.14984563046E+04  0.50400001928E-02 0. -1.
       -1   -1    0    0    0  501  0.00000000000E+00  0.00000000000E+00 -0.24062619450E+03  0.24062619455E+03  0.50400001928E-02 0.  1.
    10030    2    1    2    0    0  0.00000000000E+00  0.00000000000E+00  0.12578301101E+04  0.17390824992E+04  0.12009460242E+04 0.  0.
        5    1    3    3  502    0  0.55156855418E+03  0.23628430231E+03  0.59693850773E+03  0.84641350030E+03  0.46999998093E+01 0.  1.
       -5    1    3    3    0  502 -0.55156855418E+03 -0.23628430231E+03  0.66089160241E+03  0.89266899891E+03  0.46999998093E+01 0. -1.
</event>
<event>
 5   0  0.2580244E-03  0.1188302E+04  0.7818609E-02  0.9123158E-01
        2   -1    0    0  501    0  0.00000000000E+00  0.00000000000E+00  0.22267750871E+04  0.22267750871E+04  0.25500000920E-02 0. -1.
       -2   -1    0    0    0  501  0.00000000000E+00  0.00000000000E+00 -0.15853220649E+03  0.15853220651E+03  0.25500000920E-02 0.  1.
    10030    2    1    2    0    0  0.00000000000E+00  0.00000000000E+00  0.20682428806E+04  0.23853072936E+04  0.11883022645E+04 0.  0.
        1    1    3    3  502    0 -0.31554057089E+02  0.13307195172E+03  0.21947499694E+04  0.21990068738E+04  0.50400001928E-02 0. -1.
       -1    1    3    3    0  502  0.31554057089E+02 -0.13307195172E+03 -0.12650708883E+03  0.18630041976E+03  0.50400001928E-02 0.  1.
</event>
<event>
 5   0  0.1469851E-03  0.1166598E+04  0.7818609E-02  0.9142606E-01
       -1   -1    0    0    0  501  0.00000000000E+00  0.00000000000E+00  0.46684483408E+03  0.46684483411E+03  0.50400001928E-02 0.  1.
        1   -1    0    0  501    0  0.00000000000E+00  0.00000000000E+00 -0.72880303342E+03  0.72880303343E+03  0.50400001928E-02 0. -1.
    10030    2    1    2    0    0  0.00000000000E+00  0.00000000000E+00 -0.26195819934E+03  0.11956478675E+04  0.11665983563E+04 0.  0.
        5    1    3    3  502    0 -0.21337191800E+03 -0.21454015494E+03 -0.64205521609E+03  0.70979718511E+03  0.46999998093E+01 0. -1.
       -5    1    3    3    0  502  0.21337191800E+03  0.21454015494E+03  0.38009701676E+03  0.48585068243E+03  0.46999998093E+01 0.  1.
</event>
<event>
 5   0  0.1403154E-03  0.1205827E+04  0.7818609E-02  0.9107771E-01
        1   -1    0    0  501    0  0.00000000000E+00  0.00000000000E+00  0.20483824331E+04  0.20483824331E+04  0.50400001928E-02 0. -1.
       -1   -1    0    0    0  501  0.00000000000E+00  0.00000000000E+00 -0.17745949655E+03  0.17745949662E+03  0.50400001928E-02 0.  1.
    10030    2    1    2    0    0  0.00000000000E+00  0.00000000000E+00  0.18709229365E+04  0.22258419297E+04  0.12058273764E+04 0.  0.
        3    1    3    3  502    0  0.53136575970E+03 -0.63625930923E+02  0.42288779580E+03  0.68207912129E+03  0.10100000352E+00 0.  1.
       -3    1    3    3    0  502 -0.53136575970E+03  0.63625930923E+02  0.14480351407E+04  0.15437628084E+04  0.10100000352E+00 0. -1.
</event>
<event>
 5   0  0.1455076E-03  0.1199911E+04  0.7818609E-02  0.9112934E-01
       -1   -1    0    0    0  501  0.00000000000E+00  0.00000000000E+00  0.21931900866E+03  0.21931900872E+03  0.50400001928E-02 0. -1.
        1   -1    0    0  501    0  0.00000000000E+00  0.00000000000E+00 -0.16412014817E+04  0.16412014818E+04  0.50400001928E-02 0.  1.
    10030    2    1    2    0    0  0.00000000000E+00  0.00000000000E+00 -0.14218824731E+04  0.18605204905E+04  0.11999111335E+04 0.  0.
        4    1    3    3  502    0 -0.16329746438E+03  0.35864556216E+03 -0.94960142029E+01  0.39418839191E+03  0.12699999809E+01 0. -1.
       -4    1    3    3    0  502  0.16329746438E+03 -0.35864556216E+03 -0.14123864589E+04  0.14663320986E+04  0.12699999809E+01 0.  1.
</event>
<event>
 5   0  0.2499890E-03  0.1202463E+04  0.7818609E-02  0.9110704E-01
        2   -1    0    0  501    0  0.00000000000E+00  0.00000000000E+00  0.80924859021E+03  0.80924859021E+03  0.25500000920E-02 0.  1.
       -2   -1    0    0    0  501  0.00000000000E+00  0.00000000000E+00 -0.44668505358E+03  0.44668505359E+03  0.25500000920E-02 0. -1.
    10030    2    1    2    0    0  0.00000000000E+00  0.00000000000E+00  0.36256353663E+03  0.12559336438E+04  0.12024628890E+04 0.  0.
        5    1    3    3  502    0 -0.37002235454E+03  0.15745206668E+03 -0.28552573009E+03  0.49320860567E+03  0.46999998093E+01 0. -1.
       -5    1    3    3    0  502  0.37002235454E+03 -0.15745206668E+03  0.64808926672E+03  0.76272503813E+03  0.46999998093E+01 0.  1.
</event>
<event>
 5   0  0.2580244E-03  0.1201020E+04  0.7818609E-02  0.9111964E-01
       -2   -1    0    0    0  501  0.00000000000E+00  0.00000000000E+00  0.31782041170E+03  0.31782041171E+03  0.25500000920E-02 0.  1.
        2   -1    0    0  501    0  0.00000000000E+00  0.00000000000E+00 -0.11346422902E+04  0.11346422902E+04  0.25500000920E-02 0. -1.
    10030    2    1    2    0    0  0.00000000000E+00  0.00000000000E+00 -0.81682187849E+03  0.14524627019E+04  0.12010203659E+04 0.  0.
        1    1    3    3  502    0 -0.28744194937E+03  0.10526116730E+03 -0.10332048514E+04  0.10775968878E+04  0.50400001928E-02 0. -1.
       -1    1    3    3    0  502  0.28744194937E+03 -0.10526116730E+03  0.21638297291E+03  0.37486581411E+03  0.50400001928E-02 0.  1.
</event>
<event>
 5   0  0.1423024E-03  0.1180748E+04  0.7818609E-02  0.9129877E-01
       -1   -1    0    0    0  501  0.00000000000E+00  0.00000000000E+00  0.44506182747E+03  0.44506182750E+03  0.50400001928E-02 0. -1.
        1   -1    0    0  501    0  0.00000000000E+00  0.00000000000E+00 -0.78313019604E+03  0.78313019606E+03  0.50400001928E-02 0.  1.
    10030    2    1    2    0    0  0.00000000000E+00  0.00000000000E+00 -0.33806836857E+03  0.12281920236E+04  0.11807478244E+04 0.  0.
        2    1    3    3  502    0  0.30054685566E+03 -0.47417559699E+03 -0.35905016631E+03  0.66639922806E+03  0.25500000920E-02 0. -1.
       -2    1    3    3    0  502 -0.30054685566E+03  0.47417559699E+03  0.20981797735E+02  0.56179279549E+03  0.25500000920E-02 0.  1.
</event>
<event>
 5   0  0.1469851E-03  0.1192941E+04  0.7818609E-02  0.9119058E-01
       -1   -1    0    0    0  501  0.00000000000E+00  0.00000000000E+00  0.22065911428E+03  0.22065911434E+03  0.50400001928E-02 0.  1.
        1   -1    0    0  501    0  0.00000000000E+00  0.00000000000E+00 -0.16123379468E+04  0.16123379468E+04  0.50400001928E-02 0. -1.
    10030    2    1    2    0    0  0.00000000000E+00  0.00000000000E+00 -0.13916788325E+04  0.18329970611E+04  0.11929410100E+04 0.  0.
        5    1    3    3  502    0  0.57542640225E+03  0.44539641542E+02 -0.46456315602E+03  0.74090508165E+03  0.46999998093E+01 0.  1.
       -5    1    3    3    0  502 -0.57542640225E+03 -0.44539641542E+02 -0.92711567647E+03  0.10920919795E+04  0.46999998093E+01 0. -1.
</event>
<event>
 5   0  0.2517023E-03  0.1184257E+04  0.7818609E-02  0.9126749E-01
       -2   -1    0    0    0  501  0.00000000000E+00  0.00000000000E+00  0.37667943452E+03  0.37667943453E+03  0.25500000920E-02 0. -1.
        2   -1    0    0  501    0  0.00000000000E+00  0.00000000000E+00 -0.93080728817E+03  0.93080728817E+03  0.25500000920E-02 0.  1.
    10030    2    1    2    0    0  0.00000000000E+00  0.00000000000E+00 -0.55412785365E+03  0.13074867227E+04  0.11842566664E+04 0.  0.
        3    1    3    3  502    0 -0.59519675092E+01 -0.45155329403E+03 -0.69990495601E+03  0.83294823423E+03  0.10100000352E+00 0.  1.
       -3    1    3    3    0  502  0.59519675092E+01  0.45155329403E+03  0.14577710236E+03  0.47453848847E+03  0.10100000352E+00 0. -1.
</event>
<event>
 5   0  0.2580244E-03  0.1213234E+04  0.7818609E-02  0.9101352E-01
       -2   -1    0    0    0  501  0.00000000000E+00  0.00000000000E+00  0.51556406235E+03  0.51556406236E+03  0.25500000920E-02 0.  1.
        2   -1    0    0  501    0  0.00000000000E+00  0.00000000000E+00 -0.71375006915E+03  0.71375006915E+03  0.25500000920E-02 0. -1.
    10030    2    1    2    0    0  0.00000000000E+00  0.00000000000E+00 -0.19818600680E+03  0.12293141315E+04  0.12132335062E+04 0.  0.
        1    1    3    3  502    0 -0.31714956599E+03 -0.25457080685E+03 -0.55516298866E+03  0.68818317831E+03  0.50400001928E-02 0. -1.
       -1    1    3    3    0  502  0.31714956599E+03  0.25457080685E+03  0.35697698186E+03  0.54113095320E+03  0.50400001928E-02 0.  1.
</event>
<event>
 5   0  0.9678750E-04  0.1180955E+04  0.7818609E-02  0.9129692E-01
       -3   -1    0    0    0  501  0.00000000000E+00  0.00000000000E+00  0.12423671487E+03  0.12423675592E+03  0.10100000352E+00 0.  1.
        3   -1    0    0  501    0  0.00000000000E+00  0.00000000000E+00 -0.28064449188E+04  0.28064449206E+04  0.10100000352E+00 0. -1.
    10030    2    1    2    0    0  0.00000000000E+00  0.00000000000E+00 -0.26822082039E+04  0.29306816765E+04  0.11809548001E+04 0.  0.
        5    1    3    3  502    0 -0.43900910542E+03 -0.16987907665E+03 -0.22256671997E+04  0.22749075738E+04  0.46999998093E+01 0. -1.
       -5    1    3    3    0  502  0.43900910542E+03  0.16987907665E+03 -0.45654100420E+03  0.65577410275E+03  0.46999998093E+01 0.  1.
</event>
<event>
 5   0  0.1469851E-03  0.1261615E+04  0.7818609E-02  0.9060571E-01
        1   -1    0    0  501    0  0.00000000000E+00  0.00000000000E+00  0.92294908642E+03  0.92294908644E+03  0.50400001928E-02 0. -1.
       -1   -1    0    0    0  501  0.00000000000E+00  0.00000000000E+00 -0.43113792999E+03  0.43113793002E+03  0.50400001928E-02 0.  1.
    10030    2    1    2    0    0  0.00000000000E+00  0.00000000000E+00  0.49181115643E+03  0.13540870165E+04  0.12616154068E+04 0.  0.
        5    1    3    3  502    0  0.94855932863E+02  0.43606859520E+02 -0.42178219619E+03  0.43453597919E+03  0.46999998093E+01 0.  1.
       -5    1    3    3    0  502 -0.94855932863E+02 -0.43606859520E+02  0.91359335261E+03  0.91955103727E+03  0.46999998093E+01 0. -1.
</event>
<event>
 5   0  0.1423024E-03  0.1197388E+04  0.7818609E-02  0.9115146E-01
        1   -1    0    0  501    0  0.00000000000E+00  0.00000000000E+00  0.44038317166E+03  0.44038317168E+03  0.50400001928E-02 0. -1.
       -1   -1    0    0    0  501  0.00000000000E+00  0.00000000000E+00 -0.81391542156E+03  0.81391542158E+03  0.50400001928E-02 0.  1.
    10030    2    1    2    0    0  0.00000000000E+00  0.00000000000E+00 -0.37353224990E+03  0.12542985933E+04  0.11973882492E+04 0.  0.
        2    1    3    3  502    0  0.56861516706E+03  0.11812513755E+03 -0.33913708642E+03  0.67252562757E+03  0.25500000920E-02 0.  1.
       -2    1    3    3    0  502 -0.56861516706E+03 -0.11812513755E+03 -0.34395163480E+02  0.58177296570E+03  0.25500000920E-02 0. -1.
</event>
<event>
 5   0  0.1469851E-03  0.1191080E+04  0.7818609E-02  0.9120700E-01
        1   -1    0    0  501    0  0.00000000000E+00  0.00000000000E+00  0.15203556754E+04  0.15203556754E+04  0.50400001928E-02 0. -1.
       -1   -1    0    0    0  501  0.00000000000E+00  0.00000000000E+00 -0.23327951630E+03  0.23327951635E+03  0.50400001928E-02 0.  1.
    10030    2    1    2    0    0  0.00000000000E+00  0.00000000000E+00  0.12870761591E+04  0.17536351918E+04  0.11910799077E+04 0.  0.
        5    1    3    3  502    0  0.28007923767E+03  0.29782503390E+03  0.12810684256E+04  0.13447313974E+04  0.46999998093E+01 0. -1.
       -5    1    3    3    0  502 -0.28007923767E+03 -0.29782503390E+03  0.60077335490E+01  0.40890379437E+03  0.46999998093E+01 0.  1.
</event>
<event>
 5   0  0.1423024E-03  0.1221959E+04  0.7818609E-02  0.9093850E-01
       -1   -1    0    0    0  501  0.00000000000E+00  0.00000000000E+00  0.42622095694E+03  0.42622095697E+03  0.50400001928E-02 0.  1.
        1   -1    0    0  501    0  0.00000000000E+00  0.00000000000E+00 -0.87582684428E+03  0.87582684430E+03  0.50400001928E-02 0. -1.
    10030    2    1    2    0    0  0.00000000000E+00  0.00000000000E+00 -0.44960588734E+03  0.13020478013E+04  0.12219586830E+04 0.  0.
        2    1    3    3  502    0 -0.86826339742E+02  0.51637502432E+03 -0.56026037666E+03  0.76685961471E+03  0.25500000920E-02 0. -1.
       -2    1    3    3    0  502  0.86826339742E+02 -0.51637502432E+03  0.11065448931E+03  0.53518818655E+03  0.25500000920E-02 0.  1.
</event>
<event>
 5   0  0.1469851E-03  0.1215833E+04  0.7818609E-02  0.9099109E-01
        1   -1    0    0  501    0  0.00000000000E+00  0.00000000000E+00  0.19297686360E+04  0.19297686360E+04  0.50400001928E-02 0. -1.
       -1   -1    0    0    0  501  0.00000000000E+00  0.00000000000E+00 -0.19150622839E+03  0.19150622846E+03  0.50400001928E-02 0.  1.
    10030    2    1    2    0    0  0.00000000000E+00  0.00000000000E+00  0.17382624076E+04  0.21212748645E+04  0.12158333985E+04 0.  0.
        5    1    3    3  502    0 -0.53801974203E+03  0.22225603549E+03  0.56354494925E+03  0.81022712121E+03  0.46999998093E+01 0.  1.
       -5    1    3    3    0  502  0.53801974203E+03 -0.22225603549E+03  0.11747174584E+04  0.13110477433E+04  0.46999998093E+01 0. -1.
</event>
<event>
 5   0  0.9678750E-04  0.1193983E+04  0.7818609E-02  0.9118140E-01
        4   -1    0    0  501    0  0.00000000000E+00  0.00000000000E+00  0.20938379217E+03  0.20938764368E+03  0.12699999809E+01 0.  1.
       -4   -1    0    0    0  501  0.00000000000E+00  0.00000000000E+00 -0.17021115089E+04  0.17021119827E+04  0.12699999809E+01 0. -1.
    10030    2    1    2    0    0  0.00000000000E+00  0.00000000000E+00 -0.14927277167E+04  0.19114996263E+04  0.11939827408E+04 0.  0.
        5    1    3    3  502    0 -0.51670316269E+03  0.29263130443E+03 -0.84454974391E+03  0.10324251056E+04  0.46999998093E+01 0.  1.
       -5    1    3    3    0  502  0.51670316269E+03 -0.29263130443E+03 -0.64817797278E+03  0.87907452077E+03  0.46999998093E+01 0. -1.
</event>
<event>
 5   0  0.2517023E-03  0.1210085E+04  0.7818609E-02  0.9104074E-01
        2   -1    0    0  501    0  0.00000000000E+00  0.00000000000E+00  0.11380724993E+04  0.11380724993E+04  0.25500000920E-02 0.  1.
       -2   -1    0    0    0  501  0.00000000000E+00  0.00000000000E+00 -0.32166376789E+03  0.32166376790E+03  0.25500000920E-02 0. -1.
    10030    2    1    2    0    0  0.00000000000E+00  0.00000000000E+00  0.81640873138E+03  0.14597362672E+04  0.12100854321E+04 0.  0.
        3    1    3    3  502    0  0.53933218014E+03 -0.68916689734E+02  0.72838318530E+03  0.90893937393E+03  0.10100000352E+00 0.  1.
       -3    1    3    3    0  502 -0.53933218014E+03  0.68916689734E+02  0.88025546082E+02  0.55079689325E+03  0.10100000352E+00 0. -1.
</event>
<event>
 5   0  0.2484507E-03  0.1183204E+04  0.7818609E-02  0.9127687E-01
       -2   -1    0    0    0  501  0.00000000000E+00  0.00000000000E+00  0.71301211773E+03  0.71301211774E+03  0.25500000920E-02 0. -1.
        2   -1    0    0  501    0  0.00000000000E+00  0.00000000000E+00 -0.49086499846E+03  0.49086499846E+03  0.25500000920E-02 0.  1.
    10030    2    1    2    0    0  0.00000000000E+00  0.00000000000E+00  0.22214711928E+03  0.12038771162E+04  0.11832036039E+04 0.  0.
        2    1    3    3  502    0  0.39851045227E+03  0.20276572156E+03  0.50522849970E+03  0.67467055317E+03  0.25500000920E-02 0. -1.
       -2    1    3    3    0  502 -0.39851045227E+03 -0.20276572156E+03 -0.28308138042E+03  0.52920656303E+03  0.25500000920E-02 0.  1.
</event>
<event>
 5   0  0.2580244E-03  0.1181649E+04  0.7818609E-02  0.9129073E-01
       -2   -1    0    0    0  501  0.00000000000E+00  0.00000000000E+00  0.25133122233E+03  0.25133122234E+03  0.25500000920E-02 0. -1.
        2   -1    0    0  501    0  0.00000000000E+00  0.00000000000E+00 -0.13888982812E+04  0.13888982812E+04  0.25500000920E-02 0.  1.
    10030    2    1    2    0    0  0.00000000000E+00  0.00000000000E+00 -0.11375670589E+04  0.16402295036E+04  0.11816488526E+04 0.  0.
        1    1    3    3  502    0 -0.26523014298E+03 -0.52930500175E+02  0.16035756956E+03  0.31442521644E+03  0.50400001928E-02 0. -1.
       -1    1    3    3    0  502  0.26523014298E+03  0.52930500175E+02 -0.12979246284E+04  0.13258042871E+04  0.50400001928E-02 0.  1.
</event>
<event>
 5   0  0.1423024E-03  0.1178103E+04  0.7818609E-02  0.9132242E-01
       -1   -1    0    0    0  501  0.00000000000E+00  0.00000000000E+00  0.12495839620E+04  0.12495839620E+04  0.50400001928E-02 0. -1.
        1   -1    0    0  501    0  0.00000000000E+00  0.00000000000E+00 -0.27767775942E+03  0.27767775946E+03  0.50400001928E-02 0.  1.
    10030    2    1    2    0    0  0.00000000000E+00  0.00000000000E+00  0.97190620258E+03  0.15272617215E+04  0.11781030088E+04 0.  0.
        2    1    3    3  502    0  0.51576394127E+03 -0.24599362373E+03  0.67136793414E+03  0.88162362096E+03  0.25500000920E-02 0. -1.
       -2    1    3    3    0  502 -0.51576394127E+03  0.24599362373E+03  0.30053826844E+03  0.64563810051E+03  0.25500000920E-02 0.  1.
</event>
<event>
 5   0  0.2579442E-03  0.1192949E+04  0.7818609E-02  0.9119051E-01
       -2   -1    0    0    0  501  0.00000000000E+00  0.00000000000E+00  0.74734466505E+03  0.74734466506E+03  0.25500000920E-02 0.  1.
        2   -1    0    0  501    0  0.00000000000E+00  0.00000000000E+00 -0.47606140079E+03  0.47606140080E+03  0.25500000920E-02 0. -1.
    10030    2    1    2    0    0  0.00000000000E+00  0.00000000000E+00  0.27128326426E+03  0.12234060659E+04  0.11929491995E+04 0.  0.
        4    1    3    3  502    0  0.94218030058E+02 -0.54378389746E+03 -0.96414855763E+02  0.56024584035E+03  0.12699999809E+01 0.  1.
       -4    1    3    3    0  502 -0.94218030058E+02  0.54378389746E+03  0.36769812002E+03  0.66316022550E+03  0.12699999809E+01 0. -1.
</event>
<event>
 5   0  0.1404833E-03  0.1202471E+04  0.7818609E-02  0.9110696E-01
        1   -1    0    0  501    0  0.00000000000E+00  0.00000000000E+00  0.12721377577E+04  0.12721377577E+04  0.50400001928E-02 0.  1.
       -1   -1    0    0    0  501  0.00000000000E+00  0.00000000000E+00 -0.28415498707E+03  0.28415498712E+03  0.50400001928E-02 0. -1.
    10030    2    1    2    0    0  0.00000000000E+00  0.00000000000E+00  0.98798277063E+03  0.15562927448E+04  0.12024712689E+04 0.  0.
        1    1    3    3  502    0 -0.16371737642E+03 -0.56542396049E+03  0.65238000645E+03  0.87869636808E+03  0.50400001928E-02 0. -1.
       -1    1    3    3    0  502  0.16371737642E+03  0.56542396049E+03  0.33560276419E+03  0.67759637675E+03  0.50400001928E-02 0.  1.
</event>
<event>
 5   0  0.1455076E-03  0.1107724E+04  0.7818609E-02  0.9197696E-01
       -1   -1    0    0    0  501  0.00000000000E+00  0.00000000000E+00  0.19460128323E+03  0.19460128330E+03  0.50400001928E-02 0.  1.
        1   -1    0    0  501    0  0.00000000000E+00  0.00000000000E+00 -0.15763674275E+04  0.15763674275E+04  0.50400001928E-02 0. -1.
    10030    2    1    2    0    0  0.00000000000E+00  0.00000000000E+00 -0.13817661443E+04  0.17709687108E+04  0.11077240167E+04 0.  0.
        4    1    3    3  502    0 -0.32192215417E+03 -0.31485237069E+03 -0.12064521315E+04  0.12877477420E+04  0.12699999809E+01 0. -1.
       -4    1    3    3    0  502  0.32192215417E+03  0.31485237069E+03 -0.17531401278E+03  0.48322096877E+03  0.12699999809E+01 0.  1.
</event>
<event>
 5   0  0.2517023E-03  0.1199874E+04  0.7818609E-02  0.9112967E-01
       -2   -1    0    0    0  501  0.00000000000E+00  0.00000000000E+00  0.36263213485E+03  0.36263213486E+03  0.25500000920E-02 0. -1.
        2   -1    0    0  501    0  0.00000000000E+00  0.00000000000E+00 -0.99253307338E+03  0.99253307338E+03  0.25500000920E-02 0.  1.
    10030    2    1    2    0    0  0.00000000000E+00  0.00000000000E+00 -0.62990093852E+03  0.13551652082E+04  0.11998739722E+04 0.  0.
        3    1    3    3  502    0 -0.59155962369E+03 -0.41171704386E+02 -0.41776195632E+03  0.72537091200E+03  0.10100000352E+00 0.  1.
       -3    1    3    3    0  502  0.59155962369E+03  0.41171704386E+02 -0.21213898220E+03  0.62979429625E+03  0.10100000352E+00 0. -1.
</event>
<event>
 5   0  0.1469851E-03  0.1200961E+04  0.7818609E-02  0.9112016E-01
        1   -1    0    0  501    0  0.00000000000E+00  0.00000000000E+00  0.99185035392E+03  0.99185035393E+03  0.50400001928E-02 0. -1.
       -1   -1    0    0    0  501  0.00000000000E+00  0.00000000000E+00 -0.36353957834E+03  0.36353957838E+03  0.50400001928E-02 0.  1.
    10030    2    1    2    0    0  0.00000000000E+00  0.00000000000E+00  0.62831077558E+03  0.13553899323E+04  0.12009610476E+04 0.  0.
        5    1    3    3  502    0  0.34725013757E+02 -0.38306794706E+03 -0.20622991631E+03  0.43646276705E+03  0.46999998093E+01 0.  1.
       -5    1    3    3    0  502 -0.34725013757E+02  0.38306794706E+03  0.83454069189E+03  0.91892716526E+03  0.46999998093E+01 0. -1.
</event>
<event>
 5   0  0.2517023E-03  0.1214975E+04  0.7818609E-02  0.9099849E-01
        2   -1    0    0  501    0  0.00000000000E+00  0.00000000000E+00  0.17945415829E+04  0.17945415829E+04  0.25500000920E-02 0.  1.
       -2   -1    0    0    0  501  0.00000000000E+00  0.00000000000E+00 -0.20564642161E+03  0.20564642162E+03  0.25500000920E-02 0. -1.
    10030    2    1    2    0    0  0.00000000000E+00  0.00000000000E+00  0.15888951613E+04  0.20001880046E+04  0.12149749874E+04 0.  0.
        3    1    3    3  502    0 -0.23171236969E+03 -0.36011379952E+03  0.85077993396E+02  0.43659002054E+03  0.10100000352E+00 0. -1.
       -3    1    3    3    0  502  0.23171236969E+03  0.36011379952E+03  0.15038171679E+04  0.15635979840E+04  0.10100000352E+00 0.  1.
</event>
<event>
 5   0  0.1455076E-03  0.1190504E+04  0.7818609E-02  0.9121209E-01
        1   -1    0    0  501    0  0.00000000000E+00  0.00000000000E+00  0.28062524986E+03  0.28062524990E+03  0.50400001928E-02 0.  1.
       -1   -1    0    0    0  501  0.00000000000E+00  0.00000000000E+00 -0.12626275477E+04  0.12626275477E+04  0.50400001928E-02 0. -1.
    10030    2    1    2    0    0  0.00000000000E+00  0.00000000000E+00 -0.98200229786E+03  0.15432527976E+04  0.11905043824E+04 0.  0.
        4    1    3    3  502    0 -0.26891544431E+03  0.72369169332E+02  0.19097025773E+03  0.33767449577E+03  0.12699999809E+01 0.  1.
       -4    1    3    3    0  502  0.26891544431E+03 -0.72369169332E+02 -0.11729725556E+04  0.12055783019E+04  0.12699999809E+01 0. -1.
</event>
<event>
 5   0  0.1469851E-03  0.1198322E+04  0.7818609E-02  0.9114327E-01
        1   -1    0    0  501    0  0.00000000000E+00  0.00000000000E+00  0.74995492124E+03  0.74995492126E+03  0.50400001928E-02 0.  1.
       -1   -1    0    0    0  501  0.00000000000E+00  0.00000000000E+00 -0.47868711435E+03  0.47868711438E+03  0.50400001928E-02 0. -1.
    10030    2    1    2    0    0  0.00000000000E+00  0.00000000000E+00  0.27126780689E+03  0.12286420356E+04  0.11983217551E+04 0.  0.
        5    1    3    3  502    0  0.49428625093E+03 -0.24990651585E+03 -0.98619067997E+02  0.56260107989E+03  0.46999998093E+01 0. -1.
       -5    1    3    3    0  502 -0.49428625093E+03  0.24990651585E+03  0.36988687489E+03  0.66604095575E+03  0.46999998093E+01 0.  1.
</event>
<event>
 5   0  0.2499890E-03  0.1179657E+04  0.7818609E-02  0.9130852E-01
       -2   -1    0    0    0  501  0.00000000000E+00  0.00000000000E+00  0.75429949547E+03  0.75429949547E+03  0.25500000920E-02 0.  1.
        2   -1    0    0  501    0  0.00000000000E+00  0.00000000000E+00 -0.46121926364E+03  0.46121926365E+03  0.25500000920E-02 0. -1.
    10030    2    1    2    0    0  0.00000000000E+00  0.00000000000E+00  0.29308023183E+03  0.12155187591E+04  0.11796566583E+04 0.  0.
        5    1    3    3  502    0  0.25287055438E+03  0.51793463873E+03  0.17531836507E+02  0.57665350303E+03  0.46999998093E+01 0. -1.
       -5    1    3    3    0  502 -0.25287055438E+03 -0.51793463873E+03  0.27554839532E+03  0.63886525609E+03  0.46999998093E+01 0.  1.
</event>
<event>
 5   0  0.1404833E-03  0.1198185E+04  0.7818609E-02  0.9114446E-01
       -1   -1    0    0    0  501  0.00000000000E+00  0.00000000000E+00  0.48909078228E+03  0.48909078230E+03  0.50400001928E-02 0. -1.
        1   -1    0    0  501    0  0.00000000000E+00  0.00000000000E+00 -0.73383533243E+03  0.73383533245E+03  0.50400001928E-02 0.  1.
    10030    2    1    2    0    0  0.00000000000E+00  0.00000000000E+00 -0.24474455016E+03  0.12229261148E+04  0.11981854561E+04 0.  0.
        1    1    3    3  502    0 -0.32824235078E+03  0.43125755527E+03  0.13821503622E+03  0.55931164487E+03  0.50400001928E-02 0. -1.
       -1    1    3    3    0  502  0.32824235078E+03 -0.43125755527E+03 -0.38295958638E+03  0.66361446989E+03  0.50400001928E-02 0.  1.
</event>
<event>
 5   0  0.2499890E-03  0.1183170E+04  0.7818609E-02  0.9127717E-01
        2   -1    0    0  501    0  0.00000000000E+00  0.00000000000E+00  0.79145209103E+03  0.79145209104E+03  0.25500000920E-02 0. -1.
       -2   -1    0    0    0  501  0.00000000000E+00  0.00000000000E+00 -0.44219049992E+03  0.44219049993E+03  0.25500000920E-02 0.  1.
    10030    2    1    2    0    0  0.00000000000E+00  0.00000000000E+00  0.34926159111E+03  0.12336425910E+04  0.11831696342E+04 0.  0.
        5    1    3    3  502    0 -0.20092426124E+03  0.50206522496E+03 -0.75412807799E+02  0.54603042996E+03  0.46999998093E+01 0.  1.
       -5    1    3    3    0  502  0.20092426124E+03 -0.50206522496E+03  0.42467439891E+03  0.68761216100E+03  0.46999998093E+01 0. -1.
</event>
<event>
 5   0  0.1423024E-03  0.1114021E+04  0.7818609E-02  0.9191633E-01
       -1   -1    0    0    0  501  0.00000000000E+00  0.00000000000E+00  0.75064552437E+03  0.75064552439E+03  0.50400001928E-02 0.  1.
        1   -1    0    0  501    0  0.00000000000E+00  0.00000000000E+00 -0.41332508434E+03  0.41332508437E+03  0.50400001928E-02 0. -1.
    10030    2    1    2    0    0  0.00000000000E+00  0.00000000000E+00  0.33732044003E+03  0.11639706088E+04  0.11140208700E+04 0.  0.
        2    1    3    3  502    0  0.16501651236E+03  0.12599487477E+03  0.70870617815E+03  0.73849143852E+03  0.25500000920E-02 0.  1.
       -2    1    3    3    0  502 -0.16501651236E+03 -0.12599487477E+03 -0.37138573812E+03  0.42547917023E+03  0.25500000920E-02 0. -1.
</event>
<event>
 5   0  0.1403154E-03  0.1204363E+04  0.7818609E-02  0.9109046E-01
       -1   -1    0    0    0  501  0.00000000000E+00  0.00000000000E+00  0.55934284036E+03  0.55934284038E+03  0.50400001928E-02 0. -1.
        1   -1    0    0  501    0  0.00000000000E+00  0.00000000000E+00 -0.64830155700E+03  0.64830155702E+03  0.50400001928E-02 0.  1.
    10030    2    1    2    0    0  0.00000000000E+00  0.00000000000E+00 -0.88958716642E+02  0.12076443974E+04  0.12043634573E+04 0.  0.
        3    1    3    3  502    0  0.56660135650E+02 -0.25938346000E+03  0.49748605007E+03  0.56389939750E+03  0.10100000352E+00 0. -1.
       -3    1    3    3    0  502 -0.56660135650E+02  0.25938346000E+03 -0.58644476671E+03  0.64374499990E+03  0.10100000352E+00 0.  1.
</event>
<event>
 5   0  0.1469851E-03  0.1196711E+04  0.7818609E-02  0.9115740E-01
       -1   -1    0    0    0  501  0.00000000000E+00  0.00000000000E+00  0.21312209274E+03  0.21312209279E+03  0.50400001928E-02 0.  1.
        1   -1    0    0  501    0  0.00000000000E+00  0.00000000000E+00 -0.16799259627E+04  0.16799259627E+04  0.50400001928E-02 0. -1.
    10030    2    1    2    0    0  0.00000000000E+00  0.00000000000E+00 -0.14668038700E+04  0.18930480555E+04  0.11967110543E+04 0.  0.
        5    1    3    3  502    0  0.24296440564E+03  0.22348186324E+03 -0.15228060614E+04  0.15581836337E+04  0.46999998093E+01 0. -1.
       -5    1    3    3    0  502 -0.24296440564E+03 -0.22348186324E+03  0.56002191385E+02  0.33486442188E+03  0.46999998093E+01 0.  1.
</event>
<event>
 5   0  0.2484507E-03  0.1204497E+04  0.7818609E-02  0.9108930E-01
        2   -1    0    0  501    0  0.00000000000E+00  0.00000000000E+00  0.11289206472E+04  0.11289206472E+04  0.25500000920E-02 0.  1.
       -2   -1    0    0    0  501  0.00000000000E+00  0.00000000000E+00 -0.32128311987E+03  0.32128311988E+03  0.25500000920E-02 0. -1.
    10030    2    1    2    0    0  0.00000000000E+00  0.00000000000E+00  0.80763752735E+03  0.14502037671E+04  0.12044968205E+04 0.  0.
        2    1    3    3  502    0  0.32753353424E+03 -0.37150911990E+03 -0.87234000158E+01  0.49535173356E+03  0.25500000920E-02 0. -1.
       -2    1    3    3    0  502 -0.32753353424E+03  0.37150911990E+03  0.81636092737E+03  0.95485203354E+03  0.25500000920E-02 0.  1.
</event>
<event>
 5   0  0.2580244E-03  0.1208574E+04  0.7818609E-02  0.9105385E-01
        2   -1    0    0  501    0  0.00000000000E+00  0.00000000000E+00  0.11675254826E+04  0.11675254826E+04  0.25500000920E-02 0.  1.
       -2   -1    0    0    0  501  0.00000000000E+00  0.00000000000E+00 -0.31276622582E+03  0.31276622583E+03  0.25500000920E-02 0. -1.
    10030    2    1    2    0    0  0.00000000000E+00  0.00000000000E+00  0.85475925681E+03  0.14802917085E+04  0.12085736035E+04 0.  0.
        1    1    3    3  502    0  0.48925332304E+02 -0.36052915701E+03  0.10183342078E+04  0.10813785277E+04  0.50400001928E-02 0.  1.
       -1    1    3    3    0  502 -0.48925332304E+02  0.36052915701E+03 -0.16357495104E+03  0.39891318081E+03  0.50400001928E-02 0. -1.
</event>
<event>
 5   0  0.1404833E-03  0.1202575E+04  0.7818609E-02  0.9110606E-01
        1   -1    0    0  501    0  0.00000000000E+00  0.00000000000E+00  0.75757575621E+03  0.75757575622E+03  0.50400001928E-02 0.  1.
       -1   -1    0    0    0  501  0.00000000000E+00  0.00000000000E+00 -0.47724157220E+03  0.47724157222E+03  0.50400001928E-02 0. -1.
    10030    2    1    2    0    0  0.00000000000E+00  0.00000000000E+00  0.28033418401E+03  0.12348173284E+04  0.12025749789E+04 0.  0.
        1    1    3    3  502    0 -0.21341183893E+03  0.12961176936E+03 -0.42149277648E+03  0.48989793264E+03  0.50400001928E-02 0. -1.
       -1    1    3    3    0  502  0.21341183893E+03 -0.12961176936E+03  0.70182696049E+03  0.74491939581E+03  0.50400001928E-02 0.  1.
</event>
<event>
 5   0  0.1403154E-03  0.1067853E+04  0.7818609E-02  0.9237104E-01
        1   -1    0    0  501    0  0.00000000000E+00  0.00000000000E+00  0.99814069238E+03  0.99814069239E+03  0.50400001928E-02 0. -1.
       -1   -1    0    0    0  501  0.00000000000E+00  0.00000000000E+00 -0.28560849338E+03  0.28560849342E+03  0.50400001928E-02 0.  1.
    10030    2    1    2    0    0  0.00000000000E+00  0.00000000000E+00  0.71253219900E+03  0.12837491858E+04  0.10678529100E+04 0.  0.
        3    1    3    3  502    0 -0.50864543880E+03  0.15936027187E+03  0.39354467521E+03  0.66256569505E+03  0.10100000352E+00 0. -1.
       -3    1    3    3    0  502  0.50864543880E+03 -0.15936027187E+03  0.31898752379E+03  0.62118349076E+03  0.10100000352E+00 0.  1.
</event>
<event>
 5   0  0.1403154E-03  0.1197178E+04  0.7818609E-02  0.9115330E-01
        1   -1    0    0  501    0  0.00000000000E+00  0.00000000000E+00  0.17072258642E+04  0.17072258642E+04  0.50400001928E-02 0. -1.
       -1   -1    0    0    0  501  0.00000000000E+00  0.00000000000E+00 -0.20987791454E+03  0.20987791461E+03  0.50400001928E-02 0.  1.
    10030    2    1    2    0    0  0.00000000000E+00  0.00000000000E+00  0.14973479496E+04  0.19171037788E+04  0.11971783561E+04 0.  0.
        3    1    3    3  502    0  0.47413946566E+03 -0.13610135078E+03  0.12916649347E+04  0.13826532915E+04  0.10100000352E+00 0. -1.
       -3    1    3    3    0  502 -0.47413946566E+03  0.13610135078E+03  0.20568301491E+03  0.53445048733E+03  0.10100000352E+00 0.  1.
</event>
<event>
 5   0  0.1423024E-03  0.1219821E+04  0.7818609E-02  0.9095682E-01
       -1   -1    0    0    0  501  0.00000000000E+00  0.00000000000E+00  0.22315488883E+03  0.22315488888E+03  0.50400001928E-02 0. -1.
        1   -1    0    0  501    0  0.00000000000E+00  0.00000000000E+00 -0.16669627819E+04  0.16669627819E+04  0.50400001928E-02 0.  1.
    10030    2    1    2    0    0  0.00000000000E+00  0.00000000000E+00 -0.14438078931E+04  0.18901176708E+04  0.12198211251E+04 0.  0.
        2    1    3    3  502    0 -0.16445425257E+03 -0.36044100110E+03 -0.14404261242E+04  0.14939177808E+04  0.25500000920E-02 0.  1.
       -2    1    3    3    0  502  0.16445425257E+03  0.36044100110E+03 -0.33817688526E+01  0.39619988999E+03  0.25500000920E-02 0. -1.
</event>
<event>
 5   0  0.2580244E-03  0.1151102E+04  0.7818609E-02  0.9156768E-01
        2   -1    0    0  501    0  0.00000000000E+00  0.00000000000E+00  0.19912382683E+04  0.19912382683E+04  0.25500000920E-02 0.  1.
       -2   -1    0    0    0  501  0.00000000000E+00  0.00000000000E+00 -0.16635825628E+03  0.16635825630E+03  0.25500000920E-02 0. -1.
    10030    2    1    2    0    0  0.00000000000E+00  0.00000000000E+00  0.18248800120E+04  0.21575965246E+04  0.11511019523E+04 0.  0.
        1    1    3    3  502    0 -0.24170544159E+03 -0.33109791107E+03  0.15520283119E+03  0.43833236937E+03  0.50400001928E-02 0. -1.
       -1    1    3    3    0  502  0.24170544159E+03  0.33109791107E+03  0.16696771808E+04  0.17192641552E+04  0.50400001928E-02 0.  1.
</event>
<event>
 5   0  0.2517023E-03  0.1206745E+04  0.7818609E-02  0.9106973E-01
        2   -1    0    0  501    0  0.00000000000E+00  0.00000000000E+00  0.45459317409E+03  0.45459317410E+03  0.25500000920E-02 0. -1.
       -2   -1    0    0    0  501  0.00000000000E+00  0.00000000000E+00 -0.80084492911E+03  0.80084492912E+03  0.25500000920E-02 0.  1.
    10030    2    1    2    0    0  0.00000000000E+00  0.00000000000E+00 -0.34625175502E+03  0.12554381032E+04  0.12067454384E+04 0.  0.
        3    1    3    3  502    0  0.26076299618E+03  0.15168527319E+03  0.37050361449E+03  0.47778520365E+03  0.10100000352E+00 0. -1.
       -3    1    3    3    0  502 -0.26076299618E+03 -0.15168527319E+03 -0.71675536951E+03  0.77765289957E+03  0.10100000352E+00 0.  1.
</event>
<event>
 5   0  0.1403154E-03  0.1199105E+04  0.7818609E-02  0.9113640E-01
       -1   -1    0    0    0  501  0.00000000000E+00  0.00000000000E+00  0.10207163673E+04  0.10207163674E+04  0.50400001928E-02 0.  1.
        1   -1    0    0  501    0  0.00000000000E+00  0.00000000000E+00 -0.35216763702E+03  0.35216763706E+03  0.50400001928E-02 0. -1.
    10030    2    1    2    0    0  0.00000000000E+00  0.00000000000E+00  0.66854873032E+03  0.13728840044E+04  0.11991051183E+04 0.  0.
        3    1    3    3  502    0 -0.12623647277E+03  0.17942679397E+03  0.97311070481E+03  0.99753399715E+03  0.10100000352E+00 0.  1.
       -3    1    3    3    0  502  0.12623647277E+03 -0.17942679397E+03 -0.30456197449E+03  0.37535000727E+03  0.10100000352E+00 0. -1.
</event>
<event>
 5   0  0.2579442E-03  0.1242515E+04  0.7818609E-02  0.9076436E-01
        2   -1    0    0  501    0  0.00000000000E+00  0.00000000000E+00  0.13273619796E+04  0.13273619796E+04  0.25500000920E-02 0.  1.
       -2   -1    0    0    0  501  0.00000000000E+00  0.00000000000E+00 -0.29077295404E+03  0.29077295406E+03  0.25500000920E-02 0. -1.
    10030    2    1    2    0    0  0.00000000000E+00  0.00000000000E+00  0.10365890256E+04  0.16181349337E+04  0.12425151330E+04 0.  0.
        4    1    3    3  502    0  0.73479557471E+02  0.29947724380E+03 -0.18407413122E+03  0.35912499719E+03  0.12699999809E+01 0. -1.
       -4    1    3    3    0  502 -0.73479557471E+02 -0.29947724380E+03  0.12206631568E+04  0.12590099365E+04  0.12699999809E+01 0.  1.
</event>
<event>
 5   0  0.1403154E-03  0.1191858E+04  0.7818609E-02  0.9120013E-01
       -1   -1    0    0    0  501  0.00000000000E+00  0.00000000000E+00  0.46052077703E+03  0.46052077706E+03  0.50400001928E-02 0.  1.
        1   -1    0    0  501    0  0.00000000000E+00  0.00000000000E+00 -0.77115157409E+03  0.77115157411E+03  0.50400001928E-02 0. -1.
    10030    2    1    2    0    0  0.00000000000E+00  0.00000000000E+00 -0.31063079706E+03  0.12316723512E+04  0.11918579146E+04 0.  0.
        3    1    3    3  502    0 -0.46496292247E+03 -0.18847560370E+03  0.17701359169E+03  0.53202198667E+03  0.10100000352E+00 0.  1.
       -3    1    3    3    0  502  0.46496292247E+03  0.18847560370E+03 -0.48764438875E+03  0.69965036450E+03  0.10100000352E+00 0. -1.
</event>
<event>
 5   0  0.1403154E-03  0.1198248E+04  0.7818609E-02  0.9114391E-01
       -1   -1    0    0    0  501  0.00000000000E+00  0.00000000000E+00  0.41158220728E+03  0.41158220731E+03  0.50400001928E-02 0. -1.
        1   -1    0    0  501    0  0.00000000000E+00  0.00000000000E+00 -0.87212111355E+03  0.87212111357E+03  0.50400001928E-02 0.  1.
    10030    2    1    2    0    0  0.00000000000E+00  0.00000000000E+00 -0.46053890627E+03  0.12837033209E+04  0.11982479426E+04 0.  0.
        3    1    3    3  502    0 -0.26918447557E+03  0.20181377875E+03 -0.76136659020E+03  0.83238703621E+03  0.10100000352E+00 0.  1.
       -3    1    3    3    0  502  0.26918447557E+03 -0.20181377875E+03  0.30082768393E+03  0.45131628466E+03  0.10100000352E+00 0. -1.
</event>
<event>
 5   0  0.2499890E-03  0.1202820E+04  0.7818609E-02  0.9110392E-01
        2   -1    0    0  501    0  0.00000000000E+00  0.00000000000E+00  0.95168257113E+03  0.95168257113E+03  0.25500000920E-02 0.  1.
       -2   -1    0    0    0  501  0.00000000000E+00  0.00000000000E+00 -0.38005748422E+03  0.38005748423E+03  0.25500000920E-02 0. -1.
    10030    2    1    2    0    0  0.00000000000E+00  0.00000000000E+00  0.57162508691E+03  0.13317400554E+04  0.12028201591E+04 0.  0.
        5    1    3    3  502    0  0.49886264010E+03 -0.25994754569E+03  0.50330572116E+02  0.56479369391E+03  0.46999998093E+01 0.  1.
       -5    1    3    3    0  502 -0.49886264010E+03  0.25994754569E+03  0.52129451479E+03  0.76694636145E+03  0.46999998093E+01 0. -1.
</event>
<event>
 5   0  0.1455076E-03  0.1205546E+04  0.7818609E-02  0.9108016E-01
        1   -1    0    0  501    0  0.00000000000E+00  0.00000000000E+00  0.12500045644E+04  0.12500045644E+04  0.50400001928E-02 0. -1.
       -1   -1    0    0    0  501  0.00000000000E+00  0.00000000000E+00 -0.29066704336E+03  0.29066704340E+03  0.50400001928E-02 0.  1.
    10030    2    1    2    0    0  0.00000000000E+00  0.00000000000E+00  0.95933752107E+03  0.15406716078E+04  0.12055457370E+04 0.  0.
        4    1    3    3  502    0  0.20544498184E+03 -0.35067285643E+03 -0.89221207621E+02  0.41610230664E+03  0.12699999809E+01 0.  1.
       -4    1    3    3    0  502 -0.20544498184E+03  0.35067285643E+03  0.10485587287E+04  0.11245693012E+04  0.12699999809E+01 0. -1.
</event>
<event>
 5   0  0.1403154E-03  0.1257906E+04  0.7818609E-02  0.9063629E-01
        1   -1    0    0  501    0  0.00000000000E+00  0.00000000000E+00  0.22377548864E+04  0.22377548864E+04  0.50400001928E-02 0.  1.
       -1   -1    0    0    0  501  0.00000000000E+00  0.00000000000E+00 -0.17677623456E+03  0.17677623463E+03  0.50400001928E-02 0. -1.
    10030    2    1    2    0    0  0.00000000000E+00  0.00000000000E+00  0.20609786518E+04  0.24145311210E+04  0.12579060104E+04 0.  0.
        3    1    3    3  502    0  0.14567431850E+03  0.36828639808E+03  0.92636976312E+02  0.40674008612E+03  0.10100000352E+00 0. -1.
       -3    1    3    3    0  502 -0.14567431850E+03 -0.36828639808E+03  0.19683416755E+04  0.20077910349E+04  0.10100000352E+00 0.  1.
</event>
<event>
 5   0  0.2484507E-03  0.1209423E+04  0.7818609E-02  0.9104648E-01
       -2   -1    0    0    0  501  0.00000000000E+00  0.00000000000E+00  0.34899204382E+03  0.34899204383E+03  0.25500000920E-02 0. -1.
        2   -1    0    0  501    0  0.00000000000E+00  0.00000000000E+00 -0.10478064681E+04  0.10478064681E+04  0.25500000920E-02 0.  1.
    10030    2    1    2    0    0  0.00000000000E+00  0.00000000000E+00 -0.69881442428E+03  0.13967985119E+04  0.12094232028E+04 0.  0.
        2    1    3    3  502    0 -0.55459298532E+03  0.11370868547E+02 -0.71327041675E+02  0.55927651738E+03  0.25500000920E-02 0. -1.
       -2    1    3    3    0  502  0.55459298532E+03 -0.11370868547E+02 -0.62748738261E+03  0.83752199455E+03  0.25500000920E-02 0.  1.
</event>
<event>
 5   0  0.1455076E-03  0.1196136E+04  0.7818609E-02  0.9116245E-01
        1   -1    0    0  501    0  0.00000000000E+00  0.00000000000E+00  0.66995122605E+03  0.66995122607E+03  0.50400001928E-02 0. -1.
       -1   -1    0    0    0  501  0.00000000000E+00  0.00000000000E+00 -0.53389787886E+03  0.53389787888E+03  0.50400001928E-02 0.  1.
    10030    2    1    2    0    0  0.00000000000E+00  0.00000000000E+00  0.13605334720E+03  0.12038491049E+04  0.11961363443E+04 0.  0.
        4    1    3    3  502    0  0.24652226872E+03 -0.13673162993E+03 -0.46283547650E+03  0.54192901639E+03  0.12699999809E+01 0.  1.
       -4    1    3    3    0  502 -0.24652226872E+03  0.13673162993E+03  0.59888882369E+03  0.66192008856E+03  0.12699999809E+01 0. -1.
</event>
<event>
 5   0  0.2580244E-03  0.1205058E+04  0.7818609E-02  0.9108441E-01
        2   -1    0    0  501    0  0.00000000000E+00  0.00000000000E+00  0.87074340760E+03  0.87074340761E+03  0.25500000920E-02 0.  1.
       -2   -1    0    0    0  501  0.00000000000E+00  0.00000000000E+00 -0.41693231404E+03  0.41693231405E+03  0.25500000920E-02 0. -1.
    10030    2    1    2    0    0  0.00000000000E+00  0.00000000000E+00  0.45381109357E+03  0.12876757217E+04  0.12050577810E+04 0.  0.
        1    1    3    3  502    0 -0.27265708737E+03 -0.36573100962E+03  0.64751634613E+03  0.79207226768E+03  0.50400001928E-02 0.  1.
       -1    1    3    3    0  502  0.27265708737E+03  0.36573100962E+03 -0.19370525257E+03  0.49560345397E+03  0.50400001928E-02 0. -1.
</event>
<event>
 5   0  0.1423024E-03  0.1214861E+04  0.7818609E-02  0.9099947E-01
       -1   -1    0    0    0  501  0.00000000000E+00  0.00000000000E+00  0.64339993547E+03  0.64339993549E+03  0.50400001928E-02 0. -1.
        1   -1    0    0  501    0  0.00000000000E+00  0.00000000000E+00 -0.57347208538E+03  0.57347208540E+03  0.50400001928E-02 0.  1.
    10030    2    1    2    0    0  0.00000000000E+00  0.00000000000E+00  0.69927850090E+02  0.12168720209E+04  0.12148611489E+04 0.  0.
        2    1    3    3  502    0 -0.17805943722E+03 -0.56566566757E+03 -0.96741709740E+02  0.60086751374E+03  0.25500000920E-02 0.  1.
       -2    1    3    3    0  502  0.17805943722E+03  0.56566566757E+03  0.16666955983E+03  0.61600450716E+03  0.25500000920E-02 0. -1.
</event>
<event>
 5   0  0.1455076E-03  0.9970182E+03  0.7818609E-02  0.9311821E-01
       -1   -1    0    0    0  501  0.00000000000E+00  0.00000000000E+00  0.10369991846E+04  0.10369991846E+04  0.50400001928E-02 0. -1.
        1   -1    0    0  501    0  0.00000000000E+00  0.00000000000E+00 -0.23964467119E+03  0.23964467124E+03  0.50400001928E-02 0.  1.
    10030    2    1    2    0    0  0.00000000000E+00  0.00000000000E+00  0.79735451342E+03  0.12766438559E+04  0.99701821179E+03 0.  0.
        4    1    3    3  502    0 -0.33975953696E+03 -0.32758721039E+03  0.19316494361E+03  0.50996493184E+03  0.12699999809E+01 0.  1.
       -4    1    3    3    0  502  0.33975953696E+03  0.32758721039E+03  0.60418956980E+03  0.76667892402E+03  0.12699999809E+01 0. -1.
</event>
<event>
 5   0  0.2517023E-03  0.1180040E+04  0.7818609E-02  0.9130509E-01
       -2   -1    0    0    0  501  0.00000000000E+00  0.00000000000E+00  0.62788181955E+03  0.62788181956E+03  0.25500000920E-02 0.  1.
        2   -1    0    0  501    0  0.00000000000E+00  0.00000000000E+00 -0.55444107499E+03  0.55444107500E+03  0.25500000920E-02 0. -1.
    10030    2    1    2    0    0  0.00000000000E+00  0.00000000000E+00  0.73440744562E+02  0.11823228946E+04  0.11800397807E+04 0.  0.
        3    1    3    3  502    0  0.58895580659E+03 -0.30116012695E+02  0.55398986240E+02  0.59232168136E+03  0.10100000352E+00 0. -1.
       -3    1    3    3    0  502 -0.58895580659E+03  0.30116012695E+02  0.18041758322E+02  0.59000121320E+03  0.10100000352E+00 0.  1.
</event>
<event>
 5   0  0.1403154E-03  0.1133062E+04  0.7818609E-02  0.9173553E-01
       -1   -1    0    0    0  501  0.00000000000E+00  0.00000000000E+00  0.60806058306E+03  0.60806058308E+03  0.50400001928E-02 0. -1.
        1   -1    0    0  501    0  0.00000000000E+00  0.00000000000E+00 -0.52783770521E+03  0.52783770523E+03  0.50400001928E-02 0.  1.
    10030    2    1    2    0    0  0.00000000000E+00  0.00000000000E+00  0.80222877853E+02  0.11358982883E+04  0.11330618744E+04 0.  0.
        3    1    3    3  502    0  0.23446948382E+03 -0.38178639741E+03  0.38770769052E+03  0.59249814817E+03  0.10100000352E+00 0. -1.
       -3    1    3    3    0  502 -0.23446948382E+03  0.38178639741E+03 -0.30748481267E+03  0.54340014015E+03  0.10100000352E+00 0.  1.
</event>
<event>
 5   0  0.2484507E-03  0.1196689E+04  0.7818609E-02  0.9115760E-01
        2   -1    0    0  501    0  0.00000000000E+00  0.00000000000E+00  0.15380370786E+04  0.15380370786E+04  0.25500000920E-02 0.  1.
       -2   -1    0    0    0  501  0.00000000000E+00  0.00000000000E+00 -0.23277466777E+03  0.23277466778E+03  0.25500000920E-02 0. -1.
    10030    2    1    2    0    0  0.00000000000E+00  0.00000000000E+00  0.13052624108E+04  0.17708117463E+04  0.11966888819E+04 0.  0.
        2    1    3    3  502    0 -0.35348824146E+03 -0.28861470643E+03  0.12252879708E+04  0.13075102282E+04  0.25500000920E-02 0.  1.
       -2    1    3    3    0  502  0.35348824146E+03  0.28861470643E+03  0.79974440018E+02  0.46330151810E+03  0.25500000920E-02 0. -1.
</event>
<event>
 5   0  0.2517023E-03  0.1233792E+04  0.7818609E-02  0.9083782E-01
        2   -1    0    0  501    0  0.00000000000E+00  0.00000000000E+00  0.41461703615E+03  0.41461703616E+03  0.25500000920E-02 0.  1.
       -2   -1    0    0    0  501  0.00000000000E+00  0.00000000000E+00 -0.91786128876E+03  0.91786128876E+03  0.25500000920E-02 0. -1.
    10030    2    1    2    0    0  0.00000000000E+00  0.00000000000E+00 -0.50324425261E+03  0.13324783249E+04  0.12337924090E+04 0.  0.
        3    1    3    3  502    0  0.54593761051E+03  0.24939243868E+02  0.57433283050E+02  0.54951654448E+03  0.10100000352E+00 0.  1.
       -3    1    3    3    0  502 -0.54593761051E+03 -0.24939243868E+02 -0.56067753566E+03  0.78296178045E+03  0.10100000352E+00 0. -1.
</event>
<event>
 5   0  0.2484507E-03  0.1239632E+04  0.7818609E-02  0.9078857E-01
        2   -1    0    0  501    0  0.00000000000E+00  0.00000000000E+00  0.47119916074E+03  0.47119916074E+03  0.25500000920E-02 0. -1.
       -2   -1    0    0    0  501  0.00000000000E+00  0.00000000000E+00 -0.81530662368E+03  0.81530662368E+03  0.25500000920E-02 0.  1.
    10030    2    1    2    0    0  0.00000000000E+00  0.00000000000E+00 -0.34410746294E+03  0.12865057844E+04  0.12396318757E+04 0.  0.
        2    1    3    3  502    0  0.46985802890E+03  0.34938953019E+03  0.38936910749E+02  0.58681828035E+03  0.25500000920E-02 0. -1.
       -2    1    3    3    0  502 -0.46985802890E+03 -0.34938953019E+03 -0.38304437369E+03  0.69968750407E+03  0.25500000920E-02 0.  1.
</event>
<event>
 5   0  0.2484507E-03  0.1205837E+04  0.7818609E-02  0.9107762E-01
       -2   -1    0    0    0  501  0.00000000000E+00  0.00000000000E+00  0.21599544828E+03  0.21599544830E+03  0.25500000920E-02 0. -1.
        2   -1    0    0  501    0  0.00000000000E+00  0.00000000000E+00 -0.16829568036E+04  0.16829568036E+04  0.25500000920E-02 0.  1.
    10030    2    1    2    0    0  0.00000000000E+00  0.00000000000E+00 -0.14669613553E+04  0.18989522519E+04  0.12058374837E+04 0.  0.
        2    1    3    3  502    0 -0.20120158657E+03  0.42303667475E+03 -0.13312180210E+04  0.14112347523E+04  0.25500000920E-02 0.  1.
       -2    1    3    3    0  502  0.20120158657E+03 -0.42303667475E+03 -0.13574333433E+03  0.48771749962E+03  0.25500000920E-02 0. -1.
</event>
<event>
 5   0  0.1469851E-03  0.1169360E+04  0.7818609E-02  0.9140106E-01
       -1   -1    0    0    0  501  0.00000000000E+00  0.00000000000E+00  0.31753466978E+03  0.31753466982E+03  0.50400001928E-02 0. -1.
        1   -1    0    0  501    0  0.00000000000E+00  0.00000000000E+00 -0.10765778714E+04  0.10765778714E+04  0.50400001928E-02 0.  1.
    10030    2    1    2    0    0  0.00000000000E+00  0.00000000000E+00 -0.75904320158E+03  0.13941125412E+04  0.11693601651E+04 0.  0.
        5    1    3    3  502    0  0.99987097368E+02 -0.32440211276E+03 -0.94703259188E+03  0.10060452129E+04  0.46999998093E+01 0.  1.
       -5    1    3    3    0  502 -0.99987097368E+02  0.32440211276E+03  0.18798939030E+03  0.38806732826E+03  0.46999998093E+01 0. -1.
</event>
<event>
 5   0  0.1455076E-03  0.1194184E+04  0.7818609E-02  0.9117963E-01
        1   -1    0    0  501    0  0.00000000000E+00  0.00000000000E+00  0.67666190411E+03  0.67666190412E+03  0.50400001928E-02 0.  1.
       -1   -1    0    0    0  501  0.00000000000E+00  0.00000000000E+00 -0.52687861256E+03  0.52687861258E+03  0.50400001928E-02 0. -1.
    10030    2    1    2    0    0  0.00000000000E+00  0.00000000000E+00  0.14978329154E+03  0.12035405167E+04  0.11941837132E+04 0.  0.
        4    1    3    3  502    0 -0.57141184642E+03 -0.17187529792E+03  0.53171542090E+02  0.59906714319E+03  0.12699999809E+01 0.  1.
       -4    1    3    3    0  502  0.57141184642E+03  0.17187529792E+03  0.96611749455E+02  0.60447337352E+03  0.12699999809E+01 0. -1.
</event>
<event>
 5   0  0.2484507E-03  0.1206220E+04  0.7818609E-02  0.9107430E-01
       -2   -1    0    0    0  501  0.00000000000E+00  0.00000000000E+00  0.41831933226E+03  0.41831933227E+03  0.25500000920E-02 0.  1.
        2   -1    0    0  501    0  0.00000000000E+00  0.00000000000E+00 -0.86953053049E+03  0.86953053049E+03  0.25500000920E-02 0. -1.
    10030    2    1    2    0    0  0.00000000000E+00  0.00000000000E+00 -0.45121119823E+03  0.12878498628E+04  0.12062196001E+04 0.  0.
        2    1    3    3  502    0 -0.10349954874E+03 -0.39485615612E+03 -0.69963128584E+03  0.81000461526E+03  0.25500000920E-02 0. -1.
       -2    1    3    3    0  502  0.10349954874E+03  0.39485615612E+03  0.24842008761E+03  0.47784524749E+03  0.25500000920E-02 0.  1.
</event>
<event>
 5   0  0.2484507E-03  0.1209636E+04  0.7818609E-02  0.9104464E-01
        2   -1    0    0  501    0  0.00000000000E+00  0.00000000000E+00  0.63431409949E+03  0.63431409949E+03  0.25500000920E-02 0. -1.
       -2   -1    0    0    0  501  0.00000000000E+00  0.00000000000E+00 -0.57669342777E+03  0.57669342778E+03  0.25500000920E-02 0.  1.
    10030    2    1    2    0    0  0.00000000000E+00  0.00000000000E+00  0.57620671716E+02  0.12110075273E+04  0.12096359325E+04 0.  0.
        2    1    3    3  502    0  0.82672859216E+02 -0.10703640027E+03 -0.56136058031E+03  0.57742297648E+03  0.25500000920E-02 0.  1.
       -2    1    3    3    0  502 -0.82672859216E+02  0.10703640027E+03  0.61898125203E+03  0.63358455079E+03  0.25500000920E-02 0. -1.
</event>
<event>
 5   0  0.9678750E-04  0.1006116E+04  0.7818609E-02  0.9301862E-01
       -3   -1    0    0    0  501  0.00000000000E+00  0.00000000000E+00  0.12653490650E+04  0.12653490690E+04  0.10100000352E+00 0.  1.
        3   -1    0    0  501    0  0.00000000000E+00  0.00000000000E+00 -0.19999796047E+03  0.19999798597E+03  0.10100000352E+00 0. -1.
    10030    2    1    2    0    0  0.00000000000E+00  0.00000000000E+00  0.10653511045E+04  0.14653470550E+04  0.10061158063E+04 0.  0.
        4    1    3    3  502    0  0.28912651195E+03 -0.32293486717E+03  0.16082799291E+03  0.46232923826E+03  0.12699999809E+01 0. -1.
       -4    1    3    3    0  502 -0.28912651195E+03  0.32293486717E+03  0.90452311161E+03  0.10030178167E+04  0.12699999809E+01 0.  1.
</event>
<event>
 5   0  0.2517023E-03  0.1232759E+04  0.7818609E-02  0.9084656E-01
       -2   -1    0    0    0  501  0.00000000000E+00  0.00000000000E+00  0.46336219559E+03  0.46336219560E+03  0.25500000920E-02 0.  1.
        2   -1    0    0  501    0  0.00000000000E+00  0.00000000000E+00 -0.81992836787E+03  0.81992836788E+03  0.25500000920E-02 0. -1.
    10030    2    1    2    0    0  0.00000000000E+00  0.00000000000E+00 -0.35656617228E+03  0.12832905635E+04  0.12327591959E+04 0.  0.
        3    1    3    3  502    0 -0.42123584385E+03 -0.33070495004E+03  0.13937835278E+03  0.55338208821E+03  0.10100000352E+00 0.  1.
       -3    1    3    3    0  502  0.42123584385E+03  0.33070495004E+03 -0.49594452506E+03  0.72990847527E+03  0.10100000352E+00 0. -1.
</event>
<event>
 5   0  0.9678750E-04  0.1196221E+04  0.7818609E-02  0.9116170E-01
        4   -1    0    0  501    0  0.00000000000E+00  0.00000000000E+00  0.63616840335E+03  0.63616967101E+03  0.12699999809E+01 0. -1.
       -4   -1    0    0    0  501  0.00000000000E+00  0.00000000000E+00 -0.56232715492E+03  0.56232858904E+03  0.12699999809E+01 0.  1.
    10030    2    1    2    0    0  0.00000000000E+00  0.00000000000E+00  0.73841248430E+02  0.11984982601E+04  0.11962213630E+04 0.  0.
        3    1    3    3  502    0  0.44151522789E+03 -0.22957532309E+03 -0.29551788917E+03  0.57876710208E+03  0.10100000352E+00 0.  1.
       -3    1    3    3    0  502 -0.44151522789E+03  0.22957532309E+03  0.36935913760E+03  0.61973115797E+03  0.10100000352E+00 0. -1.
</event>
<event>
 5   0  0.1404833E-03  0.1210508E+04  0.7818609E-02  0.9103709E-01
        1   -1    0    0  501    0  0.00000000000E+00  0.00000000000E+00  0.89016712442E+03  0.89016712444E+03  0.50400001928E-02 0. -1.
       -1   -1    0    0    0  501  0.00000000000E+00  0.00000000000E+00 -0.41153200073E+03  0.41153200076E+03  0.50400001928E-02 0.  1.
    10030    2    1    2    0    0  0.00000000000E+00  0.00000000000E+00  0.47863512370E+03  0.13016991252E+04  0.12105077575E+04 0.  0.
        1    1    3    3  502    0  0.51361042668E+03  0.76107605426E+01 -0.10492119342E+03  0.52427287831E+03  0.50400001928E-02 0.  1.
       -1    1    3    3    0  502 -0.51361042668E+03 -0.76107605426E+01  0.58355631711E+03  0.77742624688E+03  0.50400001928E-02 0. -1.
</event>
<event>
 5   0  0.2484507E-03  0.1199102E+04  0.7818609E-02  0.9113643E-01
        2   -1    0    0  501    0  0.00000000000E+00  0.00000000000E+00  0.10667495419E+04  0.10667495420E+04  0.25500000920E-02 0. -1.
       -2   -1    0    0    0  501  0.00000000000E+00  0.00000000000E+00 -0.33696889740E+03  0.33696889741E+03  0.25500000920E-02 0.  1.
    10030    2    1    2    0    0  0.00000000000E+00  0.00000000000E+00  0.72978064455E+03  0.14037184394E+04  0.11991020256E+04 0.  0.
        2    1    3    3  502    0 -0.18734386652E+02  0.59254009288E+02  0.10629690101E+04  0.10647840773E+04  0.25500000920E-02 0. -1.
       -2    1    3    3    0  502  0.18734386652E+02 -0.59254009288E+02 -0.33318836553E+03  0.33893436207E+03  0.25500000920E-02 0.  1.
</event>
<event>
 5   0  0.2499890E-03  0.1210717E+04  0.7818609E-02  0.9103528E-01
       -2   -1    0    0    0  501  0.00000000000E+00  0.00000000000E+00  0.30838060913E+03  0.30838060914E+03  0.25500000920E-02 0. -1.
        2   -1    0    0  501    0  0.00000000000E+00  0.00000000000E+00 -0.11883326769E+04  0.11883326769E+04  0.25500000920E-02 0.  1.
    10030    2    1    2    0    0  0.00000000000E+00  0.00000000000E+00 -0.87995206774E+03  0.14967132860E+04  0.12107167377E+04 0.  0.
        5    1    3    3  502    0  0.38311356653E+03  0.15375618708E+03  0.10734976770E+03  0.42657125144E+03  0.46999998093E+01 0. -1.
       -5    1    3    3    0  502 -0.38311356653E+03 -0.15375618708E+03 -0.98730183544E+03  0.10701420346E+04  0.46999998093E+01 0.  1.
</event>
<event>
 5   0  0.9678750E-04  0.1210036E+04  0.7818609E-02  0.9104117E-01
       -4   -1    0    0    0  501  0.00000000000E+00  0.00000000000E+00  0.35839563574E+03  0.35839788590E+03  0.12699999809E+01 0.  1.
        4   -1    0    0  501    0  0.00000000000E+00  0.00000000000E+00 -0.10213428876E+04  0.10213436771E+04  0.12699999809E+01 0. -1.
    10030    2    1    2    0    0  0.00000000000E+00  0.00000000000E+00 -0.66294725181E+03  0.13797415630E+04  0.12100362483E+04 0.  0.
        1    1    3    3  502    0  0.39307473773E+02 -0.55245013532E+03 -0.60914383052E+03  0.82328757782E+03  0.50400001928E-02 0.  1.
       -1    1    3    3    0  502 -0.39307473773E+02  0.55245013532E+03 -0.53803421290E+02  0.55645398523E+03  0.50400001928E-02 0. -1.
</event>
<event>
 5   0  0.1469851E-03  0.1195822E+04  0.7818609E-02  0.9116521E-01
        1   -1    0    0  501    0  0.00000000000E+00  0.00000000000E+00  0.48461435813E+03  0.48461435815E+03  0.50400001928E-02 0.  1.
       -1   -1    0    0    0  501  0.00000000000E+00  0.00000000000E+00 -0.73769495994E+03  0.73769495996E+03  0.50400001928E-02 0. -1.
    10030    2    1    2    0    0  0.00000000000E+00  0.00000000000E+00 -0.25308060182E+03  0.12223093181E+04  0.11958220094E+04 0.  0.
        5    1    3    3  502    0  0.13420558792E+03 -0.57833311822E+03 -0.54298495729E+02  0.59619690715E+03  0.46999998093E+01 0.  1.
       -5    1    3    3    0  502 -0.13420558792E+03  0.57833311822E+03 -0.19878210609E+03  0.62611241096E+03  0.46999998093E+01 0. -1.
</event>
<event>
 5   0  0.2579442E-03  0.1220623E+04  0.7818609E-02  0.9094994E-01
        2   -1    0    0  501    0  0.00000000000E+00  0.00000000000E+00  0.33855000937E+03  0.33855000938E+03  0.25500000920E-02 0. -1.
       -2   -1    0    0    0  501  0.00000000000E+00  0.00000000000E+00 -0.11002221789E+04  0.11002221790E+04  0.25500000920E-02 0.  1.
    10030    2    1    2    0    0  0.00000000000E+00  0.00000000000E+00 -0.76167216958E+03  0.14387721883E+04  0.12206231671E+04 0.  0.
        4    1    3    3  502    0 -0.26365196416E+03 -0.32083353880E+03  0.14634554825E+03  0.44030120397E+03  0.12699999809E+01 0. -1.
       -4    1    3    3    0  502  0.26365196416E+03  0.32083353880E+03 -0.90801771783E+03  0.99847098436E+03  0.12699999809E+01 0.  1.
</event>
<event>
 5   0  0.1403154E-03  0.1210489E+04  0.7818609E-02  0.9103725E-01
        1   -1    0    0  501    0  0.00000000000E+00  0.00000000000E+00  0.23967940249E+04  0.23967940249E+04  0.50400001928E-02 0. -1.
       -1   -1    0    0    0  501  0.00000000000E+00  0.00000000000E+00 -0.15283781548E+03  0.15283781556E+03  0.50400001928E-02 0.  1.
    10030    2    1    2    0    0  0.00000000000E+00  0.00000000000E+00  0.22439562094E+04  0.25496318404E+04  0.12104887658E+04 0.  0.
        3    1    3    3  502    0 -0.55054073691E+03  0.64215806744E+02  0.60992179013E+03  0.82415009137E+03  0.10100000352E+00 0.  1.
       -3    1    3    3    0  502  0.55054073691E+03 -0.64215806744E+02  0.16340344193E+04  0.17254817491E+04  0.10100000352E+00 0. -1.
</event>
<event>
 5   0  0.1423024E-03  0.1196532E+04  0.7818609E-02  0.9115897E-01
        1   -1    0    0  501    0  0.00000000000E+00  0.00000000000E+00  0.14613542883E+04  0.14613542883E+04  0.50400001928E-02 0. -1.
       -1   -1    0    0    0  501  0.00000000000E+00  0.00000000000E+00 -0.24492520028E+03  0.24492520033E+03  0.50400001928E-02 0.  1.
    10030    2    1    2    0    0  0.00000000000E+00  0.00000000000E+00  0.12164290880E+04  0.17062794886E+04  0.11965324764E+04 0.  0.
        2    1    3    3  502    0 -0.22030107084E+03  0.27686026868E+03 -0.79739817502E+02  0.36268803218E+03  0.25500000920E-02 0.  1.
       -2    1    3    3    0  502  0.22030107084E+03 -0.27686026868E+03  0.12961689055E+04  0.13435914565E+04  0.25500000920E-02 0. -1.
</event>
<event>
 5   0  0.2484507E-03  0.1221597E+04  0.7818609E-02  0.9094160E-01
       -2   -1    0    0    0  501  0.00000000000E+00  0.00000000000E+00  0.86809827904E+03  0.86809827905E+03  0.25500000920E-02 0.  1.
        2   -1    0    0  501    0  0.00000000000E+00  0.00000000000E+00 -0.42976073140E+03  0.42976073140E+03  0.25500000920E-02 0. -1.
    10030    2    1    2    0    0  0.00000000000E+00  0.00000000000E+00  0.43833754765E+03  0.12978590104E+04  0.12215965804E+04 0.  0.
        2    1    3    3  502    0  0.11494877314E+03 -0.31971277222E+03  0.75844419923E+03  0.83106382457E+03  0.25500000920E-02 0.  1.
       -2    1    3    3    0  502 -0.11494877314E+03  0.31971277222E+03 -0.32010665158E+03  0.46679518588E+03  0.25500000920E-02 0. -1.
</event>
<event>
 5   0  0.2499890E-03  0.1196911E+04  0.7818609E-02  0.9115565E-01
        2   -1    0    0  501    0  0.00000000000E+00  0.00000000000E+00  0.63246421786E+03  0.63246421786E+03  0.25500000920E-02 0.  1.
       -2   -1    0    0    0  501  0.00000000000E+00  0.00000000000E+00 -0.56627510697E+03  0.56627510698E+03  0.25500000920E-02 0. -1.
    10030    2    1    2    0    0  0.00000000000E+00  0.00000000000E+00  0.66189110883E+02  0.11987393248E+04  0.11969105942E+04 0.  0.
        5    1    3    3  502    0  0.21647427822E+03  0.25823349359E+03  0.52840148250E+03  0.62671833151E+03  0.46999998093E+01 0.  1.
       -5    1    3    3    0  502 -0.21647427822E+03 -0.25823349359E+03 -0.46221237162E+03  0.57202099333E+03  0.46999998093E+01 0. -1.
</event>
<event>
 5   0  0.1455076E-03  0.1195270E+04  0.7818609E-02  0.9117007E-01
       -1   -1    0    0    0  501  0.00000000000E+00  0.00000000000E+00  0.90703281688E+03  0.90703281689E+03  0.50400001928E-02 0. -1.
        1   -1    0    0  501    0  0.00000000000E+00  0.00000000000E+00 -0.39377595499E+03  0.39377595502E+03  0.50400001928E-02 0.  1.
    10030    2    1    2    0    0  0.00000000000E+00  0.00000000000E+00  0.51325686189E+03  0.13008087719E+04  0.11952702016E+04 0.  0.
        4    1    3    3  502    0 -0.41766145228E+03  0.14362385963E+03  0.69479084389E+03  0.82328903274E+03  0.12699999809E+01 0. -1.
       -4    1    3    3    0  502  0.41766145228E+03 -0.14362385963E+03 -0.18153398200E+03  0.47751973917E+03  0.12699999809E+01 0.  1.
</event>
<event>
 5   0  0.2499890E-03  0.1195902E+04  0.7818609E-02  0.9116451E-01
       -2   -1    0    0    0  501  0.00000000000E+00  0.00000000000E+00  0.12215127426E+03  0.12215127429E+03  0.25500000920E-02 0. -1.
        2   -1    0    0  501    0  0.00000000000E+00  0.00000000000E+00 -0.29270717724E+04  0.29270717724E+04  0.25500000920E-02 0.  1.
    10030    2    1    2    0    0  0.00000000000E+00  0.00000000000E+00 -0.28049204982E+04  0.30492230467E+04  0.11959022484E+04 0.  0.
        5    1    3    3  502    0  0.32208257618E+03 -0.23197753554E+03 -0.25426545343E+04  0.25734538919E+04  0.46999998093E+01 0.  1.
       -5    1    3    3    0  502 -0.32208257618E+03  0.23197753554E+03 -0.26226596383E+03  0.47576915480E+03  0.46999998093E+01 0. -1.
</event>
<event>
 5   0  0.1403154E-03  0.1202475E+04  0.7818609E-02  0.9110693E-01
       -1   -1    0    0    0  501  0.00000000000E+00  0.00000000000E+00  0.14563090403E+03  0.14563090412E+03  0.50400001928E-02 0.  1.
        1   -1    0    0  501    0  0.00000000000E+00  0.00000000000E+00 -0.24822094236E+04  0.24822094236E+04  0.50400001928E-02 0. -1.
    10030    2    1    2    0    0  0.00000000000E+00  0.00000000000E+00 -0.23365785196E+04  0.26278403277E+04  0.12024747856E+04 0.  0.
        3    1    3    3  502    0 -0.37957045616E+03 -0.35695037639E+03 -0.18238939525E+04  0.18968596317E+04  0.10100000352E+00 0. -1.
       -3    1    3    3    0  502  0.37957045616E+03  0.35695037639E+03 -0.51268456710E+03  0.73098069601E+03  0.10100000352E+00 0.  1.
</event>
<event>
 5   0  0.2484507E-03  0.1247656E+04  0.7818609E-02  0.9072136E-01
        2   -1    0    0  501    0  0.00000000000E+00  0.00000000000E+00  0.79832136198E+03  0.79832136198E+03  0.25500000920E-02 0.  1.
       -2   -1    0    0    0  501  0.00000000000E+00  0.00000000000E+00 -0.48747451840E+03  0.48747451840E+03  0.25500000920E-02 0. -1.
    10030    2    1    2    0    0  0.00000000000E+00  0.00000000000E+00  0.31084684358E+03  0.12857958804E+04  0.12476559165E+04 0.  0.
        2    1    3    3  502    0 -0.30022074445E+03 -0.21544203460E+03  0.67339451759E+03  0.76811974457E+03  0.25500000920E-02 0.  1.
       -2    1    3    3    0  502  0.30022074445E+03  0.21544203460E+03 -0.36254767400E+03  0.51767613582E+03  0.25500000920E-02 0. -1.
</event>
<event>
 5   0  0.2517023E-03  0.1288742E+04  0.7818609E-02  0.9038540E-01
       -2   -1    0    0    0  501  0.00000000000E+00  0.00000000000E+00  0.17941180338E+04  0.17941180338E+04  0.25500000920E-02 0. -1.
        2   -1    0    0  501    0  0.00000000000E+00  0.00000000000E+00 -0.23143084818E+03  0.23143084820E+03  0.25500000920E-02 0.  1.
    10030    2    1    2    0    0  0.00000000000E+00  0.00000000000E+00  0.15626871856E+04  0.20255488820E+04  0.12887424232E+04 0.  0.
        3    1    3    3  502    0 -0.62228058509E+03  0.10498161657E+03  0.57665704879E+03  0.85486117500E+03  0.10100000352E+00 0.  1.
       -3    1    3    3    0  502  0.62228058509E+03 -0.10498161657E+03  0.98603013683E+03  0.11706877070E+04  0.10100000352E+00 0. -1.
</event>
<event>
 5   0  0.2580244E-03  0.1099593E+04  0.7818609E-02  0.9205589E-01
       -2   -1    0    0    0  501  0.00000000000E+00  0.00000000000E+00  0.41397745869E+03  0.41397745870E+03  0.25500000920E-02 0. -1.
        2   -1    0    0  501    0  0.00000000000E+00  0.00000000000E+00 -0.73017552606E+03  0.73017552607E+03  0.25500000920E-02 0.  1.
    10030    2    1    2    0    0  0.00000000000E+00  0.00000000000E+00 -0.31619806737E+03  0.11441529848E+04  0.10995930314E+04 0.  0.
        1    1    3    3  502    0 -0.35564207996E+02  0.24684828738E+03  0.35173366397E+03  0.43117915101E+03  0.50400001928E-02 0. -1.
       -1    1    3    3    0  502  0.35564207996E+02 -0.24684828738E+03 -0.66793173134E+03  0.71297383376E+03  0.50400001928E-02 0.  1.
</event>
<event>
 5   0  0.1404833E-03  0.1185417E+04  0.7818609E-02  0.9125718E-01
        1   -1    0    0  501    0  0.00000000000E+00  0.00000000000E+00  0.36501784576E+03  0.36501784580E+03  0.50400001928E-02 0. -1.
       -1   -1    0    0    0  501  0.00000000000E+00  0.00000000000E+00 -0.96242749542E+03  0.96242749544E+03  0.50400001928E-02 0.  1.
    10030    2    1    2    0    0  0.00000000000E+00  0.00000000000E+00 -0.59740964966E+03  0.13274453412E+04  0.11854167387E+04 0.  0.
        1    1    3    3  502    0  0.17887636841E+02  0.90613461688E+02  0.35690966412E+03  0.36866688942E+03  0.50400001928E-02 0. -1.
       -1    1    3    3    0  502 -0.17887636841E+02 -0.90613461688E+02 -0.95431931378E+03  0.95877845181E+03  0.50400001928E-02 0.  1.
</event>
<event>
 5   0  0.2517023E-03  0.1170889E+04  0.7818609E-02  0.9138726E-01
       -2   -1    0    0    0  501  0.00000000000E+00  0.00000000000E+00  0.22528584792E+03  0.22528584793E+03  0.25500000920E-02 0.  1.
        2   -1    0    0  501    0  0.00000000000E+00  0.00000000000E+00 -0.15213787823E+04  0.15213787823E+04  0.25500000920E-02 0. -1.
    10030    2    1    2    0    0  0.00000000000E+00  0.00000000000E+00 -0.12960929343E+04  0.17466646302E+04  0.11708887376E+04 0.  0.
        3    1    3    3  502    0  0.85843845537E+02  0.35602750126E+03 -0.13293995628E+04  0.13789227517E+04  0.10100000352E+00 0. -1.
       -3    1    3    3    0  502 -0.85843845537E+02 -0.35602750126E+03  0.33306628461E+02  0.36774187846E+03  0.10100000352E+00 0.  1.
</event>
<event>
 5   0  0.1455076E-03  0.1201040E+04  0.7818609E-02  0.9111947E-01
        1   -1    0    0  501    0  0.00000000000E+00  0.00000000000E+00  0.68125952931E+03  0.68125952933E+03  0.50400001928E-02 0. -1.
       -1   -1    0    0    0  501  0.00000000000E+00  0.00000000000E+00 -0.52934949976E+03  0.52934949978E+03  0.50400001928E-02 0.  1.
    10030    2    1    2    0    0  0.00000000000E+00  0.00000000000E+00  0.15191002955E+03  0.12106090291E+04  0.12010402009E+04 0.  0.
        4    1    3    3  502    0  0.45101270348E+03  0.34287400461E+03  0.27665880002E+03  0.63048929116E+03  0.12699999809E+01 0. -1.
       -4    1    3    3    0  502 -0.45101270348E+03 -0.34287400461E+03 -0.12474877047E+03  0.58011973796E+03  0.12699999809E+01 0.  1.
</event>
<event>
 5   0  0.2499890E-03  0.1200218E+04  0.7818609E-02  0.9112665E-01
       -2   -1    0    0    0  501  0.00000000000E+00  0.00000000000E+00  0.13060318631E+04  0.13060318631E+04  0.25500000920E-02 0.  1.
        2   -1    0    0  501    0  0.00000000000E+00  0.00000000000E+00 -0.27574449261E+03  0.27574449262E+03  0.25500000920E-02 0. -1.
    10030    2    1    2    0    0  0.00000000000E+00  0.00000000000E+00  0.10302873705E+04  0.15817763557E+04  0.12002184691E+04 0.  0.
        5    1    3    3  502    0  0.10819151113E+03  0.49159543582E+03  0.94571326568E+03  0.10713389503E+04  0.46999998093E+01 0.  1.
       -5    1    3    3    0  502 -0.10819151113E+03 -0.49159543582E+03  0.84574104779E+02  0.51043740536E+03  0.46999998093E+01 0. -1.
</event>
<event>
 5   0  0.1455076E-03  0.1156857E+04  0.7818609E-02  0.9151481E-01
        1   -1    0    0  501    0  0.00000000000E+00  0.00000000000E+00  0.15905079353E+04  0.15905079353E+04  0.50400001928E-02 0.  1.
       -1   -1    0    0    0  501  0.00000000000E+00  0.00000000000E+00 -0.21036025368E+03  0.21036025374E+03  0.50400001928E-02 0. -1.
    10030    2    1    2    0    0  0.00000000000E+00  0.00000000000E+00  0.13801476816E+04  0.18008681890E+04  0.11568572130E+04 0.  0.
        4    1    3    3  502    0  0.65108155556E+02 -0.52375242947E+03  0.10585274969E+04  0.11828092635E+04  0.12699999809E+01 0. -1.
       -4    1    3    3    0  502 -0.65108155556E+02  0.52375242947E+03  0.32162018471E+03  0.61805892551E+03  0.12699999809E+01 0.  1.
</event>
<event>
 5   0  0.1403154E-03  0.1200123E+04  0.7818609E-02  0.9112748E-01
        1   -1    0    0  501    0  0.00000000000E+00  0.00000000000E+00  0.11503524716E+04  0.11503524716E+04  0.50400001928E-02 0.  1.
       -1   -1    0    0    0  501  0.00000000000E+00  0.00000000000E+00 -0.31301196268E+03  0.31301196272E+03  0.50400001928E-02 0. -1.
    10030    2    1    2    0    0  0.00000000000E+00  0.00000000000E+00  0.83734050895E+03  0.14633644344E+04  0.12001234686E+04 0.  0.
        3    1    3    3  502    0  0.16028654438E+03 -0.87136753251E+02  0.11157149137E+04  0.11305327810E+04  0.10100000352E+00 0.  1.
       -3    1    3    3    0  502 -0.16028654438E+03  0.87136753251E+02 -0.27837440473E+03  0.33283165337E+03  0.10100000352E+00 0. -1.
</event>
<event>
 5   0  0.2580244E-03  0.1243460E+04  0.7818609E-02  0.9075644E-01
        2   -1    0    0  501    0  0.00000000000E+00  0.00000000000E+00  0.66902208647E+03  0.66902208648E+03  0.25500000920E-02 0.  1.
       -2   -1    0    0    0  501  0.00000000000E+00  0.00000000000E+00 -0.57778103477E+03  0.57778103477E+03  0.25500000920E-02 0. -1.
    10030    2    1    2    0    0  0.00000000000E+00  0.00000000000E+00  0.91241051702E+02  0.12468031213E+04  0.12434601295E+04 0.  0.
        1    1    3    3  502    0 -0.34583056931E+03 -0.48920072759E+02 -0.47011266783E+03  0.58566020581E+03  0.50400001928E-02 0. -1.
       -1    1    3    3    0  502  0.34583056931E+03  0.48920072759E+02  0.56135371953E+03  0.66114291544E+03  0.50400001928E-02 0.  1.
</event>
<event>
 5   0  0.2579442E-03  0.1211826E+04  0.7818609E-02  0.9102568E-01
        2   -1    0    0  501    0  0.00000000000E+00  0.00000000000E+00  0.12720150351E+04  0.12720150351E+04  0.25500000920E-02 0.  1.
       -2   -1    0    0    0  501  0.00000000000E+00  0.00000000000E+00 -0.28862119941E+03  0.28862119942E+03  0.25500000920E-02 0. -1.
    10030    2    1    2    0    0  0.00000000000E+00  0.00000000000E+00  0.98339383572E+03  0.15606362346E+04  0.12118259035E+04 0.  0.
        4    1    3    3  502    0 -0.43101860963E+03  0.20642568402E+03  0.97138922014E+03  0.10825835925E+04  0.12699999809E+01 0.  1.
       -4    1    3    3    0  502  0.43101860963E+03 -0.20642568402E+03  0.12004615581E+02  0.47805264204E+03  0.12699999809E+01 0. -1.
</event>
<event>
 5   0  0.2517023E-03  0.1205425E+04  0.7818609E-02  0.9108121E-01
        2   -1    0    0  501    0  0.00000000000E+00  0.00000000000E+00  0.62237528652E+03  0.62237528652E+03  0.25500000920E-02 0. -1.
       -2   -1    0    0    0  501  0.00000000000E+00  0.00000000000E+00 -0.58367079684E+03  0.58367079685E+03  0.25500000920E-02 0.  1.
    10030    2    1    2    0    0  0.00000000000E+00  0.00000000000E+00  0.38704489675E+02  0.12060460834E+04  0.12054248702E+04 0.  0.
        3    1    3    3  502    0  0.34918136230E+03 -0.11258051118E+02 -0.47203006840E+03  0.58725357655E+03  0.10100000352E+00 0.  1.
       -3    1    3    3    0  502 -0.34918136230E+03  0.11258051118E+02  0.51073455807E+03  0.61879250683E+03  0.10100000352E+00 0. -1.
</event>
<event>
 5   0  0.1423024E-03  0.1180934E+04  0.7818609E-02  0.9129711E-01
       -1   -1    0    0    0  501  0.00000000000E+00  0.00000000000E+00  0.92939038123E+03  0.92939038125E+03  0.50400001928E-02 0. -1.
        1   -1    0    0  501    0  0.00000000000E+00  0.00000000000E+00 -0.37513977600E+03  0.37513977604E+03  0.50400001928E-02 0.  1.
    10030    2    1    2    0    0  0.00000000000E+00  0.00000000000E+00  0.55425060523E+03  0.13045301573E+04  0.11809340362E+04 0.  0.
        2    1    3    3  502    0  0.13859582603E+03  0.52131677283E+03  0.11842910509E+02  0.53955559043E+03  0.25500000920E-02 0.  1.
       -2    1    3    3    0  502 -0.13859582603E+03 -0.52131677283E+03  0.54240769472E+03  0.76497456685E+03  0.25500000920E-02 0. -1.
</event>
<event>
 5   0  0.1423024E-03  0.1212151E+04  0.7818609E-02  0.9102287E-01
       -1   -1    0    0    0  501  0.00000000000E+00  0.00000000000E+00  0.60563540730E+03  0.60563540732E+03  0.50400001928E-02 0. -1.
        1   -1    0    0  501    0  0.00000000000E+00  0.00000000000E+00 -0.60651607766E+03  0.60651607768E+03  0.50400001928E-02 0.  1.
    10030    2    1    2    0    0  0.00000000000E+00  0.00000000000E+00 -0.88067035794E+00  0.12121514850E+04  0.12121511651E+04 0.  0.
        2    1    3    3  502    0  0.16328015698E+03 -0.22044720731E+02  0.58281039301E+03  0.60565199049E+03  0.25500000920E-02 0. -1.
       -2    1    3    3    0  502 -0.16328015698E+03  0.22044720731E+02 -0.58369106337E+03  0.60649949451E+03  0.25500000920E-02 0.  1.
</event>
<event>
 5   0  0.2499890E-03  0.1192824E+04  0.7818609E-02  0.9119161E-01
        2   -1    0    0  501    0  0.00000000000E+00  0.00000000000E+00  0.72421284059E+03  0.72421284059E+03  0.25500000920E-02 0. -1.
       -2   -1    0    0    0  501  0.00000000000E+00  0.00000000000E+00 -0.49116423321E+03  0.49116423322E+03  0.25500000920E-02 0.  1.
    10030    2    1    2    0    0  0.00000000000E+00  0.00000000000E+00  0.23304860738E+03  0.12153770738E+04  0.11928242864E+04 0.  0.
        5    1    3    3  502    0  0.43959077071E+03 -0.35946202417E+03 -0.69219858044E+02  0.57207208572E+03  0.46999998093E+01 0.  1.
       -5    1    3    3    0  502 -0.43959077071E+03  0.35946202417E+03  0.30226846542E+03  0.64330498809E+03  0.46999998093E+01 0. -1.
</event>
<event>
 5   0  0.1404833E-03  0.1191596E+04  0.7818609E-02  0.9120244E-01
        1   -1    0    0  501    0  0.00000000000E+00  0.00000000000E+00  0.96193351944E+03  0.96193351945E+03  0.50400001928E-02 0.  1.
       -1   -1    0    0    0  501  0.00000000000E+00  0.00000000000E+00 -0.36902284629E+03  0.36902284632E+03  0.50400001928E-02 0. -1.
    10030    2    1    2    0    0  0.00000000000E+00  0.00000000000E+00  0.59291067315E+03  0.13309563658E+04  0.11915963164E+04 0.  0.
        1    1    3    3  502    0 -0.51391641541E+03  0.25554739375E+03  0.47503116573E+03  0.74502963761E+03  0.50400001928E-02 0.  1.
       -1    1    3    3    0  502  0.51391641541E+03 -0.25554739375E+03  0.11787950741E+03  0.58592672816E+03  0.50400001928E-02 0. -1.
</event>
<event>
 5   0  0.2517023E-03  0.1187692E+04  0.7818609E-02  0.9123699E-01
       -2   -1    0    0    0  501  0.00000000000E+00  0.00000000000E+00  0.60457949473E+03  0.60457949473E+03  0.25500000920E-02 0.  1.
        2   -1    0    0  501    0  0.00000000000E+00  0.00000000000E+00 -0.58330258062E+03  0.58330258062E+03  0.25500000920E-02 0. -1.
    10030    2    1    2    0    0  0.00000000000E+00  0.00000000000E+00  0.21276914110E+02  0.11878820754E+04  0.11876915079E+04 0.  0.
        3    1    3    3  502    0 -0.38605287767E+03  0.25070996109E+03 -0.36460231171E+03  0.58721986074E+03  0.10100000352E+00 0. -1.
       -3    1    3    3    0  502  0.38605287767E+03 -0.25070996109E+03  0.38587922582E+03  0.60066221461E+03  0.10100000352E+00 0.  1.
</event>
<event>
 5   0  0.1423024E-03  0.1214505E+04  0.7818609E-02  0.9100254E-01
        1   -1    0    0  501    0  0.00000000000E+00  0.00000000000E+00  0.33414203818E+03  0.33414203822E+03  0.50400001928E-02 0.  1.
       -1   -1    0    0    0  501  0.00000000000E+00  0.00000000000E+00 -0.11035898436E+04  0.11035898436E+04  0.50400001928E-02 0. -1.
    10030    2    1    2    0    0  0.00000000000E+00  0.00000000000E+00 -0.76944780540E+03  0.14377318818E+04  0.12145052650E+04 0.  0.
        2    1    3    3  502    0 -0.64296528767E+02 -0.33960393497E+02  0.32896975228E+03  0.33691015102E+03  0.25500000920E-02 0.  1.
       -2    1    3    3    0  502  0.64296528767E+02  0.33960393497E+02 -0.10984175577E+04  0.11008217308E+04  0.25500000920E-02 0. -1.
</event>
<event>
 5   0  0.1455076E-03  0.1192530E+04  0.7818609E-02  0.9119421E-01
       -1   -1    0    0    0  501  0.00000000000E+00  0.00000000000E+00  0.29068055599E+03  0.29068055604E+03  0.50400001928E-02 0. -1.
        1   -1    0    0  501    0  0.00000000000E+00  0.00000000000E+00 -0.12231012234E+04  0.12231012235E+04  0.50400001928E-02 0.  1.
    10030    2    1    2    0    0  0.00000000000E+00  0.00000000000E+00 -0.93242066745E+03  0.15137817795E+04  0.11925296536E+04 0.  0.
        4    1    3    3  502    0  0.14431183564E+03 -0.20669269487E+03  0.21970796640E+03  0.33439644049E+03  0.12699999809E+01 0. -1.
       -4    1    3    3    0  502 -0.14431183564E+03  0.20669269487E+03 -0.11521286338E+04  0.11793853390E+04  0.12699999809E+01 0.  1.
</event>
<event>
 5   0  0.1469851E-03  0.1345111E+04  0.7818609E-02  0.8994537E-01
       -1   -1    0    0    0  501  0.00000000000E+00  0.00000000000E+00  0.43438375076E+03  0.43438375079E+03  0.50400001928E-02 0.  1.
        1   -1    0    0  501    0  0.00000000000E+00  0.00000000000E+00 -0.10413165188E+04  0.10413165188E+04  0.50400001928E-02 0. -1.
    10030    2    1    2    0    0  0.00000000000E+00  0.00000000000E+00 -0.60693276802E+03  0.14757002696E+04  0.13451111109E+04 0.  0.
        5    1    3    3  502    0 -0.37461453865E+03  0.54358136474E+03 -0.16257695643E+03  0.67990448551E+03  0.46999998093E+01 0.  1.
       -5    1    3    3    0  502  0.37461453865E+03 -0.54358136474E+03 -0.44435581159E+03  0.79579578408E+03  0.46999998093E+01 0. -1.
</event>
<event>
 5   0  0.2579442E-03  0.1205782E+04  0.7818609E-02  0.9107811E-01
        2   -1    0    0  501    0  0.00000000000E+00  0.00000000000E+00  0.80781526505E+03  0.80781526506E+03  0.25500000920E-02 0. -1.
       -2   -1    0    0    0  501  0.00000000000E+00  0.00000000000E+00 -0.44995133854E+03  0.44995133855E+03  0.25500000920E-02 0.  1.
    10030    2    1    2    0    0  0.00000000000E+00  0.00000000000E+00  0.35786392651E+03  0.12577666036E+04  0.12057820032E+04 0.  0.
        4    1    3    3  502    0  0.36325519204E+03  0.80004828295E+02 -0.31599271755E+03  0.48806568978E+03  0.12699999809E+01 0.  1.
       -4    1    3    3    0  502 -0.36325519204E+03 -0.80004828295E+02  0.67385664406E+03  0.76970091382E+03  0.12699999809E+01 0. -1.
</event>
<event>
 5   0  0.1469851E-03  0.1082905E+04  0.7818609E-02  0.9222016E-01
       -1   -1    0    0    0  501  0.00000000000E+00  0.00000000000E+00  0.67075991234E+03  0.67075991236E+03  0.50400001928E-02 0. -1.
        1   -1    0    0  501    0  0.00000000000E+00  0.00000000000E+00 -0.43707268640E+03  0.43707268643E+03  0.50400001928E-02 0.  1.
    10030    2    1    2    0    0  0.00000000000E+00  0.00000000000E+00  0.23368722594E+03  0.11078325988E+04  0.10829050500E+04 0.  0.
        5    1    3    3  502    0 -0.61529594448E+02 -0.45591873786E+03  0.40889893486E+03  0.61552271725E+03  0.46999998093E+01 0. -1.
       -5    1    3    3    0  502  0.61529594448E+02  0.45591873786E+03 -0.17521170892E+03  0.49230988154E+03  0.46999998093E+01 0.  1.
</event>
<event>
 5   0  0.2484507E-03  0.1181240E+04  0.7818609E-02  0.9129438E-01
        2   -1    0    0  501    0  0.00000000000E+00  0.00000000000E+00  0.46328451634E+03  0.46328451634E+03  0.25500000920E-02 0. -1.
       -2   -1    0    0    0  501  0.00000000000E+00  0.00000000000E+00 -0.75295355558E+03  0.75295355558E+03  0.25500000920E-02 0.  1.
    10030    2    1    2    0    0  0.00000000000E+00  0.00000000000E+00 -0.28966903924E+03  0.12162380719E+04  0.11812395588E+04 0.  0.
        2    1    3    3  502    0  0.44391841024E+03 -0.17735926000E+03  0.21230247115E+03  0.52306041842E+03  0.25500000920E-02 0. -1.
       -2    1    3    3    0  502 -0.44391841024E+03  0.17735926000E+03 -0.50197151040E+03  0.69317765350E+03  0.25500000920E-02 0.  1.
</event>
<event>
 5   0  0.1423024E-03  0.1200689E+04  0.7818609E-02  0.9112253E-01
        1   -1    0    0  501    0  0.00000000000E+00  0.00000000000E+00  0.47035802364E+03  0.47035802366E+03  0.50400001928E-02 0.  1.
       -1   -1    0    0    0  501  0.00000000000E+00  0.00000000000E+00 -0.76625396264E+03  0.76625396266E+03  0.50400001928E-02 0. -1.
    10030    2    1    2    0    0  0.00000000000E+00  0.00000000000E+00 -0.29589593901E+03  0.12366119863E+04  0.12006893012E+04 0.  0.
        2    1    3    3  502    0  0.41165546735E+03  0.11427195963E+02 -0.59785010121E+03  0.72595836528E+03  0.25500000920E-02 0. -1.
       -2    1    3    3    0  502 -0.41165546735E+03 -0.11427195963E+02  0.30195416220E+03  0.51065362104E+03  0.25500000920E-02 0.  1.
</event>
<event>
 5   0  0.1404833E-03  0.1205524E+04  0.7818609E-02  0.9108035E-01
       -1   -1    0    0    0  501  0.00000000000E+00  0.00000000000E+00  0.88245176108E+03  0.88245176110E+03  0.50400001928E-02 0. -1.
        1   -1    0    0  501    0  0.00000000000E+00  0.00000000000E+00 -0.41171887149E+03  0.41171887152E+03  0.50400001928E-02 0.  1.
    10030    2    1    2    0    0  0.00000000000E+00  0.00000000000E+00  0.47073288960E+03  0.12941706326E+04  0.12055240242E+04 0.  0.
        1    1    3    3  502    0  0.59324955369E+03 -0.10662990077E+03  0.23822182788E+03  0.64812391407E+03  0.50400001928E-02 0. -1.
       -1    1    3    3    0  502 -0.59324955369E+03  0.10662990077E+03  0.23251106172E+03  0.64604671854E+03  0.50400001928E-02 0.  1.
</event>
<event>
 5   0  0.2484507E-03  0.1215253E+04  0.7818609E-02  0.9099610E-01
       -2   -1    0    0    0  501  0.00000000000E+00  0.00000000000E+00  0.49034954200E+03  0.49034954200E+03  0.25500000920E-02 0. -1.
        2   -1    0    0  501    0  0.00000000000E+00  0.00000000000E+00 -0.75295241207E+03  0.75295241207E+03  0.25500000920E-02 0.  1.
    10030    2    1    2    0    0  0.00000000000E+00  0.00000000000E+00 -0.26260287007E+03  0.12433019541E+04  0.12152528468E+04 0.  0.
        2    1    3    3  502    0  0.16494381924E+03  0.41734625067E+03  0.28781912141E+03  0.53312681710E+03  0.25500000920E-02 0. -1.
       -2    1    3    3    0  502 -0.16494381924E+03 -0.41734625067E+03 -0.55042199149E+03  0.71017513697E+03  0.25500000920E-02 0.  1.
</event>
<event>
 5   0  0.2580244E-03  0.1241587E+04  0.7818609E-02  0.9077215E-01
        2   -1    0    0  501    0  0.00000000000E+00  0.00000000000E+00  0.38544370836E+03  0.38544370837E+03  0.25500000920E-02 0.  1.
       -2   -1    0    0    0  501  0.00000000000E+00  0.00000000000E+00 -0.99984661630E+03  0.99984661631E+03  0.25500000920E-02 0. -1.
    10030    2    1    2    0    0  0.00000000000E+00  0.00000000000E+00 -0.61440290794E+03  0.13852903247E+04  0.12415870289E+04 0.  0.
        1    1    3    3  502    0  0.48213219246E+03  0.10286881694E+03 -0.72816463604E+03  0.87935043169E+03  0.50400001928E-02 0. -1.
       -1    1    3    3    0  502 -0.48213219246E+03 -0.10286881694E+03  0.11376172810E+03  0.50593989298E+03  0.50400001928E-02 0.  1.
</event>
<event>
 5   0  0.1423024E-03  0.1201581E+04  0.7818609E-02  0.9111474E-01
        1   -1    0    0  501    0  0.00000000000E+00  0.00000000000E+00  0.48283276269E+03  0.48283276272E+03  0.50400001928E-02 0.  1.
       -1   -1    0    0    0  501  0.00000000000E+00  0.00000000000E+00 -0.74756545815E+03  0.74756545817E+03  0.50400001928E-02 0. -1.
    10030    2    1    2    0    0  0.00000000000E+00  0.00000000000E+00 -0.26473269546E+03  0.12303982209E+04  0.12015807846E+04 0.  0.
        2    1    3    3  502    0 -0.50718295726E+03 -0.76932360063E+02 -0.45258982312E+03  0.68409844917E+03  0.25500000920E-02 0. -1.
       -2    1    3    3    0  502  0.50718295726E+03  0.76932360063E+02  0.18785712766E+03  0.54629977172E+03  0.25500000920E-02 0.  1.
</event>
<event>
 5   0  0.1404833E-03  0.1237931E+04  0.7818609E-02  0.9080289E-01
        1   -1    0    0  501    0  0.00000000000E+00  0.00000000000E+00  0.64742741961E+03  0.64742741963E+03  0.50400001928E-02 0. -1.
       -1   -1    0    0    0  501  0.00000000000E+00  0.00000000000E+00 -0.59175446042E+03  0.59175446044E+03  0.50400001928E-02 0.  1.
    10030    2    1    2    0    0  0.00000000000E+00  0.00000000000E+00  0.55672959188E+02  0.12391818801E+04  0.12379306336E+04 0.  0.
        1    1    3    3  502    0 -0.11530849640E+03  0.49855865699E+03  0.37641435426E+03  0.63525156428E+03  0.50400001928E-02 0. -1.
       -1    1    3    3    0  502  0.11530849640E+03 -0.49855865699E+03 -0.32074139507E+03  0.60393031580E+03  0.50400001928E-02 0.  1.
</event>
<event>
 5   0  0.1455076E-03  0.1207953E+04  0.7818609E-02  0.9105924E-01
        1   -1    0    0  501    0  0.00000000000E+00  0.00000000000E+00  0.63052004964E+03  0.63052004966E+03  0.50400001928E-02 0. -1.
       -1   -1    0    0    0  501  0.00000000000E+00  0.00000000000E+00 -0.57855024102E+03  0.57855024105E+03  0.50400001928E-02 0.  1.
    10030    2    1    2    0    0  0.00000000000E+00  0.00000000000E+00  0.51969808617E+02  0.12090702907E+04  0.12079528579E+04 0.  0.
        4    1    3    3  502    0  0.42749168739E+03 -0.17415441572E+03 -0.36387124545E+03  0.58777784874E+03  0.12699999809E+01 0.  1.
       -4    1    3    3    0  502 -0.42749168739E+03  0.17415441572E+03  0.41584105407E+03  0.62129244197E+03  0.12699999809E+01 0. -1.
</event>
<event>
 5   0  0.2579442E-03  0.1193478E+04  0.7818609E-02  0.9118584E-01
       -2   -1    0    0    0  501  0.00000000000E+00  0.00000000000E+00  0.22606639614E+03  0.22606639616E+03  0.25500000920E-02 0. -1.
        2   -1    0    0  501    0  0.00000000000E+00  0.00000000000E+00 -0.15751898825E+04  0.15751898825E+04  0.25500000920E-02 0.  1.
    10030    2    1    2    0    0  0.00000000000E+00  0.00000000000E+00 -0.13491234864E+04  0.18012562787E+04  0.11934781104E+04 0.  0.
        4    1    3    3  502    0  0.26646090474E+03  0.27386452540E+02 -0.14793533377E+04  0.15034092398E+04  0.12699999809E+01 0.  1.
       -4    1    3    3    0  502 -0.26646090474E+03 -0.27386452540E+02  0.13022985130E+03  0.29784703894E+03  0.12699999809E+01 0. -1.
</event>
<event>
 5   0  0.1403154E-03  0.1207056E+04  0.7818609E-02  0.9106702E-01
       -1   -1    0    0    0  501  0.00000000000E+00  0.00000000000E+00  0.56184930044E+03  0.56184930047E+03  0.50400001928E-02 0.  1.
        1   -1    0    0  501    0  0.00000000000E+00  0.00000000000E+00 -0.64829884239E+03  0.64829884241E+03  0.50400001928E-02 0. -1.
    10030    2    1    2    0    0  0.00000000000E+00  0.00000000000E+00 -0.86449541946E+02  0.12101481429E+04  0.12070563385E+04 0.  0.
        3    1    3    3  502    0 -0.14406267584E+03 -0.56166046009E+03 -0.21107437853E+03  0.61706477008E+03  0.10100000352E+00 0. -1.
       -3    1    3    3    0  502  0.14406267584E+03  0.56166046009E+03  0.12462483658E+03  0.59308337280E+03  0.10100000352E+00 0.  1.
</event>
<event>
 5   0  0.1404833E-03  0.1179644E+04  0.7818609E-02  0.9130863E-01
        1   -1    0    0  501    0  0.00000000000E+00  0.00000000000E+00  0.23815490533E+04  0.23815490533E+04  0.50400001928E-02 0.  1.
       -1   -1    0    0    0  501  0.00000000000E+00  0.00000000000E+00 -0.14607717052E+03  0.14607717061E+03  0.50400001928E-02 0. -1.
    10030    2    1    2    0    0  0.00000000000E+00  0.00000000000E+00  0.22354718827E+04  0.25276262239E+04  0.11796439247E+04 0.  0.
        1    1    3    3  502    0  0.33868114434E+03 -0.16778271841E+03  0.14750560921E+03  0.40572633991E+03  0.50400001928E-02 0. -1.
       -1    1    3    3    0  502 -0.33868114434E+03  0.16778271841E+03  0.20879662735E+04  0.21218998840E+04  0.50400001928E-02 0.  1.
</event>
<event>
 5   0  0.1404833E-03  0.1199760E+04  0.7818609E-02  0.9113066E-01
       -1   -1    0    0    0  501  0.00000000000E+00  0.00000000000E+00  0.49166185107E+03  0.49166185110E+03  0.50400001928E-02 0. -1.
        1   -1    0    0  501    0  0.00000000000E+00  0.00000000000E+00 -0.73191795424E+03  0.73191795426E+03  0.50400001928E-02 0.  1.
    10030    2    1    2    0    0  0.00000000000E+00  0.00000000000E+00 -0.24025610317E+03  0.12235798054E+04  0.11997602031E+04 0.  0.
        1    1    3    3  502    0  0.20129943596E+03 -0.69460144802E+02 -0.69207408358E+03  0.72409440809E+03  0.50400001928E-02 0.  1.
       -1    1    3    3    0  502 -0.20129943596E+03  0.69460144802E+02  0.45181798042E+03  0.49948539727E+03  0.50400001928E-02 0. -1.
</event>
<event>
 5   0  0.2579442E-03  0.1200982E+04  0.7818609E-02  0.9111998E-01
       -2   -1    0    0    0  501  0.00000000000E+00  0.00000000000E+00  0.61705660676E+03  0.61705660677E+03  0.25500000920E-02 0.  1.
        2   -1    0    0  501    0  0.00000000000E+00  0.00000000000E+00 -0.58436978443E+03  0.58436978443E+03  0.25500000920E-02 0. -1.
    10030    2    1    2    0    0  0.00000000000E+00  0.00000000000E+00  0.32686822334E+02  0.12014263912E+04  0.12009816589E+04 0.  0.
        4    1    3    3  502    0  0.40732431100E+03 -0.43950512682E+03 -0.22526769064E+02  0.59965566708E+03  0.12699999809E+01 0. -1.
       -4    1    3    3    0  502 -0.40732431100E+03  0.43950512682E+03  0.55213591398E+02  0.60177072412E+03  0.12699999809E+01 0.  1.
</event>
<event>
 5   0  0.2517023E-03  0.1208382E+04  0.7818609E-02  0.9105551E-01
       -2   -1    0    0    0  501  0.00000000000E+00  0.00000000000E+00  0.47743573641E+03  0.47743573642E+03  0.25500000920E-02 0.  1.
        2   -1    0    0  501    0  0.00000000000E+00  0.00000000000E+00 -0.76459849440E+03  0.76459849440E+03  0.25500000920E-02 0. -1.
    10030    2    1    2    0    0  0.00000000000E+00  0.00000000000E+00 -0.28716275799E+03  0.12420342308E+04  0.12083818026E+04 0.  0.
        3    1    3    3  502    0 -0.22581087579E+03  0.44191500563E+03  0.21064236432E+03  0.53911931859E+03  0.10100000352E+00 0. -1.
       -3    1    3    3    0  502  0.22581087579E+03 -0.44191500563E+03 -0.49780512231E+03  0.70291491223E+03  0.10100000352E+00 0.  1.
</event>
<event>
 5   0  0.2499890E-03  0.1203139E+04  0.7818609E-02  0.9110114E-01
        2   -1    0    0  501    0  0.00000000000E+00  0.00000000000E+00  0.46851302038E+03  0.46851302039E+03  0.25500000920E-02 0.  1.
       -2   -1    0    0    0  501  0.00000000000E+00  0.00000000000E+00 -0.77241324428E+03  0.77241324428E+03  0.25500000920E-02 0. -1.
    10030    2    1    2    0    0  0.00000000000E+00  0.00000000000E+00 -0.30390022390E+03  0.12409262647E+04  0.12031386654E+04 0.  0.
        5    1    3    3  502    0 -0.58204840758E+03  0.96585720714E+02 -0.27291280937E+03  0.65008664170E+03  0.46999998093E+01 0. -1.
       -5    1    3    3    0  502  0.58204840758E+03 -0.96585720714E+02 -0.30987414527E+02  0.59083962296E+03  0.46999998093E+01 0.  1.
</event>
<event>
 5   0  0.2517023E-03  0.1198586E+04  0.7818609E-02  0.9114095E-01
        2   -1    0    0  501    0  0.00000000000E+00  0.00000000000E+00  0.67230495338E+03  0.67230495338E+03  0.25500000920E-02 0. -1.
       -2   -1    0    0    0  501  0.00000000000E+00  0.00000000000E+00 -0.53421005045E+03  0.53421005045E+03  0.25500000920E-02 0.  1.
    10030    2    1    2    0    0  0.00000000000E+00  0.00000000000E+00  0.13809490293E+03  0.12065150038E+04  0.11985859386E+04 0.  0.
        3    1    3    3  502    0  0.27852763294E+03  0.41988945165E+03 -0.25754805557E+03  0.56587613932E+03  0.10100000352E+00 0. -1.
       -3    1    3    3    0  502 -0.27852763294E+03 -0.41988945165E+03  0.39564295850E+03  0.64063886452E+03  0.10100000352E+00 0.  1.
</event>
<event>
 5   0  0.1469851E-03  0.1181619E+04  0.7818609E-02  0.9129099E-01
        1   -1    0    0  501    0  0.00000000000E+00  0.00000000000E+00  0.51783980494E+03  0.51783980496E+03  0.50400001928E-02 0.  1.
       -1   -1    0    0    0  501  0.00000000000E+00  0.00000000000E+00 -0.67406190910E+03  0.67406190912E+03  0.50400001928E-02 0. -1.
    10030    2    1    2    0    0  0.00000000000E+00  0.00000000000E+00 -0.15622210416E+03  0.11919017141E+04  0.11816193762E+04 0.  0.
        5    1    3    3  502    0  0.47424543117E+02  0.30825374080E+02 -0.67130556892E+03  0.67370063666E+03  0.46999998093E+01 0. -1.
       -5    1    3    3    0  502 -0.47424543117E+02 -0.30825374080E+02  0.51508346476E+03  0.51820107742E+03  0.46999998093E+01 0.  1.
</event>
<event>
 5   0  0.2499890E-03  0.1198993E+04  0.7818609E-02  0.9113739E-01
        2   -1    0    0  501    0  0.00000000000E+00  0.00000000000E+00  0.81232241155E+03  0.81232241155E+03  0.25500000920E-02 0.  1.
       -2   -1    0    0    0  501  0.00000000000E+00  0.00000000000E+00 -0.44242996012E+03  0.44242996013E+03  0.25500000920E-02 0. -1.
    10030    2    1    2    0    0  0.00000000000E+00  0.00000000000E+00  0.36989245143E+03  0.12547523717E+04  0.11989925307E+04 0.  0.
        5    1    3    3  502    0 -0.23859250573E+03  0.13686999351E+03  0.74236534012E+03  0.79169954347E+03  0.46999998093E+01 0.  1.
       -5    1    3    3    0  502  0.23859250573E+03 -0.13686999351E+03 -0.37247288870E+03  0.46305282822E+03  0.46999998093E+01 0. -1.
</event>
<event>
 5   0  0.2484507E-03  0.1199901E+04  0.7818609E-02  0.9112944E-01
       -2   -1    0    0    0  501  0.00000000000E+00  0.00000000000E+00  0.66016415713E+03  0.66016415714E+03  0.25500000920E-02 0.  1.
        2   -1    0    0  501    0  0.00000000000E+00  0.00000000000E+00 -0.54522859299E+03  0.54522859299E+03  0.25500000920E-02 0. -1.
    10030    2    1    2    0    0  0.00000000000E+00  0.00000000000E+00  0.11493556415E+03  0.12053927501E+04  0.11999006201E+04 0.  0.
        2    1    3    3  502    0 -0.33112749666E+03 -0.18751464477E+03 -0.40847976469E+03  0.55826774867E+03  0.25500000920E-02 0. -1.
       -2    1    3    3    0  502  0.33112749666E+03  0.18751464477E+03  0.52341532883E+03  0.64712500146E+03  0.25500000920E-02 0.  1.
</event>
<event>
 5   0  0.2499890E-03  0.1192573E+04  0.7818609E-02  0.9119382E-01
       -2   -1    0    0    0  501  0.00000000000E+00  0.00000000000E+00  0.81241164149E+03  0.81241164149E+03  0.25500000920E-02 0.  1.
        2   -1    0    0  501    0  0.00000000000E+00  0.00000000000E+00 -0.43765710129E+03  0.43765710130E+03  0.25500000920E-02 0. -1.
    10030    2    1    2    0    0  0.00000000000E+00  0.00000000000E+00  0.37475454019E+03  0.12500687428E+04  0.11925732247E+04 0.  0.
        5    1    3    3  502    0 -0.18154732058E+03 -0.55238812341E+03  0.48935713805E+02  0.58353137240E+03  0.46999998093E+01 0. -1.
       -5    1    3    3    0  502  0.18154732058E+03  0.55238812341E+03  0.32581882639E+03  0.66653737039E+03  0.46999998093E+01 0.  1.
</event>
<event>
 5   0  0.1404833E-03  0.1221862E+04  0.7818609E-02  0.9093933E-01
       -1   -1    0    0    0  501  0.00000000000E+00  0.00000000000E+00  0.21051587158E+03  0.21051587164E+03  0.50400001928E-02 0. -1.
        1   -1    0    0  501    0  0.00000000000E+00  0.00000000000E+00 -0.17729612551E+04  0.17729612551E+04  0.50400001928E-02 0.  1.
    10030    2    1    2    0    0  0.00000000000E+00  0.00000000000E+00 -0.15624453836E+04  0.19834771268E+04  0.12218616681E+04 0.  0.
        1    1    3    3  502    0  0.22956061241E+03  0.55588307867E+03 -0.60689546111E+03  0.85441569079E+03  0.50400001928E-02 0.  1.
       -1    1    3    3    0  502 -0.22956061241E+03 -0.55588307867E+03 -0.95554992244E+03  0.11290614360E+04  0.50400001928E-02 0. -1.
</event>
<event>
 5   0  0.2484507E-03  0.1197824E+04  0.7818609E-02  0.9114763E-01
        2   -1    0    0  501    0  0.00000000000E+00  0.00000000000E+00  0.10073667993E+04  0.10073667993E+04  0.25500000920E-02 0. -1.
       -2   -1    0    0    0  501  0.00000000000E+00  0.00000000000E+00 -0.35607241034E+03  0.35607241035E+03  0.25500000920E-02 0.  1.
    10030    2    1    2    0    0  0.00000000000E+00  0.00000000000E+00  0.65129438897E+03  0.13634392097E+04  0.11978239008E+04 0.  0.
        2    1    3    3  502    0 -0.11832577664E+03  0.45661430684E+03 -0.94428956338E+02  0.48105555026E+03  0.25500000920E-02 0.  1.
       -2    1    3    3    0  502  0.11832577664E+03 -0.45661430684E+03  0.74572334531E+03  0.88238365940E+03  0.25500000920E-02 0. -1.
</event>
<event>
 5   0  0.1469851E-03  0.1193103E+04  0.7818609E-02  0.9118915E-01
        1   -1    0    0  501    0  0.00000000000E+00  0.00000000000E+00  0.75335643977E+03  0.75335643979E+03  0.50400001928E-02 0. -1.
       -1   -1    0    0    0  501  0.00000000000E+00  0.00000000000E+00 -0.47238413796E+03  0.47238413798E+03  0.50400001928E-02 0.  1.
    10030    2    1    2    0    0  0.00000000000E+00  0.00000000000E+00  0.28097230182E+03  0.12257405778E+04  0.11931028998E+04 0.  0.
        5    1    3    3  502    0 -0.47824102596E+03  0.31308271151E+03  0.31578884896E+03  0.65305432414E+03  0.46999998093E+01 0. -1.
       -5    1    3    3    0  502  0.47824102596E+03 -0.31308271151E+03 -0.34816547140E+02  0.57268625364E+03  0.46999998093E+01 0.  1.
</event>
<event>
 5   0  0.1403154E-03  0.1188328E+04  0.7818609E-02  0.9123135E-01
        1   -1    0    0  501    0  0.00000000000E+00  0.00000000000E+00  0.78002740876E+03  0.78002740878E+03  0.50400001928E-02 0. -1.
       -1   -1    0    0    0  501  0.00000000000E+00  0.00000000000E+00 -0.45258740350E+03  0.45258740353E+03  0.50400001928E-02 0.  1.
    10030    2    1    2    0    0  0.00000000000E+00  0.00000000000E+00  0.32744000526E+03  0.12326148123E+04  0.11883275300E+04 0.  0.
        3    1    3    3  502    0 -0.26707542886E+03  0.78716850614E+02 -0.38072738803E+03  0.47167677647E+03  0.10100000352E+00 0.  1.
       -3    1    3    3    0  502  0.26707542886E+03 -0.78716850614E+02  0.70816739328E+03  0.76093803583E+03  0.10100000352E+00 0. -1.
</event>
<event>
 5   0  0.2579442E-03  0.1187329E+04  0.7818609E-02  0.9124021E-01
       -2   -1    0    0    0  501  0.00000000000E+00  0.00000000000E+00  0.39381809244E+03  0.39381809244E+03  0.25500000920E-02 0. -1.
        2   -1    0    0  501    0  0.00000000000E+00  0.00000000000E+00 -0.89492418592E+03  0.89492418593E+03  0.25500000920E-02 0.  1.
    10030    2    1    2    0    0  0.00000000000E+00  0.00000000000E+00 -0.50110609349E+03  0.12887422784E+04  0.11873286584E+04 0.  0.
        4    1    3    3  502    0 -0.48955846169E+03  0.21950329708E+03  0.25292596359E+02  0.53711312884E+03  0.12699999809E+01 0. -1.
       -4    1    3    3    0  502  0.48955846169E+03 -0.21950329708E+03 -0.52639868985E+03  0.75162914953E+03  0.12699999809E+01 0.  1.
</event>
<event>
 5   0  0.1403154E-03  0.1203277E+04  0.7818609E-02  0.9109993E-01
        1   -1    0    0  501    0  0.00000000000E+00  0.00000000000E+00  0.19156543483E+04  0.19156543483E+04  0.50400001928E-02 0.  1.
       -1   -1    0    0    0  501  0.00000000000E+00  0.00000000000E+00 -0.18895326469E+03  0.18895326476E+03  0.50400001928E-02 0. -1.
    10030    2    1    2    0    0  0.00000000000E+00  0.00000000000E+00  0.17267010836E+04  0.21046076131E+04  0.12032774297E+04 0.  0.
        3    1    3    3  502    0  0.53630960290E+03  0.22137003449E+03  0.58494475747E+03  0.82388898635E+03  0.10100000352E+00 0. -1.
       -3    1    3    3    0  502 -0.53630960290E+03 -0.22137003449E+03  0.11417563261E+04  0.12807186267E+04  0.10100000352E+00 0.  1.
</event>
<event>
 5   0  0.1455076E-03  0.1190860E+04  0.7818609E-02  0.9120895E-01
       -1   -1    0    0    0  501  0.00000000000E+00  0.00000000000E+00  0.49118129443E+03  0.49118129446E+03  0.50400001928E-02 0.  1.
        1   -1    0    0  501    0  0.00000000000E+00  0.00000000000E+00 -0.72180395037E+03  0.72180395039E+03  0.50400001928E-02 0. -1.
    10030    2    1    2    0    0  0.00000000000E+00  0.00000000000E+00 -0.23062265594E+03  0.12129852448E+04  0.11908595193E+04 0.  0.
        4    1    3    3  502    0  0.29557424910E+02 -0.22641243783E+03  0.44481370558E+03  0.49999707893E+03  0.12699999809E+01 0.  1.
       -4    1    3    3    0  502 -0.29557424910E+02  0.22641243783E+03 -0.67543636152E+03  0.71298816592E+03  0.12699999809E+01 0. -1.
</event>
<event>
 5   0  0.1403154E-03  0.1186821E+04  0.7818609E-02  0.9124471E-01
        1   -1    0    0  501    0  0.00000000000E+00  0.00000000000E+00  0.41811761563E+03  0.41811761566E+03  0.50400001928E-02 0.  1.
       -1   -1    0    0    0  501  0.00000000000E+00  0.00000000000E+00 -0.84219322705E+03  0.84219322707E+03  0.50400001928E-02 0. -1.
    10030    2    1    2    0    0  0.00000000000E+00  0.00000000000E+00 -0.42407561142E+03  0.12603108427E+04  0.11868206672E+04 0.  0.
        3    1    3    3  502    0 -0.13038608736E+03  0.40264945237E+03  0.22966132467E+03  0.48153031839E+03  0.10100000352E+00 0.  1.
       -3    1    3    3    0  502  0.13038608736E+03 -0.40264945237E+03 -0.65373693610E+03  0.77878052434E+03  0.10100000352E+00 0. -1.
</event>
<event>
 5   0  0.2499890E-03  0.1193274E+04  0.7818609E-02  0.9118764E-01
       -2   -1    0    0    0  501  0.00000000000E+00  0.00000000000E+00  0.51095169469E+03  0.51095169470E+03  0.25500000920E-02 0. -1.
        2   -1    0    0  501    0  0.00000000000E+00  0.00000000000E+00 -0.69669126394E+03  0.69669126395E+03  0.25500000920E-02 0.  1.
    10030    2    1    2    0    0  0.00000000000E+00  0.00000000000E+00 -0.18573956925E+03  0.12076429586E+04  0.11932737858E+04 0.  0.
        5    1    3    3  502    0 -0.28322095510E+03 -0.27389475909E+03  0.36054419543E+03  0.53408487651E+03  0.46999998093E+01 0. -1.
       -5    1    3    3    0  502  0.28322095510E+03  0.27389475909E+03 -0.54628376467E+03  0.67355808213E+03  0.46999998093E+01 0.  1.
</event>
<event>
 5   0  0.1455076E-03  0.1205478E+04  0.7818609E-02  0.9108075E-01
        1   -1    0    0  501    0  0.00000000000E+00  0.00000000000E+00  0.28549201630E+03  0.28549201634E+03  0.50400001928E-02 0. -1.
       -1   -1    0    0    0  501  0.00000000000E+00  0.00000000000E+00 -0.12725196622E+04  0.12725196622E+04  0.50400001928E-02 0.  1.
    10030    2    1    2    0    0  0.00000000000E+00  0.00000000000E+00 -0.98702764586E+03  0.15580116785E+04  0.12054778375E+04 0.  0.
        4    1    3    3  502    0 -0.40416814440E+03  0.19649845737E+02  0.83840383978E+02  0.41324185203E+03  0.12699999809E+01 0. -1.
       -4    1    3    3    0  502  0.40416814440E+03 -0.19649845737E+02 -0.10708680298E+04  0.11447698265E+04  0.12699999809E+01 0.  1.
</event>
<event>
 5   0  0.1469851E-03  0.1210398E+04  0.7818609E-02  0.9103803E-01
        1   -1    0    0  501    0  0.00000000000E+00  0.00000000000E+00  0.14019618460E+04  0.14019618460E+04  0.50400001928E-02 0. -1.
       -1   -1    0    0    0  501  0.00000000000E+00  0.00000000000E+00 -0.26125242745E+03  0.26125242750E+03  0.50400001928E-02 0.  1.
    10030    2    1    2    0    0  0.00000000000E+00  0.00000000000E+00  0.11407094186E+04  0.16632142735E+04  0.12103981750E+04 0.  0.
        5    1    3    3  502    0  0.50561041586E+03  0.66954475393E+02  0.12272735086E+03  0.52460355226E+03  0.46999998093E+01 0.  1.
       -5    1    3    3    0  502 -0.50561041586E+03 -0.66954475393E+02  0.10179820677E+04  0.11386107213E+04  0.46999998093E+01 0. -1.
</event>
<event>
 5   0  0.2499890E-03  0.1195666E+04  0.7818609E-02  0.9116659E-01
       -2   -1    0    0    0  501  0.00000000000E+00  0.00000000000E+00  0.27847359396E+03  0.27847359397E+03  0.25500000920E-02 0. -1.
        2   -1    0    0  501    0  0.00000000000E+00  0.00000000000E+00 -0.12834398629E+04  0.12834398629E+04  0.25500000920E-02 0.  1.
    10030    2    1    2    0    0  0.00000000000E+00  0.00000000000E+00 -0.10049662689E+04  0.15619134568E+04  0.11956656912E+04 0.  0.
        5    1    3    3  502    0  0.32363474027E+02  0.24854308202E+03 -0.12114644576E+04  0.12371294517E+04  0.46999998093E+01 0.  1.
       -5    1    3    3    0  502 -0.32363474027E+02 -0.24854308202E+03  0.20649818873E+03  0.32478400518E+03  0.46999998093E+01 0. -1.
</event>
<event>
 5   0  0.1469851E-03  0.1195586E+04  0.7818609E-02  0.9116729E-01
        1   -1    0    0  501    0  0.00000000000E+00  0.00000000000E+00  0.46774001667E+03  0.46774001670E+03  0.50400001928E-02 0. -1.
       -1   -1    0    0    0  501  0.00000000000E+00  0.00000000000E+00 -0.76400659192E+03  0.76400659193E+03  0.50400001928E-02 0.  1.
    10030    2    1    2    0    0  0.00000000000E+00  0.00000000000E+00 -0.29626657525E+03  0.12317466086E+04  0.11955859753E+04 0.  0.
        5    1    3    3  502    0  0.50829826233E+03  0.31189073517E+03 -0.19050395002E+03  0.62606453273E+03  0.46999998093E+01 0.  1.
       -5    1    3    3    0  502 -0.50829826233E+03 -0.31189073517E+03 -0.10576262523E+03  0.60568207590E+03  0.46999998093E+01 0. -1.
</event>
<event>
 5   0  0.2579442E-03  0.1217569E+04  0.7818609E-02  0.9097616E-01
       -2   -1    0    0    0  501  0.00000000000E+00  0.00000000000E+00  0.17122589075E+03  0.17122589077E+03  0.25500000920E-02 0. -1.
        2   -1    0    0  501    0  0.00000000000E+00  0.00000000000E+00 -0.21645018379E+04  0.21645018379E+04  0.25500000920E-02 0.  1.
    10030    2    1    2    0    0  0.00000000000E+00  0.00000000000E+00 -0.19932759472E+04  0.23357277287E+04  0.12175693085E+04 0.  0.
        4    1    3    3  502    0  0.50987813244E+02 -0.38343984776E+03 -0.18984501223E+04  0.19374571876E+04  0.12699999809E+01 0.  1.
       -4    1    3    3    0  502 -0.50987813244E+02  0.38343984776E+03 -0.94825824865E+02  0.39827054110E+03  0.12699999809E+01 0. -1.
</event>
<event>
 5   0  0.1423024E-03  0.1195154E+04  0.7818609E-02  0.9117108E-01
        1   -1    0    0  501    0  0.00000000000E+00  0.00000000000E+00  0.17718090580E+04  0.17718090580E+04  0.50400001928E-02 0.  1.
       -1   -1    0    0    0  501  0.00000000000E+00  0.00000000000E+00 -0.20154457512E+03  0.20154457518E+03  0.50400001928E-02 0. -1.
    10030    2    1    2    0    0  0.00000000000E+00  0.00000000000E+00  0.15702644829E+04  0.19733536332E+04  0.11951543898E+04 0.  0.
        2    1    3    3  502    0 -0.67531676224E+02 -0.32195252362E+03 -0.38588262883E+02  0.33121444533E+03  0.25500000920E-02 0. -1.
       -2    1    3    3    0  502  0.67531676224E+02  0.32195252362E+03  0.16088527457E+04  0.16421391878E+04  0.25500000920E-02 0.  1.
</event>
<event>
 5   0  0.1423024E-03  0.1196753E+04  0.7818609E-02  0.9115703E-01
        1   -1    0    0  501    0  0.00000000000E+00  0.00000000000E+00  0.47401275869E+03  0.47401275872E+03  0.50400001928E-02 0.  1.
       -1   -1    0    0    0  501  0.00000000000E+00  0.00000000000E+00 -0.75536898271E+03  0.75536898273E+03  0.50400001928E-02 0. -1.
    10030    2    1    2    0    0  0.00000000000E+00  0.00000000000E+00 -0.28135622402E+03  0.12293817414E+04  0.11967531665E+04 0.  0.
        2    1    3    3  502    0  0.32905935152E+03 -0.49304675507E+03 -0.22463379795E+03  0.63390496345E+03  0.25500000920E-02 0. -1.
       -2    1    3    3    0  502 -0.32905935152E+03  0.49304675507E+03 -0.56722426077E+02  0.59547677799E+03  0.25500000920E-02 0.  1.
</event>
<event>
 5   0  0.1404833E-03  0.1199273E+04  0.7818609E-02  0.9113493E-01
        1   -1    0    0  501    0  0.00000000000E+00  0.00000000000E+00  0.89460877977E+03  0.89460877979E+03  0.50400001928E-02 0.  1.
       -1   -1    0    0    0  501  0.00000000000E+00  0.00000000000E+00 -0.40192341337E+03  0.40192341341E+03  0.50400001928E-02 0. -1.
    10030    2    1    2    0    0  0.00000000000E+00  0.00000000000E+00  0.49268536640E+03  0.12965321932E+04  0.11992734708E+04 0.  0.
        1    1    3    3  502    0 -0.31129881351E+03  0.46749146366E+03  0.47339642172E+03  0.73454706590E+03  0.50400001928E-02 0.  1.
       -1    1    3    3    0  502  0.31129881351E+03 -0.46749146366E+03  0.19288944672E+02  0.56198512730E+03  0.50400001928E-02 0. -1.
</event>
<event>
 5   0  0.2517023E-03  0.1216112E+04  0.7818609E-02  0.9098869E-01
       -2   -1    0    0    0  501  0.00000000000E+00  0.00000000000E+00  0.27342258017E+03  0.27342258018E+03  0.25500000920E-02 0.  1.
        2   -1    0    0  501    0  0.00000000000E+00  0.00000000000E+00 -0.13522374972E+04  0.13522374972E+04  0.25500000920E-02 0. -1.
    10030    2    1    2    0    0  0.00000000000E+00  0.00000000000E+00 -0.10788149171E+04  0.16256600774E+04  0.12161122736E+04 0.  0.
        3    1    3    3  502    0 -0.32521640048E+03 -0.29753734361E+03 -0.10993171677E+04  0.11843953831E+04  0.10100000352E+00 0. -1.
       -3    1    3    3    0  502  0.32521640048E+03  0.29753734361E+03  0.20502250667E+02  0.44126469434E+03  0.10100000352E+00 0.  1.
</event>
<event>
 5   0  0.1423024E-03  0.1198682E+04  0.7818609E-02  0.9114011E-01
        1   -1    0    0  501    0  0.00000000000E+00  0.00000000000E+00  0.78113751264E+03  0.78113751266E+03  0.50400001928E-02 0. -1.
       -1   -1    0    0    0  501  0.00000000000E+00  0.00000000000E+00 -0.45985448182E+03  0.45985448185E+03  0.50400001928E-02 0.  1.
    10030    2    1    2    0    0  0.00000000000E+00  0.00000000000E+00  0.32128303082E+03  0.12409919945E+04  0.11986819197E+04 0.  0.
        2    1    3    3  502    0 -0.64050398304E+02  0.10404909621E+03  0.76810685256E+03  0.77776397763E+03  0.25500000920E-02 0. -1.
       -2    1    3    3    0  502  0.64050398304E+02 -0.10404909621E+03 -0.44682382174E+03  0.46322801688E+03  0.25500000920E-02 0.  1.
</event>
<event>
 5   0  0.9678750E-04  0.1212318E+04  0.7818609E-02  0.9102142E-01
        3   -1    0    0  501    0  0.00000000000E+00  0.00000000000E+00  0.77221984794E+03  0.77221985454E+03  0.10100000352E+00 0.  1.
       -3   -1    0    0    0  501  0.00000000000E+00  0.00000000000E+00 -0.47580848098E+03  0.47580849170E+03  0.10100000352E+00 0. -1.
    10030    2    1    2    0    0  0.00000000000E+00  0.00000000000E+00  0.29641136696E+03  0.12480283462E+04  0.12123180501E+04 0.  0.
        5    1    3    3  502    0 -0.10991536932E+03  0.41687353440E+03  0.58683345645E+03  0.72818989810E+03  0.46999998093E+01 0.  1.
       -5    1    3    3    0  502  0.10991536932E+03 -0.41687353440E+03 -0.29042208948E+03  0.51983844813E+03  0.46999998093E+01 0. -1.
</event>
<event>
 5   0  0.1423024E-03  0.1203768E+04  0.7818609E-02  0.9109564E-01
        1   -1    0    0  501    0  0.00000000000E+00  0.00000000000E+00  0.91836579075E+03  0.91836579077E+03  0.50400001928E-02 0.  1.
       -1   -1    0    0    0  501  0.00000000000E+00  0.00000000000E+00 -0.39446655140E+03  0.39446655144E+03  0.50400001928E-02 0. -1.
    10030    2    1    2    0    0  0.00000000000E+00  0.00000000000E+00  0.52389923935E+03  0.13128323422E+04  0.12037683937E+04 0.  0.
        2    1    3    3  502    0  0.59551261379E+03 -0.86380113496E+02  0.24782267039E+03  0.65077866679E+03  0.25500000920E-02 0. -1.
       -2    1    3    3    0  502 -0.59551261379E+03  0.86380113496E+02  0.27607656896E+03  0.66205367541E+03  0.25500000920E-02 0.  1.
</event>
<event>
 5   0  0.2499890E-03  0.1205267E+04  0.7818609E-02  0.9108259E-01
        2   -1    0    0  501    0  0.00000000000E+00  0.00000000000E+00  0.14303767065E+04  0.14303767065E+04  0.25500000920E-02 0.  1.
       -2   -1    0    0    0  501  0.00000000000E+00  0.00000000000E+00 -0.25389598183E+03  0.25389598184E+03  0.25500000920E-02 0. -1.
    10030    2    1    2    0    0  0.00000000000E+00  0.00000000000E+00  0.11764807247E+04  0.16842726884E+04  0.12052666067E+04 0.  0.
        5    1    3    3  502    0  0.75979889334E+00 -0.57291051101E+03  0.84936784261E+03  0.10245364088E+04  0.46999998093E+01 0.  1.
       -5    1    3    3    0  502 -0.75979889334E+00  0.57291051101E+03  0.32711288207E+03  0.65973627954E+03  0.46999998093E+01 0. -1.
</event>
<event>
 5   0  0.2579442E-03  0.1234236E+04  0.7818609E-02  0.9083406E-01
        2   -1    0    0  501    0  0.00000000000E+00  0.00000000000E+00  0.11788978598E+04  0.11788978598E+04  0.25500000920E-02 0. -1.
       -2   -1    0    0    0  501  0.00000000000E+00  0.00000000000E+00 -0.32304304805E+03  0.32304304806E+03  0.25500000920E-02 0.  1.
    10030    2    1    2    0    0  0.00000000000E+00  0.00000000000E+00  0.85585481174E+03  0.15019409079E+04  0.12342362140E+04 0.  0.
        4    1    3    3  502    0 -0.19113763317E+02 -0.26595801325E+03 -0.24932273332E+03  0.36505128271E+03  0.12699999809E+01 0.  1.
       -4    1    3    3    0  502  0.19113763317E+02  0.26595801325E+03  0.11051775451E+04  0.11368896251E+04  0.12699999809E+01 0. -1.
</event>
<event>
 5   0  0.1423024E-03  0.1205920E+04  0.7818609E-02  0.9107691E-01
        1   -1    0    0  501    0  0.00000000000E+00  0.00000000000E+00  0.11647886026E+04  0.11647886026E+04  0.50400001928E-02 0.  1.
       -1   -1    0    0    0  501  0.00000000000E+00  0.00000000000E+00 -0.31212575011E+03  0.31212575015E+03  0.50400001928E-02 0. -1.
    10030    2    1    2    0    0  0.00000000000E+00  0.00000000000E+00  0.85266285246E+03  0.14769143527E+04  0.12059195932E+04 0.  0.
        2    1    3    3  502    0  0.20431045619E+03 -0.19101596539E+03 -0.22786953226E+03  0.36076915788E+03  0.25500000920E-02 0. -1.
       -2    1    3    3    0  502 -0.20431045619E+03  0.19101596539E+03  0.10805323847E+04  0.11161451949E+04  0.25500000920E-02 0.  1.
</event>
<event>
 5   0  0.1404833E-03  0.1203218E+04  0.7818609E-02  0.9110045E-01
        1   -1    0    0  501    0  0.00000000000E+00  0.00000000000E+00  0.15091410666E+04  0.15091410666E+04  0.50400001928E-02 0. -1.
       -1   -1    0    0    0  501  0.00000000000E+00  0.00000000000E+00 -0.23982735567E+03  0.23982735573E+03  0.50400001928E-02 0.  1.
    10030    2    1    2    0    0  0.00000000000E+00  0.00000000000E+00  0.12693137109E+04  0.17489684223E+04  0.12032178712E+04 0.  0.
        1    1    3    3  502    0 -0.28144754052E+03 -0.51617553863E+03  0.82014251071E+03  0.10091004126E+04  0.50400001928E-02 0. -1.
       -1    1    3    3    0  502  0.28144754052E+03  0.51617553863E+03  0.44917120023E+03  0.73986800977E+03  0.50400001928E-02 0.  1.
</event>
<event>
 5   0  0.1403154E-03  0.1196234E+04  0.7818609E-02  0.9116159E-01
        1   -1    0    0  501    0  0.00000000000E+00  0.00000000000E+00  0.82826526563E+03  0.82826526564E+03  0.50400001928E-02 0.  1.
       -1   -1    0    0    0  501  0.00000000000E+00  0.00000000000E+00 -0.43191960797E+03  0.43191960800E+03  0.50400001928E-02 0. -1.
    10030    2    1    2    0    0  0.00000000000E+00  0.00000000000E+00  0.39634565765E+03  0.12601848736E+04  0.11962341056E+04 0.  0.
        3    1    3    3  502    0  0.55599961324E+03  0.21588852617E+03  0.24529174402E+03  0.64491199054E+03  0.10100000352E+00 0.  1.
       -3    1    3    3    0  502 -0.55599961324E+03 -0.21588852617E+03  0.15105391363E+03  0.61527288310E+03  0.10100000352E+00 0. -1.
</event>
<event>
 5   0  0.2484507E-03  0.1197252E+04  0.7818609E-02  0.9115265E-01
        2   -1    0    0  501    0  0.00000000000E+00  0.00000000000E+00  0.26744944539E+03  0.26744944541E+03  0.25500000920E-02 0. -1.
       -2   -1    0    0    0  501  0.00000000000E+00  0.00000000000E+00 -0.13398908851E+04  0.13398908851E+04  0.25500000920E-02 0.  1.
    10030    2    1    2    0    0  0.00000000000E+00  0.00000000000E+00 -0.10724414397E+04  0.16073403305E+04  0.11972519770E+04 0.  0.
        2    1    3    3  502    0  0.97770984963E+01 -0.22107728560E+03  0.21052032367E+03  0.30543340444E+03  0.25500000920E-02 0. -1.
       -2    1    3    3    0  502 -0.97770984963E+01  0.22107728560E+03 -0.12829617634E+04  0.13019069261E+04  0.25500000920E-02 0.  1.
</event>
<event>
 5   0  0.1404833E-03  0.1206418E+04  0.7818609E-02  0.9107257E-01
        1   -1    0    0  501    0  0.00000000000E+00  0.00000000000E+00  0.37908885574E+03  0.37908885577E+03  0.50400001928E-02 0.  1.
       -1   -1    0    0    0  501  0.00000000000E+00  0.00000000000E+00 -0.95983132527E+03  0.95983132529E+03  0.50400001928E-02 0. -1.
    10030    2    1    2    0    0  0.00000000000E+00  0.00000000000E+00 -0.58074246953E+03  0.13389201811E+04  0.12064184329E+04 0.  0.
        1    1    3    3  502    0 -0.47024874361E+03 -0.24875078229E+03 -0.60594300707E+03  0.80633600961E+03  0.50400001928E-02 0. -1.
       -1    1    3    3    0  502  0.47024874361E+03  0.24875078229E+03  0.25200537534E+02  0.53258417145E+03  0.50400001928E-02 0.  1.
</event>
<event>
 5   0  0.2499890E-03  0.1201513E+04  0.7818609E-02  0.9111533E-01
        2   -1    0    0  501    0  0.00000000000E+00  0.00000000000E+00  0.88300071869E+03  0.88300071869E+03  0.25500000920E-02 0. -1.
       -2   -1    0    0    0  501  0.00000000000E+00  0.00000000000E+00 -0.40872942721E+03  0.40872942722E+03  0.25500000920E-02 0.  1.
    10030    2    1    2    0    0  0.00000000000E+00  0.00000000000E+00  0.47427129148E+03  0.12917301459E+04  0.12015130095E+04 0.  0.
        5    1    3    3  502    0  0.51891138678E+03 -0.42769675216E+02 -0.85010176895E+02  0.52758609972E+03  0.46999998093E+01 0.  1.
       -5    1    3    3    0  502 -0.51891138678E+03  0.42769675216E+02  0.55928146838E+03  0.76414404618E+03  0.46999998093E+01 0. -1.
</event>
<event>
 5   0  0.1403154E-03  0.1191848E+04  0.7818609E-02  0.9120022E-01
       -1   -1    0    0    0  501  0.00000000000E+00  0.00000000000E+00  0.35084290959E+03  0.35084290962E+03  0.50400001928E-02 0.  1.
        1   -1    0    0  501    0  0.00000000000E+00  0.00000000000E+00 -0.10122065316E+04  0.10122065316E+04  0.50400001928E-02 0. -1.
    10030    2    1    2    0    0  0.00000000000E+00  0.00000000000E+00 -0.66136362202E+03  0.13630494412E+04  0.11918481190E+04 0.  0.
        3    1    3    3  502    0  0.20075570648E+03 -0.48860479314E+03 -0.64614501664E+03  0.83459025293E+03  0.10100000352E+00 0.  1.
       -3    1    3    3    0  502 -0.20075570648E+03  0.48860479314E+03 -0.15218605383E+02  0.52845918831E+03  0.10100000352E+00 0. -1.
</event>
<event>
 5   0  0.2484507E-03  0.1243595E+04  0.7818609E-02  0.9075531E-01
       -2   -1    0    0    0  501  0.00000000000E+00  0.00000000000E+00  0.55523820665E+03  0.55523820666E+03  0.25500000920E-02 0.  1.
        2   -1    0    0  501    0  0.00000000000E+00  0.00000000000E+00 -0.69633596865E+03  0.69633596866E+03  0.25500000920E-02 0. -1.
    10030    2    1    2    0    0  0.00000000000E+00  0.00000000000E+00 -0.14109776200E+03  0.12515741753E+04  0.12435953272E+04 0.  0.
        2    1    3    3  502    0  0.45335505514E+03  0.36562740890E+03 -0.28970303475E+03  0.65049370213E+03  0.25500000920E-02 0. -1.
       -2    1    3    3    0  502 -0.45335505514E+03 -0.36562740890E+03  0.14860527275E+03  0.60108047319E+03  0.25500000920E-02 0.  1.
</event>
<event>
 5   0  0.9678750E-04  0.1198414E+04  0.7818609E-02  0.9114246E-01
        3   -1    0    0  501    0  0.00000000000E+00  0.00000000000E+00  0.20762935435E+03  0.20762937891E+03  0.10100000352E+00 0. -1.
       -3   -1    0    0    0  501  0.00000000000E+00  0.00000000000E+00 -0.17292784988E+04  0.17292785017E+04  0.10100000352E+00 0.  1.
    10030    2    1    2    0    0  0.00000000000E+00  0.00000000000E+00 -0.15216491444E+04  0.19369078806E+04  0.11984139599E+04 0.  0.
        4    1    3    3  502    0 -0.41010951131E+03  0.35984820277E+03 -0.11612014866E+04  0.12829930029E+04  0.12699999809E+01 0.  1.
       -4    1    3    3    0  502  0.41010951131E+03 -0.35984820277E+03 -0.36044765786E+03  0.65391487769E+03  0.12699999809E+01 0. -1.
</event>
<event>
 5   0  0.2499890E-03  0.1210473E+04  0.7818609E-02  0.9103739E-01
        2   -1    0    0  501    0  0.00000000000E+00  0.00000000000E+00  0.43684388830E+03  0.43684388830E+03  0.25500000920E-02 0. -1.
       -2   -1    0    0    0  501  0.00000000000E+00  0.00000000000E+00 -0.83854000250E+03  0.83854000250E+03  0.25500000920E-02 0.  1.
    10030    2    1    2    0    0  0.00000000000E+00  0.00000000000E+00 -0.40169611420E+03  0.12753838908E+04  0.12104727592E+04 0.  0.
        5    1    3    3  502    0 -0.84831735732E+02 -0.31264159922E+03  0.33778787876E+03  0.46804266257E+03  0.46999998093E+01 0. -1.
       -5    1    3    3    0  502  0.84831735732E+02  0.31264159922E+03 -0.73948399297E+03  0.80734122823E+03  0.46999998093E+01 0.  1.
</event>
<event>
 5   0  0.1404833E-03  0.1153997E+04  0.7818609E-02  0.9154104E-01
       -1   -1    0    0    0  501  0.00000000000E+00  0.00000000000E+00  0.17614961369E+03  0.17614961376E+03  0.50400001928E-02 0.  1.
        1   -1    0    0  501    0  0.00000000000E+00  0.00000000000E+00 -0.18900270563E+04  0.18900270563E+04  0.50400001928E-02 0. -1.
    10030    2    1    2    0    0  0.00000000000E+00  0.00000000000E+00 -0.17138774426E+04  0.20661766701E+04  0.11539974626E+04 0.  0.
        1    1    3    3  502    0 -0.49544121494E+03 -0.18446929365E+03 -0.44305143885E+03  0.68977206036E+03  0.50400001928E-02 0.  1.
       -1    1    3    3    0  502  0.49544121494E+03  0.18446929365E+03 -0.12708260038E+04  0.13764046097E+04  0.50400001928E-02 0. -1.
</event>
<event>
 5   0  0.1423024E-03  0.1178319E+04  0.7818609E-02  0.9132049E-01
       -1   -1    0    0    0  501  0.00000000000E+00  0.00000000000E+00  0.21612716222E+03  0.21612716228E+03  0.50400001928E-02 0.  1.
        1   -1    0    0  501    0  0.00000000000E+00  0.00000000000E+00 -0.16060395701E+04  0.16060395701E+04  0.50400001928E-02 0. -1.
    10030    2    1    2    0    0  0.00000000000E+00  0.00000000000E+00 -0.13899124079E+04  0.18221667324E+04  0.11783187595E+04 0.  0.
        2    1    3    3  502    0  0.40631947708E+03  0.20830613574E+02 -0.13539154278E+04  0.14137243074E+04  0.25500000920E-02 0. -1.
       -2    1    3    3    0  502 -0.40631947708E+03 -0.20830613574E+02 -0.35996980131E+02  0.40844242496E+03  0.25500000920E-02 0.  1.
</event>
<event>
 5   0  0.2517023E-03  0.9910115E+03  0.7818609E-02  0.9318459E-01
        2   -1    0    0  501    0  0.00000000000E+00  0.00000000000E+00  0.12010907429E+04  0.12010907429E+04  0.25500000920E-02 0.  1.
       -2   -1    0    0    0  501  0.00000000000E+00  0.00000000000E+00 -0.20441914175E+03  0.20441914176E+03  0.25500000920E-02 0. -1.
    10030    2    1    2    0    0  0.00000000000E+00  0.00000000000E+00  0.99667160116E+03  0.14055098847E+04  0.99101148094E+03 0.  0.
        3    1    3    3  502    0 -0.49312646692E+03 -0.47360572389E+02  0.51315591362E+03  0.71326414327E+03  0.10100000352E+00 0. -1.
       -3    1    3    3    0  502  0.49312646692E+03  0.47360572389E+02  0.48351568754E+03  0.69224574140E+03  0.10100000352E+00 0.  1.
</event>
<event>
 5   0  0.1403154E-03  0.1204288E+04  0.7818609E-02  0.9109112E-01
       -1   -1    0    0    0  501  0.00000000000E+00  0.00000000000E+00  0.31366257888E+03  0.31366257892E+03  0.50400001928E-02 0. -1.
        1   -1    0    0  501    0  0.00000000000E+00  0.00000000000E+00 -0.11559469384E+04  0.11559469384E+04  0.50400001928E-02 0.  1.
    10030    2    1    2    0    0  0.00000000000E+00  0.00000000000E+00 -0.84228435953E+03  0.14696095173E+04  0.12042878357E+04 0.  0.
        3    1    3    3  502    0 -0.54999745043E+03  0.22636032972E+03 -0.30639959163E+03  0.66904178815E+03  0.10100000352E+00 0. -1.
       -3    1    3    3    0  502  0.54999745043E+03 -0.22636032972E+03 -0.53588476791E+03  0.80056772919E+03  0.10100000352E+00 0.  1.
</event>
<event>
 5   0  0.2580244E-03  0.1188682E+04  0.7818609E-02  0.9122822E-01
        2   -1    0    0  501    0  0.00000000000E+00  0.00000000000E+00  0.19371662748E+04  0.19371662748E+04  0.25500000920E-02 0.  1.
       -2   -1    0    0    0  501  0.00000000000E+00  0.00000000000E+00 -0.18234935239E+03  0.18234935241E+03  0.25500000920E-02 0. -1.
    10030    2    1    2    0    0  0.00000000000E+00  0.00000000000E+00  0.17548169224E+04  0.21195156272E+04  0.11886816491E+04 0.  0.
        1    1    3    3  502    0  0.28928456221E+03  0.50012080357E+03  0.62883239527E+03  0.85395348671E+03  0.50400001928E-02 0. -1.
       -1    1    3    3    0  502 -0.28928456221E+03 -0.50012080357E+03  0.11259845272E+04  0.12655621405E+04  0.50400001928E-02 0.  1.
</event>
<event>
 5   0  0.1404833E-03  0.1204561E+04  0.7818609E-02  0.9108873E-01
       -1   -1    0    0    0  501  0.00000000000E+00  0.00000000000E+00  0.10322281242E+04  0.10322281242E+04  0.50400001928E-02 0.  1.
        1   -1    0    0  501    0  0.00000000000E+00  0.00000000000E+00 -0.35141645836E+03  0.35141645840E+03  0.50400001928E-02 0. -1.
    10030    2    1    2    0    0  0.00000000000E+00  0.00000000000E+00  0.68081166586E+03  0.13836445826E+04  0.12045612507E+04 0.  0.
        1    1    3    3  502    0 -0.59364737085E+02  0.23779007267E+03 -0.29154453874E+03  0.38087597557E+03  0.50400001928E-02 0. -1.
       -1    1    3    3    0  502  0.59364737085E+02 -0.23779007267E+03  0.97235620460E+03  0.10027686071E+04  0.50400001928E-02 0.  1.
</event>
<event>
 5   0  0.2484507E-03  0.1197425E+04  0.7818609E-02  0.9115113E-01
       -2   -1    0    0    0  501  0.00000000000E+00  0.00000000000E+00  0.59104283058E+03  0.59104283058E+03  0.25500000920E-02 0. -1.
        2   -1    0    0  501    0  0.00000000000E+00  0.00000000000E+00 -0.60648190880E+03  0.60648190881E+03  0.25500000920E-02 0.  1.
    10030    2    1    2    0    0  0.00000000000E+00  0.00000000000E+00 -0.15439078226E+02  0.11975247394E+04  0.11974252112E+04 0.  0.
        2    1    3    3  502    0 -0.42942693681E+03  0.32087670318E+03  0.25892488559E+03  0.59532465856E+03  0.25500000920E-02 0. -1.
       -2    1    3    3    0  502  0.42942693681E+03 -0.32087670318E+03 -0.27436396382E+03  0.60220008083E+03  0.25500000920E-02 0.  1.
</event>
<event>
 5   0  0.1403154E-03  0.1184874E+04  0.7818609E-02  0.9126200E-01
        1   -1    0    0  501    0  0.00000000000E+00  0.00000000000E+00  0.65998129745E+03  0.65998129747E+03  0.50400001928E-02 0. -1.
       -1   -1    0    0    0  501  0.00000000000E+00  0.00000000000E+00 -0.53180578599E+03  0.53180578601E+03  0.50400001928E-02 0.  1.
    10030    2    1    2    0    0  0.00000000000E+00  0.00000000000E+00  0.12817551146E+03  0.11917870835E+04  0.11848744620E+04 0.  0.
        3    1    3    3  502    0  0.11464775036E+03 -0.43038843388E+03  0.45701184574E+03  0.63815213549E+03  0.10100000352E+00 0. -1.
       -3    1    3    3    0  502 -0.11464775036E+03  0.43038843388E+03 -0.32883633428E+03  0.55363494798E+03  0.10100000352E+00 0.  1.
</event>
<event>
 5   0  0.2579442E-03  0.1206335E+04  0.7818609E-02  0.9107330E-01
        2   -1    0    0  501    0  0.00000000000E+00  0.00000000000E+00  0.38110147098E+03  0.38110147099E+03  0.25500000920E-02 0.  1.
       -2   -1    0    0    0  501  0.00000000000E+00  0.00000000000E+00 -0.95463031973E+03  0.95463031973E+03  0.25500000920E-02 0. -1.
    10030    2    1    2    0    0  0.00000000000E+00  0.00000000000E+00 -0.57352884875E+03  0.13357317907E+04  0.12063349769E+04 0.  0.
        4    1    3    3  502    0  0.51560542538E+02 -0.40199371911E+03  0.20786431694E+03  0.45548504575E+03  0.12699999809E+01 0.  1.
       -4    1    3    3    0  502 -0.51560542538E+02  0.40199371911E+03 -0.78139316569E+03  0.88024674497E+03  0.12699999809E+01 0. -1.
</event>
<event>
 5   0  0.2580244E-03  0.1134499E+04  0.7818609E-02  0.9172204E-01
        2   -1    0    0  501    0  0.00000000000E+00  0.00000000000E+00  0.66590956129E+03  0.66590956130E+03  0.25500000920E-02 0.  1.
       -2   -1    0    0    0  501  0.00000000000E+00  0.00000000000E+00 -0.48320715384E+03  0.48320715385E+03  0.25500000920E-02 0. -1.
    10030    2    1    2    0    0  0.00000000000E+00  0.00000000000E+00  0.18270240745E+03  0.11491167151E+04  0.11344994735E+04 0.  0.
        1    1    3    3  502    0 -0.16736703256E+03  0.11036038148E+03  0.62883034456E+03  0.66001419656E+03  0.50400001928E-02 0.  1.
       -1    1    3    3    0  502  0.16736703256E+03 -0.11036038148E+03 -0.44612793712E+03  0.48910251859E+03  0.50400001928E-02 0. -1.
</event>
<event>
 5   0  0.1403154E-03  0.1201571E+04  0.7818609E-02  0.9111483E-01
       -1   -1    0    0    0  501  0.00000000000E+00  0.00000000000E+00  0.54201150908E+03  0.54201150910E+03  0.50400001928E-02 0.  1.
        1   -1    0    0  501    0  0.00000000000E+00  0.00000000000E+00 -0.66593227961E+03  0.66593227963E+03  0.50400001928E-02 0. -1.
    10030    2    1    2    0    0  0.00000000000E+00  0.00000000000E+00 -0.12392077053E+03  0.12079437887E+04  0.12015705719E+04 0.  0.
        3    1    3    3  502    0  0.10068875470E+03  0.82017775341E+02 -0.65165311522E+03  0.66446740595E+03  0.10100000352E+00 0. -1.
       -3    1    3    3    0  502 -0.10068875470E+03 -0.82017775341E+02  0.52773234469E+03  0.54347638277E+03  0.10100000352E+00 0.  1.
</event>
<event>
 5   0  0.1469851E-03  0.1201960E+04  0.7818609E-02  0.9111143E-01
        1   -1    0    0  501    0  0.00000000000E+00  0.00000000000E+00  0.29956935051E+03  0.29956935055E+03  0.50400001928E-02 0.  1.
       -1   -1    0    0    0  501  0.00000000000E+00  0.00000000000E+00 -0.12056542750E+04  0.12056542750E+04  0.50400001928E-02 0. -1.
    10030    2    1    2    0    0  0.00000000000E+00  0.00000000000E+00 -0.90608492447E+03  0.15052236255E+04  0.12019601793E+04 0.  0.
        5    1    3    3  502    0  0.40252637213E+03  0.40540318105E+03 -0.68657599715E+03  0.89318973870E+03  0.46999998093E+01 0. -1.
       -5    1    3    3    0  502 -0.40252637213E+03 -0.40540318105E+03 -0.21950892732E+03  0.61203388684E+03  0.46999998093E+01 0.  1.
</event>
<event>
 5   0  0.1403154E-03  0.1170456E+04  0.7818609E-02  0.9139117E-01
       -1   -1    0    0    0  501  0.00000000000E+00  0.00000000000E+00  0.89010000481E+03  0.89010000483E+03  0.50400001928E-02 0.  1.
        1   -1    0    0  501    0  0.00000000000E+00  0.00000000000E+00 -0.38477909732E+03  0.38477909735E+03  0.50400001928E-02 0. -1.
    10030    2    1    2    0    0  0.00000000000E+00  0.00000000000E+00  0.50532090749E+03  0.12748791022E+04  0.11704561101E+04 0.  0.
        3    1    3    3  502    0  0.25458899283E+03 -0.13028005321E+03  0.80880442310E+03  0.85787706145E+03  0.10100000352E+00 0.  1.
       -3    1    3    3    0  502 -0.25458899283E+03  0.13028005321E+03 -0.30348351560E+03  0.41700204073E+03  0.10100000352E+00 0. -1.
</event>
<event>
 5   0  0.1469851E-03  0.1152586E+04  0.7818609E-02  0.9155401E-01
       -1   -1    0    0    0  501  0.00000000000E+00  0.00000000000E+00  0.54348283257E+03  0.54348283259E+03  0.50400001928E-02 0.  1.
        1   -1    0    0  501    0  0.00000000000E+00  0.00000000000E+00 -0.61108438012E+03  0.61108438014E+03  0.50400001928E-02 0. -1.
    10030    2    1    2    0    0  0.00000000000E+00  0.00000000000E+00 -0.67601547553E+02  0.11545672127E+04  0.11525864304E+04 0.  0.
        5    1    3    3  502    0 -0.18470847896E+03 -0.51411893570E+03 -0.21757252707E+03  0.58804370312E+03  0.46999998093E+01 0. -1.
       -5    1    3    3    0  502  0.18470847896E+03  0.51411893570E+03  0.14997097952E+03  0.56652350961E+03  0.46999998093E+01 0.  1.
</event>
<event>
 5   0  0.2484507E-03  0.1204182E+04  0.7818609E-02  0.9109204E-01
       -2   -1    0    0    0  501  0.00000000000E+00  0.00000000000E+00  0.53331195610E+03  0.53331195611E+03  0.25500000920E-02 0. -1.
        2   -1    0    0  501    0  0.00000000000E+00  0.00000000000E+00 -0.67973983410E+03  0.67973983410E+03  0.25500000920E-02 0.  1.
    10030    2    1    2    0    0  0.00000000000E+00  0.00000000000E+00 -0.14642787799E+03  0.12130517902E+04  0.12041816816E+04 0.  0.
        2    1    3    3  502    0 -0.31125587980E+03 -0.26288833370E+03 -0.51978840630E+03  0.66043204498E+03  0.25500000920E-02 0.  1.
       -2    1    3    3    0  502  0.31125587980E+03  0.26288833370E+03  0.37336052831E+03  0.55261974523E+03  0.25500000920E-02 0. -1.
</event>
<event>
 5   0  0.1403154E-03  0.1198314E+04  0.7818609E-02  0.9114334E-01
       -1   -1    0    0    0  501  0.00000000000E+00  0.00000000000E+00  0.13056725158E+03  0.13056725167E+03  0.50400001928E-02 0.  1.
        1   -1    0    0  501    0  0.00000000000E+00  0.00000000000E+00 -0.27494566265E+04  0.27494566265E+04  0.50400001928E-02 0. -1.
    10030    2    1    2    0    0  0.00000000000E+00  0.00000000000E+00 -0.26188893750E+04  0.28800238782E+04  0.11983138073E+04 0.  0.
        3    1    3    3  502    0  0.86213488453E+02 -0.44455908579E+03 -0.22523713226E+04  0.22974425197E+04  0.10100000352E+00 0. -1.
       -3    1    3    3    0  502 -0.86213488453E+02  0.44455908579E+03 -0.36651805233E+03  0.58258135847E+03  0.10100000352E+00 0.  1.
</event>
<event>
 5   0  0.2580244E-03  0.1196199E+04  0.7818609E-02  0.9116190E-01
        2   -1    0    0  501    0  0.00000000000E+00  0.00000000000E+00  0.12451562923E+04  0.12451562923E+04  0.25500000920E-02 0. -1.
       -2   -1    0    0    0  501  0.00000000000E+00  0.00000000000E+00 -0.28729178116E+03  0.28729178117E+03  0.25500000920E-02 0.  1.
    10030    2    1    2    0    0  0.00000000000E+00  0.00000000000E+00  0.95786451118E+03  0.15324480735E+04  0.11961992628E+04 0.  0.
        1    1    3    3  502    0 -0.52456284021E+03  0.58945922825E+02  0.83919726692E+03  0.99140952587E+03  0.50400001928E-02 0. -1.
       -1    1    3    3    0  502  0.52456284021E+03 -0.58945922825E+02  0.11866724426E+03  0.54103854764E+03  0.50400001928E-02 0.  1.
</event>
<event>
 5   0  0.2579442E-03  0.1203032E+04  0.7818609E-02  0.9110207E-01
        2   -1    0    0  501    0  0.00000000000E+00  0.00000000000E+00  0.70511088692E+03  0.70511088692E+03  0.25500000920E-02 0.  1.
       -2   -1    0    0    0  501  0.00000000000E+00  0.00000000000E+00 -0.51314143122E+03  0.51314143123E+03  0.25500000920E-02 0. -1.
    10030    2    1    2    0    0  0.00000000000E+00  0.00000000000E+00  0.19196945569E+03  0.12182523182E+04  0.12030321853E+04 0.  0.
        4    1    3    3  502    0  0.30232339543E+03 -0.42828087230E+03  0.39466723052E+03  0.65619187495E+03  0.12699999809E+01 0.  1.
       -4    1    3    3    0  502 -0.30232339543E+03  0.42828087230E+03 -0.20269777483E+03  0.56206044321E+03  0.12699999809E+01 0. -1.
</event>
<event>
 5   0  0.1403154E-03  0.1207718E+04  0.7818609E-02  0.9106128E-01
        1   -1    0    0  501    0  0.00000000000E+00  0.00000000000E+00  0.29974172523E+03  0.29974172527E+03  0.50400001928E-02 0.  1.
       -1   -1    0    0    0  501  0.00000000000E+00  0.00000000000E+00 -0.12165328820E+04  0.12165328820E+04  0.50400001928E-02 0. -1.
    10030    2    1    2    0    0  0.00000000000E+00  0.00000000000E+00 -0.91679115675E+03  0.15162746073E+04  0.12077179553E+04 0.  0.
        3    1    3    3  502    0  0.21688547858E+03  0.49134003405E+03 -0.80494491592E+03  0.96767281027E+03  0.10100000352E+00 0. -1.
       -3    1    3    3    0  502 -0.21688547858E+03 -0.49134003405E+03 -0.11184624084E+03  0.54860179700E+03  0.10100000352E+00 0.  1.
</event>
<event>
 5   0  0.2517023E-03  0.1191373E+04  0.7818609E-02  0.9120441E-01
       -2   -1    0    0    0  501  0.00000000000E+00  0.00000000000E+00  0.19397054044E+03  0.19397054046E+03  0.25500000920E-02 0. -1.
        2   -1    0    0  501    0  0.00000000000E+00  0.00000000000E+00 -0.18293634994E+04  0.18293634994E+04  0.25500000920E-02 0.  1.
    10030    2    1    2    0    0  0.00000000000E+00  0.00000000000E+00 -0.16353929590E+04  0.20233340399E+04  0.11913733700E+04 0.  0.
        3    1    3    3  502    0 -0.19666200322E+03 -0.53193957007E+03 -0.50821525727E+03  0.76152374069E+03  0.10100000352E+00 0.  1.
       -3    1    3    3    0  502  0.19666200322E+03  0.53193957007E+03 -0.11271777017E+04  0.12618102992E+04  0.10100000352E+00 0. -1.
</event>
<event>
 5   0  0.2517023E-03  0.1196560E+04  0.7818609E-02  0.9115873E-01
        2   -1    0    0  501    0  0.00000000000E+00  0.00000000000E+00  0.58159641309E+03  0.58159641310E+03  0.25500000920E-02 0.  1.
       -2   -1    0    0    0  501  0.00000000000E+00  0.00000000000E+00 -0.61544217800E+03  0.61544217800E+03  0.25500000920E-02 0. -1.
    10030    2    1    2    0    0  0.00000000000E+00  0.00000000000E+00 -0.33845764907E+02  0.11970385911E+04  0.11965600080E+04 0.  0.
        3    1    3    3  502    0 -0.83603257819E+02 -0.55697908177E+03 -0.21880486154E+03  0.60422742397E+03  0.10100000352E+00 0.  1.
       -3    1    3    3    0  502  0.83603257819E+02  0.55697908177E+03  0.18495909664E+03  0.59281116713E+03  0.10100000352E+00 0. -1.
</event>
<event>
 5   0  0.1423024E-03  0.1193051E+04  0.7818609E-02  0.9118960E-01
        1   -1    0    0  501    0  0.00000000000E+00  0.00000000000E+00  0.16090427792E+04  0.16090427792E+04  0.50400001928E-02 0.  1.
       -1   -1    0    0    0  501  0.00000000000E+00  0.00000000000E+00 -0.22115192015E+03  0.22115192020E+03  0.50400001928E-02 0. -1.
    10030    2    1    2    0    0  0.00000000000E+00  0.00000000000E+00  0.13878908591E+04  0.18301946994E+04  0.11930513824E+04 0.  0.
        2    1    3    3  502    0  0.18837865379E+03 -0.14060654051E+03  0.15349970508E+04  0.15528917098E+04  0.25500000920E-02 0.  1.
       -2    1    3    3    0  502 -0.18837865379E+03  0.14060654051E+03 -0.14710619168E+03  0.27730298966E+03  0.25500000920E-02 0. -1.
</event>
<event>
 5   0  0.1469851E-03  0.1184334E+04  0.7818609E-02  0.9126680E-01
        1   -1    0    0  501    0  0.00000000000E+00  0.00000000000E+00  0.63009440060E+03  0.63009440062E+03  0.50400001928E-02 0. -1.
       -1   -1    0    0    0  501  0.00000000000E+00  0.00000000000E+00 -0.55652296452E+03  0.55652296455E+03  0.50400001928E-02 0.  1.
    10030    2    1    2    0    0  0.00000000000E+00  0.00000000000E+00  0.73571436075E+02  0.11866173652E+04  0.11843344186E+04 0.  0.
        5    1    3    3  502    0 -0.12066088525E+03  0.25553056116E+03  0.55815885131E+03  0.62563432628E+03  0.46999998093E+01 0. -1.
       -5    1    3    3    0  502  0.12066088525E+03 -0.25553056116E+03 -0.48458741524E+03  0.56098303889E+03  0.46999998093E+01 0.  1.
</event>
<event>
 5   0  0.1404833E-03  0.1161714E+04  0.7818609E-02  0.9147044E-01
       -1   -1    0    0    0  501  0.00000000000E+00  0.00000000000E+00  0.27980642289E+03  0.27980642294E+03  0.50400001928E-02 0. -1.
        1   -1    0    0  501    0  0.00000000000E+00  0.00000000000E+00 -0.12058152263E+04  0.12058152263E+04  0.50400001928E-02 0.  1.
    10030    2    1    2    0    0  0.00000000000E+00  0.00000000000E+00 -0.92600880336E+03  0.14856216492E+04  0.11617139840E+04 0.  0.
        1    1    3    3  502    0 -0.46320564871E+03  0.74183283282E+02 -0.90104829737E+03  0.10158497265E+04  0.50400001928E-02 0.  1.
       -1    1    3    3    0  502  0.46320564871E+03 -0.74183283282E+02 -0.24960505992E+02  0.46977192275E+03  0.50400001928E-02 0. -1.
</event>
<event>
 5   0  0.2499890E-03  0.1201442E+04  0.7818609E-02  0.9111595E-01
       -2   -1    0    0    0  501  0.00000000000E+00  0.00000000000E+00  0.64030728132E+03  0.64030728133E+03  0.25500000920E-02 0.  1.
        2   -1    0    0  501    0  0.00000000000E+00  0.00000000000E+00 -0.56358227898E+03  0.56358227898E+03  0.25500000920E-02 0. -1.
    10030    2    1    2    0    0  0.00000000000E+00  0.00000000000E+00  0.76725002346E+02  0.12038895603E+04  0.12014421948E+04 0.  0.
        5    1    3    3  502    0  0.19650158942E+03  0.27618985974E+03 -0.45858122397E+03  0.57027409396E+03  0.46999998093E+01 0. -1.
       -5    1    3    3    0  502 -0.19650158942E+03 -0.27618985974E+03  0.53530622632E+03  0.63361546635E+03  0.46999998093E+01 0.  1.
</event>
<event>
 5   0  0.2517023E-03  0.1173668E+04  0.7818609E-02  0.9136222E-01
       -2   -1    0    0    0  501  0.00000000000E+00  0.00000000000E+00  0.21694330546E+03  0.21694330548E+03  0.25500000920E-02 0. -1.
        2   -1    0    0  501    0  0.00000000000E+00  0.00000000000E+00 -0.15873934792E+04  0.15873934792E+04  0.25500000920E-02 0.  1.
    10030    2    1    2    0    0  0.00000000000E+00  0.00000000000E+00 -0.13704501738E+04  0.18043367847E+04  0.11736684173E+04 0.  0.
        3    1    3    3  502    0  0.95352065165E+02  0.31744495998E+03 -0.14297064822E+04  0.14676252773E+04  0.10100000352E+00 0.  1.
       -3    1    3    3    0  502 -0.95352065165E+02 -0.31744495998E+03  0.59256308459E+02  0.33671150744E+03  0.10100000352E+00 0. -1.
</event>
<event>
 5   0  0.2579442E-03  0.1210433E+04  0.7818609E-02  0.9103773E-01
       -2   -1    0    0    0  501  0.00000000000E+00  0.00000000000E+00  0.79583093653E+03  0.79583093654E+03  0.25500000920E-02 0. -1.
        2   -1    0    0  501    0  0.00000000000E+00  0.00000000000E+00 -0.46025760314E+03  0.46025760314E+03  0.25500000920E-02 0.  1.
    10030    2    1    2    0    0  0.00000000000E+00  0.00000000000E+00  0.33557333340E+03  0.12560885397E+04  0.12104333759E+04 0.  0.
        4    1    3    3  502    0 -0.60232031803E+03 -0.25961685316E+02  0.11266193772E+03  0.61331729123E+03  0.12699999809E+01 0.  1.
       -4    1    3    3    0  502  0.60232031803E+03  0.25961685316E+02  0.22291139568E+03  0.64277124845E+03  0.12699999809E+01 0. -1.
</event>
<event>
 5   0  0.2517023E-03  0.1316134E+04  0.7818609E-02  0.9016868E-01
       -2   -1    0    0    0  501  0.00000000000E+00  0.00000000000E+00  0.31166224746E+03  0.31166224747E+03  0.25500000920E-02 0. -1.
        2   -1    0    0  501    0  0.00000000000E+00  0.00000000000E+00 -0.13894913345E+04  0.13894913345E+04  0.25500000920E-02 0.  1.
    10030    2    1    2    0    0  0.00000000000E+00  0.00000000000E+00 -0.10778290871E+04  0.17011535820E+04  0.13161337199E+04 0.  0.
        3    1    3    3  502    0 -0.65067670753E+03  0.89948735218E+02 -0.59030866692E+03  0.88313944829E+03  0.10100000352E+00 0.  1.
       -3    1    3    3    0  502  0.65067670753E+03 -0.89948735218E+02 -0.48752042015E+03  0.81801413371E+03  0.10100000352E+00 0. -1.
</event>
<event>
 5   0  0.1469851E-03  0.1202817E+04  0.7818609E-02  0.9110394E-01
        1   -1    0    0  501    0  0.00000000000E+00  0.00000000000E+00  0.66124564067E+03  0.66124564069E+03  0.50400001928E-02 0.  1.
       -1   -1    0    0    0  501  0.00000000000E+00  0.00000000000E+00 -0.54698653423E+03  0.54698653425E+03  0.50400001928E-02 0. -1.
    10030    2    1    2    0    0  0.00000000000E+00  0.00000000000E+00  0.11425910644E+03  0.12082321749E+04  0.12028174613E+04 0.  0.
        5    1    3    3  502    0 -0.15911584202E+03  0.24510755844E+02 -0.52491979938E+03  0.54907332308E+03  0.46999998093E+01 0. -1.
       -5    1    3    3    0  502  0.15911584202E+03 -0.24510755844E+02  0.63917890582E+03  0.65915885186E+03  0.46999998093E+01 0.  1.
</event>
<event>
 5   0  0.1455076E-03  0.1194780E+04  0.7818609E-02  0.9117438E-01
        1   -1    0    0  501    0  0.00000000000E+00  0.00000000000E+00  0.89075703857E+03  0.89075703859E+03  0.50400001928E-02 0.  1.
       -1   -1    0    0    0  501  0.00000000000E+00  0.00000000000E+00 -0.40064235553E+03  0.40064235556E+03  0.50400001928E-02 0. -1.
    10030    2    1    2    0    0  0.00000000000E+00  0.00000000000E+00  0.49011468304E+03  0.12913993941E+04  0.11947803115E+04 0.  0.
        4    1    3    3  502    0 -0.98796513766E+02 -0.19400640262E+03  0.84634835097E+03  0.87390295770E+03  0.12699999809E+01 0.  1.
       -4    1    3    3    0  502  0.98796513766E+02  0.19400640262E+03 -0.35623366792E+03  0.41749643645E+03  0.12699999809E+01 0. -1.
</event>
<event>
 5   0  0.1469851E-03  0.1203580E+04  0.7818609E-02  0.9109729E-01
       -1   -1    0    0    0  501  0.00000000000E+00  0.00000000000E+00  0.96949374756E+03  0.96949374757E+03  0.50400001928E-02 0.  1.
        1   -1    0    0  501    0  0.00000000000E+00  0.00000000000E+00 -0.37354666915E+03  0.37354666918E+03  0.50400001928E-02 0. -1.
    10030    2    1    2    0    0  0.00000000000E+00  0.00000000000E+00  0.59594707841E+03  0.13430404168E+04  0.12035799270E+04 0.  0.
        5    1    3    3  502    0  0.66752365898E+02  0.40776840089E+03 -0.19020983354E+03  0.45489868970E+03  0.46999998093E+01 0. -1.
       -5    1    3    3    0  502 -0.66752365898E+02 -0.40776840089E+03  0.78615691195E+03  0.88814172705E+03  0.46999998093E+01 0.  1.
</event>
<event>
 5   0  0.1455076E-03  0.1186754E+04  0.7818609E-02  0.9124531E-01
        1   -1    0    0  501    0  0.00000000000E+00  0.00000000000E+00  0.67941878085E+03  0.67941878087E+03  0.50400001928E-02 0. -1.
       -1   -1    0    0    0  501  0.00000000000E+00  0.00000000000E+00 -0.51823124926E+03  0.51823124928E+03  0.50400001928E-02 0.  1.
    10030    2    1    2    0    0  0.00000000000E+00  0.00000000000E+00  0.16118753159E+03  0.11976500302E+04  0.11867536283E+04 0.  0.
        4    1    3    3  502    0 -0.40199853229E+03  0.41549537682E+03 -0.54256483121E+02  0.58067599139E+03  0.12699999809E+01 0.  1.
       -4    1    3    3    0  502  0.40199853229E+03 -0.41549537682E+03  0.21544401471E+03  0.61697403876E+03  0.12699999809E+01 0. -1.
</event>
<event>
 5   0  0.2517023E-03  0.1207377E+04  0.7818609E-02  0.9106424E-01
        2   -1    0    0  501    0  0.00000000000E+00  0.00000000000E+00  0.92632216191E+03  0.92632216192E+03  0.25500000920E-02 0.  1.
       -2   -1    0    0    0  501  0.00000000000E+00  0.00000000000E+00 -0.39342674470E+03  0.39342674471E+03  0.25500000920E-02 0. -1.
    10030    2    1    2    0    0  0.00000000000E+00  0.00000000000E+00  0.53289541721E+03  0.13197489066E+04  0.12073771784E+04 0.  0.
        3    1    3    3  502    0 -0.38839738836E+03  0.28055669313E+03  0.66788210460E+03  0.82196782491E+03  0.10100000352E+00 0.  1.
       -3    1    3    3    0  502  0.38839738836E+03 -0.28055669313E+03 -0.13498668738E+03  0.49778108171E+03  0.10100000352E+00 0. -1.
</event>
<event>
 5   0  0.1403154E-03  0.1193698E+04  0.7818609E-02  0.9118390E-01
       -1   -1    0    0    0  501  0.00000000000E+00  0.00000000000E+00  0.33502883563E+03  0.33502883567E+03  0.50400001928E-02 0.  1.
        1   -1    0    0  501    0  0.00000000000E+00  0.00000000000E+00 -0.10632781181E+04  0.10632781181E+04  0.50400001928E-02 0. -1.
    10030    2    1    2    0    0  0.00000000000E+00  0.00000000000E+00 -0.72824928249E+03  0.13983069538E+04  0.11936981694E+04 0.  0.
        3    1    3    3  502    0 -0.41527564084E+03 -0.65138638599E+02 -0.86046412744E+03  0.95765099328E+03  0.10100000352E+00 0. -1.
       -3    1    3    3    0  502  0.41527564084E+03  0.65138638599E+02  0.13221484495E+03  0.44065596052E+03  0.10100000352E+00 0.  1.
</event>
<event>
 5   0  0.2499890E-03  0.1197820E+04  0.7818609E-02  0.9114766E-01
        2   -1    0    0  501    0  0.00000000000E+00  0.00000000000E+00  0.81048453426E+03  0.81048453427E+03  0.25500000920E-02 0.  1.
       -2   -1    0    0    0  501  0.00000000000E+00  0.00000000000E+00 -0.44256671612E+03  0.44256671612E+03  0.25500000920E-02 0. -1.
    10030    2    1    2    0    0  0.00000000000E+00  0.00000000000E+00  0.36791781815E+03  0.12530512504E+04  0.11978204854E+04 0.  0.
        5    1    3    3  502    0  0.43086608083E+03 -0.25567760943E+03 -0.15927780459E+03  0.52574530774E+03  0.46999998093E+01 0. -1.
       -5    1    3    3    0  502 -0.43086608083E+03  0.25567760943E+03  0.52719562274E+03  0.72730594265E+03  0.46999998093E+01 0.  1.
</event>
<event>
 5   0  0.2517023E-03  0.1251981E+04  0.7818609E-02  0.9068536E-01
        2   -1    0    0  501    0  0.00000000000E+00  0.00000000000E+00  0.43102658842E+03  0.43102658843E+03  0.25500000920E-02 0.  1.
       -2   -1    0    0    0  501  0.00000000000E+00  0.00000000000E+00 -0.90914098538E+03  0.90914098539E+03  0.25500000920E-02 0. -1.
    10030    2    1    2    0    0  0.00000000000E+00  0.00000000000E+00 -0.47811439696E+03  0.13401675738E+04  0.12519807304E+04 0.  0.
        3    1    3    3  502    0  0.35932539445E+03  0.83990559601E+02 -0.78033770516E+03  0.86318949107E+03  0.10100000352E+00 0. -1.
       -3    1    3    3    0  502 -0.35932539445E+03 -0.83990559601E+02  0.30222330820E+03  0.47697808274E+03  0.10100000352E+00 0.  1.
</event>
<event>
 5   0  0.1403154E-03  0.1205520E+04  0.7818609E-02  0.9108039E-01
       -1   -1    0    0    0  501  0.00000000000E+00  0.00000000000E+00  0.54631250812E+03  0.54631250815E+03  0.50400001928E-02 0.  1.
        1   -1    0    0  501    0  0.00000000000E+00  0.00000000000E+00 -0.66503989709E+03  0.66503989711E+03  0.50400001928E-02 0. -1.
    10030    2    1    2    0    0  0.00000000000E+00  0.00000000000E+00 -0.11872738897E+03  0.12113524053E+04  0.12055199944E+04 0.  0.
        3    1    3    3  502    0  0.20857698132E+03  0.16843498303E+03 -0.60183193960E+03  0.65884474224E+03  0.10100000352E+00 0. -1.
       -3    1    3    3    0  502 -0.20857698132E+03 -0.16843498303E+03  0.48310455064E+03  0.55250766302E+03  0.10100000352E+00 0.  1.
</event>
<event>
 5   0  0.2579442E-03  0.1199572E+04  0.7818609E-02  0.9113232E-01
        2   -1    0    0  501    0  0.00000000000E+00  0.00000000000E+00  0.36885679040E+03  0.36885679041E+03  0.25500000920E-02 0.  1.
       -2   -1    0    0    0  501  0.00000000000E+00  0.00000000000E+00 -0.97529170003E+03  0.97529170003E+03  0.25500000920E-02 0. -1.
    10030    2    1    2    0    0  0.00000000000E+00  0.00000000000E+00 -0.60643490963E+03  0.13441484904E+04  0.11995715338E+04 0.  0.
        4    1    3    3  502    0  0.14402535221E+03  0.35227113679E+03 -0.82266588109E+03  0.90643202763E+03  0.12699999809E+01 0. -1.
       -4    1    3    3    0  502 -0.14402535221E+03 -0.35227113679E+03  0.21623097147E+03  0.43771646281E+03  0.12699999809E+01 0.  1.
</event>
<event>
 5   0  0.9678750E-04  0.1192331E+04  0.7818609E-02  0.9119596E-01
        4   -1    0    0  501    0  0.00000000000E+00  0.00000000000E+00  0.62181097628E+03  0.62181227322E+03  0.12699999809E+01 0. -1.
       -4   -1    0    0    0  501  0.00000000000E+00  0.00000000000E+00 -0.57157538198E+03  0.57157679290E+03  0.12699999809E+01 0.  1.
    10030    2    1    2    0    0  0.00000000000E+00  0.00000000000E+00  0.50235594302E+02  0.11933890661E+04  0.11923312661E+04 0.  0.
        2    1    3    3  502    0  0.92896401817E+02 -0.25314830749E+03  0.55728457791E+03  0.61909604088E+03  0.25500000920E-02 0. -1.
       -2    1    3    3    0  502 -0.92896401817E+02  0.25314830749E+03 -0.50704898361E+03  0.57429302524E+03  0.25500000920E-02 0.  1.
</event>
<event>
 5   0  0.1423024E-03  0.1195640E+04  0.7818609E-02  0.9116681E-01
        1   -1    0    0  501    0  0.00000000000E+00  0.00000000000E+00  0.51334996769E+03  0.51334996772E+03  0.50400001928E-02 0. -1.
       -1   -1    0    0    0  501  0.00000000000E+00  0.00000000000E+00 -0.69618917222E+03  0.69618917224E+03  0.50400001928E-02 0.  1.
    10030    2    1    2    0    0  0.00000000000E+00  0.00000000000E+00 -0.18283920453E+03  0.12095391400E+04  0.11956398941E+04 0.  0.
        2    1    3    3  502    0  0.29804474570E+02 -0.48322762095E+03 -0.44619785262E+03  0.65839939553E+03  0.25500000920E-02 0.  1.
       -2    1    3    3    0  502 -0.29804474570E+02  0.48322762095E+03  0.26335864809E+03  0.55113974442E+03  0.25500000920E-02 0. -1.
</event>
<event>
 5   0  0.1455076E-03  0.1154302E+04  0.7818609E-02  0.9153824E-01
        1   -1    0    0  501    0  0.00000000000E+00  0.00000000000E+00  0.10654561935E+04  0.10654561935E+04  0.50400001928E-02 0.  1.
       -1   -1    0    0    0  501  0.00000000000E+00  0.00000000000E+00 -0.31263901628E+03  0.31263901633E+03  0.50400001928E-02 0. -1.
    10030    2    1    2    0    0  0.00000000000E+00  0.00000000000E+00  0.75281717719E+03  0.13780952098E+04  0.11543018258E+04 0.  0.
        4    1    3    3  502    0 -0.63976788312E+02  0.35346863374E+03  0.91573014963E+03  0.98366479266E+03  0.12699999809E+01 0.  1.
       -4    1    3    3    0  502  0.63976788312E+02 -0.35346863374E+03 -0.16291297244E+03  0.39443041715E+03  0.12699999809E+01 0. -1.
</event>
<event>
 5   0  0.1403154E-03  0.1209787E+04  0.7818609E-02  0.9104332E-01
        1   -1    0    0  501    0  0.00000000000E+00  0.00000000000E+00  0.19101563318E+04  0.19101563318E+04  0.50400001928E-02 0. -1.
       -1   -1    0    0    0  501  0.00000000000E+00  0.00000000000E+00 -0.19155312683E+03  0.19155312690E+03  0.50400001928E-02 0.  1.
    10030    2    1    2    0    0  0.00000000000E+00  0.00000000000E+00  0.17186032050E+04  0.21017094587E+04  0.12097874494E+04 0.  0.
        3    1    3    3  502    0 -0.56068592763E+02  0.47770513626E+02  0.19023358976E+04  0.19037614311E+04  0.10100000352E+00 0. -1.
       -3    1    3    3    0  502  0.56068592763E+02 -0.47770513626E+02 -0.18373269266E+03  0.19794802757E+03  0.10100000352E+00 0.  1.
</event>
<event>
 5   0  0.1469851E-03  0.1024107E+04  0.7818609E-02  0.9282492E-01
       -1   -1    0    0    0  501  0.00000000000E+00  0.00000000000E+00  0.10012843987E+04  0.10012843988E+04  0.50400001928E-02 0.  1.
        1   -1    0    0  501    0  0.00000000000E+00  0.00000000000E+00 -0.26186261600E+03  0.26186261605E+03  0.50400001928E-02 0. -1.
    10030    2    1    2    0    0  0.00000000000E+00  0.00000000000E+00  0.73942178274E+03  0.12631470148E+04  0.10241073226E+04 0.  0.
        5    1    3    3  502    0 -0.29890848230E+03 -0.34456383848E+03  0.65661219209E+03  0.79951996871E+03  0.46999998093E+01 0.  1.
       -5    1    3    3    0  502  0.29890848230E+03  0.34456383848E+03  0.82809590654E+02  0.46362704610E+03  0.46999998093E+01 0. -1.
</event>
<event>
 5   0  0.2517023E-03  0.1217713E+04  0.7818609E-02  0.9097492E-01
       -2   -1    0    0    0  501  0.00000000000E+00  0.00000000000E+00  0.85434484292E+03  0.85434484292E+03  0.25500000920E-02 0.  1.
        2   -1    0    0  501    0  0.00000000000E+00  0.00000000000E+00 -0.43390719066E+03  0.43390719067E+03  0.25500000920E-02 0. -1.
    10030    2    1    2    0    0  0.00000000000E+00  0.00000000000E+00  0.42043765226E+03  0.12882520336E+04  0.12177132185E+04 0.  0.
        3    1    3    3  502    0 -0.12641594518E+03  0.41362256254E+03  0.66357707457E+03  0.79208532339E+03  0.10100000352E+00 0.  1.
       -3    1    3    3    0  502  0.12641594518E+03 -0.41362256254E+03 -0.24313942231E+03  0.49616671021E+03  0.10100000352E+00 0. -1.
</event>
<event>
 5   0  0.1404833E-03  0.1209979E+04  0.7818609E-02  0.9104167E-01
        1   -1    0    0  501    0  0.00000000000E+00  0.00000000000E+00  0.12561741607E+04  0.12561741607E+04  0.50400001928E-02 0.  1.
       -1   -1    0    0    0  501  0.00000000000E+00  0.00000000000E+00 -0.29137043503E+03  0.29137043508E+03  0.50400001928E-02 0. -1.
    10030    2    1    2    0    0  0.00000000000E+00  0.00000000000E+00  0.96480372568E+03  0.15475445958E+04  0.12099785316E+04 0.  0.
        1    1    3    3  502    0  0.17377355770E+03 -0.12138884773E+03  0.12071244616E+04  0.12255945363E+04  0.50400001928E-02 0.  1.
       -1    1    3    3    0  502 -0.17377355770E+03  0.12138884773E+03 -0.24232073591E+03  0.32195005946E+03  0.50400001928E-02 0. -1.
</event>
<event>
 5   0  0.2580244E-03  0.1181744E+04  0.7818609E-02  0.9128988E-01
       -2   -1    0    0    0  501  0.00000000000E+00  0.00000000000E+00  0.13524478877E+04  0.13524478877E+04  0.25500000920E-02 0.  1.
        2   -1    0    0  501    0  0.00000000000E+00  0.00000000000E+00 -0.25814642609E+03  0.25814642611E+03  0.25500000920E-02 0. -1.
    10030    2    1    2    0    0  0.00000000000E+00  0.00000000000E+00  0.10943014616E+04  0.16105943138E+04  0.11817437771E+04 0.  0.
        1    1    3    3  502    0 -0.29432456207E+03  0.48160023023E+03  0.30888206569E+03  0.64340800440E+03  0.50400001928E-02 0.  1.
       -1    1    3    3    0  502  0.29432456207E+03 -0.48160023023E+03  0.78541939589E+03  0.96718630938E+03  0.50400001928E-02 0. -1.
</event>
<event>
 5   0  0.1403154E-03  0.1190735E+04  0.7818609E-02  0.9121005E-01
        1   -1    0    0  501    0  0.00000000000E+00  0.00000000000E+00  0.87417243851E+03  0.87417243853E+03  0.50400001928E-02 0.  1.
       -1   -1    0    0    0  501  0.00000000000E+00  0.00000000000E+00 -0.40548354797E+03  0.40548354800E+03  0.50400001928E-02 0. -1.
    10030    2    1    2    0    0  0.00000000000E+00  0.00000000000E+00  0.46868889054E+03  0.12796559865E+04  0.11907351375E+04 0.  0.
        3    1    3    3  502    0 -0.13817241977E+03 -0.42836990462E+00 -0.38801407825E+03  0.41188194450E+03  0.10100000352E+00 0. -1.
       -3    1    3    3    0  502  0.13817241977E+03  0.42836990462E+00  0.85670296879E+03  0.86777404203E+03  0.10100000352E+00 0.  1.
</event>
<event>
 5   0  0.1423024E-03  0.1195448E+04  0.7818609E-02  0.9116850E-01
       -1   -1    0    0    0  501  0.00000000000E+00  0.00000000000E+00  0.15609468338E+03  0.15609468347E+03  0.50400001928E-02 0.  1.
        1   -1    0    0  501    0  0.00000000000E+00  0.00000000000E+00 -0.22888289195E+04  0.22888289195E+04  0.50400001928E-02 0. -1.
    10030    2    1    2    0    0  0.00000000000E+00  0.00000000000E+00 -0.21327342361E+04  0.24449236030E+04  0.11954480760E+04 0.  0.
        2    1    3    3  502    0  0.75142194820E+02 -0.20112972962E+03 -0.22072382250E+04  0.22176564431E+04  0.25500000920E-02 0. -1.
       -2    1    3    3    0  502 -0.75142194820E+02  0.20112972962E+03  0.74503988921E+02  0.22726715986E+03  0.25500000920E-02 0.  1.
</event>
<event>
 5   0  0.1469851E-03  0.1194464E+04  0.7818609E-02  0.9117716E-01
       -1   -1    0    0    0  501  0.00000000000E+00  0.00000000000E+00  0.74104217430E+03  0.74104217432E+03  0.50400001928E-02 0.  1.
        1   -1    0    0  501    0  0.00000000000E+00  0.00000000000E+00 -0.48133071578E+03  0.48133071581E+03  0.50400001928E-02 0. -1.
    10030    2    1    2    0    0  0.00000000000E+00  0.00000000000E+00  0.25971145852E+03  0.12223728901E+04  0.11944644996E+04 0.  0.
        5    1    3    3  502    0 -0.52160535122E+03  0.29066887639E+03  0.11943286674E+03  0.60897195156E+03  0.46999998093E+01 0. -1.
       -5    1    3    3    0  502  0.52160535122E+03 -0.29066887639E+03  0.14027859177E+03  0.61340093857E+03  0.46999998093E+01 0.  1.
</event>
<event>
 5   0  0.2499890E-03  0.1066135E+04  0.7818609E-02  0.9238843E-01
       -2   -1    0    0    0  501  0.00000000000E+00  0.00000000000E+00  0.46238484329E+03  0.46238484330E+03  0.25500000920E-02 0. -1.
        2   -1    0    0  501    0  0.00000000000E+00  0.00000000000E+00 -0.61455469843E+03  0.61455469844E+03  0.25500000920E-02 0.  1.
    10030    2    1    2    0    0  0.00000000000E+00  0.00000000000E+00 -0.15216985514E+03  0.10769395417E+04  0.10661346593E+04 0.  0.
        5    1    3    3  502    0  0.39693194115E+03 -0.17128449143E+03 -0.39108718906E+03  0.58297909256E+03  0.46999998093E+01 0.  1.
       -5    1    3    3    0  502 -0.39693194115E+03  0.17128449143E+03  0.23891733392E+03  0.49396044918E+03  0.46999998093E+01 0. -1.
</event>
<event>
 5   0  0.2499890E-03  0.1264714E+04  0.7818609E-02  0.9058025E-01
        2   -1    0    0  501    0  0.00000000000E+00  0.00000000000E+00  0.13678011493E+04  0.13678011493E+04  0.25500000920E-02 0.  1.
       -2   -1    0    0    0  501  0.00000000000E+00  0.00000000000E+00 -0.29234908047E+03  0.29234908049E+03  0.25500000920E-02 0. -1.
    10030    2    1    2    0    0  0.00000000000E+00  0.00000000000E+00  0.10754520688E+04  0.16601502298E+04  0.12647140519E+04 0.  0.
        5    1    3    3  502    0  0.30930050107E+03 -0.35111283480E+02 -0.18478284356E+03  0.36203092611E+03  0.46999998093E+01 0. -1.
       -5    1    3    3    0  502 -0.30930050107E+03  0.35111283480E+02  0.12602349124E+04  0.12981193037E+04  0.46999998093E+01 0.  1.
</event>
<event>
 5   0  0.2499890E-03  0.1149988E+04  0.7818609E-02  0.9157795E-01
        2   -1    0    0  501    0  0.00000000000E+00  0.00000000000E+00  0.65512685908E+03  0.65512685908E+03  0.25500000920E-02 0.  1.
       -2   -1    0    0    0  501  0.00000000000E+00  0.00000000000E+00 -0.50466256636E+03  0.50466256637E+03  0.25500000920E-02 0. -1.
    10030    2    1    2    0    0  0.00000000000E+00  0.00000000000E+00  0.15046429271E+03  0.11597894255E+04  0.11499878295E+04 0.  0.
        5    1    3    3  502    0 -0.28546773796E+03  0.21876363080E+03  0.52766082827E+03  0.63859016221E+03  0.46999998093E+01 0.  1.
       -5    1    3    3    0  502  0.28546773796E+03 -0.21876363080E+03 -0.37719653556E+03  0.52119926325E+03  0.46999998093E+01 0. -1.
</event>
<event>
 5   0  0.1455076E-03  0.1250045E+04  0.7818609E-02  0.9070146E-01
       -1   -1    0    0    0  501  0.00000000000E+00  0.00000000000E+00  0.10750767658E+04  0.10750767658E+04  0.50400001928E-02 0. -1.
        1   -1    0    0  501    0  0.00000000000E+00  0.00000000000E+00 -0.36337211492E+03  0.36337211496E+03  0.50400001928E-02 0.  1.
    10030    2    1    2    0    0  0.00000000000E+00  0.00000000000E+00  0.71170465084E+03  0.14384488807E+04  0.12500446682E+04 0.  0.
        4    1    3    3  502    0  0.15947779401E+03  0.49995413655E+03 -0.34822785011E+02  0.52592922023E+03  0.12699999809E+01 0. -1.
       -4    1    3    3    0  502 -0.15947779401E+03 -0.49995413655E+03  0.74652743585E+03  0.91251966051E+03  0.12699999809E+01 0.  1.
</event>
<event>
 5   0  0.2484507E-03  0.1188230E+04  0.7818609E-02  0.9123221E-01
        2   -1    0    0  501    0  0.00000000000E+00  0.00000000000E+00  0.48160400005E+03  0.48160400006E+03  0.25500000920E-02 0.  1.
       -2   -1    0    0    0  501  0.00000000000E+00  0.00000000000E+00 -0.73291104643E+03  0.73291104644E+03  0.25500000920E-02 0. -1.
    10030    2    1    2    0    0  0.00000000000E+00  0.00000000000E+00 -0.25130704638E+03  0.12145150465E+04  0.11882304350E+04 0.  0.
        2    1    3    3  502    0  0.12711444315E+03  0.24018531180E+03 -0.66566406521E+03  0.71899632362E+03  0.25500000920E-02 0. -1.
       -2    1    3    3    0  502 -0.12711444315E+03 -0.24018531180E+03  0.41435701883E+03  0.49551872288E+03  0.25500000920E-02 0.  1.
</event>
<event>
 5   0  0.2517023E-03  0.1215545E+04  0.7818609E-02  0.9099358E-01
       -2   -1    0    0    0  501  0.00000000000E+00  0.00000000000E+00  0.23098418764E+03  0.23098418765E+03  0.25500000920E-02 0. -1.
        2   -1    0    0  501    0  0.00000000000E+00  0.00000000000E+00 -0.15991888804E+04  0.15991888804E+04  0.25500000920E-02 0.  1.
    10030    2    1    2    0    0  0.00000000000E+00  0.00000000000E+00 -0.13682046928E+04  0.18301730681E+04  0.12155448892E+04 0.  0.
        3    1    3    3  502    0 -0.42109572471E+02  0.62820812746E+02 -0.15920765328E+04  0.15938718164E+04  0.10100000352E+00 0.  1.
       -3    1    3    3    0  502  0.42109572471E+02 -0.62820812746E+02  0.22387184000E+03  0.23630125169E+03  0.10100000352E+00 0. -1.
</event>
<event>
 5   0  0.1404833E-03  0.1223385E+04  0.7818609E-02  0.9092630E-01
       -1   -1    0    0    0  501  0.00000000000E+00  0.00000000000E+00  0.33178882674E+03  0.33178882678E+03  0.50400001928E-02 0.  1.
        1   -1    0    0  501    0  0.00000000000E+00  0.00000000000E+00 -0.11277286368E+04  0.11277286368E+04  0.50400001928E-02 0. -1.
    10030    2    1    2    0    0  0.00000000000E+00  0.00000000000E+00 -0.79593981010E+03  0.14595174636E+04  0.12233850765E+04 0.  0.
        1    1    3    3  502    0 -0.45775660958E+03  0.33839980169E+03 -0.13090430770E+03  0.58411597923E+03  0.50400001928E-02 0.  1.
       -1    1    3    3    0  502  0.45775660958E+03 -0.33839980169E+03 -0.66503550240E+03  0.87540148439E+03  0.50400001928E-02 0. -1.
</event>
<event>
 5   0  0.2517023E-03  0.1205294E+04  0.7818609E-02  0.9108235E-01
        2   -1    0    0  501    0  0.00000000000E+00  0.00000000000E+00  0.19171566096E+04  0.19171566096E+04  0.25500000920E-02 0.  1.
       -2   -1    0    0    0  501  0.00000000000E+00  0.00000000000E+00 -0.18943866825E+03  0.18943866826E+03  0.25500000920E-02 0. -1.
    10030    2    1    2    0    0  0.00000000000E+00  0.00000000000E+00  0.17277179413E+04  0.21065952778E+04  0.12052943125E+04 0.  0.
        3    1    3    3  502    0 -0.17223260289E+03  0.47557909173E+03  0.14364927627E+04  0.15229415647E+04  0.10100000352E+00 0.  1.
       -3    1    3    3    0  502  0.17223260289E+03 -0.47557909173E+03  0.29122517859E+03  0.58365371311E+03  0.10100000352E+00 0. -1.
</event>
<event>
 5   0  0.1455076E-03  0.1204209E+04  0.7818609E-02  0.9109180E-01
        1   -1    0    0  501    0  0.00000000000E+00  0.00000000000E+00  0.71194077775E+03  0.71194077776E+03  0.50400001928E-02 0.  1.
       -1   -1    0    0    0  501  0.00000000000E+00  0.00000000000E+00 -0.50921342115E+03  0.50921342117E+03  0.50400001928E-02 0. -1.
    10030    2    1    2    0    0  0.00000000000E+00  0.00000000000E+00  0.20272735660E+03  0.12211541989E+04  0.12042089505E+04 0.  0.
        4    1    3    3  502    0 -0.23277164454E+03  0.33361515472E+03  0.55150926095E+03  0.68530707553E+03  0.12699999809E+01 0.  1.
       -4    1    3    3    0  502  0.23277164454E+03 -0.33361515472E+03 -0.34878190435E+03  0.53584712341E+03  0.12699999809E+01 0. -1.
</event>
<event>
 5   0  0.2499890E-03  0.1203377E+04  0.7818609E-02  0.9109905E-01
        2   -1    0    0  501    0  0.00000000000E+00  0.00000000000E+00  0.20081933321E+04  0.20081933321E+04  0.25500000920E-02 0. -1.
       -2   -1    0    0    0  501  0.00000000000E+00  0.00000000000E+00 -0.18027613068E+03  0.18027613070E+03  0.25500000920E-02 0.  1.
    10030    2    1    2    0    0  0.00000000000E+00  0.00000000000E+00  0.18279172014E+04  0.21884694628E+04  0.12033774530E+04 0.  0.
        5    1    3    3  502    0 -0.22985045067E+03 -0.76735036860E+02 -0.87576205637E+02  0.25770366188E+03  0.46999998093E+01 0.  1.
       -5    1    3    3    0  502  0.22985045067E+03  0.76735036860E+02  0.19154934071E+04  0.19307658009E+04  0.46999998093E+01 0. -1.
</event>
<event>
 5   0  0.1403154E-03  0.1230927E+04  0.7818609E-02  0.9086209E-01
        1   -1    0    0  501    0  0.00000000000E+00  0.00000000000E+00  0.70245093145E+03  0.70245093146E+03  0.50400001928E-02 0. -1.
       -1   -1    0    0    0  501  0.00000000000E+00  0.00000000000E+00 -0.53924782195E+03  0.53924782198E+03  0.50400001928E-02 0.  1.
    10030    2    1    2    0    0  0.00000000000E+00  0.00000000000E+00  0.16320310949E+03  0.12416987534E+04  0.12309266994E+04 0.  0.
        3    1    3    3  502    0  0.30178385197E+03  0.53256748656E+03  0.17061156508E+02  0.61236648693E+03  0.10100000352E+00 0. -1.
       -3    1    3    3    0  502 -0.30178385197E+03 -0.53256748656E+03  0.14614195298E+03  0.62933226651E+03  0.10100000352E+00 0.  1.
</event>
<event>
 5   0  0.2484507E-03  0.1207401E+04  0.7818609E-02  0.9106403E-01
        2   -1    0    0  501    0  0.00000000000E+00  0.00000000000E+00  0.58969013554E+03  0.58969013554E+03  0.25500000920E-02 0.  1.
       -2   -1    0    0    0  501  0.00000000000E+00  0.00000000000E+00 -0.61804403051E+03  0.61804403052E+03  0.25500000920E-02 0. -1.
    10030    2    1    2    0    0  0.00000000000E+00  0.00000000000E+00 -0.28353894978E+02  0.12077341661E+04  0.12074012889E+04 0.  0.
        2    1    3    3  502    0 -0.13110396162E+03 -0.55580618416E+03  0.18169763367E+03  0.59926854847E+03  0.25500000920E-02 0. -1.
       -2    1    3    3    0  502  0.13110396162E+03  0.55580618416E+03 -0.21005152864E+03  0.60846561759E+03  0.25500000920E-02 0.  1.
</event>
<event>
 5   0  0.1469851E-03  0.1203835E+04  0.7818609E-02  0.9109507E-01
       -1   -1    0    0    0  501  0.00000000000E+00  0.00000000000E+00  0.57306999539E+03  0.57306999541E+03  0.50400001928E-02 0.  1.
        1   -1    0    0  501    0  0.00000000000E+00  0.00000000000E+00 -0.63221694857E+03  0.63221694859E+03  0.50400001928E-02 0. -1.
    10030    2    1    2    0    0  0.00000000000E+00  0.00000000000E+00 -0.59146953184E+02  0.12052869440E+04  0.12038348123E+04 0.  0.
        5    1    3    3  502    0  0.29643486985E+03  0.35559659903E+03  0.35554607698E+03  0.58374452987E+03  0.46999998093E+01 0.  1.
       -5    1    3    3    0  502 -0.29643486985E+03 -0.35559659903E+03 -0.41469303016E+03  0.62154241413E+03  0.46999998093E+01 0. -1.
</event>
<event>
 5   0  0.1423024E-03  0.1199500E+04  0.7818609E-02  0.9113294E-01
        1   -1    0    0  501    0  0.00000000000E+00  0.00000000000E+00  0.38108162518E+03  0.38108162521E+03  0.50400001928E-02 0. -1.
       -1   -1    0    0    0  501  0.00000000000E+00  0.00000000000E+00 -0.94389259032E+03  0.94389259033E+03  0.50400001928E-02 0.  1.
    10030    2    1    2    0    0  0.00000000000E+00  0.00000000000E+00 -0.56281096513E+03  0.13249742155E+04  0.11995000998E+04 0.  0.
        2    1    3    3  502    0 -0.47337572869E+03  0.31813067843E+03 -0.76506660701E+02  0.57545197732E+03  0.25500000920E-02 0. -1.
       -2    1    3    3    0  502  0.47337572869E+03 -0.31813067843E+03 -0.48630430443E+03  0.74952223822E+03  0.25500000920E-02 0.  1.
</event>
<event>
 5   0  0.1469851E-03  0.1186600E+04  0.7818609E-02  0.9124667E-01
       -1   -1    0    0    0  501  0.00000000000E+00  0.00000000000E+00  0.50053705892E+03  0.50053705894E+03  0.50400001928E-02 0.  1.
        1   -1    0    0  501    0  0.00000000000E+00  0.00000000000E+00 -0.70325389918E+03  0.70325389919E+03  0.50400001928E-02 0. -1.
    10030    2    1    2    0    0  0.00000000000E+00  0.00000000000E+00 -0.20271684026E+03  0.12037909581E+04  0.11865995759E+04 0.  0.
        5    1    3    3  502    0  0.24556649300E+03 -0.53970247579E+03 -0.81046265328E+02  0.59847493847E+03  0.46999998093E+01 0. -1.
       -5    1    3    3    0  502 -0.24556649300E+03  0.53970247579E+03 -0.12167057493E+03  0.60531601966E+03  0.46999998093E+01 0.  1.
</event>
<event>
 5   0  0.2499890E-03  0.1202008E+04  0.7818609E-02  0.9111101E-01
        2   -1    0    0  501    0  0.00000000000E+00  0.00000000000E+00  0.72187936772E+03  0.72187936773E+03  0.25500000920E-02 0. -1.
       -2   -1    0    0    0  501  0.00000000000E+00  0.00000000000E+00 -0.50036836157E+03  0.50036836158E+03  0.25500000920E-02 0.  1.
    10030    2    1    2    0    0  0.00000000000E+00  0.00000000000E+00  0.22151100615E+03  0.12222477293E+04  0.12020076480E+04 0.  0.
        5    1    3    3  502    0  0.76741959976E+02  0.86331251840E+02 -0.48895610019E+03  0.50243663419E+03  0.46999998093E+01 0.  1.
       -5    1    3    3    0  502 -0.76741959976E+02 -0.86331251840E+02  0.71046710634E+03  0.71981109512E+03  0.46999998093E+01 0. -1.
</event>
<event>
 5   0  0.1469851E-03  0.1201952E+04  0.7818609E-02  0.9111150E-01
        1   -1    0    0  501    0  0.00000000000E+00  0.00000000000E+00  0.11767891396E+04  0.11767891396E+04  0.50400001928E-02 0.  1.
       -1   -1    0    0    0  501  0.00000000000E+00  0.00000000000E+00 -0.30691305309E+03  0.30691305313E+03  0.50400001928E-02 0. -1.
    10030    2    1    2    0    0  0.00000000000E+00  0.00000000000E+00  0.86987608650E+03  0.14837021927E+04  0.12019516591E+04 0.  0.
        5    1    3    3  502    0  0.34891665384E+02 -0.72892532670E+02 -0.30015244605E+03  0.31087671270E+03  0.46999998093E+01 0. -1.
       -5    1    3    3    0  502 -0.34891665384E+02  0.72892532670E+02  0.11700285325E+04  0.11728254800E+04  0.46999998093E+01 0.  1.
</event>
<event>
 5   0  0.2580244E-03  0.1204691E+04  0.7818609E-02  0.9108760E-01
        2   -1    0    0  501    0  0.00000000000E+00  0.00000000000E+00  0.21776750547E+04  0.21776750547E+04  0.25500000920E-02 0.  1.
       -2   -1    0    0    0  501  0.00000000000E+00  0.00000000000E+00 -0.16660891337E+03  0.16660891339E+03  0.25500000920E-02 0. -1.
    10030    2    1    2    0    0  0.00000000000E+00  0.00000000000E+00  0.20110661413E+04  0.23442839681E+04  0.12046909555E+04 0.  0.
        1    1    3    3  502    0  0.50304605286E+03 -0.12569716470E+03  0.16020428229E+04  0.16838635084E+04  0.50400001928E-02 0.  1.
       -1    1    3    3    0  502 -0.50304605286E+03  0.12569716470E+03  0.40902331842E+03  0.66042045967E+03  0.50400001928E-02 0. -1.
</event>
<event>
 5   0  0.2499890E-03  0.1205318E+04  0.7818609E-02  0.9108215E-01
       -2   -1    0    0    0  501  0.00000000000E+00  0.00000000000E+00  0.26740059667E+03  0.26740059668E+03  0.25500000920E-02 0.  1.
        2   -1    0    0  501    0  0.00000000000E+00  0.00000000000E+00 -0.13582529231E+04  0.13582529231E+04  0.25500000920E-02 0. -1.
    10030    2    1    2    0    0  0.00000000000E+00  0.00000000000E+00 -0.10908523264E+04  0.16256535198E+04  0.12053176213E+04 0.  0.
        5    1    3    3  502    0 -0.57747950496E+03 -0.17231558044E+03 -0.54467018370E+03  0.81231947959E+03  0.46999998093E+01 0. -1.
       -5    1    3    3    0  502  0.57747950496E+03  0.17231558044E+03 -0.54618214272E+03  0.81333404019E+03  0.46999998093E+01 0.  1.
</event>
<event>
 5   0  0.2499890E-03  0.1182811E+04  0.7818609E-02  0.9128037E-01
        2   -1    0    0  501    0  0.00000000000E+00  0.00000000000E+00  0.42722077501E+03  0.42722077502E+03  0.25500000920E-02 0. -1.
       -2   -1    0    0    0  501  0.00000000000E+00  0.00000000000E+00 -0.81868734344E+03  0.81868734344E+03  0.25500000920E-02 0.  1.
    10030    2    1    2    0    0  0.00000000000E+00  0.00000000000E+00 -0.39146656843E+03  0.12459081185E+04  0.11828106211E+04 0.  0.
        5    1    3    3  502    0  0.14566843316E+02  0.13250234656E+03  0.41117018754E+03  0.43226389843E+03  0.46999998093E+01 0. -1.
       -5    1    3    3    0  502 -0.14566843316E+02 -0.13250234656E+03 -0.80263675597E+03  0.81364422003E+03  0.46999998093E+01 0.  1.
</event>
<event>
 5   0  0.1403154E-03  0.1169549E+04  0.7818609E-02  0.9139936E-01
        1   -1    0    0  501    0  0.00000000000E+00  0.00000000000E+00  0.20375929142E+04  0.20375929142E+04  0.50400001928E-02 0.  1.
       -1   -1    0    0    0  501  0.00000000000E+00  0.00000000000E+00 -0.16782599654E+03  0.16782599662E+03  0.50400001928E-02 0. -1.
    10030    2    1    2    0    0  0.00000000000E+00  0.00000000000E+00  0.18697669176E+04  0.22054189108E+04  0.11695487360E+04 0.  0.
        3    1    3    3  502    0 -0.53779773120E+03 -0.22238337580E+03  0.10428846656E+04  0.11942735037E+04  0.10100000352E+00 0.  1.
       -3    1    3    3    0  502  0.53779773120E+03  0.22238337580E+03  0.82688225201E+03  0.10111454072E+04  0.10100000352E+00 0. -1.
</event>
<event>
 5   0  0.1469851E-03  0.1194410E+04  0.7818609E-02  0.9117763E-01
       -1   -1    0    0    0  501  0.00000000000E+00  0.00000000000E+00  0.54528876830E+03  0.54528876833E+03  0.50400001928E-02 0.  1.
        1   -1    0    0  501    0  0.00000000000E+00  0.00000000000E+00 -0.65406453953E+03  0.65406453955E+03  0.50400001928E-02 0. -1.
    10030    2    1    2    0    0  0.00000000000E+00  0.00000000000E+00 -0.10877577123E+03  0.11993533079E+04  0.11944103938E+04 0.  0.
        5    1    3    3  502    0  0.10342317395E+03 -0.97420843325E+02 -0.63682690617E+03  0.65250116631E+03  0.46999998093E+01 0. -1.
       -5    1    3    3    0  502 -0.10342317395E+03  0.97420843325E+02  0.52805113494E+03  0.54685214156E+03  0.46999998093E+01 0.  1.
</event>
<event>
 5   0  0.2499890E-03  0.1192057E+04  0.7818609E-02  0.9119838E-01
        2   -1    0    0  501    0  0.00000000000E+00  0.00000000000E+00  0.97696950309E+03  0.97696950309E+03  0.25500000920E-02 0.  1.
       -2   -1    0    0    0  501  0.00000000000E+00  0.00000000000E+00 -0.36362445770E+03  0.36362445771E+03  0.25500000920E-02 0. -1.
    10030    2    1    2    0    0  0.00000000000E+00  0.00000000000E+00  0.61334504538E+03  0.13405939608E+04  0.11920570553E+04 0.  0.
        5    1    3    3  502    0 -0.27402581277E+03  0.39825989542E+02  0.90021675864E+03  0.94185378804E+03  0.46999998093E+01 0.  1.
       -5    1    3    3    0  502  0.27402581277E+03 -0.39825989542E+02 -0.28687171326E+03  0.39874017276E+03  0.46999998093E+01 0. -1.
</event>
<event>
 5   0  0.1455076E-03  0.1237906E+04  0.7818609E-02  0.9080310E-01
        1   -1    0    0  501    0  0.00000000000E+00  0.00000000000E+00  0.26816595851E+03  0.26816595856E+03  0.50400001928E-02 0.  1.
       -1   -1    0    0    0  501  0.00000000000E+00  0.00000000000E+00 -0.14286032255E+04  0.14286032255E+04  0.50400001928E-02 0. -1.
    10030    2    1    2    0    0  0.00000000000E+00  0.00000000000E+00 -0.11604372669E+04  0.16967691840E+04  0.12379058984E+04 0.  0.
        4    1    3    3  502    0 -0.22949022451E+03  0.56703662224E+03 -0.70956324779E+03  0.93684465608E+03  0.12699999809E+01 0. -1.
       -4    1    3    3    0  502  0.22949022451E+03 -0.56703662224E+03 -0.45087401916E+03  0.75992452794E+03  0.12699999809E+01 0.  1.
</event>
<event>
 5   0  0.2580244E-03  0.1223828E+04  0.7818609E-02  0.9092252E-01
       -2   -1    0    0    0  501  0.00000000000E+00  0.00000000000E+00  0.13273881907E+03  0.13273881909E+03  0.25500000920E-02 0.  1.
        2   -1    0    0  501    0  0.00000000000E+00  0.00000000000E+00 -0.28208691978E+04  0.28208691978E+04  0.25500000920E-02 0. -1.
    10030    2    1    2    0    0  0.00000000000E+00  0.00000000000E+00 -0.26881303787E+04  0.29536080168E+04  0.12238281678E+04 0.  0.
        1    1    3    3  502    0  0.14012641177E+03 -0.16394988643E+03 -0.27260998289E+04  0.27346179355E+04  0.50400001928E-02 0. -1.
       -1    1    3    3    0  502 -0.14012641177E+03  0.16394988643E+03  0.37969450166E+02  0.21899008130E+03  0.50400001928E-02 0.  1.
</event>
<event>
 5   0  0.1469851E-03  0.1200611E+04  0.7818609E-02  0.9112322E-01
       -1   -1    0    0    0  501  0.00000000000E+00  0.00000000000E+00  0.44047857511E+03  0.44047857514E+03  0.50400001928E-02 0. -1.
        1   -1    0    0  501    0  0.00000000000E+00  0.00000000000E+00 -0.81812535816E+03  0.81812535817E+03  0.50400001928E-02 0.  1.
    10030    2    1    2    0    0  0.00000000000E+00  0.00000000000E+00 -0.37764678305E+03  0.12586039333E+04  0.12006109979E+04 0.  0.
        5    1    3    3  502    0 -0.96229475124E+02  0.44379435986E+02 -0.80822309685E+03  0.81515416364E+03  0.46999998093E+01 0.  1.
       -5    1    3    3    0  502  0.96229475124E+02 -0.44379435986E+02  0.43057631380E+03  0.44344976968E+03  0.46999998093E+01 0. -1.
</event>
<event>
 5   0  0.1404833E-03  0.1198228E+04  0.7818609E-02  0.9114409E-01
        1   -1    0    0  501    0  0.00000000000E+00  0.00000000000E+00  0.78806292170E+03  0.78806292172E+03  0.50400001928E-02 0.  1.
       -1   -1    0    0    0  501  0.00000000000E+00  0.00000000000E+00 -0.45546827773E+03  0.45546827776E+03  0.50400001928E-02 0. -1.
    10030    2    1    2    0    0  0.00000000000E+00  0.00000000000E+00  0.33259464397E+03  0.12435311995E+04  0.11982281281E+04 0.  0.
        1    1    3    3  502    0 -0.22538704208E+03 -0.25156739436E+03  0.67983128482E+03  0.75911530645E+03  0.50400001928E-02 0.  1.
       -1    1    3    3    0  502  0.22538704208E+03  0.25156739436E+03 -0.34723664085E+03  0.48441589303E+03  0.50400001928E-02 0. -1.
</event>
<event>
 5   0  0.1404833E-03  0.1200908E+04  0.7818609E-02  0.9112062E-01
       -1   -1    0    0    0  501  0.00000000000E+00  0.00000000000E+00  0.34865557002E+03  0.34865557006E+03  0.50400001928E-02 0.  1.
        1   -1    0    0  501    0  0.00000000000E+00  0.00000000000E+00 -0.10341011721E+04  0.10341011721E+04  0.50400001928E-02 0. -1.
    10030    2    1    2    0    0  0.00000000000E+00  0.00000000000E+00 -0.68544560205E+03  0.13827567421E+04  0.12009082124E+04 0.  0.
        1    1    3    3  502    0 -0.34408817237E+03 -0.21276476627E+03 -0.85362332538E+03  0.94463659562E+03  0.50400001928E-02 0. -1.
       -1    1    3    3    0  502  0.34408817237E+03  0.21276476627E+03  0.16817772333E+03  0.43812014652E+03  0.50400001928E-02 0.  1.
</event>
<event>
 5   0  0.1455076E-03  0.1205564E+04  0.7818609E-02  0.9108000E-01
       -1   -1    0    0    0  501  0.00000000000E+00  0.00000000000E+00  0.63432214141E+03  0.63432214143E+03  0.50400001928E-02 0.  1.
        1   -1    0    0  501    0  0.00000000000E+00  0.00000000000E+00 -0.57281028931E+03  0.57281028933E+03  0.50400001928E-02 0. -1.
    10030    2    1    2    0    0  0.00000000000E+00  0.00000000000E+00  0.61511852097E+02  0.12071324308E+04  0.12055641822E+04 0.  0.
        4    1    3    3  502    0 -0.55644615467E+03 -0.12531748516E+01 -0.20130133463E+03  0.59174127262E+03  0.12699999809E+01 0. -1.
       -4    1    3    3    0  502  0.55644615467E+03  0.12531748516E+01  0.26281318673E+03  0.61539115814E+03  0.12699999809E+01 0.  1.
</event>
<event>
 5   0  0.2579442E-03  0.1204603E+04  0.7818609E-02  0.9108837E-01
       -2   -1    0    0    0  501  0.00000000000E+00  0.00000000000E+00  0.27601217787E+03  0.27601217788E+03  0.25500000920E-02 0. -1.
        2   -1    0    0  501    0  0.00000000000E+00  0.00000000000E+00 -0.13143165134E+04  0.13143165134E+04  0.25500000920E-02 0.  1.
    10030    2    1    2    0    0  0.00000000000E+00  0.00000000000E+00 -0.10383043355E+04  0.15903286913E+04  0.12046034423E+04 0.  0.
        4    1    3    3  502    0 -0.44827123352E+03 -0.23627722493E+03 -0.94896440235E+03  0.10757830058E+04  0.12699999809E+01 0.  1.
       -4    1    3    3    0  502  0.44827123352E+03  0.23627722493E+03 -0.89339933147E+02  0.51454568542E+03  0.12699999809E+01 0. -1.
</event>
<event>
 5   0  0.2517023E-03  0.1211774E+04  0.7818609E-02  0.9102612E-01
       -2   -1    0    0    0  501  0.00000000000E+00  0.00000000000E+00  0.42911442277E+03  0.42911442278E+03  0.25500000920E-02 0. -1.
        2   -1    0    0  501    0  0.00000000000E+00  0.00000000000E+00 -0.85548114470E+03  0.85548114471E+03  0.25500000920E-02 0.  1.
    10030    2    1    2    0    0  0.00000000000E+00  0.00000000000E+00 -0.42636672193E+03  0.12845955675E+04  0.12117743975E+04 0.  0.
        3    1    3    3  502    0 -0.20233168307E+03  0.56744115810E+03 -0.28165357377E+03  0.66502355123E+03  0.10100000352E+00 0.  1.
       -3    1    3    3    0  502  0.20233168307E+03 -0.56744115810E+03 -0.14471314816E+03  0.61957201625E+03  0.10100000352E+00 0. -1.
</event>
<event>
 5   0  0.1455076E-03  0.1197955E+04  0.7818609E-02  0.9114649E-01
       -1   -1    0    0    0  501  0.00000000000E+00  0.00000000000E+00  0.21365531101E+03  0.21365531107E+03  0.50400001928E-02 0.  1.
        1   -1    0    0  501    0  0.00000000000E+00  0.00000000000E+00 -0.16792180940E+04  0.16792180940E+04  0.50400001928E-02 0. -1.
    10030    2    1    2    0    0  0.00000000000E+00  0.00000000000E+00 -0.14655627830E+04  0.18928734050E+04  0.11979546973E+04 0.  0.
        4    1    3    3  502    0  0.57402668192E+03 -0.92041452112E+02 -0.96063195059E+03  0.11228506659E+04  0.12699999809E+01 0. -1.
       -4    1    3    3    0  502 -0.57402668192E+03  0.92041452112E+02 -0.50493083237E+03  0.77002273917E+03  0.12699999809E+01 0.  1.
</event>
<event>
 5   0  0.2499890E-03  0.1199488E+04  0.7818609E-02  0.9113305E-01
       -2   -1    0    0    0  501  0.00000000000E+00  0.00000000000E+00  0.81487128290E+03  0.81487128291E+03  0.25500000920E-02 0. -1.
        2   -1    0    0  501    0  0.00000000000E+00  0.00000000000E+00 -0.44141053061E+03  0.44141053061E+03  0.25500000920E-02 0.  1.
    10030    2    1    2    0    0  0.00000000000E+00  0.00000000000E+00  0.37346075230E+03  0.12562818135E+04  0.11994878330E+04 0.  0.
        5    1    3    3  502    0 -0.33349672619E+02  0.11221745777E+03 -0.42930798695E+03  0.44500831020E+03  0.46999998093E+01 0.  1.
       -5    1    3    3    0  502  0.33349672619E+02 -0.11221745777E+03  0.80276873924E+03  0.81127350332E+03  0.46999998093E+01 0. -1.
</event>
<event>
 5   0  0.2517023E-03  0.1205722E+04  0.7818609E-02  0.9107863E-01
       -2   -1    0    0    0  501  0.00000000000E+00  0.00000000000E+00  0.33017840130E+03  0.33017840131E+03  0.25500000920E-02 0.  1.
        2   -1    0    0  501    0  0.00000000000E+00  0.00000000000E+00 -0.11007429931E+04  0.11007429931E+04  0.25500000920E-02 0. -1.
    10030    2    1    2    0    0  0.00000000000E+00  0.00000000000E+00 -0.77056459180E+03  0.14309213944E+04  0.12057222926E+04 0.  0.
        3    1    3    3  502    0 -0.52075895574E+02  0.43675537777E+03  0.10400082667E+03  0.45197714661E+03  0.10100000352E+00 0.  1.
       -3    1    3    3    0  502  0.52075895574E+02 -0.43675537777E+03 -0.87456541847E+03  0.97894424779E+03  0.10100000352E+00 0. -1.
</event>
<event>
 5   0  0.2579442E-03  0.1184284E+04  0.7818609E-02  0.9126725E-01
       -2   -1    0    0    0  501  0.00000000000E+00  0.00000000000E+00  0.11323481235E+04  0.11323481235E+04  0.25500000920E-02 0. -1.
        2   -1    0    0  501    0  0.00000000000E+00  0.00000000000E+00 -0.30965026423E+03  0.30965026424E+03  0.25500000920E-02 0.  1.
    10030    2    1    2    0    0  0.00000000000E+00  0.00000000000E+00  0.82269785926E+03  0.14419983877E+04  0.11842835736E+04 0.  0.
        4    1    3    3  502    0 -0.56070867260E+03 -0.18852784854E+03  0.37928806991E+03  0.70270763343E+03  0.12699999809E+01 0.  1.
       -4    1    3    3    0  502  0.56070867260E+03  0.18852784854E+03  0.44340978934E+03  0.73929075430E+03  0.12699999809E+01 0. -1.
</event>
<event>
 5   0  0.2484507E-03  0.1223250E+04  0.7818609E-02  0.9092745E-01
       -2   -1    0    0    0  501  0.00000000000E+00  0.00000000000E+00  0.19536553186E+03  0.19536553188E+03  0.25500000920E-02 0. -1.
        2   -1    0    0  501    0  0.00000000000E+00  0.00000000000E+00 -0.19147974419E+04  0.19147974419E+04  0.25500000920E-02 0.  1.
    10030    2    1    2    0    0  0.00000000000E+00  0.00000000000E+00 -0.17194319100E+04  0.21101629737E+04  0.12232504578E+04 0.  0.
        2    1    3    3  502    0 -0.13288410747E+03 -0.31744542204E+03  0.12508580830E+02  0.34436353842E+03  0.25500000920E-02 0. -1.
       -2    1    3    3    0  502  0.13288410747E+03  0.31744542204E+03 -0.17319404908E+04  0.17657994353E+04  0.25500000920E-02 0.  1.
</event>
<event>
 5   0  0.2484507E-03  0.1197748E+04  0.7818609E-02  0.9114830E-01
        2   -1    0    0  501    0  0.00000000000E+00  0.00000000000E+00  0.20127547618E+04  0.20127547618E+04  0.25500000920E-02 0.  1.
       -2   -1    0    0    0  501  0.00000000000E+00  0.00000000000E+00 -0.17818860767E+03  0.17818860769E+03  0.25500000920E-02 0. -1.
    10030    2    1    2    0    0  0.00000000000E+00  0.00000000000E+00  0.18345661541E+04  0.21909433695E+04  0.11977478342E+04 0.  0.
        2    1    3    3  502    0  0.13533600130E+03  0.82932487654E+02 -0.13901197667E+03  0.21099279708E+03  0.25500000920E-02 0. -1.
       -2    1    3    3    0  502 -0.13533600130E+03 -0.82932487654E+02  0.19735781308E+04  0.19799505724E+04  0.25500000920E-02 0.  1.
</event>
<event>
 5   0  0.2484507E-03  0.1202536E+04  0.7818609E-02  0.9110639E-01
        2   -1    0    0  501    0  0.00000000000E+00  0.00000000000E+00  0.18979497462E+04  0.18979497462E+04  0.25500000920E-02 0. -1.
       -2   -1    0    0    0  501  0.00000000000E+00  0.00000000000E+00 -0.19048104231E+03  0.19048104233E+03  0.25500000920E-02 0.  1.
    10030    2    1    2    0    0  0.00000000000E+00  0.00000000000E+00  0.17074687039E+04  0.20884307886E+04  0.12025363960E+04 0.  0.
        2    1    3    3  502    0 -0.55857135835E+03  0.21238222592E+03  0.73833571713E+03  0.94986725570E+03  0.25500000920E-02 0.  1.
       -2    1    3    3    0  502  0.55857135835E+03 -0.21238222592E+03  0.96913298681E+03  0.11385635329E+04  0.25500000920E-02 0. -1.
</event>
<event>
 5   0  0.2517023E-03  0.1202322E+04  0.7818609E-02  0.9110827E-01
        2   -1    0    0  501    0  0.00000000000E+00  0.00000000000E+00  0.13634361974E+04  0.13634361975E+04  0.25500000920E-02 0. -1.
       -2   -1    0    0    0  501  0.00000000000E+00  0.00000000000E+00 -0.26506144024E+03  0.26506144025E+03  0.25500000920E-02 0.  1.
    10030    2    1    2    0    0  0.00000000000E+00  0.00000000000E+00  0.10983747572E+04  0.16284976377E+04  0.12023216910E+04 0.  0.
        3    1    3    3  502    0 -0.15794602883E+02 -0.74492868877E+02 -0.25850260652E+03  0.26948518470E+03  0.10100000352E+00 0.  1.
       -3    1    3    3    0  502  0.15794602883E+02  0.74492868877E+02  0.13568773637E+04  0.13590124530E+04  0.10100000352E+00 0. -1.
</event>
<event>
 5   0  0.2579442E-03  0.1201708E+04  0.7818609E-02  0.9111363E-01
        2   -1    0    0  501    0  0.00000000000E+00  0.00000000000E+00  0.21118077823E+04  0.21118077823E+04  0.25500000920E-02 0. -1.
       -2   -1    0    0    0  501  0.00000000000E+00  0.00000000000E+00 -0.17095564173E+03  0.17095564175E+03  0.25500000920E-02 0.  1.
    10030    2    1    2    0    0  0.00000000000E+00  0.00000000000E+00  0.19408521406E+04  0.22827634241E+04  0.12017078757E+04 0.  0.
        4    1    3    3  502    0 -0.49618357768E+03 -0.24923397999E+03  0.53431132560E+03  0.77058803851E+03  0.12699999809E+01 0.  1.
       -4    1    3    3    0  502  0.49618357768E+03  0.24923397999E+03  0.14065408150E+04  0.15121753856E+04  0.12699999809E+01 0. -1.
</event>
<event>
 5   0  0.2580244E-03  0.1207190E+04  0.7818609E-02  0.9106587E-01
        2   -1    0    0  501    0  0.00000000000E+00  0.00000000000E+00  0.47269572749E+03  0.47269572750E+03  0.25500000920E-02 0.  1.
       -2   -1    0    0    0  501  0.00000000000E+00  0.00000000000E+00 -0.77074254175E+03  0.77074254176E+03  0.25500000920E-02 0. -1.
    10030    2    1    2    0    0  0.00000000000E+00  0.00000000000E+00 -0.29804681426E+03  0.12434382693E+04  0.12071896396E+04 0.  0.
        1    1    3    3  502    0  0.58448497752E+03  0.11815384946E+03 -0.24533886444E+03  0.64480553620E+03  0.50400001928E-02 0. -1.
       -1    1    3    3    0  502 -0.58448497752E+03 -0.11815384946E+03 -0.52707949820E+02  0.59863273306E+03  0.50400001928E-02 0.  1.
</event>
<event>
 5   0  0.1404833E-03  0.1198834E+04  0.7818609E-02  0.9113878E-01
       -1   -1    0    0    0  501  0.00000000000E+00  0.00000000000E+00  0.36283770897E+03  0.36283770900E+03  0.50400001928E-02 0. -1.
        1   -1    0    0  501    0  0.00000000000E+00  0.00000000000E+00 -0.99025202682E+03  0.99025202683E+03  0.50400001928E-02 0.  1.
    10030    2    1    2    0    0  0.00000000000E+00  0.00000000000E+00 -0.62741431785E+03  0.13530897358E+04  0.11988340615E+04 0.  0.
        1    1    3    3  502    0  0.19395198343E+03  0.26943471080E+03  0.24959864558E+03  0.41534554188E+03  0.50400001928E-02 0. -1.
       -1    1    3    3    0  502 -0.19395198343E+03 -0.26943471080E+03 -0.87701296342E+03  0.93774419396E+03  0.50400001928E-02 0.  1.
</event>
<event>
 5   0  0.1403154E-03  0.1206933E+04  0.7818609E-02  0.9106810E-01
        1   -1    0    0  501    0  0.00000000000E+00  0.00000000000E+00  0.69629297634E+03  0.69629297636E+03  0.50400001928E-02 0. -1.
       -1   -1    0    0    0  501  0.00000000000E+00  0.00000000000E+00 -0.52301535508E+03  0.52301535511E+03  0.50400001928E-02 0.  1.
    10030    2    1    2    0    0  0.00000000000E+00  0.00000000000E+00  0.17327762126E+03  0.12193083315E+04  0.12069331685E+04 0.  0.
        3    1    3    3  502    0  0.30628641127E+03  0.86332616918E+02  0.60464097762E+03  0.68326818197E+03  0.10100000352E+00 0. -1.
       -3    1    3    3    0  502 -0.30628641127E+03 -0.86332616918E+02 -0.43136335635E+03  0.53604014950E+03  0.10100000352E+00 0.  1.
</event>
<event>
 5   0  0.1404833E-03  0.1217979E+04  0.7818609E-02  0.9097264E-01
       -1   -1    0    0    0  501  0.00000000000E+00  0.00000000000E+00  0.10345377804E+04  0.10345377804E+04  0.50400001928E-02 0. -1.
        1   -1    0    0  501    0  0.00000000000E+00  0.00000000000E+00 -0.35848662194E+03  0.35848662198E+03  0.50400001928E-02 0.  1.
    10030    2    1    2    0    0  0.00000000000E+00  0.00000000000E+00  0.67605115845E+03  0.13930244024E+04  0.12179785781E+04 0.  0.
        1    1    3    3  502    0  0.27056888096E+03  0.46137833984E+03  0.49885100234E+01  0.53488538686E+03  0.50400001928E-02 0.  1.
       -1    1    3    3    0  502 -0.27056888096E+03 -0.46137833984E+03  0.67106264843E+03  0.85813901552E+03  0.50400001928E-02 0. -1.
</event>
<event>
 5   0  0.2579442E-03  0.1197630E+04  0.7818609E-02  0.9114933E-01
       -2   -1    0    0    0  501  0.00000000000E+00  0.00000000000E+00  0.12291944508E+03  0.12291944511E+03  0.25500000920E-02 0.  1.
        2   -1    0    0  501    0  0.00000000000E+00  0.00000000000E+00 -0.29171909903E+04  0.29171909903E+04  0.25500000920E-02 0. -1.
    10030    2    1    2    0    0  0.00000000000E+00  0.00000000000E+00 -0.27942715452E+04  0.30401104354E+04  0.11976301562E+04 0.  0.
        4    1    3    3  502    0 -0.33480877522E+03  0.18123981975E+03 -0.22385783296E+03  0.44165453752E+03  0.12699999809E+01 0.  1.
       -4    1    3    3    0  502  0.33480877522E+03 -0.18123981975E+03 -0.25704137123E+04  0.25984558979E+04  0.12699999809E+01 0. -1.
</event>
<event>
 5   0  0.2484507E-03  0.1199610E+04  0.7818609E-02  0.9113198E-01
        2   -1    0    0  501    0  0.00000000000E+00  0.00000000000E+00  0.13001687694E+04  0.13001687694E+04  0.25500000920E-02 0. -1.
       -2   -1    0    0    0  501  0.00000000000E+00  0.00000000000E+00 -0.27670719818E+03  0.27670719819E+03  0.25500000920E-02 0.  1.
    10030    2    1    2    0    0  0.00000000000E+00  0.00000000000E+00  0.10234615712E+04  0.15768759676E+04  0.11996100322E+04 0.  0.
        2    1    3    3  502    0 -0.26105934753E+03 -0.27297130125E+03  0.11242054104E+04  0.11859608421E+04  0.25500000920E-02 0. -1.
       -2    1    3    3    0  502  0.26105934753E+03  0.27297130125E+03 -0.10074383913E+03  0.39091512553E+03  0.25500000920E-02 0.  1.
</event>
<event>
 5   0  0.2484507E-03  0.1188761E+04  0.7818609E-02  0.9122751E-01
        2   -1    0    0  501    0  0.00000000000E+00  0.00000000000E+00  0.18317732459E+04  0.18317732459E+04  0.25500000920E-02 0. -1.
       -2   -1    0    0    0  501  0.00000000000E+00  0.00000000000E+00 -0.19286687048E+03  0.19286687049E+03  0.25500000920E-02 0.  1.
    10030    2    1    2    0    0  0.00000000000E+00  0.00000000000E+00  0.16389063755E+04  0.20246401164E+04  0.11887613274E+04 0.  0.
        2    1    3    3  502    0  0.41294926075E+02  0.41717648247E+03  0.15370982450E+04  0.15932396251E+04  0.25500000920E-02 0. -1.
       -2    1    3    3    0  502 -0.41294926075E+02 -0.41717648247E+03  0.10180813050E+03  0.43140049129E+03  0.25500000920E-02 0.  1.
</event>
<event>
 5   0  0.2580244E-03  0.1211333E+04  0.7818609E-02  0.9102994E-01
        2   -1    0    0  501    0  0.00000000000E+00  0.00000000000E+00  0.12078300087E+04  0.12078300087E+04  0.25500000920E-02 0.  1.
       -2   -1    0    0    0  501  0.00000000000E+00  0.00000000000E+00 -0.30371155782E+03  0.30371155783E+03  0.25500000920E-02 0. -1.
    10030    2    1    2    0    0  0.00000000000E+00  0.00000000000E+00  0.90411845088E+03  0.15115415665E+04  0.12113330401E+04 0.  0.
        1    1    3    3  502    0 -0.48758487994E+03  0.33897504614E+03  0.30342120150E+03  0.66686394609E+03  0.50400001928E-02 0.  1.
       -1    1    3    3    0  502  0.48758487994E+03 -0.33897504614E+03  0.60069724938E+03  0.84467762045E+03  0.50400001928E-02 0. -1.
</event>
<event>
 5   0  0.2499890E-03  0.1190847E+04  0.7818609E-02  0.9120906E-01
        2   -1    0    0  501    0  0.00000000000E+00  0.00000000000E+00  0.16414617880E+04  0.16414617880E+04  0.25500000920E-02 0. -1.
       -2   -1    0    0    0  501  0.00000000000E+00  0.00000000000E+00 -0.21598389368E+03  0.21598389370E+03  0.25500000920E-02 0.  1.
    10030    2    1    2    0    0  0.00000000000E+00  0.00000000000E+00  0.14254778943E+04  0.18574456817E+04  0.11908472754E+04 0.  0.
        5    1    3    3  502    0  0.38644229689E+02 -0.47703987845E+03  0.12651849582E+04  0.13526919422E+04  0.46999998093E+01 0. -1.
       -5    1    3    3    0  502 -0.38644229689E+02  0.47703987845E+03  0.16029293610E+03  0.50475373944E+03  0.46999998093E+01 0.  1.
</event>
<event>
 5   0  0.1423024E-03  0.1194338E+04  0.7818609E-02  0.9117827E-01
        1   -1    0    0  501    0  0.00000000000E+00  0.00000000000E+00  0.74839192555E+03  0.74839192557E+03  0.50400001928E-02 0.  1.
       -1   -1    0    0    0  501  0.00000000000E+00  0.00000000000E+00 -0.47650293307E+03  0.47650293309E+03  0.50400001928E-02 0. -1.
    10030    2    1    2    0    0  0.00000000000E+00  0.00000000000E+00  0.27188899248E+03  0.12248948587E+04  0.11943382228E+04 0.  0.
        2    1    3    3  502    0 -0.43438846349E+03 -0.39392836344E+03  0.25169503961E+03  0.63814049057E+03  0.25500000920E-02 0.  1.
       -2    1    3    3    0  502  0.43438846349E+03  0.39392836344E+03  0.20193952873E+02  0.58675436809E+03  0.25500000920E-02 0. -1.
</event>
<event>
 5   0  0.1403154E-03  0.1188932E+04  0.7818609E-02  0.9122600E-01
        1   -1    0    0  501    0  0.00000000000E+00  0.00000000000E+00  0.65978778475E+03  0.65978778477E+03  0.50400001928E-02 0.  1.
       -1   -1    0    0    0  501  0.00000000000E+00  0.00000000000E+00 -0.53561100377E+03  0.53561100380E+03  0.50400001928E-02 0. -1.
    10030    2    1    2    0    0  0.00000000000E+00  0.00000000000E+00  0.12417678097E+03  0.11953987886E+04  0.11889316174E+04 0.  0.
        3    1    3    3  502    0  0.11467634161E+03 -0.21178855107E+03 -0.48436083027E+03  0.54093481843E+03  0.10100000352E+00 0. -1.
       -3    1    3    3    0  502 -0.11467634161E+03  0.21178855107E+03  0.60853761125E+03  0.65446397013E+03  0.10100000352E+00 0.  1.
</event>
<event>
 5   0  0.1404833E-03  0.1207957E+04  0.7818609E-02  0.9105920E-01
       -1   -1    0    0    0  501  0.00000000000E+00  0.00000000000E+00  0.43902971313E+03  0.43902971316E+03  0.50400001928E-02 0.  1.
        1   -1    0    0  501    0  0.00000000000E+00  0.00000000000E+00 -0.83090019850E+03  0.83090019852E+03  0.50400001928E-02 0. -1.
    10030    2    1    2    0    0  0.00000000000E+00  0.00000000000E+00 -0.39187048537E+03  0.12699299117E+04  0.12079567473E+04 0.  0.
        1    1    3    3  502    0 -0.22392160220E+03  0.55832336017E+03 -0.25278365515E+03  0.65250703811E+03  0.50400001928E-02 0. -1.
       -1    1    3    3    0  502  0.22392160220E+03 -0.55832336017E+03 -0.13908683022E+03  0.61742287357E+03  0.50400001928E-02 0.  1.
</event>
<event>
 5   0  0.1423024E-03  0.1196033E+04  0.7818609E-02  0.9116336E-01
       -1   -1    0    0    0  501  0.00000000000E+00  0.00000000000E+00  0.23477827058E+03  0.23477827063E+03  0.50400001928E-02 0. -1.
        1   -1    0    0  501    0  0.00000000000E+00  0.00000000000E+00 -0.15232406060E+04  0.15232406060E+04  0.50400001928E-02 0.  1.
    10030    2    1    2    0    0  0.00000000000E+00  0.00000000000E+00 -0.12884623354E+04  0.17580188766E+04  0.11960331019E+04 0.  0.
        2    1    3    3  502    0 -0.21348163190E+03  0.55784653204E+03 -0.68725193723E+03  0.91053961237E+03  0.25500000920E-02 0. -1.
       -2    1    3    3    0  502  0.21348163190E+03 -0.55784653204E+03 -0.60121039820E+03  0.84747926428E+03  0.25500000920E-02 0.  1.
</event>
<event>
 5   0  0.2517023E-03  0.1209437E+04  0.7818609E-02  0.9104636E-01
       -2   -1    0    0    0  501  0.00000000000E+00  0.00000000000E+00  0.28419870350E+03  0.28419870351E+03  0.25500000920E-02 0. -1.
        2   -1    0    0  501    0  0.00000000000E+00  0.00000000000E+00 -0.12867209942E+04  0.12867209942E+04  0.25500000920E-02 0.  1.
    10030    2    1    2    0    0  0.00000000000E+00  0.00000000000E+00 -0.10025222907E+04  0.15709196977E+04  0.12094369571E+04 0.  0.
        3    1    3    3  502    0 -0.72812394842E+02  0.40558608746E+03  0.73607736712E+02  0.41859267586E+03  0.10100000352E+00 0.  1.
       -3    1    3    3    0  502  0.72812394842E+02 -0.40558608746E+03 -0.10761300274E+04  0.11523270218E+04  0.10100000352E+00 0. -1.
</event>
<event>
 5   0  0.1423024E-03  0.1193039E+04  0.7818609E-02  0.9118972E-01
       -1   -1    0    0    0  501  0.00000000000E+00  0.00000000000E+00  0.22630639315E+03  0.22630639321E+03  0.50400001928E-02 0.  1.
        1   -1    0    0  501    0  0.00000000000E+00  0.00000000000E+00 -0.15723609559E+04  0.15723609559E+04  0.50400001928E-02 0. -1.
    10030    2    1    2    0    0  0.00000000000E+00  0.00000000000E+00 -0.13460545627E+04  0.17986673491E+04  0.11930387030E+04 0.  0.
        2    1    3    3  502    0 -0.46032479293E+03  0.35228129054E+03 -0.46070043408E+03  0.74043629883E+03  0.25500000920E-02 0.  1.
       -2    1    3    3    0  502  0.46032479293E+03 -0.35228129054E+03 -0.88535412862E+03  0.10582310503E+04  0.25500000920E-02 0. -1.
</event>
<event>
 5   0  0.2499890E-03  0.1199862E+04  0.7818609E-02  0.9112977E-01
        2   -1    0    0  501    0  0.00000000000E+00  0.00000000000E+00  0.19231475864E+04  0.19231475864E+04  0.25500000920E-02 0. -1.
       -2   -1    0    0    0  501  0.00000000000E+00  0.00000000000E+00 -0.18715010198E+03  0.18715010200E+03  0.25500000920E-02 0.  1.
    10030    2    1    2    0    0  0.00000000000E+00  0.00000000000E+00  0.17359974844E+04  0.21102976884E+04  0.11998621036E+04 0.  0.
        5    1    3    3  502    0 -0.31889917596E+03 -0.39749817882E+03  0.14247132933E+04  0.15131198051E+04  0.46999998093E+01 0. -1.
       -5    1    3    3    0  502  0.31889917596E+03  0.39749817882E+03  0.31128419109E+03  0.59717788323E+03  0.46999998093E+01 0.  1.
</event>
<event>
 5   0  0.2580244E-03  0.1192605E+04  0.7818609E-02  0.9119354E-01
       -2   -1    0    0    0  501  0.00000000000E+00  0.00000000000E+00  0.41278290914E+03  0.41278290915E+03  0.25500000920E-02 0. -1.
        2   -1    0    0  501    0  0.00000000000E+00  0.00000000000E+00 -0.86141348239E+03  0.86141348240E+03  0.25500000920E-02 0.  1.
    10030    2    1    2    0    0  0.00000000000E+00  0.00000000000E+00 -0.44863057325E+03  0.12741963915E+04  0.11926051538E+04 0.  0.
        1    1    3    3  502    0  0.43025959961E+03 -0.39816727886E+03 -0.10768545689E+03  0.59603411199E+03  0.50400001928E-02 0. -1.
       -1    1    3    3    0  502 -0.43025959961E+03  0.39816727886E+03 -0.34094511637E+03  0.67816227955E+03  0.50400001928E-02 0.  1.
</event>
<event>
 5   0  0.1469851E-03  0.1207117E+04  0.7818609E-02  0.9106650E-01
        1   -1    0    0  501    0  0.00000000000E+00  0.00000000000E+00  0.59639004421E+03  0.59639004423E+03  0.50400001928E-02 0. -1.
       -1   -1    0    0    0  501  0.00000000000E+00  0.00000000000E+00 -0.61081269957E+03  0.61081269959E+03  0.50400001928E-02 0.  1.
    10030    2    1    2    0    0  0.00000000000E+00  0.00000000000E+00 -0.14422655359E+02  0.12072027438E+04  0.12071165858E+04 0.  0.
        5    1    3    3  502    0 -0.37772744072E+03  0.28142796101E+03 -0.38457207262E+03  0.60810976455E+03  0.46999998093E+01 0.  1.
       -5    1    3    3    0  502  0.37772744072E+03 -0.28142796101E+03  0.37014941726E+03  0.59909297927E+03  0.46999998093E+01 0. -1.
</event>
<event>
 5   0  0.1403154E-03  0.1204501E+04  0.7818609E-02  0.9108926E-01
        1   -1    0    0  501    0  0.00000000000E+00  0.00000000000E+00  0.99239161342E+03  0.99239161343E+03  0.50400001928E-02 0.  1.
       -1   -1    0    0    0  501  0.00000000000E+00  0.00000000000E+00 -0.36548626540E+03  0.36548626544E+03  0.50400001928E-02 0. -1.
    10030    2    1    2    0    0  0.00000000000E+00  0.00000000000E+00  0.62690534801E+03  0.13578778789E+04  0.12045007341E+04 0.  0.
        3    1    3    3  502    0  0.55109402684E+03  0.15057259886E+03  0.52832423279E+03  0.77814088641E+03  0.10100000352E+00 0.  1.
       -3    1    3    3    0  502 -0.55109402684E+03 -0.15057259886E+03  0.98581115225E+02  0.57973699246E+03  0.10100000352E+00 0. -1.
</event>
<event>
 5   0  0.1455076E-03  0.1195816E+04  0.7818609E-02  0.9116527E-01
       -1   -1    0    0    0  501  0.00000000000E+00  0.00000000000E+00  0.16672937613E+04  0.16672937613E+04  0.50400001928E-02 0. -1.
        1   -1    0    0  501    0  0.00000000000E+00  0.00000000000E+00 -0.21441557735E+03  0.21441557740E+03  0.50400001928E-02 0.  1.
    10030    2    1    2    0    0  0.00000000000E+00  0.00000000000E+00  0.14528781840E+04  0.18817093388E+04  0.11958156288E+04 0.  0.
        4    1    3    3  502    0 -0.17710893834E+03 -0.20495790017E+03  0.15651973157E+04  0.15884645312E+04  0.12699999809E+01 0. -1.
       -4    1    3    3    0  502  0.17710893834E+03  0.20495790017E+03 -0.11231913175E+03  0.29324480752E+03  0.12699999809E+01 0.  1.
</event>
<event>
 5   0  0.1469851E-03  0.1215847E+04  0.7818609E-02  0.9099097E-01
       -1   -1    0    0    0  501  0.00000000000E+00  0.00000000000E+00  0.33866893933E+03  0.33866893937E+03  0.50400001928E-02 0.  1.
        1   -1    0    0  501    0  0.00000000000E+00  0.00000000000E+00 -0.10912460850E+04  0.10912460850E+04  0.50400001928E-02 0. -1.
    10030    2    1    2    0    0  0.00000000000E+00  0.00000000000E+00 -0.75257714569E+03  0.14299150244E+04  0.12158472835E+04 0.  0.
        5    1    3    3  502    0 -0.80393230263E+02  0.19295363706E+03 -0.10476298025E+04  0.10682904430E+04  0.46999998093E+01 0. -1.
       -5    1    3    3    0  502  0.80393230263E+02 -0.19295363706E+03  0.29505265685E+03  0.36162458135E+03  0.46999998093E+01 0.  1.
</event>
<event>
 5   0  0.2484507E-03  0.1119708E+04  0.7818609E-02  0.9186194E-01
       -2   -1    0    0    0  501  0.00000000000E+00  0.00000000000E+00  0.32902919656E+03  0.32902919657E+03  0.25500000920E-02 0. -1.
        2   -1    0    0  501    0  0.00000000000E+00  0.00000000000E+00 -0.95260942068E+03  0.95260942068E+03  0.25500000920E-02 0.  1.
    10030    2    1    2    0    0  0.00000000000E+00  0.00000000000E+00 -0.62358022411E+03  0.12816386173E+04  0.11197076624E+04 0.  0.
        2    1    3    3  502    0  0.39884895569E+03  0.12224524771E+03  0.11558663809E+03  0.43287949935E+03  0.25500000920E-02 0. -1.
       -2    1    3    3    0  502 -0.39884895569E+03 -0.12224524771E+03 -0.73916686220E+03  0.84875911791E+03  0.25500000920E-02 0.  1.
</event>
<event>
 5   0  0.1423024E-03  0.1200850E+04  0.7818609E-02  0.9112112E-01
       -1   -1    0    0    0  501  0.00000000000E+00  0.00000000000E+00  0.26768634736E+03  0.26768634741E+03  0.50400001928E-02 0.  1.
        1   -1    0    0  501    0  0.00000000000E+00  0.00000000000E+00 -0.13467645260E+04  0.13467645261E+04  0.50400001928E-02 0. -1.
    10030    2    1    2    0    0  0.00000000000E+00  0.00000000000E+00 -0.10790781787E+04  0.16144508735E+04  0.12008504932E+04 0.  0.
        2    1    3    3  502    0 -0.46366717028E+03 -0.35018494487E+03 -0.33611881664E+03  0.67126194538E+03  0.25500000920E-02 0.  1.
       -2    1    3    3    0  502  0.46366717028E+03  0.35018494487E+03 -0.74295936205E+03  0.94318892809E+03  0.25500000920E-02 0. -1.
</event>
<event>
 5   0  0.2499890E-03  0.1209230E+04  0.7818609E-02  0.9104815E-01
       -2   -1    0    0    0  501  0.00000000000E+00  0.00000000000E+00  0.32352792346E+03  0.32352792347E+03  0.25500000920E-02 0. -1.
        2   -1    0    0  501    0  0.00000000000E+00  0.00000000000E+00 -0.11299163665E+04  0.11299163665E+04  0.25500000920E-02 0.  1.
    10030    2    1    2    0    0  0.00000000000E+00  0.00000000000E+00 -0.80638844302E+03  0.14534442900E+04  0.12092303267E+04 0.  0.
        5    1    3    3  502    0  0.31187079523E+03  0.22287970026E+03  0.15877573635E+03  0.41493442634E+03  0.46999998093E+01 0. -1.
       -5    1    3    3    0  502 -0.31187079523E+03 -0.22287970026E+03 -0.96516417937E+03  0.10385098636E+04  0.46999998093E+01 0.  1.
</event>
<event>
 5   0  0.1404833E-03  0.1191697E+04  0.7818609E-02  0.9120156E-01
       -1   -1    0    0    0  501  0.00000000000E+00  0.00000000000E+00  0.26117769936E+03  0.26117769941E+03  0.50400001928E-02 0.  1.
        1   -1    0    0  501    0  0.00000000000E+00  0.00000000000E+00 -0.13593628397E+04  0.13593628397E+04  0.50400001928E-02 0. -1.
    10030    2    1    2    0    0  0.00000000000E+00  0.00000000000E+00 -0.10981851403E+04  0.16205405391E+04  0.11916967049E+04 0.  0.
        1    1    3    3  502    0 -0.95729241611E+02  0.12582447924E+03 -0.13303191971E+04  0.13396809521E+04  0.50400001928E-02 0. -1.
       -1    1    3    3    0  502  0.95729241611E+02 -0.12582447924E+03  0.23213405676E+03  0.28085958700E+03  0.50400001928E-02 0.  1.
</event>
<event>
 5   0  0.2517023E-03  0.1107980E+04  0.7818609E-02  0.9197449E-01
       -2   -1    0    0    0  501  0.00000000000E+00  0.00000000000E+00  0.48944114855E+03  0.48944114856E+03  0.25500000920E-02 0.  1.
        2   -1    0    0  501    0  0.00000000000E+00  0.00000000000E+00 -0.62705149082E+03  0.62705149083E+03  0.25500000920E-02 0. -1.
    10030    2    1    2    0    0  0.00000000000E+00  0.00000000000E+00 -0.13761034227E+03  0.11164926394E+04  0.11079797866E+04 0.  0.
        3    1    3    3  502    0 -0.20509531548E+03 -0.41253371732E+03 -0.37883220003E+03  0.59645787976E+03  0.10100000352E+00 0. -1.
       -3    1    3    3    0  502  0.20509531548E+03  0.41253371732E+03  0.24122185776E+03  0.52003475962E+03  0.10100000352E+00 0.  1.
</event>
<event>
 5   0  0.2499890E-03  0.1199458E+04  0.7818609E-02  0.9113331E-01
        2   -1    0    0  501    0  0.00000000000E+00  0.00000000000E+00  0.79444489591E+03  0.79444489591E+03  0.25500000920E-02 0. -1.
       -2   -1    0    0    0  501  0.00000000000E+00  0.00000000000E+00 -0.45273756358E+03  0.45273756359E+03  0.25500000920E-02 0.  1.
    10030    2    1    2    0    0  0.00000000000E+00  0.00000000000E+00  0.34170733232E+03  0.12471824595E+04  0.11994582887E+04 0.  0.
        5    1    3    3  502    0  0.15223459326E+03  0.53238228843E+03 -0.68628934349E+02  0.55797696462E+03  0.46999998093E+01 0. -1.
       -5    1    3    3    0  502 -0.15223459326E+03 -0.53238228843E+03  0.41033626667E+03  0.68920549488E+03  0.46999998093E+01 0.  1.
</event>
<event>
 5   0  0.2499890E-03  0.1192449E+04  0.7818609E-02  0.9119491E-01
       -2   -1    0    0    0  501  0.00000000000E+00  0.00000000000E+00  0.13891254245E+04  0.13891254245E+04  0.25500000920E-02 0. -1.
        2   -1    0    0  501    0  0.00000000000E+00  0.00000000000E+00 -0.25590481507E+03  0.25590481508E+03  0.25500000920E-02 0.  1.
    10030    2    1    2    0    0  0.00000000000E+00  0.00000000000E+00  0.11332206095E+04  0.16450302396E+04  0.11924493866E+04 0.  0.
        5    1    3    3  502    0  0.10841498795E+03  0.41974771384E+03  0.19762624656E+01  0.43355270556E+03  0.46999998093E+01 0.  1.
       -5    1    3    3    0  502 -0.10841498795E+03 -0.41974771384E+03  0.11312443470E+04  0.12114775340E+04  0.46999998093E+01 0. -1.
</event>
<event>
 5   0  0.2517023E-03  0.1200000E+04  0.7818609E-02  0.9112856E-01
       -2   -1    0    0    0  501  0.00000000000E+00  0.00000000000E+00  0.83872008817E+03  0.83872008817E+03  0.25500000920E-02 0.  1.
        2   -1    0    0  501    0  0.00000000000E+00  0.00000000000E+00 -0.42922559330E+03  0.42922559331E+03  0.25500000920E-02 0. -1.
    10030    2    1    2    0    0  0.00000000000E+00  0.00000000000E+00  0.40949449486E+03  0.12679456815E+04  0.12000002124E+04 0.  0.
        3    1    3    3  502    0 -0.18793650244E+03 -0.70744590840E+02 -0.39266454739E+03  0.44103331287E+03  0.10100000352E+00 0. -1.
       -3    1    3    3    0  502  0.18793650244E+03  0.70744590840E+02  0.80215904226E+03  0.82691236861E+03  0.10100000352E+00 0.  1.
</event>
<event>
 5   0  0.1404833E-03  0.1193007E+04  0.7818609E-02  0.9118999E-01
        1   -1    0    0  501    0  0.00000000000E+00  0.00000000000E+00  0.14000356211E+04  0.14000356211E+04  0.50400001928E-02 0.  1.
       -1   -1    0    0    0  501  0.00000000000E+00  0.00000000000E+00 -0.25414821890E+03  0.25414821895E+03  0.50400001928E-02 0. -1.
    10030    2    1    2    0    0  0.00000000000E+00  0.00000000000E+00  0.11458874022E+04  0.16541838401E+04  0.11930072247E+04 0.  0.
        1    1    3    3  502    0 -0.33875410560E+03  0.32805054096E+03  0.10794582771E+04  0.11779650561E+04  0.50400001928E-02 0.  1.
       -1    1    3    3    0  502  0.33875410560E+03 -0.32805054096E+03  0.66429125126E+02  0.47621878393E+03  0.50400001928E-02 0. -1.
</event>
<event>
 5   0  0.1423024E-03  0.1188601E+04  0.7818609E-02  0.9122893E-01
        1   -1    0    0  501    0  0.00000000000E+00  0.00000000000E+00  0.63984316892E+03  0.63984316894E+03  0.50400001928E-02 0.  1.
       -1   -1    0    0    0  501  0.00000000000E+00  0.00000000000E+00 -0.55199937832E+03  0.55199937834E+03  0.50400001928E-02 0. -1.
    10030    2    1    2    0    0  0.00000000000E+00  0.00000000000E+00  0.87843790598E+02  0.11918425473E+04  0.11886009111E+04 0.  0.
        2    1    3    3  502    0 -0.47054641932E+03  0.30159235194E+03 -0.15867158010E+03  0.58098928546E+03  0.25500000920E-02 0.  1.
       -2    1    3    3    0  502  0.47054641932E+03 -0.30159235194E+03  0.24651537070E+03  0.61085326182E+03  0.25500000920E-02 0. -1.
</event>
<event>
 5   0  0.1469851E-03  0.1198433E+04  0.7818609E-02  0.9114230E-01
        1   -1    0    0  501    0  0.00000000000E+00  0.00000000000E+00  0.17300917695E+04  0.17300917696E+04  0.50400001928E-02 0.  1.
       -1   -1    0    0    0  501  0.00000000000E+00  0.00000000000E+00 -0.20753824577E+03  0.20753824583E+03  0.50400001928E-02 0. -1.
    10030    2    1    2    0    0  0.00000000000E+00  0.00000000000E+00  0.15225535238E+04  0.19376300154E+04  0.11984326613E+04 0.  0.
        5    1    3    3  502    0 -0.37865448769E+03 -0.32729820384E+03  0.22862705379E+03  0.55026880250E+03  0.46999998093E+01 0. -1.
       -5    1    3    3    0  502  0.37865448769E+03  0.32729820384E+03  0.12939264700E+04  0.13873612129E+04  0.46999998093E+01 0.  1.
</event>
<event>
 5   0  0.2484507E-03  0.1166967E+04  0.7818609E-02  0.9142272E-01
        2   -1    0    0  501    0  0.00000000000E+00  0.00000000000E+00  0.17439578447E+04  0.17439578447E+04  0.25500000920E-02 0. -1.
       -2   -1    0    0    0  501  0.00000000000E+00  0.00000000000E+00 -0.19521867697E+03  0.19521867698E+03  0.25500000920E-02 0.  1.
    10030    2    1    2    0    0  0.00000000000E+00  0.00000000000E+00  0.15487391678E+04  0.19391765217E+04  0.11669672543E+04 0.  0.
        2    1    3    3  502    0 -0.13483695732E+03  0.43144910294E+03  0.13874616869E+04  0.14592392765E+04  0.25500000920E-02 0. -1.
       -2    1    3    3    0  502  0.13483695732E+03 -0.43144910294E+03  0.16127748085E+03  0.47993724519E+03  0.25500000920E-02 0.  1.
</event>
<event>
 5   0  0.1403154E-03  0.1196480E+04  0.7818609E-02  0.9115943E-01
        1   -1    0    0  501    0  0.00000000000E+00  0.00000000000E+00  0.18238718267E+04  0.18238718267E+04  0.50400001928E-02 0.  1.
       -1   -1    0    0    0  501  0.00000000000E+00  0.00000000000E+00 -0.19622603927E+03  0.19622603934E+03  0.50400001928E-02 0. -1.
    10030    2    1    2    0    0  0.00000000000E+00  0.00000000000E+00  0.16276457874E+04  0.20200978660E+04  0.11964800788E+04 0.  0.
        3    1    3    3  502    0  0.21764728977E+03  0.36683364163E+03  0.10560588788E+03  0.43941993256E+03  0.10100000352E+00 0. -1.
       -3    1    3    3    0  502 -0.21764728977E+03 -0.36683364163E+03  0.15220398995E+04  0.15806779335E+04  0.10100000352E+00 0.  1.
</event>
<event>
 5   0  0.1455076E-03  0.1197015E+04  0.7818609E-02  0.9115473E-01
        1   -1    0    0  501    0  0.00000000000E+00  0.00000000000E+00  0.85655263795E+03  0.85655263796E+03  0.50400001928E-02 0. -1.
       -1   -1    0    0    0  501  0.00000000000E+00  0.00000000000E+00 -0.41820131398E+03  0.41820131401E+03  0.50400001928E-02 0.  1.
    10030    2    1    2    0    0  0.00000000000E+00  0.00000000000E+00  0.43835132397E+03  0.12747539520E+04  0.11970153528E+04 0.  0.
        4    1    3    3  502    0 -0.26954428407E+03  0.20633799477E+03 -0.30576741322E+03  0.45686410786E+03  0.12699999809E+01 0.  1.
       -4    1    3    3    0  502  0.26954428407E+03 -0.20633799477E+03  0.74411873719E+03  0.81788984411E+03  0.12699999809E+01 0. -1.
</event>
<event>
 5   0  0.2579442E-03  0.1194460E+04  0.7818609E-02  0.9117720E-01
        2   -1    0    0  501    0  0.00000000000E+00  0.00000000000E+00  0.11134584947E+04  0.11134584947E+04  0.25500000920E-02 0.  1.
       -2   -1    0    0    0  501  0.00000000000E+00  0.00000000000E+00 -0.32033831605E+03  0.32033831606E+03  0.25500000920E-02 0. -1.
    10030    2    1    2    0    0  0.00000000000E+00  0.00000000000E+00  0.79312017864E+03  0.14337968107E+04  0.11944595752E+04 0.  0.
        4    1    3    3  502    0  0.10252349781E+02 -0.46170818617E+03  0.85112314011E+03  0.96834486232E+03  0.12699999809E+01 0.  1.
       -4    1    3    3    0  502 -0.10252349781E+02  0.46170818617E+03 -0.58002961473E+02  0.46545194842E+03  0.12699999809E+01 0. -1.
</event>
<event>
 5   0  0.1455076E-03  0.1208445E+04  0.7818609E-02  0.9105497E-01
       -1   -1    0    0    0  501  0.00000000000E+00  0.00000000000E+00  0.29837912732E+03  0.29837912737E+03  0.50400001928E-02 0.  1.
        1   -1    0    0  501    0  0.00000000000E+00  0.00000000000E+00 -0.12235596117E+04  0.12235596117E+04  0.50400001928E-02 0. -1.
    10030    2    1    2    0    0  0.00000000000E+00  0.00000000000E+00 -0.92518048435E+03  0.15219387390E+04  0.12084447016E+04 0.  0.
        4    1    3    3  502    0  0.36790082999E+03  0.15175234806E+03  0.11000011805E+03  0.41289397515E+03  0.12699999809E+01 0.  1.
       -4    1    3    3    0  502 -0.36790082999E+03 -0.15175234806E+03 -0.10351806024E+04  0.11090447639E+04  0.12699999809E+01 0. -1.
</event>
<event>
 5   0  0.1455076E-03  0.1245951E+04  0.7818609E-02  0.9073560E-01
       -1   -1    0    0    0  501  0.00000000000E+00  0.00000000000E+00  0.14420489475E+04  0.14420489476E+04  0.50400001928E-02 0. -1.
        1   -1    0    0  501    0  0.00000000000E+00  0.00000000000E+00 -0.26912985985E+03  0.26912985990E+03  0.50400001928E-02 0.  1.
    10030    2    1    2    0    0  0.00000000000E+00  0.00000000000E+00  0.11729190877E+04  0.17111788075E+04  0.12459509319E+04 0.  0.
        4    1    3    3  502    0 -0.53803190802E+03 -0.12001602287E+03  0.18790455648E+03  0.58240185013E+03  0.12699999809E+01 0.  1.
       -4    1    3    3    0  502  0.53803190802E+03  0.12001602287E+03  0.98501453121E+03  0.11287769573E+04  0.12699999809E+01 0. -1.
</event>
<event>
 5   0  0.1404833E-03  0.1204707E+04  0.7818609E-02  0.9108746E-01
        1   -1    0    0  501    0  0.00000000000E+00  0.00000000000E+00  0.12018368663E+04  0.12018368663E+04  0.50400001928E-02 0.  1.
       -1   -1    0    0    0  501  0.00000000000E+00  0.00000000000E+00 -0.30189613450E+03  0.30189613455E+03  0.50400001928E-02 0. -1.
    10030    2    1    2    0    0  0.00000000000E+00  0.00000000000E+00  0.89994073179E+03  0.15037330008E+04  0.12047072744E+04 0.  0.
        1    1    3    3  502    0  0.37643103299E+03  0.26561647230E+03  0.93433140013E+03  0.10417425777E+04  0.50400001928E-02 0.  1.
       -1    1    3    3    0  502 -0.37643103299E+03 -0.26561647230E+03 -0.34390668344E+02  0.46199042312E+03  0.50400001928E-02 0. -1.
</event>
<event>
 5   0  0.2580244E-03  0.1182028E+04  0.7818609E-02  0.9128735E-01
       -2   -1    0    0    0  501  0.00000000000E+00  0.00000000000E+00  0.26535625513E+03  0.26535625514E+03  0.25500000920E-02 0. -1.
        2   -1    0    0  501    0  0.00000000000E+00  0.00000000000E+00 -0.13163337071E+04  0.13163337071E+04  0.25500000920E-02 0.  1.
    10030    2    1    2    0    0  0.00000000000E+00  0.00000000000E+00 -0.10509774519E+04  0.15816899622E+04  0.11820277205E+04 0.  0.
        1    1    3    3  502    0 -0.17156428399E+03 -0.10921217474E+03  0.21705797695E+03  0.29744876540E+03  0.50400001928E-02 0. -1.
       -1    1    3    3    0  502  0.17156428399E+03  0.10921217474E+03 -0.12680354289E+04  0.12842411968E+04  0.50400001928E-02 0.  1.
</event>
<event>
 5   0  0.1403154E-03  0.1190327E+04  0.7818609E-02  0.9121366E-01
       -1   -1    0    0    0  501  0.00000000000E+00  0.00000000000E+00  0.32970288999E+03  0.32970289003E+03  0.50400001928E-02 0. -1.
        1   -1    0    0  501    0  0.00000000000E+00  0.00000000000E+00 -0.10743593203E+04  0.10743593203E+04  0.50400001928E-02 0.  1.
    10030    2    1    2    0    0  0.00000000000E+00  0.00000000000E+00 -0.74465643030E+03  0.14040622103E+04  0.11903266322E+04 0.  0.
        3    1    3    3  502    0  0.11175903987E+03  0.77839375873E+02  0.31107444621E+03  0.33958264489E+03  0.10100000352E+00 0. -1.
       -3    1    3    3    0  502 -0.11175903987E+03 -0.77839375873E+02 -0.10557308765E+04  0.10644795654E+04  0.10100000352E+00 0.  1.
</event>
<event>
 5   0  0.2484507E-03  0.1204067E+04  0.7818609E-02  0.9109304E-01
       -2   -1    0    0    0  501  0.00000000000E+00  0.00000000000E+00  0.35917689240E+03  0.35917689241E+03  0.25500000920E-02 0.  1.
        2   -1    0    0  501    0  0.00000000000E+00  0.00000000000E+00 -0.10090974865E+04  0.10090974865E+04  0.25500000920E-02 0. -1.
    10030    2    1    2    0    0  0.00000000000E+00  0.00000000000E+00 -0.64992059409E+03  0.13682743789E+04  0.12040672728E+04 0.  0.
        2    1    3    3  502    0  0.11088607349E+03 -0.42785993790E+03  0.13954505394E+03  0.46350045290E+03  0.25500000920E-02 0.  1.
       -2    1    3    3    0  502 -0.11088607349E+03  0.42785993790E+03 -0.78946564803E+03  0.90477392600E+03  0.25500000920E-02 0. -1.
</event>
<event>
 5   0  0.2517023E-03  0.1195656E+04  0.7818609E-02  0.9116667E-01
        2   -1    0    0  501    0  0.00000000000E+00  0.00000000000E+00  0.12187890668E+04  0.12187890668E+04  0.25500000920E-02 0. -1.
       -2   -1    0    0    0  501  0.00000000000E+00  0.00000000000E+00 -0.29324064052E+03  0.29324064053E+03  0.25500000920E-02 0.  1.
    10030    2    1    2    0    0  0.00000000000E+00  0.00000000000E+00  0.92554842632E+03  0.15120297074E+04  0.11956562828E+04 0.  0.
        3    1    3    3  502    0  0.11173916112E+03  0.29329302577E+02 -0.27899091710E+03  0.30196322648E+03  0.10100000352E+00 0.  1.
       -3    1    3    3    0  502 -0.11173916112E+03 -0.29329302577E+02  0.12045393434E+04  0.12100664809E+04  0.10100000352E+00 0. -1.
</event>
<event>
 5   0  0.9678750E-04  0.1197945E+04  0.7818609E-02  0.9114657E-01
       -3   -1    0    0    0  501  0.00000000000E+00  0.00000000000E+00  0.36018588443E+03  0.36018589859E+03  0.10100000352E+00 0.  1.
        3   -1    0    0  501    0  0.00000000000E+00  0.00000000000E+00 -0.99606392245E+03  0.99606392757E+03  0.10100000352E+00 0. -1.
    10030    2    1    2    0    0  0.00000000000E+00  0.00000000000E+00 -0.63587803802E+03  0.13562498262E+04  0.11979452040E+04 0.  0.
        4    1    3    3  502    0  0.46736396263E+03 -0.13591120393E+03  0.77285038310E+02  0.49282402434E+03  0.12699999809E+01 0.  1.
       -4    1    3    3    0  502 -0.46736396263E+03  0.13591120393E+03 -0.71316307633E+03  0.86342580183E+03  0.12699999809E+01 0. -1.
</event>
<event>
 5   0  0.1469851E-03  0.1263770E+04  0.7818609E-02  0.9058800E-01
       -1   -1    0    0    0  501  0.00000000000E+00  0.00000000000E+00  0.84048000469E+03  0.84048000471E+03  0.50400001928E-02 0.  1.
        1   -1    0    0  501    0  0.00000000000E+00  0.00000000000E+00 -0.47506010923E+03  0.47506010926E+03  0.50400001928E-02 0. -1.
    10030    2    1    2    0    0  0.00000000000E+00  0.00000000000E+00  0.36541989546E+03  0.13155401140E+04  0.12637697937E+04 0.  0.
        5    1    3    3  502    0  0.66979637172E+02  0.21695898784E+03  0.79652540329E+03  0.82827065763E+03  0.46999998093E+01 0.  1.
       -5    1    3    3    0  502 -0.66979637172E+02 -0.21695898784E+03 -0.43110550783E+03  0.48726945634E+03  0.46999998093E+01 0. -1.
</event>
<event>
 5   0  0.2579442E-03  0.1204126E+04  0.7818609E-02  0.9109253E-01
       -2   -1    0    0    0  501  0.00000000000E+00  0.00000000000E+00  0.14348109267E+03  0.14348109269E+03  0.25500000920E-02 0. -1.
        2   -1    0    0  501    0  0.00000000000E+00  0.00000000000E+00 -0.25263244501E+04  0.25263244501E+04  0.25500000920E-02 0.  1.
    10030    2    1    2    0    0  0.00000000000E+00  0.00000000000E+00 -0.23828433574E+04  0.26698055428E+04  0.12041258947E+04 0.  0.
        4    1    3    3  502    0  0.29136796104E+03 -0.24067099735E+03 -0.15225890166E+03  0.40743368015E+03  0.12699999809E+01 0. -1.
       -4    1    3    3    0  502 -0.29136796104E+03  0.24067099735E+03 -0.22305844558E+04  0.22623718627E+04  0.12699999809E+01 0.  1.
</event>
<event>
 5   0  0.2579442E-03  0.1218000E+04  0.7818609E-02  0.9097246E-01
       -2   -1    0    0    0  501  0.00000000000E+00  0.00000000000E+00  0.65720286245E+03  0.65720286245E+03  0.25500000920E-02 0. -1.
        2   -1    0    0  501    0  0.00000000000E+00  0.00000000000E+00 -0.56433236951E+03  0.56433236952E+03  0.25500000920E-02 0.  1.
    10030    2    1    2    0    0  0.00000000000E+00  0.00000000000E+00  0.92870492933E+02  0.12215352320E+04  0.12179997514E+04 0.  0.
        4    1    3    3  502    0  0.22249458875E+03 -0.56240030595E+03 -0.25054831440E+02  0.60533239103E+03  0.12699999809E+01 0. -1.
       -4    1    3    3    0  502 -0.22249458875E+03  0.56240030595E+03  0.11792532437E+03  0.61620284094E+03  0.12699999809E+01 0.  1.
</event>
<event>
 5   0  0.2484507E-03  0.1210147E+04  0.7818609E-02  0.9104021E-01
       -2   -1    0    0    0  501  0.00000000000E+00  0.00000000000E+00  0.24058682437E+03  0.24058682438E+03  0.25500000920E-02 0. -1.
        2   -1    0    0  501    0  0.00000000000E+00  0.00000000000E+00 -0.15217537050E+04  0.15217537050E+04  0.25500000920E-02 0.  1.
    10030    2    1    2    0    0  0.00000000000E+00  0.00000000000E+00 -0.12811668807E+04  0.17623405294E+04  0.12101469190E+04 0.  0.
        2    1    3    3  502    0  0.53678260532E+02  0.34884853912E+03 -0.13563044609E+04  0.14014772383E+04  0.25500000920E-02 0.  1.
       -2    1    3    3    0  502 -0.53678260532E+02 -0.34884853912E+03  0.75137580223E+02  0.36086329110E+03  0.25500000920E-02 0. -1.
</event>
<event>
 5   0  0.1469851E-03  0.1211094E+04  0.7818609E-02  0.9103201E-01
        1   -1    0    0  501    0  0.00000000000E+00  0.00000000000E+00  0.40870292970E+03  0.40870292973E+03  0.50400001928E-02 0. -1.
       -1   -1    0    0    0  501  0.00000000000E+00  0.00000000000E+00 -0.89719749510E+03  0.89719749511E+03  0.50400001928E-02 0.  1.
    10030    2    1    2    0    0  0.00000000000E+00  0.00000000000E+00 -0.48849456540E+03  0.13059004248E+04  0.12110941248E+04 0.  0.
        5    1    3    3  502    0  0.18822300125E+03  0.14501797060E+03  0.35631491768E+03  0.42829956871E+03  0.46999998093E+01 0. -1.
       -5    1    3    3    0  502 -0.18822300125E+03 -0.14501797060E+03 -0.84480948307E+03  0.87760085613E+03  0.46999998093E+01 0.  1.
</event>
<event>
 5   0  0.2517023E-03  0.1206508E+04  0.7818609E-02  0.9107179E-01
        2   -1    0    0  501    0  0.00000000000E+00  0.00000000000E+00  0.68196369194E+03  0.68196369195E+03  0.25500000920E-02 0.  1.
       -2   -1    0    0    0  501  0.00000000000E+00  0.00000000000E+00 -0.53362869949E+03  0.53362869950E+03  0.25500000920E-02 0. -1.
    10030    2    1    2    0    0  0.00000000000E+00  0.00000000000E+00  0.14833499245E+03  0.12155923914E+04  0.12065080158E+04 0.  0.
        3    1    3    3  502    0 -0.27781183833E+02  0.28789516410E+03  0.60754942272E+03  0.67288314806E+03  0.10100000352E+00 0.  1.
       -3    1    3    3    0  502  0.27781183833E+02 -0.28789516410E+03 -0.45921443028E+03  0.54270924339E+03  0.10100000352E+00 0. -1.
</event>
<event>
 5   0  0.1469851E-03  0.1200552E+04  0.7818609E-02  0.9112374E-01
       -1   -1    0    0    0  501  0.00000000000E+00  0.00000000000E+00  0.34406876072E+03  0.34406876076E+03  0.50400001928E-02 0.  1.
        1   -1    0    0  501    0  0.00000000000E+00  0.00000000000E+00 -0.10472652879E+04  0.10472652879E+04  0.50400001928E-02 0. -1.
    10030    2    1    2    0    0  0.00000000000E+00  0.00000000000E+00 -0.70319652716E+03  0.13913340486E+04  0.12005519893E+04 0.  0.
        5    1    3    3  502    0 -0.14746678129E+03  0.18420814550E+03  0.28804353983E+03  0.37238456371E+03  0.46999998093E+01 0.  1.
       -5    1    3    3    0  502  0.14746678129E+03 -0.18420814550E+03 -0.99124006699E+03  0.10189494849E+04  0.46999998093E+01 0. -1.
</event>
<event>
 5   0  0.1403154E-03  0.1235130E+04  0.7818609E-02  0.9082651E-01
        1   -1    0    0  501    0  0.00000000000E+00  0.00000000000E+00  0.53498877428E+03  0.53498877430E+03  0.50400001928E-02 0.  1.
       -1   -1    0    0    0  501  0.00000000000E+00  0.00000000000E+00 -0.71288656180E+03  0.71288656182E+03  0.50400001928E-02 0. -1.
    10030    2    1    2    0    0  0.00000000000E+00  0.00000000000E+00 -0.17789778752E+03  0.12478753361E+04  0.12351296417E+04 0.  0.
        3    1    3    3  502    0  0.22465791981E+03 -0.27818876343E+03 -0.59765859418E+03  0.69645960000E+03  0.10100000352E+00 0. -1.
       -3    1    3    3    0  502 -0.22465791981E+03  0.27818876343E+03  0.41976080666E+03  0.55141573612E+03  0.10100000352E+00 0.  1.
</event>
<event>
 5   0  0.9678750E-04  0.1321097E+04  0.7818609E-02  0.9013001E-01
       -3   -1    0    0    0  501  0.00000000000E+00  0.00000000000E+00  0.82011347126E+03  0.82011347748E+03  0.10100000352E+00 0.  1.
        3   -1    0    0  501    0  0.00000000000E+00  0.00000000000E+00 -0.53202901794E+03  0.53202902753E+03  0.10100000352E+00 0. -1.
    10030    2    1    2    0    0  0.00000000000E+00  0.00000000000E+00  0.28808445333E+03  0.13521425050E+04  0.13210967798E+04 0.  0.
        2    1    3    3  502    0 -0.26255526785E+03 -0.26578478329E+03 -0.41350448667E+03  0.55728159866E+03  0.25500000920E-02 0. -1.
       -2    1    3    3    0  502  0.26255526785E+03  0.26578478329E+03  0.70158894000E+03  0.79486090635E+03  0.25500000920E-02 0.  1.
</event>
<event>
 5   0  0.2579442E-03  0.1208043E+04  0.7818609E-02  0.9105846E-01
        2   -1    0    0  501    0  0.00000000000E+00  0.00000000000E+00  0.18265925481E+04  0.18265925481E+04  0.25500000920E-02 0. -1.
       -2   -1    0    0    0  501  0.00000000000E+00  0.00000000000E+00 -0.19973896232E+03  0.19973896234E+03  0.25500000920E-02 0.  1.
    10030    2    1    2    0    0  0.00000000000E+00  0.00000000000E+00  0.16268535858E+04  0.20263315104E+04  0.12080425492E+04 0.  0.
        4    1    3    3  502    0  0.43053446947E+03  0.20374160766E+03  0.14364723966E+04  0.15133820176E+04  0.12699999809E+01 0. -1.
       -4    1    3    3    0  502 -0.43053446947E+03 -0.20374160766E+03  0.19038118914E+03  0.51294949281E+03  0.12699999809E+01 0.  1.
</event>
<event>
 5   0  0.1455076E-03  0.1207907E+04  0.7818609E-02  0.9105964E-01
       -1   -1    0    0    0  501  0.00000000000E+00  0.00000000000E+00  0.79779924668E+03  0.79779924670E+03  0.50400001928E-02 0.  1.
        1   -1    0    0  501    0  0.00000000000E+00  0.00000000000E+00 -0.45720738267E+03  0.45720738270E+03  0.50400001928E-02 0. -1.
    10030    2    1    2    0    0  0.00000000000E+00  0.00000000000E+00  0.34059186401E+03  0.12550066294E+04  0.12079067936E+04 0.  0.
        4    1    3    3  502    0  0.31875444398E+03 -0.14025550176E+03 -0.34238375168E+03  0.48836896671E+03  0.12699999809E+01 0. -1.
       -4    1    3    3    0  502 -0.31875444398E+03  0.14025550176E+03  0.68297561569E+03  0.76663766269E+03  0.12699999809E+01 0.  1.
</event>
<event>
 5   0  0.1403154E-03  0.1188559E+04  0.7818609E-02  0.9122930E-01
       -1   -1    0    0    0  501  0.00000000000E+00  0.00000000000E+00  0.44244675062E+03  0.44244675065E+03  0.50400001928E-02 0. -1.
        1   -1    0    0  501    0  0.00000000000E+00  0.00000000000E+00 -0.79821650044E+03  0.79821650045E+03  0.50400001928E-02 0.  1.
    10030    2    1    2    0    0  0.00000000000E+00  0.00000000000E+00 -0.35576974982E+03  0.12406632511E+04  0.11885592908E+04 0.  0.
        3    1    3    3  502    0 -0.51823644267E+03 -0.14789434192E+03  0.83547117644E+02  0.54536398667E+03  0.10100000352E+00 0. -1.
       -3    1    3    3    0  502  0.51823644267E+03  0.14789434192E+03 -0.43931686746E+03  0.69529926443E+03  0.10100000352E+00 0.  1.
</event>
<event>
 5   0  0.2484507E-03  0.1198322E+04  0.7818609E-02  0.9114326E-01
       -2   -1    0    0    0  501  0.00000000000E+00  0.00000000000E+00  0.76409220267E+03  0.76409220267E+03  0.25500000920E-02 0.  1.
        2   -1    0    0  501    0  0.00000000000E+00  0.00000000000E+00 -0.46983080950E+03  0.46983080950E+03  0.25500000920E-02 0. -1.
    10030    2    1    2    0    0  0.00000000000E+00  0.00000000000E+00  0.29426139317E+03  0.12339230122E+04  0.11983222574E+04 0.  0.
        2    1    3    3  502    0  0.40990116934E+03 -0.43010738095E+03  0.22677673000E+03  0.63595519736E+03  0.25500000920E-02 0.  1.
       -2    1    3    3    0  502 -0.40990116934E+03  0.43010738095E+03  0.67484663174E+02  0.59796781481E+03  0.25500000920E-02 0. -1.
</event>
<event>
 5   0  0.1403154E-03  0.1202738E+04  0.7818609E-02  0.9110463E-01
        1   -1    0    0  501    0  0.00000000000E+00  0.00000000000E+00  0.52874563511E+03  0.52874563514E+03  0.50400001928E-02 0.  1.
       -1   -1    0    0    0  501  0.00000000000E+00  0.00000000000E+00 -0.68396768595E+03  0.68396768597E+03  0.50400001928E-02 0. -1.
    10030    2    1    2    0    0  0.00000000000E+00  0.00000000000E+00 -0.15522205084E+03  0.12127133211E+04  0.12027384230E+04 0.  0.
        3    1    3    3  502    0  0.47431097252E+03 -0.34747869565E+03 -0.20488217263E+03  0.62264681598E+03  0.10100000352E+00 0.  1.
       -3    1    3    3    0  502 -0.47431097252E+03  0.34747869565E+03  0.49660121788E+02  0.59006650513E+03  0.10100000352E+00 0. -1.
</event>
<event>
 5   0  0.2579442E-03  0.1222200E+04  0.7818609E-02  0.9093644E-01
        2   -1    0    0  501    0  0.00000000000E+00  0.00000000000E+00  0.90306971210E+03  0.90306971211E+03  0.25500000920E-02 0. -1.
       -2   -1    0    0    0  501  0.00000000000E+00  0.00000000000E+00 -0.41352614526E+03  0.41352614527E+03  0.25500000920E-02 0.  1.
    10030    2    1    2    0    0  0.00000000000E+00  0.00000000000E+00  0.48954356685E+03  0.13165958574E+04  0.12221995532E+04 0.  0.
        4    1    3    3  502    0 -0.38823181862E+03  0.33003150436E+03  0.60816346249E+03  0.79341612592E+03  0.12699999809E+01 0. -1.
       -4    1    3    3    0  502  0.38823181862E+03 -0.33003150436E+03 -0.11861989564E+03  0.52317973145E+03  0.12699999809E+01 0.  1.
</event>
<event>
 5   0  0.2580244E-03  0.1206435E+04  0.7818609E-02  0.9107243E-01
       -2   -1    0    0    0  501  0.00000000000E+00  0.00000000000E+00  0.83750146508E+03  0.83750146508E+03  0.25500000920E-02 0.  1.
        2   -1    0    0  501    0  0.00000000000E+00  0.00000000000E+00 -0.43447216018E+03  0.43447216019E+03  0.25500000920E-02 0. -1.
    10030    2    1    2    0    0  0.00000000000E+00  0.00000000000E+00  0.40302930490E+03  0.12719736253E+04  0.12064345332E+04 0.  0.
        1    1    3    3  502    0  0.28069659945E+03  0.46024399251E+03 -0.83847136911E+02  0.54556892871E+03  0.50400001928E-02 0. -1.
       -1    1    3    3    0  502 -0.28069659945E+03 -0.46024399251E+03  0.48687644181E+03  0.72640469656E+03  0.50400001928E-02 0.  1.
</event>
<event>
 5   0  0.2517023E-03  0.1208043E+04  0.7818609E-02  0.9105845E-01
       -2   -1    0    0    0  501  0.00000000000E+00  0.00000000000E+00  0.47524931481E+03  0.47524931482E+03  0.25500000920E-02 0.  1.
        2   -1    0    0  501    0  0.00000000000E+00  0.00000000000E+00 -0.76768580861E+03  0.76768580862E+03  0.25500000920E-02 0. -1.
    10030    2    1    2    0    0  0.00000000000E+00  0.00000000000E+00 -0.29243649381E+03  0.12429351234E+04  0.12080433014E+04 0.  0.
        3    1    3    3  502    0  0.46768332409E+03  0.34971247668E+03 -0.30499870638E+03  0.65882526445E+03  0.10100000352E+00 0. -1.
       -3    1    3    3    0  502 -0.46768332409E+03 -0.34971247668E+03  0.12562212574E+02  0.58410985899E+03  0.10100000352E+00 0.  1.
</event>
<event>
 5   0  0.2517023E-03  0.1049702E+04  0.7818609E-02  0.9255652E-01
       -2   -1    0    0    0  501  0.00000000000E+00  0.00000000000E+00  0.68795846417E+03  0.68795846418E+03  0.25500000920E-02 0. -1.
        2   -1    0    0  501    0  0.00000000000E+00  0.00000000000E+00 -0.40041419111E+03  0.40041419112E+03  0.25500000920E-02 0.  1.
    10030    2    1    2    0    0  0.00000000000E+00  0.00000000000E+00  0.28754427306E+03  0.10883726553E+04  0.10497015423E+04 0.  0.
        3    1    3    3  502    0  0.73374912217E+02  0.42571608294E+03  0.45283095495E+03  0.62583859339E+03  0.10100000352E+00 0. -1.
       -3    1    3    3    0  502 -0.73374912217E+02 -0.42571608294E+03 -0.16528668189E+03  0.46253406191E+03  0.10100000352E+00 0.  1.
</event>
<event>
 5   0  0.2499890E-03  0.1198730E+04  0.7818609E-02  0.9113969E-01
        2   -1    0    0  501    0  0.00000000000E+00  0.00000000000E+00  0.24082715722E+04  0.24082715722E+04  0.25500000920E-02 0.  1.
       -2   -1    0    0    0  501  0.00000000000E+00  0.00000000000E+00 -0.14916858862E+03  0.14916858864E+03  0.25500000920E-02 0. -1.
    10030    2    1    2    0    0  0.00000000000E+00  0.00000000000E+00  0.22591029836E+04  0.25574401608E+04  0.11987301138E+04 0.  0.
        5    1    3    3  502    0 -0.59618554770E+02  0.21612847181E+03  0.23153980887E+04  0.23262322084E+04  0.46999998093E+01 0.  1.
       -5    1    3    3    0  502  0.59618554770E+02 -0.21612847181E+03 -0.56295105113E+02  0.23120795241E+03  0.46999998093E+01 0. -1.
</event>
<event>
 5   0  0.1403154E-03  0.1300792E+04  0.7818609E-02  0.9028938E-01
        1   -1    0    0  501    0  0.00000000000E+00  0.00000000000E+00  0.11740906594E+04  0.11740906595E+04  0.50400001928E-02 0. -1.
       -1   -1    0    0    0  501  0.00000000000E+00  0.00000000000E+00 -0.36029139413E+03  0.36029139417E+03  0.50400001928E-02 0.  1.
    10030    2    1    2    0    0  0.00000000000E+00  0.00000000000E+00  0.81379926531E+03  0.15343820536E+04  0.13007916983E+04 0.  0.
        3    1    3    3  502    0 -0.22721353141E+03  0.74165717775E+02  0.11204094617E+04  0.11456194458E+04  0.10100000352E+00 0. -1.
       -3    1    3    3    0  502  0.22721353141E+03 -0.74165717775E+02 -0.30661019636E+03  0.38876260785E+03  0.10100000352E+00 0.  1.
</event>
<event>
 5   0  0.1455076E-03  0.1199739E+04  0.7818609E-02  0.9113085E-01
       -1   -1    0    0    0  501  0.00000000000E+00  0.00000000000E+00  0.74611042601E+03  0.74611042603E+03  0.50400001928E-02 0.  1.
        1   -1    0    0  501    0  0.00000000000E+00  0.00000000000E+00 -0.48229244784E+03  0.48229244787E+03  0.50400001928E-02 0. -1.
    10030    2    1    2    0    0  0.00000000000E+00  0.00000000000E+00  0.26381797817E+03  0.12284028739E+04  0.11997390112E+04 0.  0.
        4    1    3    3  502    0  0.53523608195E+03 -0.27075915833E+03  0.13940689813E+03  0.61581172560E+03  0.12699999809E+01 0. -1.
       -4    1    3    3    0  502 -0.53523608195E+03  0.27075915833E+03  0.12441108003E+03  0.61259114830E+03  0.12699999809E+01 0.  1.
</event>
<event>
 5   0  0.2579442E-03  0.1210194E+04  0.7818609E-02  0.9103980E-01
       -2   -1    0    0    0  501  0.00000000000E+00  0.00000000000E+00  0.16851373596E+03  0.16851373598E+03  0.25500000920E-02 0. -1.
        2   -1    0    0  501    0  0.00000000000E+00  0.00000000000E+00 -0.21727746928E+04  0.21727746928E+04  0.25500000920E-02 0.  1.
    10030    2    1    2    0    0  0.00000000000E+00  0.00000000000E+00 -0.20042609568E+04  0.23412884288E+04  0.12101940025E+04 0.  0.
        4    1    3    3  502    0  0.14720725835E+02 -0.94905378133E+02  0.15367184241E+03  0.18121914528E+03  0.12699999809E+01 0. -1.
       -4    1    3    3    0  502 -0.14720725835E+02  0.94905378133E+02 -0.21579327993E+04  0.21600692835E+04  0.12699999809E+01 0.  1.
</event>
<event>
 5   0  0.1403154E-03  0.1114349E+04  0.7818609E-02  0.9191319E-01
        1   -1    0    0  501    0  0.00000000000E+00  0.00000000000E+00  0.91130702681E+03  0.91130702682E+03  0.50400001928E-02 0. -1.
       -1   -1    0    0    0  501  0.00000000000E+00  0.00000000000E+00 -0.34065704067E+03  0.34065704070E+03  0.50400001928E-02 0.  1.
    10030    2    1    2    0    0  0.00000000000E+00  0.00000000000E+00  0.57064998614E+03  0.12519640675E+04  0.11143485181E+04 0.  0.
        3    1    3    3  502    0  0.39748636941E+03 -0.37703547293E+03  0.17134717079E+03  0.57403050864E+03  0.10100000352E+00 0.  1.
       -3    1    3    3    0  502 -0.39748636941E+03  0.37703547293E+03  0.39930281535E+03  0.67793355888E+03  0.10100000352E+00 0. -1.
</event>
<event>
 5   0  0.1423024E-03  0.1179099E+04  0.7818609E-02  0.9131351E-01
        1   -1    0    0  501    0  0.00000000000E+00  0.00000000000E+00  0.18458606865E+04  0.18458606865E+04  0.50400001928E-02 0.  1.
       -1   -1    0    0    0  501  0.00000000000E+00  0.00000000000E+00 -0.18829611268E+03  0.18829611275E+03  0.50400001928E-02 0. -1.
    10030    2    1    2    0    0  0.00000000000E+00  0.00000000000E+00  0.16575645738E+04  0.20341567992E+04  0.11790986250E+04 0.  0.
        2    1    3    3  502    0  0.27792180041E+03  0.15474792899E+03  0.16851057632E+04  0.17148670158E+04  0.25500000920E-02 0.  1.
       -2    1    3    3    0  502 -0.27792180041E+03 -0.15474792899E+03 -0.27541189435E+02  0.31928978341E+03  0.25500000920E-02 0. -1.
</event>
<event>
 5   0  0.1403154E-03  0.1195627E+04  0.7818609E-02  0.9116693E-01
       -1   -1    0    0    0  501  0.00000000000E+00  0.00000000000E+00  0.47967022055E+03  0.47967022057E+03  0.50400001928E-02 0. -1.
        1   -1    0    0  501    0  0.00000000000E+00  0.00000000000E+00 -0.74505528095E+03  0.74505528097E+03  0.50400001928E-02 0.  1.
    10030    2    1    2    0    0  0.00000000000E+00  0.00000000000E+00 -0.26538506040E+03  0.12247255015E+04  0.11956267494E+04 0.  0.
        3    1    3    3  502    0  0.32855311230E+03  0.17266761573E+03  0.34734882620E+03  0.50834286696E+03  0.10100000352E+00 0. -1.
       -3    1    3    3    0  502 -0.32855311230E+03 -0.17266761573E+03 -0.61273388661E+03  0.71638263458E+03  0.10100000352E+00 0.  1.
</event>
<event>
 5   0  0.1403154E-03  0.1197304E+04  0.7818609E-02  0.9115220E-01
        1   -1    0    0  501    0  0.00000000000E+00  0.00000000000E+00  0.38095950530E+03  0.38095950533E+03  0.50400001928E-02 0. -1.
       -1   -1    0    0    0  501  0.00000000000E+00  0.00000000000E+00 -0.94074054996E+03  0.94074054997E+03  0.50400001928E-02 0.  1.
    10030    2    1    2    0    0  0.00000000000E+00  0.00000000000E+00 -0.55978104466E+03  0.13217000553E+04  0.11973037285E+04 0.  0.
        3    1    3    3  502    0 -0.34137394244E+03  0.17203300335E+03 -0.78846551604E+03  0.87624734123E+03  0.10100000352E+00 0.  1.
       -3    1    3    3    0  502  0.34137394244E+03 -0.17203300335E+03  0.22868447138E+03  0.44545271407E+03  0.10100000352E+00 0. -1.
</event>
<event>
 5   0  0.1469851E-03  0.1208742E+04  0.7818609E-02  0.9105239E-01
        1   -1    0    0  501    0  0.00000000000E+00  0.00000000000E+00  0.17308185614E+04  0.17308185614E+04  0.50400001928E-02 0.  1.
       -1   -1    0    0    0  501  0.00000000000E+00  0.00000000000E+00 -0.21103543411E+03  0.21103543417E+03  0.50400001928E-02 0. -1.
    10030    2    1    2    0    0  0.00000000000E+00  0.00000000000E+00  0.15197831273E+04  0.19418539956E+04  0.12087415713E+04 0.  0.
        5    1    3    3  502    0  0.48481244185E+03 -0.19781172835E+03  0.12446990163E+04  0.13503593280E+04  0.46999998093E+01 0.  1.
       -5    1    3    3    0  502 -0.48481244185E+03  0.19781172835E+03  0.27508411106E+03  0.59149466760E+03  0.46999998093E+01 0. -1.
</event>
<event>
 5   0  0.1423024E-03  0.1200765E+04  0.7818609E-02  0.9112187E-01
        1   -1    0    0  501    0  0.00000000000E+00  0.00000000000E+00  0.37294324794E+03  0.37294324797E+03  0.50400001928E-02 0. -1.
       -1   -1    0    0    0  501  0.00000000000E+00  0.00000000000E+00 -0.96652603181E+03  0.96652603183E+03  0.50400001928E-02 0.  1.
    10030    2    1    2    0    0  0.00000000000E+00  0.00000000000E+00 -0.59358278387E+03  0.13394692798E+04  0.12007653519E+04 0.  0.
        2    1    3    3  502    0 -0.29709858340E+03  0.14413177183E+03 -0.85612722085E+03  0.91760304827E+03  0.25500000920E-02 0.  1.
       -2    1    3    3    0  502  0.29709858340E+03 -0.14413177183E+03  0.26254443698E+03  0.42186623153E+03  0.25500000920E-02 0. -1.
</event>
<event>
 5   0  0.9678750E-04  0.1198793E+04  0.7818609E-02  0.9113914E-01
       -3   -1    0    0    0  501  0.00000000000E+00  0.00000000000E+00  0.87760021239E+03  0.87760021820E+03  0.10100000352E+00 0. -1.
        3   -1    0    0  501    0  0.00000000000E+00  0.00000000000E+00 -0.40938469058E+03  0.40938470304E+03  0.10100000352E+00 0.  1.
    10030    2    1    2    0    0  0.00000000000E+00  0.00000000000E+00  0.46821552181E+03  0.12869849212E+04  0.11987928981E+04 0.  0.
        1    1    3    3  502    0  0.13851175649E+03 -0.44471699148E+03 -0.17089528405E+03  0.49614907773E+03  0.50400001928E-02 0.  1.
       -1    1    3    3    0  502 -0.13851175649E+03  0.44471699148E+03  0.63911080585E+03  0.79083584351E+03  0.50400001928E-02 0. -1.
</event>
<event>
 5   0  0.9678750E-04  0.1197551E+04  0.7818609E-02  0.9115002E-01
       -4   -1    0    0    0  501  0.00000000000E+00  0.00000000000E+00  0.60825619444E+03  0.60825752028E+03  0.12699999809E+01 0.  1.
        4   -1    0    0  501    0  0.00000000000E+00  0.00000000000E+00 -0.58944038605E+03  0.58944175421E+03  0.12699999809E+01 0. -1.
    10030    2    1    2    0    0  0.00000000000E+00  0.00000000000E+00  0.18815808391E+02  0.11976992745E+04  0.11975514676E+04 0.  0.
        5    1    3    3  502    0 -0.75134124030E+02 -0.16588652991E+02 -0.58445825165E+03  0.58952002334E+03  0.46999998093E+01 0. -1.
       -5    1    3    3    0  502  0.75134124030E+02  0.16588652991E+02  0.60327406004E+03  0.60817925114E+03  0.46999998093E+01 0.  1.
</event>
<event>
 5   0  0.2499890E-03  0.1199868E+04  0.7818609E-02  0.9112972E-01
       -2   -1    0    0    0  501  0.00000000000E+00  0.00000000000E+00  0.43511285077E+03  0.43511285077E+03  0.25500000920E-02 0.  1.
        2   -1    0    0  501    0  0.00000000000E+00  0.00000000000E+00 -0.82718978167E+03  0.82718978167E+03  0.25500000920E-02 0. -1.
    10030    2    1    2    0    0  0.00000000000E+00  0.00000000000E+00 -0.39207693090E+03  0.12623026324E+04  0.11998681661E+04 0.  0.
        5    1    3    3  502    0  0.52368511150E+03 -0.28481875048E+03 -0.12522320390E+03  0.60915577435E+03  0.46999998093E+01 0.  1.
       -5    1    3    3    0  502 -0.52368511150E+03  0.28481875048E+03 -0.26685372700E+03  0.65314685810E+03  0.46999998093E+01 0. -1.
</event>
<event>
 5   0  0.1403154E-03  0.1195035E+04  0.7818609E-02  0.9117214E-01
        1   -1    0    0  501    0  0.00000000000E+00  0.00000000000E+00  0.74518813356E+03  0.74518813358E+03  0.50400001928E-02 0.  1.
       -1   -1    0    0    0  501  0.00000000000E+00  0.00000000000E+00 -0.47910999548E+03  0.47910999551E+03  0.50400001928E-02 0. -1.
    10030    2    1    2    0    0  0.00000000000E+00  0.00000000000E+00  0.26607813808E+03  0.12242981291E+04  0.11950348670E+04 0.  0.
        3    1    3    3  502    0 -0.26103316140E+03 -0.45491863942E+03 -0.16021816963E+03  0.54841512737E+03  0.10100000352E+00 0.  1.
       -3    1    3    3    0  502  0.26103316140E+03  0.45491863942E+03  0.42629630771E+03  0.67588300172E+03  0.10100000352E+00 0. -1.
</event>
<event>
 5   0  0.2499890E-03  0.1198526E+04  0.7818609E-02  0.9114147E-01
        2   -1    0    0  501    0  0.00000000000E+00  0.00000000000E+00  0.10639502720E+04  0.10639502720E+04  0.25500000920E-02 0.  1.
       -2   -1    0    0    0  501  0.00000000000E+00  0.00000000000E+00 -0.33753108617E+03  0.33753108618E+03  0.25500000920E-02 0. -1.
    10030    2    1    2    0    0  0.00000000000E+00  0.00000000000E+00  0.72641918582E+03  0.14014813582E+04  0.11985262466E+04 0.  0.
        5    1    3    3  502    0  0.13253813012E+03 -0.52480748125E+03  0.66385652425E+03  0.85657271910E+03  0.46999998093E+01 0.  1.
       -5    1    3    3    0  502 -0.13253813012E+03  0.52480748125E+03  0.62562661570E+02  0.54490863907E+03  0.46999998093E+01 0. -1.
</event>
<event>
 5   0  0.1403154E-03  0.1218450E+04  0.7818609E-02  0.9096859E-01
       -1   -1    0    0    0  501  0.00000000000E+00  0.00000000000E+00  0.28383225480E+03  0.28383225485E+03  0.50400001928E-02 0.  1.
        1   -1    0    0  501    0  0.00000000000E+00  0.00000000000E+00 -0.13076567649E+04  0.13076567649E+04  0.50400001928E-02 0. -1.
    10030    2    1    2    0    0  0.00000000000E+00  0.00000000000E+00 -0.10238245101E+04  0.15914890198E+04  0.12184501108E+04 0.  0.
        3    1    3    3  502    0  0.50081064286E+03  0.26494351699E+03 -0.80441242812E+03  0.98391347786E+03  0.10100000352E+00 0. -1.
       -3    1    3    3    0  502 -0.50081064286E+03 -0.26494351699E+03 -0.21941208197E+03  0.60757554189E+03  0.10100000352E+00 0.  1.
</event>
<event>
 5   0  0.2579442E-03  0.1161799E+04  0.7818609E-02  0.9146967E-01
       -2   -1    0    0    0  501  0.00000000000E+00  0.00000000000E+00  0.35246647842E+03  0.35246647843E+03  0.25500000920E-02 0.  1.
        2   -1    0    0  501    0  0.00000000000E+00  0.00000000000E+00 -0.95737964952E+03  0.95737964952E+03  0.25500000920E-02 0. -1.
    10030    2    1    2    0    0  0.00000000000E+00  0.00000000000E+00 -0.60491317109E+03  0.13098461280E+04  0.11617990077E+04 0.  0.
        4    1    3    3  502    0  0.55153616573E+01  0.43937302466E+03  0.12591243070E+03  0.45709367433E+03  0.12699999809E+01 0.  1.
       -4    1    3    3    0  502 -0.55153616573E+01 -0.43937302466E+03 -0.73082560180E+03  0.85275245362E+03  0.12699999809E+01 0. -1.
</event>
<event>
 5   0  0.1455076E-03  0.1206092E+04  0.7818609E-02  0.9107541E-01
       -1   -1    0    0    0  501  0.00000000000E+00  0.00000000000E+00  0.24094379032E+03  0.24094379037E+03  0.50400001928E-02 0. -1.
        1   -1    0    0  501    0  0.00000000000E+00  0.00000000000E+00 -0.15093330854E+04  0.15093330854E+04  0.50400001928E-02 0.  1.
    10030    2    1    2    0    0  0.00000000000E+00  0.00000000000E+00 -0.12683892951E+04  0.17502768758E+04  0.12060919277E+04 0.  0.
        4    1    3    3  502    0  0.49592137230E+03 -0.33827042645E+03 -0.55085584843E+03  0.81474454129E+03  0.12699999809E+01 0. -1.
       -4    1    3    3    0  502 -0.49592137230E+03  0.33827042645E+03 -0.71753344667E+03  0.93553233451E+03  0.12699999809E+01 0.  1.
</event>
<event>
 5   0  0.2579442E-03  0.1201353E+04  0.7818609E-02  0.9111673E-01
       -2   -1    0    0    0  501  0.00000000000E+00  0.00000000000E+00  0.99670212581E+03  0.99670212581E+03  0.25500000920E-02 0. -1.
        2   -1    0    0  501    0  0.00000000000E+00  0.00000000000E+00 -0.36200627904E+03  0.36200627905E+03  0.25500000920E-02 0.  1.
    10030    2    1    2    0    0  0.00000000000E+00  0.00000000000E+00  0.63469584677E+03  0.13587084049E+04  0.12013532834E+04 0.  0.
        4    1    3    3  502    0 -0.31570488693E+03  0.47133674131E+03  0.94045888173E+02  0.57504272999E+03  0.12699999809E+01 0.  1.
       -4    1    3    3    0  502  0.31570488693E+03 -0.47133674131E+03  0.54064995860E+03  0.78366567487E+03  0.12699999809E+01 0. -1.
</event>
<event>
 5   0  0.2484507E-03  0.1202511E+04  0.7818609E-02  0.9110662E-01
       -2   -1    0    0    0  501  0.00000000000E+00  0.00000000000E+00  0.58744739139E+03  0.58744739139E+03  0.25500000920E-02 0.  1.
        2   -1    0    0  501    0  0.00000000000E+00  0.00000000000E+00 -0.61538789498E+03  0.61538789499E+03  0.25500000920E-02 0. -1.
    10030    2    1    2    0    0  0.00000000000E+00  0.00000000000E+00 -0.27940503595E+02  0.12028352864E+04  0.12025107294E+04 0.  0.
        2    1    3    3  502    0 -0.20913656056E+03  0.21678785815E+03  0.50652866254E+03  0.58932704196E+03  0.25500000920E-02 0.  1.
       -2    1    3    3    0  502  0.20913656056E+03 -0.21678785815E+03 -0.53446916614E+03  0.61350824442E+03  0.25500000920E-02 0. -1.
</event>
<event>
 5   0  0.1404833E-03  0.1187882E+04  0.7818609E-02  0.9123530E-01
        1   -1    0    0  501    0  0.00000000000E+00  0.00000000000E+00  0.70456775227E+03  0.70456775229E+03  0.50400001928E-02 0.  1.
       -1   -1    0    0    0  501  0.00000000000E+00  0.00000000000E+00 -0.50068448165E+03  0.50068448168E+03  0.50400001928E-02 0. -1.
    10030    2    1    2    0    0  0.00000000000E+00  0.00000000000E+00  0.20388327061E+03  0.12052522340E+04  0.11878823845E+04 0.  0.
        1    1    3    3  502    0 -0.38822295872E+03 -0.63701287268E+02 -0.34952688039E+03  0.52625465301E+03  0.50400001928E-02 0. -1.
       -1    1    3    3    0  502  0.38822295872E+03  0.63701287268E+02  0.55341015100E+03  0.67899758095E+03  0.50400001928E-02 0.  1.
</event>
<event>
 5   0  0.9678750E-04  0.1235132E+04  0.7818609E-02  0.9082649E-01
       -3   -1    0    0    0  501  0.00000000000E+00  0.00000000000E+00  0.69855882117E+03  0.69855882847E+03  0.10100000352E+00 0.  1.
        3   -1    0    0  501    0  0.00000000000E+00  0.00000000000E+00 -0.54596412828E+03  0.54596413762E+03  0.10100000352E+00 0. -1.
    10030    2    1    2    0    0  0.00000000000E+00  0.00000000000E+00  0.15259469289E+03  0.12445229661E+04  0.12351324920E+04 0.  0.
        2    1    3    3  502    0 -0.18764210401E+03  0.26147382218E+03 -0.45478671318E+03  0.55714367391E+03  0.25500000920E-02 0. -1.
       -2    1    3    3    0  502  0.18764210401E+03 -0.26147382218E+03  0.60738140607E+03  0.68737929219E+03  0.25500000920E-02 0.  1.
</event>
<event>
 5   0  0.1404833E-03  0.1196988E+04  0.7818609E-02  0.9115497E-01
        1   -1    0    0  501    0  0.00000000000E+00  0.00000000000E+00  0.13554714185E+04  0.13554714186E+04  0.50400001928E-02 0.  1.
       -1   -1    0    0    0  501  0.00000000000E+00  0.00000000000E+00 -0.26425884163E+03  0.26425884168E+03  0.50400001928E-02 0. -1.
    10030    2    1    2    0    0  0.00000000000E+00  0.00000000000E+00  0.10912125769E+04  0.16197302602E+04  0.11969883992E+04 0.  0.
        1    1    3    3  502    0 -0.50322504143E+03  0.26236978058E+03  0.80278701887E+03  0.98312783593E+03  0.50400001928E-02 0.  1.
       -1    1    3    3    0  502  0.50322504143E+03 -0.26236978058E+03  0.28842555805E+03  0.63660242431E+03  0.50400001928E-02 0. -1.
</event>
<event>
 5   0  0.2499890E-03  0.1146146E+04  0.7818609E-02  0.9161346E-01
        2   -1    0    0  501    0  0.00000000000E+00  0.00000000000E+00  0.25016929153E+04  0.25016929153E+04  0.25500000920E-02 0. -1.
       -2   -1    0    0    0  501  0.00000000000E+00  0.00000000000E+00 -0.13127618803E+03  0.13127618806E+03  0.25500000920E-02 0.  1.
    10030    2    1    2    0    0  0.00000000000E+00  0.00000000000E+00  0.23704167273E+04  0.26329691034E+04  0.11461460807E+04 0.  0.
        5    1    3    3  502    0 -0.20515941401E+03 -0.47127962834E+02  0.24096145054E+04  0.24187963090E+04  0.46999998093E+01 0. -1.
       -5    1    3    3    0  502  0.20515941401E+03  0.47127962834E+02 -0.39197778085E+02  0.21417279436E+03  0.46999998093E+01 0.  1.
</event>
<event>
 5   0  0.2517023E-03  0.1197984E+04  0.7818609E-02  0.9114623E-01
        2   -1    0    0  501    0  0.00000000000E+00  0.00000000000E+00  0.15021148169E+04  0.15021148169E+04  0.25500000920E-02 0. -1.
       -2   -1    0    0    0  501  0.00000000000E+00  0.00000000000E+00 -0.23885744336E+03  0.23885744338E+03  0.25500000920E-02 0.  1.
    10030    2    1    2    0    0  0.00000000000E+00  0.00000000000E+00  0.12632573736E+04  0.17409722603E+04  0.11979838143E+04 0.  0.
        3    1    3    3  502    0  0.47312012018E+03  0.14553078265E+03  0.11218065642E+04  0.12261614227E+04  0.10100000352E+00 0. -1.
       -3    1    3    3    0  502 -0.47312012018E+03 -0.14553078265E+03  0.14145080932E+03  0.51481083757E+03  0.10100000352E+00 0.  1.
</event>
<event>
 5   0  0.2499890E-03  0.1201488E+04  0.7818609E-02  0.9111555E-01
       -2   -1    0    0    0  501  0.00000000000E+00  0.00000000000E+00  0.83671710331E+03  0.83671710332E+03  0.25500000920E-02 0.  1.
        2   -1    0    0  501    0  0.00000000000E+00  0.00000000000E+00 -0.43132046547E+03  0.43132046548E+03  0.25500000920E-02 0. -1.
    10030    2    1    2    0    0  0.00000000000E+00  0.00000000000E+00  0.40539663784E+03  0.12680375688E+04  0.12014877619E+04 0.  0.
        5    1    3    3  502    0  0.46581999798E+03  0.77222572243E+02  0.59464378458E+03  0.75932530362E+03  0.46999998093E+01 0.  1.
       -5    1    3    3    0  502 -0.46581999798E+03 -0.77222572243E+02 -0.18924714674E+03  0.50871226517E+03  0.46999998093E+01 0. -1.
</event>
<event>
 5   0  0.1423024E-03  0.1195082E+04  0.7818609E-02  0.9117172E-01
        1   -1    0    0  501    0  0.00000000000E+00  0.00000000000E+00  0.44053078784E+03  0.44053078787E+03  0.50400001928E-02 0. -1.
       -1   -1    0    0    0  501  0.00000000000E+00  0.00000000000E+00 -0.81051190985E+03  0.81051190986E+03  0.50400001928E-02 0.  1.
    10030    2    1    2    0    0  0.00000000000E+00  0.00000000000E+00 -0.36998112201E+03  0.12510426977E+04  0.11950823406E+04 0.  0.
        2    1    3    3  502    0  0.21807605419E+03 -0.10999327336E+03  0.38588915658E+03  0.45669040582E+03  0.25500000920E-02 0. -1.
       -2    1    3    3    0  502 -0.21807605419E+03  0.10999327336E+03 -0.75587027859E+03  0.79435229191E+03  0.25500000920E-02 0.  1.
</event>
<event>
 5   0  0.2579442E-03  0.1187184E+04  0.7818609E-02  0.9124149E-01
        2   -1    0    0  501    0  0.00000000000E+00  0.00000000000E+00  0.12549757487E+04  0.12549757487E+04  0.25500000920E-02 0. -1.
       -2   -1    0    0    0  501  0.00000000000E+00  0.00000000000E+00 -0.28076346660E+03  0.28076346661E+03  0.25500000920E-02 0.  1.
    10030    2    1    2    0    0  0.00000000000E+00  0.00000000000E+00  0.97421228213E+03  0.15357392154E+04  0.11871837966E+04 0.  0.
        4    1    3    3  502    0 -0.40377874116E+03  0.40223627318E+03  0.70169708971E+03  0.90399762714E+03  0.12699999809E+01 0.  1.
       -4    1    3    3    0  502  0.40377874116E+03 -0.40223627318E+03  0.27251519243E+03  0.63174158821E+03  0.12699999809E+01 0. -1.
</event>
<event>
 5   0  0.1404833E-03  0.1196036E+04  0.7818609E-02  0.9116334E-01
        1   -1    0    0  501    0  0.00000000000E+00  0.00000000000E+00  0.52314156231E+03  0.52314156234E+03  0.50400001928E-02 0.  1.
       -1   -1    0    0    0  501  0.00000000000E+00  0.00000000000E+00 -0.68361083850E+03  0.68361083852E+03  0.50400001928E-02 0. -1.
    10030    2    1    2    0    0  0.00000000000E+00  0.00000000000E+00 -0.16046927619E+03  0.12067524009E+04  0.11960355214E+04 0.  0.
        1    1    3    3  502    0  0.11592005256E+03  0.53762284498E+02  0.50920669113E+03  0.52499456772E+03  0.50400001928E-02 0.  1.
       -1    1    3    3    0  502 -0.11592005256E+03 -0.53762284498E+02 -0.66967596732E+03  0.68175783314E+03  0.50400001928E-02 0. -1.
</event>
<event>
 5   0  0.2517023E-03  0.1188655E+04  0.7818609E-02  0.9122845E-01
        2   -1    0    0  501    0  0.00000000000E+00  0.00000000000E+00  0.63411439882E+03  0.63411439883E+03  0.25500000920E-02 0.  1.
       -2   -1    0    0    0  501  0.00000000000E+00  0.00000000000E+00 -0.55703693148E+03  0.55703693149E+03  0.25500000920E-02 0. -1.
    10030    2    1    2    0    0  0.00000000000E+00  0.00000000000E+00  0.77077467342E+02  0.11911513303E+04  0.11886549355E+04 0.  0.
        3    1    3    3  502    0  0.38223044277E+03 -0.35235308615E+03  0.32719285261E+03  0.61425400422E+03  0.10100000352E+00 0. -1.
       -3    1    3    3    0  502 -0.38223044277E+03  0.35235308615E+03 -0.25011538527E+03  0.57689732609E+03  0.10100000352E+00 0.  1.
</event>
<event>
 5   0  0.1404833E-03  0.1216077E+04  0.7818609E-02  0.9098900E-01
        1   -1    0    0  501    0  0.00000000000E+00  0.00000000000E+00  0.93194869221E+03  0.93194869222E+03  0.50400001928E-02 0.  1.
       -1   -1    0    0    0  501  0.00000000000E+00  0.00000000000E+00 -0.39670706153E+03  0.39670706156E+03  0.50400001928E-02 0. -1.
    10030    2    1    2    0    0  0.00000000000E+00  0.00000000000E+00  0.53524163068E+03  0.13286557538E+04  0.12160766871E+04 0.  0.
        1    1    3    3  502    0  0.16064902206E+03  0.31215517851E+03 -0.27478732334E+03  0.44582175458E+03  0.50400001928E-02 0. -1.
       -1    1    3    3    0  502 -0.16064902206E+03 -0.31215517851E+03  0.81002895402E+03  0.88283399920E+03  0.50400001928E-02 0.  1.
</event>
<event>
 5   0  0.2499890E-03  0.1151608E+04  0.7818609E-02  0.9156301E-01
        2   -1    0    0  501    0  0.00000000000E+00  0.00000000000E+00  0.96286856595E+03  0.96286856595E+03  0.25500000920E-02 0.  1.
       -2   -1    0    0    0  501  0.00000000000E+00  0.00000000000E+00 -0.34433612587E+03  0.34433612588E+03  0.25500000920E-02 0. -1.
    10030    2    1    2    0    0  0.00000000000E+00  0.00000000000E+00  0.61853244007E+03  0.13072046918E+04  0.11516083218E+04 0.  0.
        5    1    3    3  502    0  0.47663666861E+03  0.30635483330E+03  0.19299313310E+03  0.59858519625E+03  0.46999998093E+01 0.  1.
       -5    1    3    3    0  502 -0.47663666861E+03 -0.30635483330E+03  0.42553930697E+03  0.70861949558E+03  0.46999998093E+01 0. -1.
</event>
<event>
 5   0  0.9678750E-04  0.1155413E+04  0.7818609E-02  0.9152804E-01
       -3   -1    0    0    0  501  0.00000000000E+00  0.00000000000E+00  0.28246806634E+03  0.28246808439E+03  0.10100000352E+00 0. -1.
        3   -1    0    0  501    0  0.00000000000E+00  0.00000000000E+00 -0.11815314129E+04  0.11815314172E+04  0.10100000352E+00 0.  1.
    10030    2    1    2    0    0  0.00000000000E+00  0.00000000000E+00 -0.89906334659E+03  0.14639995016E+04  0.11554131900E+04 0.  0.
        4    1    3    3  502    0  0.27564943731E+03  0.48186011662E+03 -0.24691190333E+03  0.60756800869E+03  0.12699999809E+01 0. -1.
       -4    1    3    3    0  502 -0.27564943731E+03 -0.48186011662E+03 -0.65215144326E+03  0.85643149295E+03  0.12699999809E+01 0.  1.
</event>
<event>
 5   0  0.1455076E-03  0.1195996E+04  0.7818609E-02  0.9116368E-01
       -1   -1    0    0    0  501  0.00000000000E+00  0.00000000000E+00  0.16466675226E+03  0.16466675234E+03  0.50400001928E-02 0.  1.
        1   -1    0    0  501    0  0.00000000000E+00  0.00000000000E+00 -0.21716700555E+04  0.21716700555E+04  0.50400001928E-02 0. -1.
    10030    2    1    2    0    0  0.00000000000E+00  0.00000000000E+00 -0.20070033032E+04  0.23363368078E+04  0.11959964132E+04 0.  0.
        4    1    3    3  502    0  0.30392985867E+03 -0.50848136753E+03 -0.84391922013E+03  0.10310809489E+04  0.12699999809E+01 0.  1.
       -4    1    3    3    0  502 -0.30392985867E+03  0.50848136753E+03 -0.11630840831E+04  0.13052558590E+04  0.12699999809E+01 0. -1.
</event>
<event>
 5   0  0.2484507E-03  0.1199284E+04  0.7818609E-02  0.9113483E-01
        2   -1    0    0  501    0  0.00000000000E+00  0.00000000000E+00  0.94929174093E+03  0.94929174093E+03  0.25500000920E-02 0.  1.
       -2   -1    0    0    0  501  0.00000000000E+00  0.00000000000E+00 -0.37877785117E+03  0.37877785118E+03  0.25500000920E-02 0. -1.
    10030    2    1    2    0    0  0.00000000000E+00  0.00000000000E+00  0.57051388976E+03  0.13280695921E+04  0.11992842628E+04 0.  0.
        2    1    3    3  502    0  0.10326826606E+03 -0.37312408403E+03 -0.22182966284E+03  0.44619986125E+03  0.25500000920E-02 0. -1.
       -2    1    3    3    0  502 -0.10326826606E+03  0.37312408403E+03  0.79234355260E+03  0.88186973086E+03  0.25500000920E-02 0.  1.
</event>
<event>
 5   0  0.2517023E-03  0.1198495E+04  0.7818609E-02  0.9114175E-01
       -2   -1    0    0    0  501  0.00000000000E+00  0.00000000000E+00  0.38345644775E+03  0.38345644776E+03  0.25500000920E-02 0. -1.
        2   -1    0    0  501    0  0.00000000000E+00  0.00000000000E+00 -0.93647592655E+03  0.93647592655E+03  0.25500000920E-02 0.  1.
    10030    2    1    2    0    0  0.00000000000E+00  0.00000000000E+00 -0.55301947880E+03  0.13199323743E+04  0.11984952769E+04 0.  0.
        3    1    3    3  502    0  0.12166006091E+03 -0.24803428930E+03  0.30913773751E+03  0.41459417512E+03  0.10100000352E+00 0. -1.
       -3    1    3    3    0  502 -0.12166006091E+03  0.24803428930E+03 -0.86215721630E+03  0.90533819919E+03  0.10100000352E+00 0.  1.
</event>
<event>
 5   0  0.1469851E-03  0.1207267E+04  0.7818609E-02  0.9106520E-01
       -1   -1    0    0    0  501  0.00000000000E+00  0.00000000000E+00  0.45337918653E+03  0.45337918656E+03  0.50400001928E-02 0.  1.
        1   -1    0    0  501    0  0.00000000000E+00  0.00000000000E+00 -0.80368330442E+03  0.80368330444E+03  0.50400001928E-02 0. -1.
    10030    2    1    2    0    0  0.00000000000E+00  0.00000000000E+00 -0.35030411789E+03  0.12570624910E+04  0.12072668020E+04 0.  0.
        5    1    3    3  502    0 -0.43891272354E+03 -0.26638075510E+03 -0.50565251063E+03  0.72063141555E+03  0.46999998093E+01 0.  1.
       -5    1    3    3    0  502  0.43891272354E+03  0.26638075510E+03  0.15534839274E+03  0.53643107545E+03  0.46999998093E+01 0. -1.
</event>
<event>
 5   0  0.9678750E-04  0.1195939E+04  0.7818609E-02  0.9116418E-01
        4   -1    0    0  501    0  0.00000000000E+00  0.00000000000E+00  0.32565856954E+03  0.32566104590E+03  0.12699999809E+01 0. -1.
       -4   -1    0    0    0  501  0.00000000000E+00  0.00000000000E+00 -0.10979765072E+04  0.10979772417E+04  0.12699999809E+01 0.  1.
    10030    2    1    2    0    0  0.00000000000E+00  0.00000000000E+00 -0.77231793766E+03  0.14236382876E+04  0.11959393701E+04 0.  0.
        4    1    3    3  502    0 -0.58177567491E+03 -0.94155573487E+02 -0.50660609296E+03  0.77716121510E+03  0.12699999809E+01 0.  1.
       -4    1    3    3    0  502  0.58177567491E+03  0.94155573487E+02 -0.26571184470E+03  0.64647707248E+03  0.12699999809E+01 0. -1.
</event>
<event>
 5   0  0.2579442E-03  0.1208438E+04  0.7818609E-02  0.9105503E-01
       -2   -1    0    0    0  501  0.00000000000E+00  0.00000000000E+00  0.55817687838E+03  0.55817687839E+03  0.25500000920E-02 0.  1.
        2   -1    0    0  501    0  0.00000000000E+00  0.00000000000E+00 -0.65405906215E+03  0.65405906216E+03  0.25500000920E-02 0. -1.
    10030    2    1    2    0    0  0.00000000000E+00  0.00000000000E+00 -0.95882183771E+02  0.12122359405E+04  0.12084380755E+04 0.  0.
        4    1    3    3  502    0 -0.30466118982E+02  0.44702363611E+03  0.35869780260E+03  0.57395473876E+03  0.12699999809E+01 0.  1.
       -4    1    3    3    0  502  0.30466118982E+02 -0.44702363611E+03 -0.45457998637E+03  0.63828120179E+03  0.12699999809E+01 0. -1.
</event>
<event>
 5   0  0.2484507E-03  0.1199270E+04  0.7818609E-02  0.9113495E-01
       -2   -1    0    0    0  501  0.00000000000E+00  0.00000000000E+00  0.70558330196E+03  0.70558330196E+03  0.25500000920E-02 0. -1.
        2   -1    0    0  501    0  0.00000000000E+00  0.00000000000E+00 -0.50959587315E+03  0.50959587315E+03  0.25500000920E-02 0.  1.
    10030    2    1    2    0    0  0.00000000000E+00  0.00000000000E+00  0.19598742881E+03  0.12151791751E+04  0.11992703429E+04 0.  0.
        2    1    3    3  502    0  0.22809125683E+03  0.29420064597E+03  0.57431759927E+03  0.68441240957E+03  0.25500000920E-02 0. -1.
       -2    1    3    3    0  502 -0.22809125683E+03 -0.29420064597E+03 -0.37833017046E+03  0.53076676555E+03  0.25500000920E-02 0.  1.
</event>
<event>
 5   0  0.1423024E-03  0.1194813E+04  0.7818609E-02  0.9117409E-01
        1   -1    0    0  501    0  0.00000000000E+00  0.00000000000E+00  0.10476004968E+04  0.10476004968E+04  0.50400001928E-02 0. -1.
       -1   -1    0    0    0  501  0.00000000000E+00  0.00000000000E+00 -0.34067787922E+03  0.34067787926E+03  0.50400001928E-02 0.  1.
    10030    2    1    2    0    0  0.00000000000E+00  0.00000000000E+00  0.70692261761E+03  0.13882783761E+04  0.11948126473E+04 0.  0.
        2    1    3    3  502    0 -0.17290343791E+03 -0.23702234132E+03  0.95812851358E+03  0.10020406367E+04  0.25500000920E-02 0. -1.
       -2    1    3    3    0  502  0.17290343791E+03  0.23702234132E+03 -0.25120589598E+03  0.38623773936E+03  0.25500000920E-02 0.  1.
</event>
<event>
 5   0  0.2484507E-03  0.1211112E+04  0.7818609E-02  0.9103186E-01
        2   -1    0    0  501    0  0.00000000000E+00  0.00000000000E+00  0.34791226853E+03  0.34791226853E+03  0.25500000920E-02 0. -1.
       -2   -1    0    0    0  501  0.00000000000E+00  0.00000000000E+00 -0.10539954836E+04  0.10539954836E+04  0.25500000920E-02 0.  1.
    10030    2    1    2    0    0  0.00000000000E+00  0.00000000000E+00 -0.70608321504E+03  0.14019077521E+04  0.12111118193E+04 0.  0.
        2    1    3    3  502    0  0.36422289412E+03  0.84491984799E+01  0.20686251092E+03  0.41895322410E+03  0.25500000920E-02 0. -1.
       -2    1    3    3    0  502 -0.36422289412E+03 -0.84491984799E+01 -0.91294572597E+03  0.98295452800E+03  0.25500000920E-02 0.  1.
</event>
<event>
 5   0  0.2499890E-03  0.1195569E+04  0.7818609E-02  0.9116744E-01
        2   -1    0    0  501    0  0.00000000000E+00  0.00000000000E+00  0.91472952878E+03  0.91472952878E+03  0.25500000920E-02 0.  1.
       -2   -1    0    0    0  501  0.00000000000E+00  0.00000000000E+00 -0.39065760870E+03  0.39065760871E+03  0.25500000920E-02 0. -1.
    10030    2    1    2    0    0  0.00000000000E+00  0.00000000000E+00  0.52407192008E+03  0.13053871375E+04  0.11955685682E+04 0.  0.
        5    1    3    3  502    0 -0.34446756958E+03  0.22081559319E+03 -0.21377537822E+03  0.46167026655E+03  0.46999998093E+01 0. -1.
       -5    1    3    3    0  502  0.34446756958E+03 -0.22081559319E+03  0.73784729830E+03  0.84371687094E+03  0.46999998093E+01 0.  1.
</event>
<event>
 5   0  0.2579442E-03  0.1201588E+04  0.7818609E-02  0.9111468E-01
        2   -1    0    0  501    0  0.00000000000E+00  0.00000000000E+00  0.70849868781E+03  0.70849868782E+03  0.25500000920E-02 0.  1.
       -2   -1    0    0    0  501  0.00000000000E+00  0.00000000000E+00 -0.50946234482E+03  0.50946234483E+03  0.25500000920E-02 0. -1.
    10030    2    1    2    0    0  0.00000000000E+00  0.00000000000E+00  0.19903634299E+03  0.12179610326E+04  0.12015879540E+04 0.  0.
        4    1    3    3  502    0  0.39371923102E+03  0.31811757496E+03 -0.22852447688E+03  0.55537255406E+03  0.12699999809E+01 0. -1.
       -4    1    3    3    0  502 -0.39371923102E+03 -0.31811757496E+03  0.42756081987E+03  0.66258847859E+03  0.12699999809E+01 0.  1.
</event>
<event>
 5   0  0.2484507E-03  0.1198972E+04  0.7818609E-02  0.9113757E-01
       -2   -1    0    0    0  501  0.00000000000E+00  0.00000000000E+00  0.11248700686E+04  0.11248700686E+04  0.25500000920E-02 0. -1.
        2   -1    0    0  501    0  0.00000000000E+00  0.00000000000E+00 -0.31948865843E+03  0.31948865844E+03  0.25500000920E-02 0.  1.
    10030    2    1    2    0    0  0.00000000000E+00  0.00000000000E+00  0.80538141015E+03  0.14443587270E+04  0.11989716079E+04 0.  0.
        2    1    3    3  502    0 -0.52497135639E+03  0.26711374941E+03  0.26833657202E+03  0.64726284927E+03  0.25500000920E-02 0.  1.
       -2    1    3    3    0  502  0.52497135639E+03 -0.26711374941E+03  0.53704483813E+03  0.79709587775E+03  0.25500000920E-02 0. -1.
</event>
<event>
 5   0  0.2499890E-03  0.1191311E+04  0.7818609E-02  0.9120496E-01
       -2   -1    0    0    0  501  0.00000000000E+00  0.00000000000E+00  0.14264639963E+03  0.14264639965E+03  0.25500000920E-02 0. -1.
        2   -1    0    0  501    0  0.00000000000E+00  0.00000000000E+00 -0.24873078802E+04  0.24873078802E+04  0.25500000920E-02 0.  1.
    10030    2    1    2    0    0  0.00000000000E+00  0.00000000000E+00 -0.23446614806E+04  0.26299542799E+04  0.11913110659E+04 0.  0.
        5    1    3    3  502    0  0.18506966358E+03 -0.48832991419E+03 -0.18047514459E+04  0.18787939634E+04  0.46999998093E+01 0.  1.
       -5    1    3    3    0  502 -0.18506966358E+03  0.48832991419E+03 -0.53991003474E+03  0.75116031650E+03  0.46999998093E+01 0. -1.
</event>
<event>
 5   0  0.1404833E-03  0.1193741E+04  0.7818609E-02  0.9118353E-01
       -1   -1    0    0    0  501  0.00000000000E+00  0.00000000000E+00  0.34976367804E+03  0.34976367807E+03  0.50400001928E-02 0. -1.
        1   -1    0    0  501    0  0.00000000000E+00  0.00000000000E+00 -0.10185577377E+04  0.10185577378E+04  0.50400001928E-02 0.  1.
    10030    2    1    2    0    0  0.00000000000E+00  0.00000000000E+00 -0.66879405971E+03  0.13683214158E+04  0.11937411791E+04 0.  0.
        1    1    3    3  502    0 -0.53901558968E+03 -0.32204276212E+02 -0.62591245650E+03  0.82664461805E+03  0.50400001928E-02 0.  1.
       -1    1    3    3    0  502  0.53901558968E+03  0.32204276212E+02 -0.42881603201E+02  0.54167679777E+03  0.50400001928E-02 0. -1.
</event>
<event>
 5   0  0.2517023E-03  0.1203380E+04  0.7818609E-02  0.9109903E-01
       -2   -1    0    0    0  501  0.00000000000E+00  0.00000000000E+00  0.36749177050E+03  0.36749177051E+03  0.25500000920E-02 0. -1.
        2   -1    0    0  501    0  0.00000000000E+00  0.00000000000E+00 -0.98514063730E+03  0.98514063730E+03  0.25500000920E-02 0.  1.
    10030    2    1    2    0    0  0.00000000000E+00  0.00000000000E+00 -0.61764886680E+03  0.13526324078E+04  0.12033803671E+04 0.  0.
        3    1    3    3  502    0 -0.17509245920E+03  0.39410021426E+03  0.16281014144E+03  0.46095498751E+03  0.10100000352E+00 0. -1.
       -3    1    3    3    0  502  0.17509245920E+03 -0.39410021426E+03 -0.78045900824E+03  0.89167742031E+03  0.10100000352E+00 0.  1.
</event>
<event>
 5   0  0.1404833E-03  0.1204974E+04  0.7818609E-02  0.9108514E-01
        1   -1    0    0  501    0  0.00000000000E+00  0.00000000000E+00  0.12819935472E+04  0.12819935473E+04  0.50400001928E-02 0.  1.
       -1   -1    0    0    0  501  0.00000000000E+00  0.00000000000E+00 -0.28314533435E+03  0.28314533439E+03  0.50400001928E-02 0. -1.
    10030    2    1    2    0    0  0.00000000000E+00  0.00000000000E+00  0.99884821289E+03  0.15651388816E+04  0.12049738447E+04 0.  0.
        1    1    3    3  502    0  0.22521082878E+03 -0.55354175406E+03  0.39997476827E+03  0.71910236140E+03  0.50400001928E-02 0. -1.
       -1    1    3    3    0  502 -0.22521082878E+03  0.55354175406E+03  0.59887344462E+03  0.84603652025E+03  0.50400001928E-02 0.  1.
</event>
<event>
 5   0  0.2484507E-03  0.1188412E+04  0.7818609E-02  0.9123060E-01
       -2   -1    0    0    0  501  0.00000000000E+00  0.00000000000E+00  0.53490512274E+03  0.53490512275E+03  0.25500000920E-02 0. -1.
        2   -1    0    0  501    0  0.00000000000E+00  0.00000000000E+00 -0.66008150950E+03  0.66008150951E+03  0.25500000920E-02 0.  1.
    10030    2    1    2    0    0  0.00000000000E+00  0.00000000000E+00 -0.12517638676E+03  0.11949866323E+04  0.11884123541E+04 0.  0.
        2    1    3    3  502    0  0.33412380081E+03 -0.46435354225E+03  0.98980660753E+02  0.58056877084E+03  0.25500000920E-02 0. -1.
       -2    1    3    3    0  502 -0.33412380081E+03  0.46435354225E+03 -0.22415704751E+03  0.61441786141E+03  0.25500000920E-02 0.  1.
</event>
<event>
 5   0  0.2499890E-03  0.1183566E+04  0.7818609E-02  0.9127364E-01
       -2   -1    0    0    0  501  0.00000000000E+00  0.00000000000E+00  0.39020952574E+03  0.39020952575E+03  0.25500000920E-02 0.  1.
        2   -1    0    0  501    0  0.00000000000E+00  0.00000000000E+00 -0.89748480715E+03  0.89748480716E+03  0.25500000920E-02 0. -1.
    10030    2    1    2    0    0  0.00000000000E+00  0.00000000000E+00 -0.50727528141E+03  0.12876943329E+04  0.11835660032E+04 0.  0.
        5    1    3    3  502    0 -0.56236690191E+03 -0.17904500365E+03 -0.20657222418E+03  0.62530618060E+03  0.46999998093E+01 0. -1.
       -5    1    3    3    0  502  0.56236690191E+03  0.17904500365E+03 -0.30070305723E+03  0.66238815231E+03  0.46999998093E+01 0.  1.
</event>
<event>
 5   0  0.1404833E-03  0.1227194E+04  0.7818609E-02  0.9089382E-01
       -1   -1    0    0    0  501  0.00000000000E+00  0.00000000000E+00  0.30167661268E+03  0.30167661272E+03  0.50400001928E-02 0.  1.
        1   -1    0    0  501    0  0.00000000000E+00  0.00000000000E+00 -0.12480284375E+04  0.12480284376E+04  0.50400001928E-02 0. -1.
    10030    2    1    2    0    0  0.00000000000E+00  0.00000000000E+00 -0.94635182486E+03  0.15497050503E+04  0.12271935326E+04 0.  0.
        1    1    3    3  502    0 -0.13664217952E+03 -0.98648687684E+00 -0.12285702366E+04  0.12361459803E+04  0.50400001928E-02 0. -1.
       -1    1    3    3    0  502  0.13664217952E+03  0.98648687684E+00  0.28221841176E+03  0.31355906994E+03  0.50400001928E-02 0.  1.
</event>
<event>
 5   0  0.1455076E-03  0.1196636E+04  0.7818609E-02  0.9115806E-01
        1   -1    0    0  501    0  0.00000000000E+00  0.00000000000E+00  0.94488173335E+03  0.94488173337E+03  0.50400001928E-02 0. -1.
       -1   -1    0    0    0  501  0.00000000000E+00  0.00000000000E+00 -0.37886677919E+03  0.37886677923E+03  0.50400001928E-02 0.  1.
    10030    2    1    2    0    0  0.00000000000E+00  0.00000000000E+00  0.56601495416E+03  0.13237485126E+04  0.11966357826E+04 0.  0.
        4    1    3    3  502    0 -0.56885460593E+02  0.17667802788E+03 -0.34621156319E+03  0.39282965844E+03  0.12699999809E+01 0.  1.
       -4    1    3    3    0  502  0.56885460593E+02 -0.17667802788E+03  0.91222651735E+03  0.93091885415E+03  0.12699999809E+01 0. -1.
</event>
<event>
 5   0  0.1403154E-03  0.1211654E+04  0.7818609E-02  0.9102717E-01
        1   -1    0    0  501    0  0.00000000000E+00  0.00000000000E+00  0.11927514874E+04  0.11927514875E+04  0.50400001928E-02 0.  1.
       -1   -1    0    0    0  501  0.00000000000E+00  0.00000000000E+00 -0.30771397909E+03  0.30771397914E+03  0.50400001928E-02 0. -1.
    10030    2    1    2    0    0  0.00000000000E+00  0.00000000000E+00  0.88503750835E+03  0.15004654666E+04  0.12116539214E+04 0.  0.
        3    1    3    3  502    0 -0.17164922634E+03  0.32631973429E+03  0.10378065325E+04  0.11013584498E+04  0.10100000352E+00 0.  1.
       -3    1    3    3    0  502  0.17164922634E+03 -0.32631973429E+03 -0.15276902416E+03  0.39910701676E+03  0.10100000352E+00 0. -1.
</event>
<event>
 5   0  0.9678750E-04  0.1209400E+04  0.7818609E-02  0.9104668E-01
        3   -1    0    0  501    0  0.00000000000E+00  0.00000000000E+00  0.35606102984E+03  0.35606104416E+03  0.10100000352E+00 0.  1.
       -3   -1    0    0    0  501  0.00000000000E+00  0.00000000000E+00 -0.10269642954E+04  0.10269643004E+04  0.10100000352E+00 0. -1.
    10030    2    1    2    0    0  0.00000000000E+00  0.00000000000E+00 -0.67090326556E+03  0.13830253445E+04  0.12093998147E+04 0.  0.
        4    1    3    3  502    0 -0.47724239986E+03 -0.16448206217E+03  0.45280631825E+02  0.50682009187E+03  0.12699999809E+01 0.  1.
       -4    1    3    3    0  502  0.47724239986E+03  0.16448206217E+03 -0.71618389739E+03  0.87620525266E+03  0.12699999809E+01 0. -1.
</event>
<event>
 5   0  0.1469851E-03  0.1197257E+04  0.7818609E-02  0.9115261E-01
       -1   -1    0    0    0  501  0.00000000000E+00  0.00000000000E+00  0.20452896191E+03  0.20452896197E+03  0.50400001928E-02 0.  1.
        1   -1    0    0  501    0  0.00000000000E+00  0.00000000000E+00 -0.17521051364E+04  0.17521051364E+04  0.50400001928E-02 0. -1.
    10030    2    1    2    0    0  0.00000000000E+00  0.00000000000E+00 -0.15475761745E+04  0.19566340984E+04  0.11972572736E+04 0.  0.
        5    1    3    3  502    0  0.14974766538E+03 -0.18525279946E+03 -0.16712818939E+04  0.16881789662E+04  0.46999998093E+01 0. -1.
       -5    1    3    3    0  502 -0.14974766538E+03  0.18525279946E+03  0.12370571941E+03  0.26845513220E+03  0.46999998093E+01 0.  1.
</event>
<event>
 5   0  0.1403154E-03  0.1170931E+04  0.7818609E-02  0.9138688E-01
        1   -1    0    0  501    0  0.00000000000E+00  0.00000000000E+00  0.11728021521E+04  0.11728021521E+04  0.50400001928E-02 0. -1.
       -1   -1    0    0    0  501  0.00000000000E+00  0.00000000000E+00 -0.29226577559E+03  0.29226577563E+03  0.50400001928E-02 0.  1.
    10030    2    1    2    0    0  0.00000000000E+00  0.00000000000E+00  0.88053637647E+03  0.14650679277E+04  0.11709311348E+04 0.  0.
        3    1    3    3  502    0  0.20384241725E+03  0.66955828120E+02  0.11218388256E+04  0.11421721301E+04  0.10100000352E+00 0. -1.
       -3    1    3    3    0  502 -0.20384241725E+03 -0.66955828120E+02 -0.24130244909E+03  0.32289579763E+03  0.10100000352E+00 0.  1.
</event>
<event>
 5   0  0.2499890E-03  0.1185908E+04  0.7818609E-02  0.9125282E-01
        2   -1    0    0  501    0  0.00000000000E+00  0.00000000000E+00  0.10010917020E+04  0.10010917020E+04  0.25500000920E-02 0.  1.
       -2   -1    0    0    0  501  0.00000000000E+00  0.00000000000E+00 -0.35121085897E+03  0.35121085898E+03  0.25500000920E-02 0. -1.
    10030    2    1    2    0    0  0.00000000000E+00  0.00000000000E+00  0.64988084303E+03  0.13523025610E+04  0.11859077141E+04 0.  0.
        5    1    3    3  502    0  0.54066144165E+03  0.50888758426E+02  0.53489781160E+02  0.54569928248E+03  0.46999998093E+01 0. -1.
       -5    1    3    3    0  502 -0.54066144165E+03 -0.50888758426E+02  0.59639106187E+03  0.80660327850E+03  0.46999998093E+01 0.  1.
</event>
<event>
 5   0  0.1469851E-03  0.1216701E+04  0.7818609E-02  0.9098362E-01
        1   -1    0    0  501    0  0.00000000000E+00  0.00000000000E+00  0.60436808691E+03  0.60436808693E+03  0.50400001928E-02 0. -1.
       -1   -1    0    0    0  501  0.00000000000E+00  0.00000000000E+00 -0.61235944734E+03  0.61235944736E+03  0.50400001928E-02 0.  1.
    10030    2    1    2    0    0  0.00000000000E+00  0.00000000000E+00 -0.79913604264E+01  0.12167275343E+04  0.12167012907E+04 0.  0.
        5    1    3    3  502    0  0.16228240419E+03  0.49822904455E+03 -0.31303415357E+03  0.61039350491E+03  0.46999998093E+01 0.  1.
       -5    1    3    3    0  502 -0.16228240419E+03 -0.49822904455E+03  0.30504279314E+03  0.60633402938E+03  0.46999998093E+01 0. -1.
</event>
<event>
 5   0  0.2499890E-03  0.1177138E+04  0.7818609E-02  0.9133106E-01
        2   -1    0    0  501    0  0.00000000000E+00  0.00000000000E+00  0.49335338551E+03  0.49335338551E+03  0.25500000920E-02 0. -1.
       -2   -1    0    0    0  501  0.00000000000E+00  0.00000000000E+00 -0.70216125646E+03  0.70216125647E+03  0.25500000920E-02 0.  1.
    10030    2    1    2    0    0  0.00000000000E+00  0.00000000000E+00 -0.20880787096E+03  0.11955146420E+04  0.11771382808E+04 0.  0.
        5    1    3    3  502    0 -0.10615302617E+03 -0.27934763395E+03 -0.61935777430E+03  0.68769884989E+03  0.46999998093E+01 0.  1.
       -5    1    3    3    0  502  0.10615302617E+03  0.27934763395E+03  0.41054990335E+03  0.50781579209E+03  0.46999998093E+01 0. -1.
</event>
<event>
 5   0  0.1455076E-03  0.1195882E+04  0.7818609E-02  0.9116469E-01
        1   -1    0    0  501    0  0.00000000000E+00  0.00000000000E+00  0.37745134217E+03  0.37745134220E+03  0.50400001928E-02 0. -1.
       -1   -1    0    0    0  501  0.00000000000E+00  0.00000000000E+00 -0.94723050773E+03  0.94723050774E+03  0.50400001928E-02 0.  1.
    10030    2    1    2    0    0  0.00000000000E+00  0.00000000000E+00 -0.56977916556E+03  0.13246818499E+04  0.11958819783E+04 0.  0.
        4    1    3    3  502    0 -0.33104003795E+03  0.63535322951E+02  0.26217160498E+03  0.42703607265E+03  0.12699999809E+01 0. -1.
       -4    1    3    3    0  502  0.33104003795E+03 -0.63535322951E+02 -0.83195077054E+03  0.89764577729E+03  0.12699999809E+01 0.  1.
</event>
<event>
 5   0  0.1469851E-03  0.1201913E+04  0.7818609E-02  0.9111184E-01
        1   -1    0    0  501    0  0.00000000000E+00  0.00000000000E+00  0.93527345964E+03  0.93527345965E+03  0.50400001928E-02 0.  1.
       -1   -1    0    0    0  501  0.00000000000E+00  0.00000000000E+00 -0.38614244966E+03  0.38614244970E+03  0.50400001928E-02 0. -1.
    10030    2    1    2    0    0  0.00000000000E+00  0.00000000000E+00  0.54913100997E+03  0.13214159093E+04  0.12019131164E+04 0.  0.
        5    1    3    3  502    0  0.38309141839E+03  0.20904967411E+03  0.72875786674E+03  0.84945330621E+03  0.46999998093E+01 0.  1.
       -5    1    3    3    0  502 -0.38309141839E+03 -0.20904967411E+03 -0.17962685677E+03  0.47196260314E+03  0.46999998093E+01 0. -1.
</event>
<event>
 5   0  0.2517023E-03  0.1195764E+04  0.7818609E-02  0.9116572E-01
        2   -1    0    0  501    0  0.00000000000E+00  0.00000000000E+00  0.82781877753E+03  0.82781877753E+03  0.25500000920E-02 0. -1.
       -2   -1    0    0    0  501  0.00000000000E+00  0.00000000000E+00 -0.43181296677E+03  0.43181296678E+03  0.25500000920E-02 0.  1.
    10030    2    1    2    0    0  0.00000000000E+00  0.00000000000E+00  0.39600581076E+03  0.12596317443E+04  0.11957639939E+04 0.  0.
        3    1    3    3  502    0 -0.55379018440E+03 -0.22449906792E+03  0.21852341454E+03  0.63626715516E+03  0.10100000352E+00 0. -1.
       -3    1    3    3    0  502  0.55379018440E+03  0.22449906792E+03  0.17748239622E+03  0.62336458915E+03  0.10100000352E+00 0.  1.
</event>
<event>
 5   0  0.2499890E-03  0.1199068E+04  0.7818609E-02  0.9113673E-01
       -2   -1    0    0    0  501  0.00000000000E+00  0.00000000000E+00  0.16082555178E+04  0.16082555178E+04  0.25500000920E-02 0. -1.
        2   -1    0    0  501    0  0.00000000000E+00  0.00000000000E+00 -0.22349744270E+03  0.22349744271E+03  0.25500000920E-02 0.  1.
    10030    2    1    2    0    0  0.00000000000E+00  0.00000000000E+00  0.13847580751E+04  0.18317529605E+04  0.11990679638E+04 0.  0.
        5    1    3    3  502    0  0.49139262800E+03  0.14160859120E+03  0.11703622769E+04  0.12772195023E+04  0.46999998093E+01 0. -1.
       -5    1    3    3    0  502 -0.49139262800E+03 -0.14160859120E+03  0.21439579820E+03  0.55453345818E+03  0.46999998093E+01 0.  1.
</event>
<event>
 5   0  0.9678750E-04  0.1192667E+04  0.7818609E-02  0.9119300E-01
        3   -1    0    0  501    0  0.00000000000E+00  0.00000000000E+00  0.30225967882E+03  0.30225969569E+03  0.10100000352E+00 0. -1.
       -3   -1    0    0    0  501  0.00000000000E+00  0.00000000000E+00 -0.11765167055E+04  0.11765167098E+04  0.10100000352E+00 0.  1.
    10030    2    1    2    0    0  0.00000000000E+00  0.00000000000E+00 -0.87425702665E+03  0.14787764055E+04  0.11926668893E+04 0.  0.
        2    1    3    3  502    0  0.29774913918E+03 -0.60234981480E+02  0.19913080832E+03  0.36322979188E+03  0.25500000920E-02 0. -1.
       -2    1    3    3    0  502 -0.29774913918E+03  0.60234981480E+02 -0.10733878350E+04  0.11155466136E+04  0.25500000920E-02 0.  1.
</event>
<event>
 5   0  0.2579442E-03  0.1191862E+04  0.7818609E-02  0.9120010E-01
       -2   -1    0    0    0  501  0.00000000000E+00  0.00000000000E+00  0.31837919383E+03  0.31837919384E+03  0.25500000920E-02 0.  1.
        2   -1    0    0  501    0  0.00000000000E+00  0.00000000000E+00 -0.11154428386E+04  0.11154428386E+04  0.25500000920E-02 0. -1.
    10030    2    1    2    0    0  0.00000000000E+00  0.00000000000E+00 -0.79706364472E+03  0.14338220324E+04  0.11918620587E+04 0.  0.
        4    1    3    3  502    0 -0.28170909289E+03  0.34317492489E+03  0.79659960630E+02  0.45108354472E+03  0.12699999809E+01 0.  1.
       -4    1    3    3    0  502  0.28170909289E+03 -0.34317492489E+03 -0.87672360535E+03  0.98273848768E+03  0.12699999809E+01 0. -1.
</event>
<event>
 5   0  0.1404833E-03  0.1160708E+04  0.7818609E-02  0.9147962E-01
       -1   -1    0    0    0  501  0.00000000000E+00  0.00000000000E+00  0.35232236061E+03  0.35232236064E+03  0.50400001928E-02 0.  1.
        1   -1    0    0  501    0  0.00000000000E+00  0.00000000000E+00 -0.95597289954E+03  0.95597289955E+03  0.50400001928E-02 0. -1.
    10030    2    1    2    0    0  0.00000000000E+00  0.00000000000E+00 -0.60365053893E+03  0.13082952602E+04  0.11607077646E+04 0.  0.
        1    1    3    3  502    0  0.42757709571E+03 -0.36892193825E+03 -0.15108542210E+03  0.58459590667E+03  0.50400001928E-02 0. -1.
       -1    1    3    3    0  502 -0.42757709571E+03  0.36892193825E+03 -0.45256511683E+03  0.72369935353E+03  0.50400001928E-02 0.  1.
</event>
<event>
 5   0  0.1423024E-03  0.1172141E+04  0.7818609E-02  0.9137597E-01
        1   -1    0    0  501    0  0.00000000000E+00  0.00000000000E+00  0.12992659009E+04  0.12992659010E+04  0.50400001928E-02 0. -1.
       -1   -1    0    0    0  501  0.00000000000E+00  0.00000000000E+00 -0.26436353746E+03  0.26436353751E+03  0.50400001928E-02 0.  1.
    10030    2    1    2    0    0  0.00000000000E+00  0.00000000000E+00  0.10349023635E+04  0.15636294385E+04  0.11721408272E+04 0.  0.
        2    1    3    3  502    0 -0.14200979318E+03  0.37145879976E+03  0.10917356026E+04  0.11619100857E+04  0.25500000920E-02 0. -1.
       -2    1    3    3    0  502  0.14200979318E+03 -0.37145879976E+03 -0.56833239154E+02  0.40171935273E+03  0.25500000920E-02 0.  1.
</event>
<event>
 5   0  0.1455076E-03  0.1209845E+04  0.7818609E-02  0.9104282E-01
        1   -1    0    0  501    0  0.00000000000E+00  0.00000000000E+00  0.35441133388E+03  0.35441133391E+03  0.50400001928E-02 0.  1.
       -1   -1    0    0    0  501  0.00000000000E+00  0.00000000000E+00 -0.10325048520E+04  0.10325048520E+04  0.50400001928E-02 0. -1.
    10030    2    1    2    0    0  0.00000000000E+00  0.00000000000E+00 -0.67809351810E+03  0.13869161859E+04  0.12098453155E+04 0.  0.
        4    1    3    3  502    0  0.99090196588E+01  0.55474742581E+03 -0.61533316747E+03  0.82854053311E+03  0.12699999809E+01 0. -1.
       -4    1    3    3    0  502 -0.99090196588E+01 -0.55474742581E+03 -0.62760350627E+02  0.55837565279E+03  0.12699999809E+01 0.  1.
</event>
<event>
 5   0  0.1455076E-03  0.1217019E+04  0.7818609E-02  0.9098089E-01
        1   -1    0    0  501    0  0.00000000000E+00  0.00000000000E+00  0.10994308537E+04  0.10994308537E+04  0.50400001928E-02 0. -1.
       -1   -1    0    0    0  501  0.00000000000E+00  0.00000000000E+00 -0.33679616225E+03  0.33679616228E+03  0.50400001928E-02 0.  1.
    10030    2    1    2    0    0  0.00000000000E+00  0.00000000000E+00  0.76263469142E+03  0.14362270160E+04  0.12170194612E+04 0.  0.
        4    1    3    3  502    0 -0.41948464493E+02 -0.20257998712E+03  0.10566546101E+04  0.10767167236E+04  0.12699999809E+01 0. -1.
       -4    1    3    3    0  502  0.41948464493E+02  0.20257998712E+03 -0.29401991868E+03  0.35951029240E+03  0.12699999809E+01 0.  1.
</event>
<event>
 5   0  0.1404833E-03  0.1203202E+04  0.7818609E-02  0.9110059E-01
       -1   -1    0    0    0  501  0.00000000000E+00  0.00000000000E+00  0.38691687291E+03  0.38691687295E+03  0.50400001928E-02 0.  1.
        1   -1    0    0  501    0  0.00000000000E+00  0.00000000000E+00 -0.93540399730E+03  0.93540399731E+03  0.50400001928E-02 0. -1.
    10030    2    1    2    0    0  0.00000000000E+00  0.00000000000E+00 -0.54848712438E+03  0.13223208703E+04  0.12032017114E+04 0.  0.
        1    1    3    3  502    0  0.58889968522E+03  0.95711089948E+02 -0.35908862062E+03  0.69635342282E+03  0.50400001928E-02 0.  1.
       -1    1    3    3    0  502 -0.58889968522E+03 -0.95711089948E+02 -0.18939850377E+03  0.62596744744E+03  0.50400001928E-02 0. -1.
</event>
<event>
 5   0  0.1469851E-03  0.1201354E+04  0.7818609E-02  0.9111672E-01
        1   -1    0    0  501    0  0.00000000000E+00  0.00000000000E+00  0.98167909029E+02  0.98167909159E+02  0.50400001928E-02 0. -1.
       -1   -1    0    0    0  501  0.00000000000E+00  0.00000000000E+00 -0.36754683410E+04  0.36754683410E+04  0.50400001928E-02 0.  1.
    10030    2    1    2    0    0  0.00000000000E+00  0.00000000000E+00 -0.35773004319E+04  0.37736362501E+04  0.12013543057E+04 0.  0.
        5    1    3    3  502    0 -0.56712716579E+03  0.33656851046E+02 -0.24011743852E+04  0.24674737129E+04  0.46999998093E+01 0.  1.
       -5    1    3    3    0  502  0.56712716579E+03 -0.33656851046E+02 -0.11761260467E+04  0.13061625372E+04  0.46999998093E+01 0. -1.
</event>
<event>
 5   0  0.2579442E-03  0.1200276E+04  0.7818609E-02  0.9112615E-01
       -2   -1    0    0    0  501  0.00000000000E+00  0.00000000000E+00  0.32207117490E+03  0.32207117491E+03  0.25500000920E-02 0. -1.
        2   -1    0    0  501    0  0.00000000000E+00  0.00000000000E+00 -0.11182798443E+04  0.11182798443E+04  0.25500000920E-02 0.  1.
    10030    2    1    2    0    0  0.00000000000E+00  0.00000000000E+00 -0.79620866941E+03  0.14403510192E+04  0.12002761405E+04 0.  0.
        4    1    3    3  502    0  0.59624421312E+03 -0.46253325792E+01 -0.47980716589E+03  0.76533984917E+03  0.12699999809E+01 0.  1.
       -4    1    3    3    0  502 -0.59624421312E+03  0.46253325792E+01 -0.31640150352E+03  0.67501117006E+03  0.12699999809E+01 0. -1.
</event>
<event>
 5   0  0.1469851E-03  0.1258566E+04  0.7818609E-02  0.9063084E-01
       -1   -1    0    0    0  501  0.00000000000E+00  0.00000000000E+00  0.20214135162E+03  0.20214135168E+03  0.50400001928E-02 0. -1.
        1   -1    0    0  501    0  0.00000000000E+00  0.00000000000E+00 -0.19590095695E+04  0.19590095695E+04  0.50400001928E-02 0.  1.
    10030    2    1    2    0    0  0.00000000000E+00  0.00000000000E+00 -0.17568682178E+04  0.21611509211E+04  0.12585655999E+04 0.  0.
        5    1    3    3  502    0  0.28787855547E+03  0.89963180962E+02  0.69906542382E+02  0.30963922764E+03  0.46999998093E+01 0. -1.
       -5    1    3    3    0  502 -0.28787855547E+03 -0.89963180962E+02 -0.18267747602E+04  0.18515116935E+04  0.46999998093E+01 0.  1.
</event>
<event>
 5   0  0.2579442E-03  0.1193076E+04  0.7818609E-02  0.9118939E-01
       -2   -1    0    0    0  501  0.00000000000E+00  0.00000000000E+00  0.67837038713E+03  0.67837038713E+03  0.25500000920E-02 0.  1.
        2   -1    0    0  501    0  0.00000000000E+00  0.00000000000E+00 -0.52457716068E+03  0.52457716068E+03  0.25500000920E-02 0. -1.
    10030    2    1    2    0    0  0.00000000000E+00  0.00000000000E+00  0.15379322645E+03  0.12029475478E+04  0.11930760438E+04 0.  0.
        4    1    3    3  502    0 -0.30405006331E+02  0.32554970024E+03 -0.42617949790E+03  0.53715700597E+03  0.12699999809E+01 0.  1.
       -4    1    3    3    0  502  0.30405006331E+02 -0.32554970024E+03  0.57997272434E+03  0.66579054185E+03  0.12699999809E+01 0. -1.
</event>
<event>
 5   0  0.1404833E-03  0.1195453E+04  0.7818609E-02  0.9116846E-01
       -1   -1    0    0    0  501  0.00000000000E+00  0.00000000000E+00  0.30608871767E+03  0.30608871772E+03  0.50400001928E-02 0. -1.
        1   -1    0    0  501    0  0.00000000000E+00  0.00000000000E+00 -0.11672335197E+04  0.11672335198E+04  0.50400001928E-02 0.  1.
    10030    2    1    2    0    0  0.00000000000E+00  0.00000000000E+00 -0.86114480207E+03  0.14733222375E+04  0.11954530711E+04 0.  0.
        1    1    3    3  502    0 -0.40420363276E+03  0.42150806373E+03 -0.58756873291E+03  0.82842419113E+03  0.50400001928E-02 0. -1.
       -1    1    3    3    0  502  0.40420363276E+03 -0.42150806373E+03 -0.27357606915E+03  0.64489804633E+03  0.50400001928E-02 0.  1.
</event>
<event>
 5   0  0.2580244E-03  0.1231465E+04  0.7818609E-02  0.9085753E-01
        2   -1    0    0  501    0  0.00000000000E+00  0.00000000000E+00  0.86130383978E+03  0.86130383979E+03  0.25500000920E-02 0.  1.
       -2   -1    0    0    0  501  0.00000000000E+00  0.00000000000E+00 -0.44017731592E+03  0.44017731593E+03  0.25500000920E-02 0. -1.
    10030    2    1    2    0    0  0.00000000000E+00  0.00000000000E+00  0.42112652386E+03  0.13014811557E+04  0.12314648390E+04 0.  0.
        1    1    3    3  502    0  0.50883022658E+03 -0.17574371459E+03 -0.10531538636E+03  0.54853020275E+03  0.50400001928E-02 0.  1.
       -1    1    3    3    0  502 -0.50883022658E+03  0.17574371459E+03  0.52644191022E+03  0.75295095296E+03  0.50400001928E-02 0. -1.
</event>
<event>
 5   0  0.1403154E-03  0.1066213E+04  0.7818609E-02  0.9238763E-01
        1   -1    0    0  501    0  0.00000000000E+00  0.00000000000E+00  0.65297442147E+03  0.65297442149E+03  0.50400001928E-02 0. -1.
       -1   -1    0    0    0  501  0.00000000000E+00  0.00000000000E+00 -0.43524316855E+03  0.43524316858E+03  0.50400001928E-02 0.  1.
    10030    2    1    2    0    0  0.00000000000E+00  0.00000000000E+00  0.21773125292E+03  0.10882175901E+04  0.10662132173E+04 0.  0.
        3    1    3    3  502    0  0.32958921265E+03  0.27265504761E+03 -0.21587180500E+03  0.47913512757E+03  0.10100000352E+00 0.  1.
       -3    1    3    3    0  502 -0.32958921265E+03 -0.27265504761E+03  0.43360305792E+03  0.60908246249E+03  0.10100000352E+00 0. -1.
</event>
<event>
 5   0  0.2484507E-03  0.1193648E+04  0.7818609E-02  0.9118434E-01
        2   -1    0    0  501    0  0.00000000000E+00  0.00000000000E+00  0.54171465689E+03  0.54171465690E+03  0.25500000920E-02 0. -1.
       -2   -1    0    0    0  501  0.00000000000E+00  0.00000000000E+00 -0.65754022829E+03  0.65754022829E+03  0.25500000920E-02 0.  1.
    10030    2    1    2    0    0  0.00000000000E+00  0.00000000000E+00 -0.11582557140E+03  0.11992548852E+04  0.11936484896E+04 0.  0.
        2    1    3    3  502    0  0.34770746130E+03 -0.43261810123E+02  0.42749942380E+03  0.55274571026E+03  0.25500000920E-02 0. -1.
       -2    1    3    3    0  502 -0.34770746130E+03  0.43261810123E+02 -0.54332499519E+03  0.64650917493E+03  0.25500000920E-02 0.  1.
</event>
<event>
 5   0  0.1404833E-03  0.1208497E+04  0.7818609E-02  0.9105451E-01
       -1   -1    0    0    0  501  0.00000000000E+00  0.00000000000E+00  0.23583873996E+03  0.23583874001E+03  0.50400001928E-02 0. -1.
        1   -1    0    0  501    0  0.00000000000E+00  0.00000000000E+00 -0.15481618828E+04  0.15481618829E+04  0.50400001928E-02 0.  1.
    10030    2    1    2    0    0  0.00000000000E+00  0.00000000000E+00 -0.13123231429E+04  0.17840006229E+04  0.12084974932E+04 0.  0.
        1    1    3    3  502    0  0.85609020925E+02  0.59813860792E+03 -0.64992485414E+03  0.88741253924E+03  0.50400001928E-02 0. -1.
       -1    1    3    3    0  502 -0.85609020925E+02 -0.59813860792E+03 -0.66239828874E+03  0.89658808363E+03  0.50400001928E-02 0.  1.
</event>
<event>
 5   0  0.1403154E-03  0.1199007E+04  0.7818609E-02  0.9113726E-01
        1   -1    0    0  501    0  0.00000000000E+00  0.00000000000E+00  0.17132924430E+04  0.17132924430E+04  0.50400001928E-02 0. -1.
       -1   -1    0    0    0  501  0.00000000000E+00  0.00000000000E+00 -0.20977409577E+03  0.20977409583E+03  0.50400001928E-02 0.  1.
    10030    2    1    2    0    0  0.00000000000E+00  0.00000000000E+00  0.15035183472E+04  0.19230665388E+04  0.11990068775E+04 0.  0.
        3    1    3    3  502    0 -0.34186166734E+03 -0.40783349936E+02 -0.35405343744E+02  0.34610147326E+03  0.10100000352E+00 0.  1.
       -3    1    3    3    0  502  0.34186166734E+03  0.40783349936E+02  0.15389236909E+04  0.15769650656E+04  0.10100000352E+00 0. -1.
</event>
<event>
 5   0  0.1404833E-03  0.1196770E+04  0.7818609E-02  0.9115688E-01
        1   -1    0    0  501    0  0.00000000000E+00  0.00000000000E+00  0.34921698577E+03  0.34921698581E+03  0.50400001928E-02 0. -1.
       -1   -1    0    0    0  501  0.00000000000E+00  0.00000000000E+00 -0.10253359834E+04  0.10253359834E+04  0.50400001928E-02 0.  1.
    10030    2    1    2    0    0  0.00000000000E+00  0.00000000000E+00 -0.67611899761E+03  0.13745529692E+04  0.11967702228E+04 0.  0.
        1    1    3    3  502    0 -0.10073914444E+03  0.16593608754E+03 -0.98816594993E+03  0.10070526823E+04  0.50400001928E-02 0.  1.
       -1    1    3    3    0  502  0.10073914444E+03 -0.16593608754E+03  0.31204695232E+03  0.36750028687E+03  0.50400001928E-02 0. -1.
</event>
<event>
 5   0  0.2499890E-03  0.1227115E+04  0.7818609E-02  0.9089448E-01
        2   -1    0    0  501    0  0.00000000000E+00  0.00000000000E+00  0.83267627350E+03  0.83267627350E+03  0.25500000920E-02 0. -1.
       -2   -1    0    0    0  501  0.00000000000E+00  0.00000000000E+00 -0.45210002477E+03  0.45210002478E+03  0.25500000920E-02 0.  1.
    10030    2    1    2    0    0  0.00000000000E+00  0.00000000000E+00  0.38057624873E+03  0.12847762983E+04  0.12271152576E+04 0.  0.
        5    1    3    3  502    0  0.42688224109E+03  0.33093480781E+03  0.49496839081E+03  0.73264049347E+03  0.46999998093E+01 0. -1.
       -5    1    3    3    0  502 -0.42688224109E+03 -0.33093480781E+03 -0.11439214208E+03  0.55213580480E+03  0.46999998093E+01 0.  1.
</event>
<event>
 5   0  0.2517023E-03  0.1202931E+04  0.7818609E-02  0.9110295E-01
       -2   -1    0    0    0  501  0.00000000000E+00  0.00000000000E+00  0.77680598553E+03  0.77680598554E+03  0.25500000920E-02 0. -1.
        2   -1    0    0  501    0  0.00000000000E+00  0.00000000000E+00 -0.46570279670E+03  0.46570279671E+03  0.25500000920E-02 0.  1.
    10030    2    1    2    0    0  0.00000000000E+00  0.00000000000E+00  0.31110318883E+03  0.12425087822E+04  0.12029309539E+04 0.  0.
        3    1    3    3  502    0  0.17944882565E+03  0.55902443372E+03  0.20677833003E+02  0.58748428192E+03  0.10100000352E+00 0. -1.
       -3    1    3    3    0  502 -0.17944882565E+03 -0.55902443372E+03  0.29042535583E+03  0.65502450033E+03  0.10100000352E+00 0.  1.
</event>
<event>
 5   0  0.2580244E-03  0.1166956E+04  0.7818609E-02  0.9142282E-01
       -2   -1    0    0    0  501  0.00000000000E+00  0.00000000000E+00  0.59506527832E+03  0.59506527833E+03  0.25500000920E-02 0.  1.
        2   -1    0    0  501    0  0.00000000000E+00  0.00000000000E+00 -0.57211593293E+03  0.57211593293E+03  0.25500000920E-02 0. -1.
    10030    2    1    2    0    0  0.00000000000E+00  0.00000000000E+00  0.22949345394E+02  0.11671812113E+04  0.11669555722E+04 0.  0.
        1    1    3    3  502    0  0.19707487335E+02 -0.55561950566E+03 -0.16560448871E+03  0.58010884050E+03  0.50400001928E-02 0. -1.
       -1    1    3    3    0  502 -0.19707487335E+02  0.55561950566E+03  0.18855383410E+03  0.58707237076E+03  0.50400001928E-02 0.  1.
</event>
<event>
 5   0  0.1423024E-03  0.1201174E+04  0.7818609E-02  0.9111829E-01
       -1   -1    0    0    0  501  0.00000000000E+00  0.00000000000E+00  0.52827637511E+03  0.52827637514E+03  0.50400001928E-02 0. -1.
        1   -1    0    0  501    0  0.00000000000E+00  0.00000000000E+00 -0.68279603544E+03  0.68279603546E+03  0.50400001928E-02 0.  1.
    10030    2    1    2    0    0  0.00000000000E+00  0.00000000000E+00 -0.15451966032E+03  0.12110724106E+04  0.12011744496E+04 0.  0.
        2    1    3    3  502    0 -0.37695465217E+03 -0.14567546305E+03 -0.52520550645E+03  0.66268919891E+03  0.25500000920E-02 0.  1.
       -2    1    3    3    0  502  0.37695465217E+03  0.14567546305E+03  0.37068584613E+03  0.54838321169E+03  0.25500000920E-02 0. -1.
</event>
<event>
 5   0  0.1404833E-03  0.1212943E+04  0.7818609E-02  0.9101602E-01
        1   -1    0    0  501    0  0.00000000000E+00  0.00000000000E+00  0.72694056560E+03  0.72694056561E+03  0.50400001928E-02 0.  1.
       -1   -1    0    0    0  501  0.00000000000E+00  0.00000000000E+00 -0.50596706099E+03  0.50596706101E+03  0.50400001928E-02 0. -1.
    10030    2    1    2    0    0  0.00000000000E+00  0.00000000000E+00  0.22097350461E+03  0.12329076266E+04  0.12129434966E+04 0.  0.
        1    1    3    3  502    0  0.41490262883E+03 -0.67201849543E+02  0.55488722153E+03  0.69610351862E+03  0.50400001928E-02 0.  1.
       -1    1    3    3    0  502 -0.41490262883E+03  0.67201849543E+02 -0.33391371692E+03  0.53680410800E+03  0.50400001928E-02 0. -1.
</event>
<event>
 5   0  0.2499890E-03  0.1204745E+04  0.7818609E-02  0.9108713E-01
       -2   -1    0    0    0  501  0.00000000000E+00  0.00000000000E+00  0.40595380014E+03  0.40595380014E+03  0.25500000920E-02 0.  1.
        2   -1    0    0  501    0  0.00000000000E+00  0.00000000000E+00 -0.89382777818E+03  0.89382777819E+03  0.25500000920E-02 0. -1.
    10030    2    1    2    0    0  0.00000000000E+00  0.00000000000E+00 -0.48787397805E+03  0.12997815783E+04  0.12047452564E+04 0.  0.
        5    1    3    3  502    0  0.45340143340E+02 -0.40278765771E+01 -0.89194978791E+03  0.89312287315E+03  0.46999998093E+01 0. -1.
       -5    1    3    3    0  502 -0.45340143340E+02  0.40278765771E+01  0.40407580986E+03  0.40665870518E+03  0.46999998093E+01 0.  1.
</event>
<event>
 5   0  0.1403154E-03  0.1250908E+04  0.7818609E-02  0.9069428E-01
        1   -1    0    0  501    0  0.00000000000E+00  0.00000000000E+00  0.36510328801E+03  0.36510328805E+03  0.50400001928E-02 0.  1.
       -1   -1    0    0    0  501  0.00000000000E+00  0.00000000000E+00 -0.10714570610E+04  0.10714570610E+04  0.50400001928E-02 0. -1.
    10030    2    1    2    0    0  0.00000000000E+00  0.00000000000E+00 -0.70635377297E+03  0.14365603490E+04  0.12509076640E+04 0.  0.
        3    1    3    3  502    0 -0.59029545542E+03  0.11482543291E+03 -0.15573348853E+03  0.62119766129E+03  0.10100000352E+00 0. -1.
       -3    1    3    3    0  502  0.59029545542E+03 -0.11482543291E+03 -0.55062028445E+03  0.81536268776E+03  0.10100000352E+00 0.  1.
</event>
<event>
 5   0  0.1455076E-03  0.1215405E+04  0.7818609E-02  0.9099479E-01
        1   -1    0    0  501    0  0.00000000000E+00  0.00000000000E+00  0.12234664608E+04  0.12234664608E+04  0.50400001928E-02 0.  1.
       -1   -1    0    0    0  501  0.00000000000E+00  0.00000000000E+00 -0.30184908663E+03  0.30184908668E+03  0.50400001928E-02 0. -1.
    10030    2    1    2    0    0  0.00000000000E+00  0.00000000000E+00  0.92161737414E+03  0.15253155475E+04  0.12154048441E+04 0.  0.
        4    1    3    3  502    0  0.12226869205E+03  0.58008323953E+03  0.29311695748E+03  0.66133604280E+03  0.12699999809E+01 0.  1.
       -4    1    3    3    0  502 -0.12226869205E+03 -0.58008323953E+03  0.62850041666E+03  0.86397950467E+03  0.12699999809E+01 0. -1.
</event>
<event>
 5   0  0.2499890E-03  0.1204780E+04  0.7818609E-02  0.9108683E-01
        2   -1    0    0  501    0  0.00000000000E+00  0.00000000000E+00  0.11776659364E+04  0.11776659364E+04  0.25500000920E-02 0. -1.
       -2   -1    0    0    0  501  0.00000000000E+00  0.00000000000E+00 -0.30812935797E+03  0.30812935798E+03  0.25500000920E-02 0.  1.
    10030    2    1    2    0    0  0.00000000000E+00  0.00000000000E+00  0.86953657846E+03  0.14857952944E+04  0.12047795631E+04 0.  0.
        5    1    3    3  502    0 -0.47232080880E+03 -0.33385359294E+03  0.22728071047E+03  0.62146904935E+03  0.46999998093E+01 0.  1.
       -5    1    3    3    0  502  0.47232080880E+03  0.33385359294E+03  0.64225586799E+03  0.86432624506E+03  0.46999998093E+01 0. -1.
</event>
<event>
 5   0  0.1469851E-03  0.1229938E+04  0.7818609E-02  0.9087048E-01
       -1   -1    0    0    0  501  0.00000000000E+00  0.00000000000E+00  0.95829084693E+03  0.95829084695E+03  0.50400001928E-02 0.  1.
        1   -1    0    0  501    0  0.00000000000E+00  0.00000000000E+00 -0.39464715263E+03  0.39464715266E+03  0.50400001928E-02 0. -1.
    10030    2    1    2    0    0  0.00000000000E+00  0.00000000000E+00  0.56364369430E+03  0.13529379996E+04  0.12299378101E+04 0.  0.
        5    1    3    3  502    0  0.58699072538E+03  0.16741752243E+03  0.36397629925E+03  0.71069513500E+03  0.46999998093E+01 0.  1.
       -5    1    3    3    0  502 -0.58699072538E+03 -0.16741752243E+03  0.19966739506E+03  0.64224286461E+03  0.46999998093E+01 0. -1.
</event>
<event>
 5   0  0.2499890E-03  0.1209881E+04  0.7818609E-02  0.9104251E-01
       -2   -1    0    0    0  501  0.00000000000E+00  0.00000000000E+00  0.19053706499E+03  0.19053706501E+03  0.25500000920E-02 0. -1.
        2   -1    0    0  501    0  0.00000000000E+00  0.00000000000E+00 -0.19206395784E+04  0.19206395784E+04  0.25500000920E-02 0.  1.
    10030    2    1    2    0    0  0.00000000000E+00  0.00000000000E+00 -0.17301025134E+04  0.21111766434E+04  0.12098810325E+04 0.  0.
        5    1    3    3  502    0 -0.38668957882E+03 -0.26054856973E+03 -0.19258680511E+03  0.50450585236E+03  0.46999998093E+01 0. -1.
       -5    1    3    3    0  502  0.38668957882E+03  0.26054856973E+03 -0.15375157083E+04  0.16066707910E+04  0.46999998093E+01 0.  1.
</event>
<event>
 5   0  0.2579442E-03  0.1194724E+04  0.7818609E-02  0.9117487E-01
       -2   -1    0    0    0  501  0.00000000000E+00  0.00000000000E+00  0.28205409813E+03  0.28205409814E+03  0.25500000920E-02 0.  1.
        2   -1    0    0  501    0  0.00000000000E+00  0.00000000000E+00 -0.12651514549E+04  0.12651514549E+04  0.25500000920E-02 0. -1.
    10030    2    1    2    0    0  0.00000000000E+00  0.00000000000E+00 -0.98309735676E+03  0.15472055530E+04  0.11947236544E+04 0.  0.
        4    1    3    3  502    0 -0.94052720904E+02 -0.29311247223E+02  0.27145991156E+03  0.28878566448E+03  0.12699999809E+01 0.  1.
       -4    1    3    3    0  502  0.94052720904E+02  0.29311247223E+02 -0.12545572683E+04  0.12584198886E+04  0.12699999809E+01 0. -1.
</event>
<event>
 5   0  0.2580244E-03  0.1201739E+04  0.7818609E-02  0.9111336E-01
        2   -1    0    0  501    0  0.00000000000E+00  0.00000000000E+00  0.70478303592E+03  0.70478303592E+03  0.25500000920E-02 0.  1.
       -2   -1    0    0    0  501  0.00000000000E+00  0.00000000000E+00 -0.51227722277E+03  0.51227722278E+03  0.25500000920E-02 0. -1.
    10030    2    1    2    0    0  0.00000000000E+00  0.00000000000E+00  0.19250581314E+03  0.12170602587E+04  0.12017392334E+04 0.  0.
        1    1    3    3  502    0  0.41179480205E+03  0.17981304790E+03  0.50025804232E+03  0.67243274766E+03  0.50400001928E-02 0.  1.
       -1    1    3    3    0  502 -0.41179480205E+03 -0.17981304790E+03 -0.30775222918E+03  0.54462751104E+03  0.50400001928E-02 0. -1.
</event>
<event>
 5   0  0.2580244E-03  0.1203655E+04  0.7818609E-02  0.9109664E-01
       -2   -1    0    0    0  501  0.00000000000E+00  0.00000000000E+00  0.25823770729E+03  0.25823770730E+03  0.25500000920E-02 0. -1.
        2   -1    0    0  501    0  0.00000000000E+00  0.00000000000E+00 -0.14025689070E+04  0.14025689070E+04  0.25500000920E-02 0.  1.
    10030    2    1    2    0    0  0.00000000000E+00  0.00000000000E+00 -0.11443311997E+04  0.16608066143E+04  0.12036547327E+04 0.  0.
        1    1    3    3  502    0 -0.13211156001E+03 -0.55802397143E+03 -0.32017877701E+03  0.65677900868E+03  0.50400001928E-02 0. -1.
       -1    1    3    3    0  502  0.13211156001E+03  0.55802397143E+03 -0.82415242271E+03  0.10040276056E+04  0.50400001928E-02 0.  1.
</event>
<event>
 5   0  0.1423024E-03  0.1198319E+04  0.7818609E-02  0.9114329E-01
        1   -1    0    0  501    0  0.00000000000E+00  0.00000000000E+00  0.73031834571E+03  0.73031834573E+03  0.50400001928E-02 0. -1.
       -1   -1    0    0    0  501  0.00000000000E+00  0.00000000000E+00 -0.49155568182E+03  0.49155568185E+03  0.50400001928E-02 0.  1.
    10030    2    1    2    0    0  0.00000000000E+00  0.00000000000E+00  0.23876266389E+03  0.12218740276E+04  0.11983190433E+04 0.  0.
        2    1    3    3  502    0 -0.88879354673E+02 -0.46482957912E+03  0.49406327360E+03  0.68415246520E+03  0.25500000920E-02 0. -1.
       -2    1    3    3    0  502  0.88879354673E+02  0.46482957912E+03 -0.25530060971E+03  0.53772156237E+03  0.25500000920E-02 0.  1.
</event>
<event>
 5   0  0.2580244E-03  0.1199669E+04  0.7818609E-02  0.9113147E-01
        2   -1    0    0  501    0  0.00000000000E+00  0.00000000000E+00  0.88625211744E+03  0.88625211745E+03  0.25500000920E-02 0. -1.
       -2   -1    0    0    0  501  0.00000000000E+00  0.00000000000E+00 -0.40598063797E+03  0.40598063798E+03  0.25500000920E-02 0.  1.
    10030    2    1    2    0    0  0.00000000000E+00  0.00000000000E+00  0.48027147947E+03  0.12922327554E+04  0.11996686210E+04 0.  0.
        1    1    3    3  502    0 -0.14461597578E+03  0.58213977317E+03  0.24103957234E+03  0.64645229632E+03  0.50400001928E-02 0. -1.
       -1    1    3    3    0  502  0.14461597578E+03 -0.58213977317E+03  0.23923190713E+03  0.64578045911E+03  0.50400001928E-02 0.  1.
</event>
<event>
 5   0  0.1469851E-03  0.1205694E+04  0.7818609E-02  0.9107887E-01
        1   -1    0    0  501    0  0.00000000000E+00  0.00000000000E+00  0.54218064881E+03  0.54218064884E+03  0.50400001928E-02 0. -1.
       -1   -1    0    0    0  501  0.00000000000E+00  0.00000000000E+00 -0.67030120672E+03  0.67030120674E+03  0.50400001928E-02 0.  1.
    10030    2    1    2    0    0  0.00000000000E+00  0.00000000000E+00 -0.12812055791E+03  0.12124818556E+04  0.12056937309E+04 0.  0.
        5    1    3    3  502    0  0.58629748215E+03 -0.69948881670E+02 -0.18625434364E+03  0.61915293275E+03  0.46999998093E+01 0. -1.
       -5    1    3    3    0  502 -0.58629748215E+03  0.69948881670E+02  0.58133785729E+02  0.59332892282E+03  0.46999998093E+01 0.  1.
</event>
<event>
 5   0  0.1403154E-03  0.1186127E+04  0.7818609E-02  0.9125087E-01
       -1   -1    0    0    0  501  0.00000000000E+00  0.00000000000E+00  0.66861874304E+03  0.66861874306E+03  0.50400001928E-02 0. -1.
        1   -1    0    0  501    0  0.00000000000E+00  0.00000000000E+00 -0.52604602515E+03  0.52604602517E+03  0.50400001928E-02 0.  1.
    10030    2    1    2    0    0  0.00000000000E+00  0.00000000000E+00  0.14257271789E+03  0.11946647682E+04  0.11861268602E+04 0.  0.
        3    1    3    3  502    0  0.47065684258E+03 -0.22199043693E+03  0.35781007458E+03  0.63152646597E+03  0.10100000352E+00 0. -1.
       -3    1    3    3    0  502 -0.47065684258E+03  0.22199043693E+03 -0.21523735669E+03  0.56313830225E+03  0.10100000352E+00 0.  1.
</event>
<event>
 5   0  0.2579442E-03  0.1191699E+04  0.7818609E-02  0.9120153E-01
        2   -1    0    0  501    0  0.00000000000E+00  0.00000000000E+00  0.62245542883E+03  0.62245542884E+03  0.25500000920E-02 0.  1.
       -2   -1    0    0    0  501  0.00000000000E+00  0.00000000000E+00 -0.57038090308E+03  0.57038090308E+03  0.25500000920E-02 0. -1.
    10030    2    1    2    0    0  0.00000000000E+00  0.00000000000E+00  0.52074525758E+02  0.11928363319E+04  0.11916991057E+04 0.  0.
        4    1    3    3  502    0 -0.27325929135E+03  0.19133662654E+03 -0.46814911798E+03  0.57484393928E+03  0.12699999809E+01 0. -1.
       -4    1    3    3    0  502  0.27325929135E+03 -0.19133662654E+03  0.52022364373E+03  0.61799239264E+03  0.12699999809E+01 0.  1.
</event>
<event>
 5   0  0.1455076E-03  0.1204264E+04  0.7818609E-02  0.9109132E-01
       -1   -1    0    0    0  501  0.00000000000E+00  0.00000000000E+00  0.95418154174E+03  0.95418154176E+03  0.50400001928E-02 0.  1.
        1   -1    0    0  501    0  0.00000000000E+00  0.00000000000E+00 -0.37997276596E+03  0.37997276599E+03  0.50400001928E-02 0. -1.
    10030    2    1    2    0    0  0.00000000000E+00  0.00000000000E+00  0.57420877578E+03  0.13341543078E+04  0.12042640901E+04 0.  0.
        4    1    3    3  502    0  0.33925655023E+03 -0.42133807037E+03  0.58009184973E+03  0.79317648947E+03  0.12699999809E+01 0.  1.
       -4    1    3    3    0  502 -0.33925655023E+03  0.42133807037E+03 -0.58830739476E+01  0.54097781829E+03  0.12699999809E+01 0. -1.
</event>
<event>
 5   0  0.2517023E-03  0.1199529E+04  0.7818609E-02  0.9113269E-01
       -2   -1    0    0    0  501  0.00000000000E+00  0.00000000000E+00  0.45919010231E+03  0.45919010231E+03  0.25500000920E-02 0.  1.
        2   -1    0    0  501    0  0.00000000000E+00  0.00000000000E+00 -0.78337428291E+03  0.78337428291E+03  0.25500000920E-02 0. -1.
    10030    2    1    2    0    0  0.00000000000E+00  0.00000000000E+00 -0.32418418060E+03  0.12425643852E+04  0.11995294363E+04 0.  0.
        3    1    3    3  502    0  0.49062435612E+03  0.20254972730E+03 -0.45135781612E+03  0.69675141853E+03  0.10100000352E+00 0. -1.
       -3    1    3    3    0  502 -0.49062435612E+03 -0.20254972730E+03  0.12717363552E+03  0.54581296670E+03  0.10100000352E+00 0.  1.
</event>
<event>
 5   0  0.2517023E-03  0.1311603E+04  0.7818609E-02  0.9020414E-01
        2   -1    0    0  501    0  0.00000000000E+00  0.00000000000E+00  0.67386176271E+03  0.67386176272E+03  0.25500000920E-02 0. -1.
       -2   -1    0    0    0  501  0.00000000000E+00  0.00000000000E+00 -0.63822526114E+03  0.63822526114E+03  0.25500000920E-02 0.  1.
    10030    2    1    2    0    0  0.00000000000E+00  0.00000000000E+00  0.35636501577E+02  0.13120870239E+04  0.13116029879E+04 0.  0.
        3    1    3    3  502    0 -0.64574200388E+03  0.90939139636E+02 -0.51654671751E+02  0.65415661581E+03  0.10100000352E+00 0. -1.
       -3    1    3    3    0  502  0.64574200388E+03 -0.90939139636E+02  0.87291173328E+02  0.65793040805E+03  0.10100000352E+00 0.  1.
</event>
<event>
 5   0  0.2517023E-03  0.1228666E+04  0.7818609E-02  0.9088128E-01
        2   -1    0    0  501    0  0.00000000000E+00  0.00000000000E+00  0.12116569579E+04  0.12116569579E+04  0.25500000920E-02 0.  1.
       -2   -1    0    0    0  501  0.00000000000E+00  0.00000000000E+00 -0.31147870499E+03  0.31147870500E+03  0.25500000920E-02 0. -1.
    10030    2    1    2    0    0  0.00000000000E+00  0.00000000000E+00  0.90017825286E+03  0.15231356629E+04  0.12286664969E+04 0.  0.
        3    1    3    3  502    0 -0.57932289697E+03 -0.79973896511E+02  0.68331266532E+03  0.89940372017E+03  0.10100000352E+00 0. -1.
       -3    1    3    3    0  502  0.57932289697E+03  0.79973896511E+02  0.21686558755E+03  0.62373194269E+03  0.10100000352E+00 0.  1.
</event>
<event>
 5   0  0.1423024E-03  0.1149968E+04  0.7818609E-02  0.9157813E-01
       -1   -1    0    0    0  501  0.00000000000E+00  0.00000000000E+00  0.21943116546E+03  0.21943116551E+03  0.50400001928E-02 0.  1.
        1   -1    0    0  501    0  0.00000000000E+00  0.00000000000E+00 -0.15066540278E+04  0.15066540278E+04  0.50400001928E-02 0. -1.
    10030    2    1    2    0    0  0.00000000000E+00  0.00000000000E+00 -0.12872228623E+04  0.17260851933E+04  0.11499684332E+04 0.  0.
        2    1    3    3  502    0  0.74711459028E+02  0.19721513815E+03 -0.14465067833E+04  0.14617994004E+04  0.25500000920E-02 0. -1.
       -2    1    3    3    0  502 -0.74711459028E+02 -0.19721513815E+03  0.15928392101E+03  0.26428579289E+03  0.25500000920E-02 0.  1.
</event>
<event>
 5   0  0.2499890E-03  0.1203323E+04  0.7818609E-02  0.9109953E-01
        2   -1    0    0  501    0  0.00000000000E+00  0.00000000000E+00  0.65253478977E+03  0.65253478977E+03  0.25500000920E-02 0. -1.
       -2   -1    0    0    0  501  0.00000000000E+00  0.00000000000E+00 -0.55475438196E+03  0.55475438196E+03  0.25500000920E-02 0.  1.
    10030    2    1    2    0    0  0.00000000000E+00  0.00000000000E+00  0.97780407810E+02  0.12072891717E+04  0.12033229558E+04 0.  0.
        5    1    3    3  502    0  0.19796278800E+03  0.93899316554E+02  0.61106563797E+03  0.64917613249E+03  0.46999998093E+01 0. -1.
       -5    1    3    3    0  502 -0.19796278800E+03 -0.93899316554E+02 -0.51328523016E+03  0.55811303925E+03  0.46999998093E+01 0.  1.
</event>
<event>
 5   0  0.2499890E-03  0.1200249E+04  0.7818609E-02  0.9112639E-01
       -2   -1    0    0    0  501  0.00000000000E+00  0.00000000000E+00  0.44117863295E+03  0.44117863295E+03  0.25500000920E-02 0. -1.
        2   -1    0    0  501    0  0.00000000000E+00  0.00000000000E+00 -0.81633443739E+03  0.81633443740E+03  0.25500000920E-02 0.  1.
    10030    2    1    2    0    0  0.00000000000E+00  0.00000000000E+00 -0.37515580445E+03  0.12575130704E+04  0.12002488261E+04 0.  0.
        5    1    3    3  502    0  0.91652290363E+02  0.17005865952E+03  0.40769042844E+03  0.45116922041E+03  0.46999998093E+01 0. -1.
       -5    1    3    3    0  502 -0.91652290363E+02 -0.17005865952E+03 -0.78284623288E+03  0.80634384994E+03  0.46999998093E+01 0.  1.
</event>
<event>
 5   0  0.2579442E-03  0.1201991E+04  0.7818609E-02  0.9111116E-01
        2   -1    0    0  501    0  0.00000000000E+00  0.00000000000E+00  0.91577295942E+03  0.91577295942E+03  0.25500000920E-02 0.  1.
       -2   -1    0    0    0  501  0.00000000000E+00  0.00000000000E+00 -0.39441596221E+03  0.39441596222E+03  0.25500000920E-02 0. -1.
    10030    2    1    2    0    0  0.00000000000E+00  0.00000000000E+00  0.52135699721E+03  0.13101889216E+04  0.12019908036E+04 0.  0.
        4    1    3    3  502    0  0.55274687944E+03 -0.15521052840E+03  0.66991441308E+02  0.57802152811E+03  0.12699999809E+01 0. -1.
       -4    1    3    3    0  502 -0.55274687944E+03  0.15521052840E+03  0.45436555590E+03  0.73216739353E+03  0.12699999809E+01 0.  1.
</event>
<event>
 5   0  0.2579442E-03  0.1181314E+04  0.7818609E-02  0.9129371E-01
        2   -1    0    0  501    0  0.00000000000E+00  0.00000000000E+00  0.89390166338E+03  0.89390166338E+03  0.25500000920E-02 0.  1.
       -2   -1    0    0    0  501  0.00000000000E+00  0.00000000000E+00 -0.39028428517E+03  0.39028428518E+03  0.25500000920E-02 0. -1.
    10030    2    1    2    0    0  0.00000000000E+00  0.00000000000E+00  0.50361737821E+03  0.12841859486E+04  0.11813141356E+04 0.  0.
        4    1    3    3  502    0 -0.28677655001E+03 -0.12609865553E+03 -0.29252827502E+03  0.42862112074E+03  0.12699999809E+01 0. -1.
       -4    1    3    3    0  502  0.28677655001E+03  0.12609865553E+03  0.79614565322E+03  0.85556482782E+03  0.12699999809E+01 0.  1.
</event>
<event>
 5   0  0.1423024E-03  0.1227934E+04  0.7818609E-02  0.9088752E-01
       -1   -1    0    0    0  501  0.00000000000E+00  0.00000000000E+00  0.34030977774E+03  0.34030977778E+03  0.50400001928E-02 0. -1.
        1   -1    0    0  501    0  0.00000000000E+00  0.00000000000E+00 -0.11076827504E+04  0.11076827504E+04  0.50400001928E-02 0.  1.
    10030    2    1    2    0    0  0.00000000000E+00  0.00000000000E+00 -0.76737297262E+03  0.14479925282E+04  0.12279336637E+04 0.  0.
        2    1    3    3  502    0 -0.10693340340E+03  0.20045201255E+03  0.28891809066E+03  0.36754513357E+03  0.25500000920E-02 0. -1.
       -2    1    3    3    0  502  0.10693340340E+03 -0.20045201255E+03 -0.10562910633E+04  0.10804473946E+04  0.25500000920E-02 0.  1.
</event>
<event>
 5   0  0.2517023E-03  0.1235184E+04  0.7818609E-02  0.9082606E-01
       -2   -1    0    0    0  501  0.00000000000E+00  0.00000000000E+00  0.18685874066E+03  0.18685874067E+03  0.25500000920E-02 0.  1.
        2   -1    0    0  501    0  0.00000000000E+00  0.00000000000E+00 -0.20412190436E+04  0.20412190436E+04  0.25500000920E-02 0. -1.
    10030    2    1    2    0    0  0.00000000000E+00  0.00000000000E+00 -0.18543603029E+04  0.22280777843E+04  0.12351835814E+04 0.  0.
        3    1    3    3  502    0  0.45198976422E+03  0.24106936181E+03 -0.30489227184E+03  0.59612791563E+03  0.10100000352E+00 0.  1.
       -3    1    3    3    0  502 -0.45198976422E+03 -0.24106936181E+03 -0.15494680311E+04  0.16319498686E+04  0.10100000352E+00 0. -1.
</event>
<event>
 5   0  0.1455076E-03  0.1064186E+04  0.7818609E-02  0.9240819E-01
       -1   -1    0    0    0  501  0.00000000000E+00  0.00000000000E+00  0.24511648284E+03  0.24511648289E+03  0.50400001928E-02 0.  1.
        1   -1    0    0  501    0  0.00000000000E+00  0.00000000000E+00 -0.11550547186E+04  0.11550547186E+04  0.50400001928E-02 0. -1.
    10030    2    1    2    0    0  0.00000000000E+00  0.00000000000E+00 -0.90993823579E+03  0.14001712015E+04  0.10641859803E+04 0.  0.
        4    1    3    3  502    0 -0.24004382096E+03  0.42817653924E+03 -0.18479705085E+03  0.52450714737E+03  0.12699999809E+01 0.  1.
       -4    1    3    3    0  502  0.24004382096E+03 -0.42817653924E+03 -0.72514118494E+03  0.87566405416E+03  0.12699999809E+01 0. -1.
</event>
<event>
 5   0  0.2580244E-03  0.1205895E+04  0.7818609E-02  0.9107712E-01
       -2   -1    0    0    0  501  0.00000000000E+00  0.00000000000E+00  0.72134025398E+03  0.72134025398E+03  0.25500000920E-02 0.  1.
        2   -1    0    0  501    0  0.00000000000E+00  0.00000000000E+00 -0.50398621742E+03  0.50398621743E+03  0.25500000920E-02 0. -1.
    10030    2    1    2    0    0  0.00000000000E+00  0.00000000000E+00  0.21735403655E+03  0.12253264714E+04  0.12058947650E+04 0.  0.
        1    1    3    3  502    0 -0.21733593738E+03 -0.47591272739E+03  0.41320233296E+03  0.66668133449E+03  0.50400001928E-02 0.  1.
       -1    1    3    3    0  502  0.21733593738E+03  0.47591272739E+03 -0.19584829641E+03  0.55864513692E+03  0.50400001928E-02 0. -1.
</event>
<event>
 5   0  0.2484507E-03  0.1203568E+04  0.7818609E-02  0.9109739E-01
       -2   -1    0    0    0  501  0.00000000000E+00  0.00000000000E+00  0.21483092004E+03  0.21483092005E+03  0.25500000920E-02 0.  1.
        2   -1    0    0  501    0  0.00000000000E+00  0.00000000000E+00 -0.16857169470E+04  0.16857169470E+04  0.25500000920E-02 0. -1.
    10030    2    1    2    0    0  0.00000000000E+00  0.00000000000E+00 -0.14708860269E+04  0.19005478670E+04  0.12035682326E+04 0.  0.
        2    1    3    3  502    0  0.14496577310E+03 -0.21914981542E+03 -0.15903478762E+04  0.16119082121E+04  0.25500000920E-02 0. -1.
       -2    1    3    3    0  502 -0.14496577310E+03  0.21914981542E+03  0.11946184924E+03  0.28863965493E+03  0.25500000920E-02 0.  1.
</event>
<event>
 5   0  0.1455076E-03  0.1218099E+04  0.7818609E-02  0.9097161E-01
       -1   -1    0    0    0  501  0.00000000000E+00  0.00000000000E+00  0.50891621573E+03  0.50891621576E+03  0.50400001928E-02 0. -1.
        1   -1    0    0  501    0  0.00000000000E+00  0.00000000000E+00 -0.72888421824E+03  0.72888421825E+03  0.50400001928E-02 0.  1.
    10030    2    1    2    0    0  0.00000000000E+00  0.00000000000E+00 -0.21996800250E+03  0.12378004340E+04  0.12180985150E+04 0.  0.
        4    1    3    3  502    0 -0.43048691858E+03 -0.20733339485E+03  0.27379271576E+03  0.55069972561E+03  0.12699999809E+01 0. -1.
       -4    1    3    3    0  502  0.43048691858E+03  0.20733339485E+03 -0.49376071826E+03  0.68710070840E+03  0.12699999809E+01 0.  1.
</event>
<event>
 5   0  0.1423024E-03  0.1195312E+04  0.7818609E-02  0.9116970E-01
       -1   -1    0    0    0  501  0.00000000000E+00  0.00000000000E+00  0.31005291917E+03  0.31005291921E+03  0.50400001928E-02 0. -1.
        1   -1    0    0  501    0  0.00000000000E+00  0.00000000000E+00 -0.11520374971E+04  0.11520374971E+04  0.50400001928E-02 0.  1.
    10030    2    1    2    0    0  0.00000000000E+00  0.00000000000E+00 -0.84198457793E+03  0.14620904163E+04  0.11953118238E+04 0.  0.
        2    1    3    3  502    0  0.87190505550E+02 -0.54076455469E+03 -0.71344436215E+03  0.89946169776E+03  0.25500000920E-02 0.  1.
       -2    1    3    3    0  502 -0.87190505550E+02  0.54076455469E+03 -0.12854021578E+03  0.56262871855E+03  0.25500000920E-02 0. -1.
</event>
<event>
 5   0  0.2579442E-03  0.1189724E+04  0.7818609E-02  0.9121899E-01
       -2   -1    0    0    0  501  0.00000000000E+00  0.00000000000E+00  0.26237655660E+03  0.26237655662E+03  0.25500000920E-02 0. -1.
        2   -1    0    0  501    0  0.00000000000E+00  0.00000000000E+00 -0.13486746262E+04  0.13486746262E+04  0.25500000920E-02 0.  1.
    10030    2    1    2    0    0  0.00000000000E+00  0.00000000000E+00 -0.10862980696E+04  0.16110511828E+04  0.11897236728E+04 0.  0.
        4    1    3    3  502    0 -0.41591538964E+03 -0.35302995120E+02 -0.11170660999E+04  0.11925058479E+04  0.12699999809E+01 0.  1.
       -4    1    3    3    0  502  0.41591538964E+03  0.35302995120E+02  0.30768030303E+02  0.41854533493E+03  0.12699999809E+01 0. -1.
</event>
<event>
 5   0  0.2579442E-03  0.1181120E+04  0.7818609E-02  0.9129544E-01
       -2   -1    0    0    0  501  0.00000000000E+00  0.00000000000E+00  0.17751749135E+03  0.17751749136E+03  0.25500000920E-02 0.  1.
        2   -1    0    0  501    0  0.00000000000E+00  0.00000000000E+00 -0.19646580463E+04  0.19646580463E+04  0.25500000920E-02 0. -1.
    10030    2    1    2    0    0  0.00000000000E+00  0.00000000000E+00 -0.17871405549E+04  0.21421755377E+04  0.11811200917E+04 0.  0.
        4    1    3    3  502    0  0.73263880958E+02 -0.16767679930E+03  0.12480245890E+03  0.22149576051E+03  0.12699999809E+01 0.  1.
       -4    1    3    3    0  502 -0.73263880958E+02  0.16767679930E+03 -0.19119430138E+04  0.19206797771E+04  0.12699999809E+01 0. -1.
</event>
<event>
 5   0  0.1455076E-03  0.1260314E+04  0.7818609E-02  0.9061642E-01
       -1   -1    0    0    0  501  0.00000000000E+00  0.00000000000E+00  0.43247710357E+03  0.43247710360E+03  0.50400001928E-02 0.  1.
        1   -1    0    0  501    0  0.00000000000E+00  0.00000000000E+00 -0.91819375868E+03  0.91819375870E+03  0.50400001928E-02 0. -1.
    10030    2    1    2    0    0  0.00000000000E+00  0.00000000000E+00 -0.48571665511E+03  0.13506708623E+04  0.12603138931E+04 0.  0.
        4    1    3    3  502    0 -0.14516711931E+03  0.61115245874E+03 -0.29660721827E+03  0.69466414560E+03  0.12699999809E+01 0.  1.
       -4    1    3    3    0  502  0.14516711931E+03 -0.61115245874E+03 -0.18910943684E+03  0.65600671670E+03  0.12699999809E+01 0. -1.
</event>
<event>
 5   0  0.1423024E-03  0.1203688E+04  0.7818609E-02  0.9109635E-01
       -1   -1    0    0    0  501  0.00000000000E+00  0.00000000000E+00  0.54343272020E+03  0.54343272022E+03  0.50400001928E-02 0. -1.
        1   -1    0    0  501    0  0.00000000000E+00  0.00000000000E+00 -0.66653327874E+03  0.66653327876E+03  0.50400001928E-02 0.  1.
    10030    2    1    2    0    0  0.00000000000E+00  0.00000000000E+00 -0.12310055855E+03  0.12099659990E+04  0.12036876552E+04 0.  0.
        2    1    3    3  502    0  0.43697482281E+03  0.37114228348E+03  0.12249595153E+03  0.58625834621E+03  0.25500000920E-02 0. -1.
       -2    1    3    3    0  502 -0.43697482281E+03 -0.37114228348E+03 -0.24559651008E+03  0.62370765277E+03  0.25500000920E-02 0.  1.
</event>
<event>
 5   0  0.2499890E-03  0.1136869E+04  0.7818609E-02  0.9169983E-01
        2   -1    0    0  501    0  0.00000000000E+00  0.00000000000E+00  0.18032089124E+04  0.18032089124E+04  0.25500000920E-02 0. -1.
       -2   -1    0    0    0  501  0.00000000000E+00  0.00000000000E+00 -0.17919057110E+03  0.17919057111E+03  0.25500000920E-02 0.  1.
    10030    2    1    2    0    0  0.00000000000E+00  0.00000000000E+00  0.16240183413E+04  0.19823994835E+04  0.11368694469E+04 0.  0.
        5    1    3    3  502    0 -0.18014602925E+03 -0.53846360433E+03  0.85815395057E+03  0.10290023994E+04  0.46999998093E+01 0.  1.
       -5    1    3    3    0  502  0.18014602925E+03  0.53846360433E+03  0.76586439072E+03  0.95339708412E+03  0.46999998093E+01 0. -1.
</event>
<event>
 5   0  0.2499890E-03  0.1198648E+04  0.7818609E-02  0.9114041E-01
        2   -1    0    0  501    0  0.00000000000E+00  0.00000000000E+00  0.14525844192E+04  0.14525844192E+04  0.25500000920E-02 0. -1.
       -2   -1    0    0    0  501  0.00000000000E+00  0.00000000000E+00 -0.24727582381E+03  0.24727582382E+03  0.25500000920E-02 0.  1.
    10030    2    1    2    0    0  0.00000000000E+00  0.00000000000E+00  0.12053085954E+04  0.16998602430E+04  0.11986475861E+04 0.  0.
        5    1    3    3  502    0  0.43169701729E+03  0.11941462259E+03  0.37980498393E+02  0.44954062673E+03  0.46999998093E+01 0.  1.
       -5    1    3    3    0  502 -0.43169701729E+03 -0.11941462259E+03  0.11673280970E+04  0.12503196163E+04  0.46999998093E+01 0. -1.
</event>
<event>
 5   0  0.1469851E-03  0.1162911E+04  0.7818609E-02  0.9145955E-01
       -1   -1    0    0    0  501  0.00000000000E+00  0.00000000000E+00  0.57214181200E+03  0.57214181202E+03  0.50400001928E-02 0. -1.
        1   -1    0    0  501    0  0.00000000000E+00  0.00000000000E+00 -0.59092056590E+03  0.59092056592E+03  0.50400001928E-02 0.  1.
    10030    2    1    2    0    0  0.00000000000E+00  0.00000000000E+00 -0.18778753894E+02  0.11630623779E+04  0.11629107676E+04 0.  0.
        5    1    3    3  502    0  0.27626005386E+03  0.29392589252E+03 -0.42819953867E+03  0.58829327938E+03  0.46999998093E+01 0.  1.
       -5    1    3    3    0  502 -0.27626005386E+03 -0.29392589252E+03  0.40942078478E+03  0.57476909856E+03  0.46999998093E+01 0. -1.
</event>
<event>
 5   0  0.2484507E-03  0.1278321E+04  0.7818609E-02  0.9046936E-01
       -2   -1    0    0    0  501  0.00000000000E+00  0.00000000000E+00  0.46654516828E+03  0.46654516828E+03  0.25500000920E-02 0. -1.
        2   -1    0    0  501    0  0.00000000000E+00  0.00000000000E+00 -0.87564106188E+03  0.87564106189E+03  0.25500000920E-02 0.  1.
    10030    2    1    2    0    0  0.00000000000E+00  0.00000000000E+00 -0.40909589361E+03  0.13421862302E+04  0.12783209403E+04 0.  0.
        2    1    3    3  502    0  0.15070139323E+03 -0.39294659593E+03  0.30053443427E+03  0.51714493458E+03  0.25500000920E-02 0. -1.
       -2    1    3    3    0  502 -0.15070139323E+03  0.39294659593E+03 -0.70963032788E+03  0.82504129559E+03  0.25500000920E-02 0.  1.
</event>
<event>
 5   0  0.1455076E-03  0.1168860E+04  0.7818609E-02  0.9140558E-01
        1   -1    0    0  501    0  0.00000000000E+00  0.00000000000E+00  0.85273717297E+03  0.85273717298E+03  0.50400001928E-02 0. -1.
       -1   -1    0    0    0  501  0.00000000000E+00  0.00000000000E+00 -0.40054380496E+03  0.40054380499E+03  0.50400001928E-02 0.  1.
    10030    2    1    2    0    0  0.00000000000E+00  0.00000000000E+00  0.45219336801E+03  0.12532809780E+04  0.11688602858E+04 0.  0.
        4    1    3    3  502    0  0.44227591501E+03  0.28142081784E+03  0.50311964409E+03  0.72659249300E+03  0.12699999809E+01 0. -1.
       -4    1    3    3    0  502 -0.44227591501E+03 -0.28142081784E+03 -0.50926276078E+02  0.52668848498E+03  0.12699999809E+01 0.  1.
</event>
<event>
 5   0  0.2517023E-03  0.1199383E+04  0.7818609E-02  0.9113396E-01
       -2   -1    0    0    0  501  0.00000000000E+00  0.00000000000E+00  0.89091981491E+03  0.89091981491E+03  0.25500000920E-02 0.  1.
        2   -1    0    0  501    0  0.00000000000E+00  0.00000000000E+00 -0.40366162143E+03  0.40366162144E+03  0.25500000920E-02 0. -1.
    10030    2    1    2    0    0  0.00000000000E+00  0.00000000000E+00  0.48725819348E+03  0.12945814363E+04  0.11993834033E+04 0.  0.
        3    1    3    3  502    0 -0.67226836264E+02  0.52681644687E+03 -0.57001059169E+02  0.53413869656E+03  0.10100000352E+00 0.  1.
       -3    1    3    3    0  502  0.67226836264E+02 -0.52681644687E+03  0.54425925265E+03  0.76044273979E+03  0.10100000352E+00 0. -1.
</event>
<event>
 5   0  0.9678750E-04  0.1203791E+04  0.7818609E-02  0.9109544E-01
        4   -1    0    0  501    0  0.00000000000E+00  0.00000000000E+00  0.63326002173E+03  0.63326129522E+03  0.12699999809E+01 0. -1.
       -4   -1    0    0    0  501  0.00000000000E+00  0.00000000000E+00 -0.57208224985E+03  0.57208365952E+03  0.12699999809E+01 0.  1.
    10030    2    1    2    0    0  0.00000000000E+00  0.00000000000E+00  0.61177771887E+02  0.12053449547E+04  0.12037914023E+04 0.  0.
        2    1    3    3  502    0 -0.26359285990E+03 -0.55898123533E+02  0.56949592365E+03  0.63002492257E+03  0.25500000920E-02 0. -1.
       -2    1    3    3    0  502  0.26359285990E+03  0.55898123533E+02 -0.50831815176E+03  0.57532003217E+03  0.25500000920E-02 0.  1.
</event>
<event>
 5   0  0.2484507E-03  0.1212666E+04  0.7818609E-02  0.9101841E-01
       -2   -1    0    0    0  501  0.00000000000E+00  0.00000000000E+00  0.17555785198E+03  0.17555785200E+03  0.25500000920E-02 0.  1.
        2   -1    0    0  501    0  0.00000000000E+00  0.00000000000E+00 -0.20941238518E+04  0.20941238518E+04  0.25500000920E-02 0. -1.
    10030    2    1    2    0    0  0.00000000000E+00  0.00000000000E+00 -0.19185659998E+04  0.22696817038E+04  0.12126662941E+04 0.  0.
        2    1    3    3  502    0  0.27413251018E+03  0.46758743836E+03 -0.45064544209E+03  0.70488861541E+03  0.25500000920E-02 0.  1.
       -2    1    3    3    0  502 -0.27413251018E+03 -0.46758743836E+03 -0.14679205577E+04  0.15647930884E+04  0.25500000920E-02 0. -1.
</event>
<event>
 5   0  0.1403154E-03  0.1128669E+04  0.7818609E-02  0.9177691E-01
       -1   -1    0    0    0  501  0.00000000000E+00  0.00000000000E+00  0.23383471845E+03  0.23383471850E+03  0.50400001928E-02 0.  1.
        1   -1    0    0  501    0  0.00000000000E+00  0.00000000000E+00 -0.13619589672E+04  0.13619589672E+04  0.50400001928E-02 0. -1.
    10030    2    1    2    0    0  0.00000000000E+00  0.00000000000E+00 -0.11281242488E+04  0.15957936857E+04  0.11286687587E+04 0.  0.
        3    1    3    3  502    0 -0.46279343390E+03  0.23007355246E+03 -0.88448967243E+03  0.10244186609E+04  0.10100000352E+00 0. -1.
       -3    1    3    3    0  502  0.46279343390E+03 -0.23007355246E+03 -0.24363457635E+03  0.57137502483E+03  0.10100000352E+00 0.  1.
</event>
<event>
 5   0  0.2484507E-03  0.1241026E+04  0.7818609E-02  0.9077686E-01
       -2   -1    0    0    0  501  0.00000000000E+00  0.00000000000E+00  0.41332529641E+03  0.41332529642E+03  0.25500000920E-02 0.  1.
        2   -1    0    0  501    0  0.00000000000E+00  0.00000000000E+00 -0.93155768939E+03  0.93155768939E+03  0.25500000920E-02 0. -1.
    10030    2    1    2    0    0  0.00000000000E+00  0.00000000000E+00 -0.51823239298E+03  0.13448829858E+04  0.12410259596E+04 0.  0.
        2    1    3    3  502    0  0.15153319120E+03 -0.59394281957E+03 -0.15457568422E+03  0.63215822632E+03  0.25500000920E-02 0.  1.
       -2    1    3    3    0  502 -0.15153319120E+03  0.59394281957E+03 -0.36365670875E+03  0.71272475948E+03  0.25500000920E-02 0. -1.
</event>
<event>
 5   0  0.1469851E-03  0.1203492E+04  0.7818609E-02  0.9109806E-01
        1   -1    0    0  501    0  0.00000000000E+00  0.00000000000E+00  0.97454992463E+03  0.97454992464E+03  0.50400001928E-02 0.  1.
       -1   -1    0    0    0  501  0.00000000000E+00  0.00000000000E+00 -0.37155409067E+03  0.37155409071E+03  0.50400001928E-02 0. -1.
    10030    2    1    2    0    0  0.00000000000E+00  0.00000000000E+00  0.60299583396E+03  0.13461040154E+04  0.12034916054E+04 0.  0.
        5    1    3    3  502    0 -0.55685121593E+03  0.22058497472E+03  0.23690605098E+03  0.64411767150E+03  0.46999998093E+01 0.  1.
       -5    1    3    3    0  502  0.55685121593E+03 -0.22058497472E+03  0.36608978298E+03  0.70198634385E+03  0.46999998093E+01 0. -1.
</event>
<event>
 5   0  0.1455076E-03  0.1197811E+04  0.7818609E-02  0.9114775E-01
        1   -1    0    0  501    0  0.00000000000E+00  0.00000000000E+00  0.20680772442E+04  0.20680772442E+04  0.50400001928E-02 0.  1.
       -1   -1    0    0    0  501  0.00000000000E+00  0.00000000000E+00 -0.17344017790E+03  0.17344017798E+03  0.50400001928E-02 0. -1.
    10030    2    1    2    0    0  0.00000000000E+00  0.00000000000E+00  0.18946370663E+04  0.22415174222E+04  0.11978108119E+04 0.  0.
        4    1    3    3  502    0  0.11213898192E+03  0.46735276137E+03  0.16160261569E+04  0.16859821789E+04  0.12699999809E+01 0.  1.
       -4    1    3    3    0  502 -0.11213898192E+03 -0.46735276137E+03  0.27861090943E+03  0.55553524333E+03  0.12699999809E+01 0. -1.
</event>
<event>
 5   0  0.2517023E-03  0.1197920E+04  0.7818609E-02  0.9114679E-01
        2   -1    0    0  501    0  0.00000000000E+00  0.00000000000E+00  0.20550956375E+04  0.20550956375E+04  0.25500000920E-02 0. -1.
       -2   -1    0    0    0  501  0.00000000000E+00  0.00000000000E+00 -0.17456758243E+03  0.17456758244E+03  0.25500000920E-02 0.  1.
    10030    2    1    2    0    0  0.00000000000E+00  0.00000000000E+00  0.18805280551E+04  0.22296632200E+04  0.11979199925E+04 0.  0.
        3    1    3    3  502    0 -0.16085814611E+03  0.30023018450E+03  0.18572902131E+04  0.18882638726E+04  0.10100000352E+00 0. -1.
       -3    1    3    3    0  502  0.16085814611E+03 -0.30023018450E+03  0.23237842001E+02  0.34139934733E+03  0.10100000352E+00 0.  1.
</event>
<event>
 5   0  0.1403154E-03  0.1196430E+04  0.7818609E-02  0.9115988E-01
       -1   -1    0    0    0  501  0.00000000000E+00  0.00000000000E+00  0.45258625060E+03  0.45258625063E+03  0.50400001928E-02 0.  1.
        1   -1    0    0  501    0  0.00000000000E+00  0.00000000000E+00 -0.79070209122E+03  0.79070209124E+03  0.50400001928E-02 0. -1.
    10030    2    1    2    0    0  0.00000000000E+00  0.00000000000E+00 -0.33811584062E+03  0.12432883419E+04  0.11964295129E+04 0.  0.
        3    1    3    3  502    0 -0.11193567148E+03  0.41035884680E+03 -0.60617115841E+03  0.74051837330E+03  0.10100000352E+00 0. -1.
       -3    1    3    3    0  502  0.11193567148E+03 -0.41035884680E+03  0.26805531779E+03  0.50276996857E+03  0.10100000352E+00 0.  1.
</event>
<event>
 5   0  0.1423024E-03  0.1297276E+04  0.7818609E-02  0.9031728E-01
        1   -1    0    0  501    0  0.00000000000E+00  0.00000000000E+00  0.29442811854E+04  0.29442811854E+04  0.50400001928E-02 0.  1.
       -1   -1    0    0    0  501  0.00000000000E+00  0.00000000000E+00 -0.14289788469E+03  0.14289788478E+03  0.50400001928E-02 0. -1.
    10030    2    1    2    0    0  0.00000000000E+00  0.00000000000E+00  0.28013833007E+04  0.30871790702E+04  0.12972764601E+04 0.  0.
        2    1    3    3  502    0  0.13707456533E+01  0.26895470629E+03 -0.39450746492E+01  0.26898713092E+03  0.25500000920E-02 0. -1.
       -2    1    3    3    0  502 -0.13707456533E+01 -0.26895470629E+03  0.28053283754E+04  0.28181919393E+04  0.25500000920E-02 0.  1.
</event>
<event>
 5   0  0.1423024E-03  0.1195597E+04  0.7818609E-02  0.9116719E-01
       -1   -1    0    0    0  501  0.00000000000E+00  0.00000000000E+00  0.92713109571E+03  0.92713109572E+03  0.50400001928E-02 0. -1.
        1   -1    0    0  501    0  0.00000000000E+00  0.00000000000E+00 -0.38545036082E+03  0.38545036085E+03  0.50400001928E-02 0.  1.
    10030    2    1    2    0    0  0.00000000000E+00  0.00000000000E+00  0.54168073488E+03  0.13125814566E+04  0.11955969478E+04 0.  0.
        2    1    3    3  502    0 -0.38421869648E+03 -0.10005771764E+02  0.77350391956E+03  0.86373169201E+03  0.25500000920E-02 0. -1.
       -2    1    3    3    0  502  0.38421869648E+03  0.10005771764E+02 -0.23182318468E+03  0.44884976457E+03  0.25500000920E-02 0.  1.
</event>
<event>
 5   0  0.2579442E-03  0.1272485E+04  0.7818609E-02  0.9051674E-01
       -2   -1    0    0    0  501  0.00000000000E+00  0.00000000000E+00  0.37928308191E+03  0.37928308192E+03  0.25500000920E-02 0. -1.
        2   -1    0    0  501    0  0.00000000000E+00  0.00000000000E+00 -0.10672892844E+04  0.10672892844E+04  0.25500000920E-02 0.  1.
    10030    2    1    2    0    0  0.00000000000E+00  0.00000000000E+00 -0.68800620252E+03  0.14465723664E+04  0.12724853934E+04 0.  0.
        4    1    3    3  502    0  0.14714666680E+03 -0.36549974031E+03 -0.91190808212E+03  0.99338822464E+03  0.12699999809E+01 0.  1.
       -4    1    3    3    0  502 -0.14714666680E+03  0.36549974031E+03  0.22390187960E+03  0.45318414172E+03  0.12699999809E+01 0. -1.
</event>
<event>
 5   0  0.1455076E-03  0.1201524E+04  0.7818609E-02  0.9111524E-01
       -1   -1    0    0    0  501  0.00000000000E+00  0.00000000000E+00  0.29828725266E+03  0.29828725271E+03  0.50400001928E-02 0.  1.
        1   -1    0    0  501    0  0.00000000000E+00  0.00000000000E+00 -0.12099578967E+04  0.12099578967E+04  0.50400001928E-02 0. -1.
    10030    2    1    2    0    0  0.00000000000E+00  0.00000000000E+00 -0.91167064402E+03  0.15082451494E+04  0.12015240603E+04 0.  0.
        4    1    3    3  502    0 -0.46417407070E+03 -0.33770026401E+03 -0.23334884090E+03  0.61963887117E+03  0.12699999809E+01 0.  1.
       -4    1    3    3    0  502  0.46417407070E+03  0.33770026401E+03 -0.67832180312E+03  0.88860627823E+03  0.12699999809E+01 0. -1.
</event>
<event>
 5   0  0.1404833E-03  0.1204602E+04  0.7818609E-02  0.9108838E-01
        1   -1    0    0  501    0  0.00000000000E+00  0.00000000000E+00  0.81591713229E+03  0.81591713231E+03  0.50400001928E-02 0.  1.
       -1   -1    0    0    0  501  0.00000000000E+00  0.00000000000E+00 -0.44461195337E+03  0.44461195340E+03  0.50400001928E-02 0. -1.
    10030    2    1    2    0    0  0.00000000000E+00  0.00000000000E+00  0.37130517892E+03  0.12605290857E+04  0.12046020256E+04 0.  0.
        1    1    3    3  502    0  0.32185939228E+03 -0.48508719244E+03  0.34730268439E+03  0.67788067334E+03  0.50400001928E-02 0.  1.
       -1    1    3    3    0  502 -0.32185939228E+03  0.48508719244E+03  0.24002494531E+02  0.58264841237E+03  0.50400001928E-02 0. -1.
</event>
<event>
 5   0  0.2499890E-03  0.1219050E+04  0.7818609E-02  0.9096343E-01
       -2   -1    0    0    0  501  0.00000000000E+00  0.00000000000E+00  0.12886122843E+04  0.12886122844E+04  0.25500000920E-02 0.  1.
        2   -1    0    0  501    0  0.00000000000E+00  0.00000000000E+00 -0.28831082992E+03  0.28831082993E+03  0.25500000920E-02 0. -1.
    10030    2    1    2    0    0  0.00000000000E+00  0.00000000000E+00  0.10003014544E+04  0.15769231143E+04  0.12190502486E+04 0.  0.
        5    1    3    3  502    0  0.40813601024E+02  0.14252310499E+03 -0.26460907605E+03  0.30334574105E+03  0.46999998093E+01 0. -1.
       -5    1    3    3    0  502 -0.40813601024E+02 -0.14252310499E+03  0.12649105305E+04  0.12735773732E+04  0.46999998093E+01 0.  1.
</event>
<event>
 5   0  0.2580244E-03  0.1201499E+04  0.7818609E-02  0.9111545E-01
       -2   -1    0    0    0  501  0.00000000000E+00  0.00000000000E+00  0.94774514462E+03  0.94774514463E+03  0.25500000920E-02 0.  1.
        2   -1    0    0  501    0  0.00000000000E+00  0.00000000000E+00 -0.38079869128E+03  0.38079869129E+03  0.25500000920E-02 0. -1.
    10030    2    1    2    0    0  0.00000000000E+00  0.00000000000E+00  0.56694645334E+03  0.13285438359E+04  0.12014992480E+04 0.  0.
        1    1    3    3  502    0  0.47671184062E+03 -0.35362993467E+03  0.18098015919E+03  0.62053374423E+03  0.50400001928E-02 0. -1.
       -1    1    3    3    0  502 -0.47671184062E+03  0.35362993467E+03  0.38596629415E+03  0.70801009169E+03  0.50400001928E-02 0.  1.
</event>
<event>
 5   0  0.2580244E-03  0.1215243E+04  0.7818609E-02  0.9099618E-01
        2   -1    0    0  501    0  0.00000000000E+00  0.00000000000E+00  0.10249562274E+04  0.10249562274E+04  0.25500000920E-02 0. -1.
       -2   -1    0    0    0  501  0.00000000000E+00  0.00000000000E+00 -0.36021430958E+03  0.36021430959E+03  0.25500000920E-02 0.  1.
    10030    2    1    2    0    0  0.00000000000E+00  0.00000000000E+00  0.66474191787E+03  0.13851705370E+04  0.12152430207E+04 0.  0.
        1    1    3    3  502    0 -0.12956201421E+03  0.28389574090E+02 -0.34351234315E+03  0.36822956612E+03  0.50400001928E-02 0.  1.
       -1    1    3    3    0  502  0.12956201421E+03 -0.28389574090E+02  0.10082542610E+04  0.10169409709E+04  0.50400001928E-02 0. -1.
</event>
<event>
 5   0  0.1403154E-03  0.1198617E+04  0.7818609E-02  0.9114068E-01
       -1   -1    0    0    0  501  0.00000000000E+00  0.00000000000E+00  0.38788143649E+03  0.38788143652E+03  0.50400001928E-02 0. -1.
        1   -1    0    0  501    0  0.00000000000E+00  0.00000000000E+00 -0.92598106753E+03  0.92598106754E+03  0.50400001928E-02 0.  1.
    10030    2    1    2    0    0  0.00000000000E+00  0.00000000000E+00 -0.53809963104E+03  0.13138625041E+04  0.11986173145E+04 0.  0.
        3    1    3    3  502    0  0.49126702035E+03  0.22989098072E+03 -0.54846600537E+03  0.77136769283E+03  0.10100000352E+00 0.  1.
       -3    1    3    3    0  502 -0.49126702035E+03 -0.22989098072E+03  0.10366374331E+02  0.54249481123E+03  0.10100000352E+00 0. -1.
</event>
<event>
 5   0  0.2499890E-03  0.1224917E+04  0.7818609E-02  0.9091322E-01
        2   -1    0    0  501    0  0.00000000000E+00  0.00000000000E+00  0.44999968438E+03  0.44999968438E+03  0.25500000920E-02 0. -1.
       -2   -1    0    0    0  501  0.00000000000E+00  0.00000000000E+00 -0.83356814084E+03  0.83356814084E+03  0.25500000920E-02 0.  1.
    10030    2    1    2    0    0  0.00000000000E+00  0.00000000000E+00 -0.38356845646E+03  0.12835678252E+04  0.12249169773E+04 0.  0.
        5    1    3    3  502    0  0.41698997295E+03 -0.36071646260E+03  0.87602095264E+02  0.55829492298E+03  0.46999998093E+01 0.  1.
       -5    1    3    3    0  502 -0.41698997295E+03  0.36071646260E+03 -0.47117055173E+03  0.72527290225E+03  0.46999998093E+01 0. -1.
</event>
<event>
 5   0  0.2484507E-03  0.1248168E+04  0.7818609E-02  0.9071709E-01
       -2   -1    0    0    0  501  0.00000000000E+00  0.00000000000E+00  0.37991249377E+03  0.37991249378E+03  0.25500000920E-02 0.  1.
        2   -1    0    0  501    0  0.00000000000E+00  0.00000000000E+00 -0.10251857438E+04  0.10251857438E+04  0.25500000920E-02 0. -1.
    10030    2    1    2    0    0  0.00000000000E+00  0.00000000000E+00 -0.64527325000E+03  0.14050982375E+04  0.12481680536E+04 0.  0.
        2    1    3    3  502    0  0.15939104605E+02  0.56620371987E+03 -0.61756922934E+03  0.83799311482E+03  0.25500000920E-02 0. -1.
       -2    1    3    3    0  502 -0.15939104605E+02 -0.56620371987E+03 -0.27704020663E+02  0.56710512273E+03  0.25500000920E-02 0.  1.
</event>
<event>
 5   0  0.1469851E-03  0.1195805E+04  0.7818609E-02  0.9116536E-01
        1   -1    0    0  501    0  0.00000000000E+00  0.00000000000E+00  0.11604259643E+04  0.11604259643E+04  0.50400001928E-02 0. -1.
       -1   -1    0    0    0  501  0.00000000000E+00  0.00000000000E+00 -0.30806582729E+03  0.30806582733E+03  0.50400001928E-02 0.  1.
    10030    2    1    2    0    0  0.00000000000E+00  0.00000000000E+00  0.85236013703E+03  0.14684917917E+04  0.11958053098E+04 0.  0.
        5    1    3    3  502    0  0.27250065872E+02 -0.59386488458E+03  0.50430696736E+03  0.77959327508E+03  0.46999998093E+01 0.  1.
       -5    1    3    3    0  502 -0.27250065872E+02  0.59386488458E+03  0.34805316967E+03  0.68889851658E+03  0.46999998093E+01 0. -1.
</event>
<event>
 5   0  0.2580244E-03  0.1193204E+04  0.7818609E-02  0.9118826E-01
        2   -1    0    0  501    0  0.00000000000E+00  0.00000000000E+00  0.71044568052E+03  0.71044568053E+03  0.25500000920E-02 0.  1.
       -2   -1    0    0    0  501  0.00000000000E+00  0.00000000000E+00 -0.50100053496E+03  0.50100053497E+03  0.25500000920E-02 0. -1.
    10030    2    1    2    0    0  0.00000000000E+00  0.00000000000E+00  0.20944514556E+03  0.12114462155E+04  0.11932035300E+04 0.  0.
        1    1    3    3  502    0 -0.29601041139E+02 -0.26598888357E+03  0.64607944957E+03  0.69931749800E+03  0.50400001928E-02 0.  1.
       -1    1    3    3    0  502  0.29601041139E+02  0.26598888357E+03 -0.43663430401E+03  0.51212871750E+03  0.50400001928E-02 0. -1.
</event>
<event>
 5   0  0.2579442E-03  0.1190928E+04  0.7818609E-02  0.9120835E-01
       -2   -1    0    0    0  501  0.00000000000E+00  0.00000000000E+00  0.71084178441E+03  0.71084178441E+03  0.25500000920E-02 0.  1.
        2   -1    0    0  501    0  0.00000000000E+00  0.00000000000E+00 -0.49881301610E+03  0.49881301610E+03  0.25500000920E-02 0. -1.
    10030    2    1    2    0    0  0.00000000000E+00  0.00000000000E+00  0.21202876831E+03  0.12096548005E+04  0.11909275955E+04 0.  0.
        4    1    3    3  502    0  0.17003026490E+03 -0.24252208554E+03  0.63071103164E+03  0.69679643461E+03  0.12699999809E+01 0.  1.
       -4    1    3    3    0  502 -0.17003026490E+03  0.24252208554E+03 -0.41868226333E+03  0.51285836591E+03  0.12699999809E+01 0. -1.
</event>
<event>
 5   0  0.2580244E-03  0.1193707E+04  0.7818609E-02  0.9118383E-01
        2   -1    0    0  501    0  0.00000000000E+00  0.00000000000E+00  0.63505660660E+03  0.63505660661E+03  0.25500000920E-02 0.  1.
       -2   -1    0    0    0  501  0.00000000000E+00  0.00000000000E+00 -0.56094845270E+03  0.56094845270E+03  0.25500000920E-02 0. -1.
    10030    2    1    2    0    0  0.00000000000E+00  0.00000000000E+00  0.74108153906E+02  0.11960050593E+04  0.11937068666E+04 0.  0.
        1    1    3    3  502    0  0.47630468561E+02  0.39259662711E+03  0.48494184098E+03  0.62575503379E+03  0.50400001928E-02 0.  1.
       -1    1    3    3    0  502 -0.47630468561E+02 -0.39259662711E+03 -0.41083368707E+03  0.57025002552E+03  0.50400001928E-02 0. -1.
</event>
<event>
 5   0  0.2484507E-03  0.1209115E+04  0.7818609E-02  0.9104915E-01
       -2   -1    0    0    0  501  0.00000000000E+00  0.00000000000E+00  0.21958791835E+03  0.21958791837E+03  0.25500000920E-02 0.  1.
        2   -1    0    0  501    0  0.00000000000E+00  0.00000000000E+00 -0.16644352926E+04  0.16644352927E+04  0.25500000920E-02 0. -1.
    10030    2    1    2    0    0  0.00000000000E+00  0.00000000000E+00 -0.14448473743E+04  0.18840232110E+04  0.12091151825E+04 0.  0.
        2    1    3    3  502    0  0.14537088310E+03 -0.51840750007E+03 -0.11508840375E+04  0.12705955680E+04  0.25500000920E-02 0. -1.
       -2    1    3    3    0  502 -0.14537088310E+03  0.51840750007E+03 -0.29396333682E+03  0.61342764298E+03  0.25500000920E-02 0.  1.
</event>
<event>
 5   0  0.1423024E-03  0.1062807E+04  0.7818609E-02  0.9242220E-01
       -1   -1    0    0    0  501  0.00000000000E+00  0.00000000000E+00  0.10596128738E+03  0.10596128750E+03  0.50400001928E-02 0.  1.
        1   -1    0    0  501    0  0.00000000000E+00  0.00000000000E+00 -0.26650275066E+04  0.26650275066E+04  0.50400001928E-02 0. -1.
    10030    2    1    2    0    0  0.00000000000E+00  0.00000000000E+00 -0.25590662192E+04  0.27709887941E+04  0.10628071240E+04 0.  0.
        2    1    3    3  502    0  0.51637997711E+02 -0.44219062894E+03 -0.20360391502E+04  0.20841435786E+04  0.25500000920E-02 0. -1.
       -2    1    3    3    0  502 -0.51637997711E+02  0.44219062894E+03 -0.52302706905E+03  0.68684521553E+03  0.25500000920E-02 0.  1.
</event>
<event>
 5   0  0.1423024E-03  0.1235334E+04  0.7818609E-02  0.9082479E-01
       -1   -1    0    0    0  501  0.00000000000E+00  0.00000000000E+00  0.42075200485E+03  0.42075200488E+03  0.50400001928E-02 0. -1.
        1   -1    0    0  501    0  0.00000000000E+00  0.00000000000E+00 -0.90673965363E+03  0.90673965364E+03  0.50400001928E-02 0.  1.
    10030    2    1    2    0    0  0.00000000000E+00  0.00000000000E+00 -0.48598764877E+03  0.13274916585E+04  0.12353340069E+04 0.  0.
        2    1    3    3  502    0 -0.98990420080E+02 -0.64034799447E+02  0.40854877411E+03  0.42521954287E+03  0.25500000920E-02 0. -1.
       -2    1    3    3    0  502  0.98990420080E+02  0.64034799447E+02 -0.89453642288E+03  0.90227211565E+03  0.25500000920E-02 0.  1.
</event>
<event>
 5   0  0.2580244E-03  0.1199835E+04  0.7818609E-02  0.9113001E-01
        2   -1    0    0  501    0  0.00000000000E+00  0.00000000000E+00  0.71457354561E+03  0.71457354562E+03  0.25500000920E-02 0.  1.
       -2   -1    0    0    0  501  0.00000000000E+00  0.00000000000E+00 -0.50365823744E+03  0.50365823744E+03  0.25500000920E-02 0. -1.
    10030    2    1    2    0    0  0.00000000000E+00  0.00000000000E+00  0.21091530818E+03  0.12182317831E+04  0.11998347428E+04 0.  0.
        1    1    3    3  502    0  0.36549913754E+03  0.17827222191E+02  0.58813441836E+03  0.69268284480E+03  0.50400001928E-02 0.  1.
       -1    1    3    3    0  502 -0.36549913754E+03 -0.17827222191E+02 -0.37721911018E+03  0.52554893826E+03  0.50400001928E-02 0. -1.
</event>
<event>
 5   0  0.1404833E-03  0.1192790E+04  0.7818609E-02  0.9119191E-01
        1   -1    0    0  501    0  0.00000000000E+00  0.00000000000E+00  0.11695685439E+04  0.11695685439E+04  0.50400001928E-02 0.  1.
       -1   -1    0    0    0  501  0.00000000000E+00  0.00000000000E+00 -0.30411821357E+03  0.30411821361E+03  0.50400001928E-02 0. -1.
    10030    2    1    2    0    0  0.00000000000E+00  0.00000000000E+00  0.86545033029E+03  0.14736867575E+04  0.11927901680E+04 0.  0.
        1    1    3    3  502    0  0.58454741993E+03 -0.18511831563E+02  0.57706530672E+03  0.82160984799E+03  0.50400001928E-02 0. -1.
       -1    1    3    3    0  502 -0.58454741993E+03  0.18511831563E+02  0.28838502357E+03  0.65207690950E+03  0.50400001928E-02 0.  1.
</event>
<event>
 5   0  0.1469851E-03  0.1193614E+04  0.7818609E-02  0.9118464E-01
        1   -1    0    0  501    0  0.00000000000E+00  0.00000000000E+00  0.74728996020E+03  0.74728996022E+03  0.50400001928E-02 0. -1.
       -1   -1    0    0    0  501  0.00000000000E+00  0.00000000000E+00 -0.47662718859E+03  0.47662718862E+03  0.50400001928E-02 0.  1.
    10030    2    1    2    0    0  0.00000000000E+00  0.00000000000E+00  0.27066277161E+03  0.12239171488E+04  0.11936141970E+04 0.  0.
        5    1    3    3  502    0  0.17987457171E+02 -0.10914353179E+03 -0.46600466686E+03  0.47897630284E+03  0.46999998093E+01 0.  1.
       -5    1    3    3    0  502 -0.17987457171E+02  0.10914353179E+03  0.73666743847E+03  0.74494084600E+03  0.46999998093E+01 0. -1.
</event>
<event>
 5   0  0.2517023E-03  0.1230136E+04  0.7818609E-02  0.9086880E-01
       -2   -1    0    0    0  501  0.00000000000E+00  0.00000000000E+00  0.64446981602E+03  0.64446981603E+03  0.25500000920E-02 0.  1.
        2   -1    0    0  501    0  0.00000000000E+00  0.00000000000E+00 -0.58700707285E+03  0.58700707286E+03  0.25500000920E-02 0. -1.
    10030    2    1    2    0    0  0.00000000000E+00  0.00000000000E+00  0.57462743173E+02  0.12314768889E+04  0.12301355051E+04 0.  0.
        3    1    3    3  502    0  0.68724835544E+02 -0.33867531683E+03 -0.48063014829E+03  0.59197079564E+03  0.10100000352E+00 0. -1.
       -3    1    3    3    0  502 -0.68724835544E+02  0.33867531683E+03  0.53809289146E+03  0.63950609324E+03  0.10100000352E+00 0.  1.
</event>
<event>
 5   0  0.1455076E-03  0.1199222E+04  0.7818609E-02  0.9113538E-01
        1   -1    0    0  501    0  0.00000000000E+00  0.00000000000E+00  0.35173475374E+03  0.35173475378E+03  0.50400001928E-02 0. -1.
       -1   -1    0    0    0  501  0.00000000000E+00  0.00000000000E+00 -0.10221711096E+04  0.10221711096E+04  0.50400001928E-02 0.  1.
    10030    2    1    2    0    0  0.00000000000E+00  0.00000000000E+00 -0.67043635581E+03  0.13739058633E+04  0.11992215868E+04 0.  0.
        4    1    3    3  502    0 -0.98409763478E+02 -0.39842269089E+03  0.16561733895E+03  0.44255602812E+03  0.12699999809E+01 0. -1.
       -4    1    3    3    0  502  0.98409763478E+02  0.39842269089E+03 -0.83605369476E+03  0.93134983523E+03  0.12699999809E+01 0.  1.
</event>
<event>
 5   0  0.2484507E-03  0.1213820E+04  0.7818609E-02  0.9100845E-01
        2   -1    0    0  501    0  0.00000000000E+00  0.00000000000E+00  0.17433454580E+04  0.17433454580E+04  0.25500000920E-02 0.  1.
       -2   -1    0    0    0  501  0.00000000000E+00  0.00000000000E+00 -0.21128331071E+03  0.21128331072E+03  0.25500000920E-02 0. -1.
    10030    2    1    2    0    0  0.00000000000E+00  0.00000000000E+00  0.15320621473E+04  0.19546287687E+04  0.12138200857E+04 0.  0.
        2    1    3    3  502    0 -0.36251231610E+03  0.57528171709E+02  0.15443551236E+04  0.15873743785E+04  0.25500000920E-02 0.  1.
       -2    1    3    3    0  502  0.36251231610E+03 -0.57528171709E+02 -0.12292976258E+02  0.36725439022E+03  0.25500000920E-02 0. -1.
</event>
<event>
 5   0  0.1455076E-03  0.1231963E+04  0.7818609E-02  0.9085330E-01
        1   -1    0    0  501    0  0.00000000000E+00  0.00000000000E+00  0.18017551878E+04  0.18017551879E+04  0.50400001928E-02 0.  1.
       -1   -1    0    0    0  501  0.00000000000E+00  0.00000000000E+00 -0.21059096213E+03  0.21059096219E+03  0.50400001928E-02 0. -1.
    10030    2    1    2    0    0  0.00000000000E+00  0.00000000000E+00  0.15911642257E+04  0.20123461500E+04  0.12319632439E+04 0.  0.
        4    1    3    3  502    0  0.55467232549E+02  0.62915384033E+02 -0.20121758736E+03  0.21800249952E+03  0.12699999809E+01 0. -1.
       -4    1    3    3    0  502 -0.55467232549E+02 -0.62915384033E+02  0.17923818131E+04  0.17943436505E+04  0.12699999809E+01 0.  1.
</event>
<event>
 5   0  0.1404833E-03  0.1186211E+04  0.7818609E-02  0.9125013E-01
        1   -1    0    0  501    0  0.00000000000E+00  0.00000000000E+00  0.87091457245E+03  0.87091457246E+03  0.50400001928E-02 0.  1.
       -1   -1    0    0    0  501  0.00000000000E+00  0.00000000000E+00 -0.40391328796E+03  0.40391328799E+03  0.50400001928E-02 0. -1.
    10030    2    1    2    0    0  0.00000000000E+00  0.00000000000E+00  0.46700128449E+03  0.12748278605E+04  0.11862107208E+04 0.  0.
        1    1    3    3  502    0 -0.44177488063E+03  0.26632200005E+03  0.54808220922E+03  0.75265301498E+03  0.50400001928E-02 0.  1.
       -1    1    3    3    0  502  0.44177488063E+03 -0.26632200005E+03 -0.81080924733E+02  0.52217484548E+03  0.50400001928E-02 0. -1.
</event>
<event>
 5   0  0.2499890E-03  0.1240316E+04  0.7818609E-02  0.9078282E-01
        2   -1    0    0  501    0  0.00000000000E+00  0.00000000000E+00  0.83664994191E+03  0.83664994191E+03  0.25500000920E-02 0.  1.
       -2   -1    0    0    0  501  0.00000000000E+00  0.00000000000E+00 -0.45968550744E+03  0.45968550744E+03  0.25500000920E-02 0. -1.
    10030    2    1    2    0    0  0.00000000000E+00  0.00000000000E+00  0.37696443447E+03  0.12963354494E+04  0.12403158519E+04 0.  0.
        5    1    3    3  502    0  0.54619480870E+03 -0.29366547100E+03  0.19095225760E+03  0.64888599353E+03  0.46999998093E+01 0. -1.
       -5    1    3    3    0  502 -0.54619480870E+03  0.29366547100E+03  0.18601217686E+03  0.64744945583E+03  0.46999998093E+01 0.  1.
</event>
<event>
 5   0  0.1403154E-03  0.1205697E+04  0.7818609E-02  0.9107884E-01
       -1   -1    0    0    0  501  0.00000000000E+00  0.00000000000E+00  0.27069016581E+03  0.27069016586E+03  0.50400001928E-02 0.  1.
        1   -1    0    0  501    0  0.00000000000E+00  0.00000000000E+00 -0.13425922595E+04  0.13425922595E+04  0.50400001928E-02 0. -1.
    10030    2    1    2    0    0  0.00000000000E+00  0.00000000000E+00 -0.10719020937E+04  0.16132824254E+04  0.12056973441E+04 0.  0.
        3    1    3    3  502    0  0.23589661771E+03 -0.52985807748E+03 -0.31596616829E+03  0.66047817997E+03  0.10100000352E+00 0.  1.
       -3    1    3    3    0  502 -0.23589661771E+03  0.52985807748E+03 -0.75593592539E+03  0.95280424538E+03  0.10100000352E+00 0. -1.
</event>
<event>
 5   0  0.1403154E-03  0.1191703E+04  0.7818609E-02  0.9120150E-01
       -1   -1    0    0    0  501  0.00000000000E+00  0.00000000000E+00  0.58799869298E+03  0.58799869301E+03  0.50400001928E-02 0.  1.
        1   -1    0    0  501    0  0.00000000000E+00  0.00000000000E+00 -0.60380879480E+03  0.60380879482E+03  0.50400001928E-02 0. -1.
    10030    2    1    2    0    0  0.00000000000E+00  0.00000000000E+00 -0.15810101814E+02  0.11918074878E+04  0.11917026176E+04 0.  0.
        3    1    3    3  502    0 -0.38176686639E+02 -0.38446846288E+03 -0.46155858617E+03  0.60192175324E+03  0.10100000352E+00 0. -1.
       -3    1    3    3    0  502  0.38176686639E+02  0.38446846288E+03  0.44574848436E+03  0.58988573458E+03  0.10100000352E+00 0.  1.
</event>
<event>
 5   0  0.2484507E-03  0.1227155E+04  0.7818609E-02  0.9089414E-01
        2   -1    0    0  501    0  0.00000000000E+00  0.00000000000E+00  0.63118933906E+03  0.63118933907E+03  0.25500000920E-02 0.  1.
       -2   -1    0    0    0  501  0.00000000000E+00  0.00000000000E+00 -0.59645729709E+03  0.59645729710E+03  0.25500000920E-02 0. -1.
    10030    2    1    2    0    0  0.00000000000E+00  0.00000000000E+00  0.34732041968E+02  0.12276466362E+04  0.12271552259E+04 0.  0.
        2    1    3    3  502    0  0.47170880496E+03  0.30977227367E+02 -0.37395388655E+03  0.60275226632E+03  0.25500000920E-02 0. -1.
       -2    1    3    3    0  502 -0.47170880496E+03 -0.30977227367E+02  0.40868592851E+03  0.62489436984E+03  0.25500000920E-02 0.  1.
</event>
<event>
 5   0  0.2579442E-03  0.1197754E+04  0.7818609E-02  0.9114825E-01
       -2   -1    0    0    0  501  0.00000000000E+00  0.00000000000E+00  0.80911956690E+03  0.80911956690E+03  0.25500000920E-02 0.  1.
        2   -1    0    0  501    0  0.00000000000E+00  0.00000000000E+00 -0.44326410685E+03  0.44326410686E+03  0.25500000920E-02 0. -1.
    10030    2    1    2    0    0  0.00000000000E+00  0.00000000000E+00  0.36585546005E+03  0.12523836738E+04  0.11977540017E+04 0.  0.
        4    1    3    3  502    0  0.29478220486E+03  0.32566845823E+03 -0.24269537693E+03  0.50185570822E+03  0.12699999809E+01 0. -1.
       -4    1    3    3    0  502 -0.29478220486E+03 -0.32566845823E+03  0.60855083697E+03  0.75052796555E+03  0.12699999809E+01 0.  1.
</event>
<event>
 5   0  0.1403154E-03  0.1234180E+04  0.7818609E-02  0.9083454E-01
       -1   -1    0    0    0  501  0.00000000000E+00  0.00000000000E+00  0.31810707287E+03  0.31810707291E+03  0.50400001928E-02 0. -1.
        1   -1    0    0  501    0  0.00000000000E+00  0.00000000000E+00 -0.11970812054E+04  0.11970812054E+04  0.50400001928E-02 0.  1.
    10030    2    1    2    0    0  0.00000000000E+00  0.00000000000E+00 -0.87897413249E+03  0.15151882783E+04  0.12341798868E+04 0.  0.
        3    1    3    3  502    0 -0.89641854889E+02 -0.10159170123E+03 -0.11785956848E+04  0.11863575913E+04  0.10100000352E+00 0.  1.
       -3    1    3    3    0  502  0.89641854889E+02  0.10159170123E+03  0.29962155232E+03  0.32883068701E+03  0.10100000352E+00 0. -1.
</event>
<event>
 5   0  0.2484507E-03  0.1198792E+04  0.7818609E-02  0.9113914E-01
        2   -1    0    0  501    0  0.00000000000E+00  0.00000000000E+00  0.31870768300E+03  0.31870768301E+03  0.25500000920E-02 0.  1.
       -2   -1    0    0    0  501  0.00000000000E+00  0.00000000000E+00 -0.11272889580E+04  0.11272889580E+04  0.25500000920E-02 0. -1.
    10030    2    1    2    0    0  0.00000000000E+00  0.00000000000E+00 -0.80858127501E+03  0.14459966410E+04  0.11987921453E+04 0.  0.
        2    1    3    3  502    0  0.15376210431E+03 -0.38732547793E+03 -0.92395894884E+03  0.10135896358E+04  0.25500000920E-02 0. -1.
       -2    1    3    3    0  502 -0.15376210431E+03  0.38732547793E+03  0.11537767382E+03  0.43240700526E+03  0.25500000920E-02 0.  1.
</event>
<event>
 5   0  0.2579442E-03  0.1199188E+04  0.7818609E-02  0.9113567E-01
       -2   -1    0    0    0  501  0.00000000000E+00  0.00000000000E+00  0.76978501334E+03  0.76978501334E+03  0.25500000920E-02 0.  1.
        2   -1    0    0  501    0  0.00000000000E+00  0.00000000000E+00 -0.46703064357E+03  0.46703064357E+03  0.25500000920E-02 0. -1.
    10030    2    1    2    0    0  0.00000000000E+00  0.00000000000E+00  0.30275436977E+03  0.12368156569E+04  0.11991883758E+04 0.  0.
        4    1    3    3  502    0 -0.51929518456E+03  0.29800641268E+03  0.18457834900E+03  0.62653498747E+03  0.12699999809E+01 0. -1.
       -4    1    3    3    0  502  0.51929518456E+03 -0.29800641268E+03  0.11817602077E+03  0.61028066944E+03  0.12699999809E+01 0.  1.
</event>
<event>
 5   0  0.2517023E-03  0.1194834E+04  0.7818609E-02  0.9117390E-01
        2   -1    0    0  501    0  0.00000000000E+00  0.00000000000E+00  0.12579032002E+04  0.12579032003E+04  0.25500000920E-02 0.  1.
       -2   -1    0    0    0  501  0.00000000000E+00  0.00000000000E+00 -0.28373196279E+03  0.28373196280E+03  0.25500000920E-02 0. -1.
    10030    2    1    2    0    0  0.00000000000E+00  0.00000000000E+00  0.97417123746E+03  0.15416351631E+04  0.11948344555E+04 0.  0.
        3    1    3    3  502    0 -0.34631741814E+03 -0.26306484561E+03  0.10155662041E+04  0.11047685695E+04  0.10100000352E+00 0.  1.
       -3    1    3    3    0  502  0.34631741814E+03  0.26306484561E+03 -0.41394966608E+02  0.43686659356E+03  0.10100000352E+00 0. -1.
</event>
<event>
 5   0  0.1403154E-03  0.1197992E+04  0.7818609E-02  0.9114616E-01
        1   -1    0    0  501    0  0.00000000000E+00  0.00000000000E+00  0.63688986759E+03  0.63688986761E+03  0.50400001928E-02 0. -1.
       -1   -1    0    0    0  501  0.00000000000E+00  0.00000000000E+00 -0.56335689097E+03  0.56335689099E+03  0.50400001928E-02 0.  1.
    10030    2    1    2    0    0  0.00000000000E+00  0.00000000000E+00  0.73532976627E+02  0.12002467586E+04  0.11979921464E+04 0.  0.
        3    1    3    3  502    0 -0.48378411869E+03 -0.16121945691E+03  0.35161497611E+03  0.61941253491E+03  0.10100000352E+00 0. -1.
       -3    1    3    3    0  502  0.48378411869E+03  0.16121945691E+03 -0.27808199948E+03  0.58083422369E+03  0.10100000352E+00 0.  1.
</event>
<event>
 5   0  0.2484507E-03  0.1201673E+04  0.7818609E-02  0.9111393E-01
        2   -1    0    0  501    0  0.00000000000E+00  0.00000000000E+00  0.86048422567E+03  0.86048422567E+03  0.25500000920E-02 0. -1.
       -2   -1    0    0    0  501  0.00000000000E+00  0.00000000000E+00 -0.41953651327E+03  0.41953651328E+03  0.25500000920E-02 0.  1.
    10030    2    1    2    0    0  0.00000000000E+00  0.00000000000E+00  0.44094771240E+03  0.12800207390E+04  0.12016730866E+04 0.  0.
        2    1    3    3  502    0 -0.46938557227E+03  0.16587587639E+03  0.57880985393E+03  0.76345168075E+03  0.25500000920E-02 0. -1.
       -2    1    3    3    0  502  0.46938557227E+03 -0.16587587639E+03 -0.13786214153E+03  0.51656905821E+03  0.25500000920E-02 0.  1.
</event>
<event>
 5   0  0.1469851E-03  0.1219784E+04  0.7818609E-02  0.9095713E-01
        1   -1    0    0  501    0  0.00000000000E+00  0.00000000000E+00  0.76009479506E+03  0.76009479508E+03  0.50400001928E-02 0.  1.
       -1   -1    0    0    0  501  0.00000000000E+00  0.00000000000E+00 -0.48937125114E+03  0.48937125116E+03  0.50400001928E-02 0. -1.
    10030    2    1    2    0    0  0.00000000000E+00  0.00000000000E+00  0.27072354392E+03  0.12494660462E+04  0.12197844742E+04 0.  0.
        5    1    3    3  502    0 -0.12426577426E+03  0.10400205944E+03  0.73762109915E+03  0.75522538816E+03  0.46999998093E+01 0.  1.
       -5    1    3    3    0  502  0.12426577426E+03 -0.10400205944E+03 -0.46689755523E+03  0.49424065807E+03  0.46999998093E+01 0. -1.
</event>
<event>
 5   0  0.1455076E-03  0.1171807E+04  0.7818609E-02  0.9137898E-01
       -1   -1    0    0    0  501  0.00000000000E+00  0.00000000000E+00  0.12512564638E+04  0.12512564638E+04  0.50400001928E-02 0. -1.
        1   -1    0    0  501    0  0.00000000000E+00  0.00000000000E+00 -0.27435043425E+03  0.27435043430E+03  0.50400001928E-02 0.  1.
    10030    2    1    2    0    0  0.00000000000E+00  0.00000000000E+00  0.97690602957E+03  0.15256068981E+04  0.11718067319E+04 0.  0.
        4    1    3    3  502    0  0.44126253100E+03  0.34785611457E+03  0.70460680052E+03  0.90121520956E+03  0.12699999809E+01 0. -1.
       -4    1    3    3    0  502 -0.44126253100E+03 -0.34785611457E+03  0.27229922905E+03  0.62439168857E+03  0.12699999809E+01 0.  1.
</event>
<event>
 5   0  0.2484507E-03  0.1200597E+04  0.7818609E-02  0.9112334E-01
       -2   -1    0    0    0  501  0.00000000000E+00  0.00000000000E+00  0.25345162706E+03  0.25345162708E+03  0.25500000920E-02 0.  1.
        2   -1    0    0  501    0  0.00000000000E+00  0.00000000000E+00 -0.14218034718E+04  0.14218034718E+04  0.25500000920E-02 0. -1.
    10030    2    1    2    0    0  0.00000000000E+00  0.00000000000E+00 -0.11683518447E+04  0.16752550988E+04  0.12005971902E+04 0.  0.
        2    1    3    3  502    0 -0.31739291068E+03  0.36984317510E+03 -0.95133247609E+02  0.49656074021E+03  0.25500000920E-02 0.  1.
       -2    1    3    3    0  502  0.31739291068E+03 -0.36984317510E+03 -0.10732185971E+04  0.11786943586E+04  0.25500000920E-02 0. -1.
</event>
<event>
 5   0  0.1469851E-03  0.1187322E+04  0.7818609E-02  0.9124026E-01
        1   -1    0    0  501    0  0.00000000000E+00  0.00000000000E+00  0.16744831337E+04  0.16744831338E+04  0.50400001928E-02 0.  1.
       -1   -1    0    0    0  501  0.00000000000E+00  0.00000000000E+00 -0.21047299649E+03  0.21047299655E+03  0.50400001928E-02 0. -1.
    10030    2    1    2    0    0  0.00000000000E+00  0.00000000000E+00  0.14640101373E+04  0.18849561303E+04  0.11873221682E+04 0.  0.
        5    1    3    3  502    0  0.42161570895E+03 -0.14743539629E+02  0.68951666318E+02  0.42749690091E+03  0.46999998093E+01 0. -1.
       -5    1    3    3    0  502 -0.42161570895E+03  0.14743539629E+02  0.13950584709E+04  0.14574592294E+04  0.46999998093E+01 0.  1.
</event>
<event>
 5   0  0.1403154E-03  0.1237095E+04  0.7818609E-02  0.9080993E-01
        1   -1    0    0  501    0  0.00000000000E+00  0.00000000000E+00  0.63310869524E+03  0.63310869526E+03  0.50400001928E-02 0.  1.
       -1   -1    0    0    0  501  0.00000000000E+00  0.00000000000E+00 -0.60432151113E+03  0.60432151115E+03  0.50400001928E-02 0. -1.
    10030    2    1    2    0    0  0.00000000000E+00  0.00000000000E+00  0.28787184106E+02  0.12374302064E+04  0.12370953131E+04 0.  0.
        3    1    3    3  502    0  0.89140330535E+02 -0.26300653116E+03 -0.53846097811E+03  0.60585366972E+03  0.10100000352E+00 0. -1.
       -3    1    3    3    0  502 -0.89140330535E+02  0.26300653116E+03  0.56724816222E+03  0.63157653669E+03  0.10100000352E+00 0.  1.
</event>
<event>
 5   0  0.1403154E-03  0.1204639E+04  0.7818609E-02  0.9108806E-01
        1   -1    0    0  501    0  0.00000000000E+00  0.00000000000E+00  0.15410392464E+04  0.15410392464E+04  0.50400001928E-02 0. -1.
       -1   -1    0    0    0  501  0.00000000000E+00  0.00000000000E+00 -0.23541808754E+03  0.23541808760E+03  0.50400001928E-02 0.  1.
    10030    2    1    2    0    0  0.00000000000E+00  0.00000000000E+00  0.13056211589E+04  0.17764573340E+04  0.12046385554E+04 0.  0.
        3    1    3    3  502    0 -0.29764962828E+03 -0.51762981925E+03  0.53620284938E+03  0.80252690726E+03  0.10100000352E+00 0.  1.
       -3    1    3    3    0  502  0.29764962828E+03  0.51762981925E+03  0.76941830949E+03  0.97393042676E+03  0.10100000352E+00 0. -1.
</event>
<event>
 5   0  0.1423024E-03  0.1087857E+04  0.7818609E-02  0.9217109E-01
        1   -1    0    0  501    0  0.00000000000E+00  0.00000000000E+00  0.42441189509E+03  0.42441189512E+03  0.50400001928E-02 0. -1.
       -1   -1    0    0    0  501  0.00000000000E+00  0.00000000000E+00 -0.69710125682E+03  0.69710125684E+03  0.50400001928E-02 0.  1.
    10030    2    1    2    0    0  0.00000000000E+00  0.00000000000E+00 -0.27268936173E+03  0.11215131520E+04  0.10878567286E+04 0.  0.
        2    1    3    3  502    0 -0.17290576740E+02 -0.23732687019E+03 -0.64059372073E+03  0.68336178002E+03  0.25500000920E-02 0.  1.
       -2    1    3    3    0  502  0.17290576740E+02  0.23732687019E+03  0.36790435899E+03  0.43815137194E+03  0.25500000920E-02 0. -1.
</event>
<event>
 5   0  0.2499890E-03  0.1217061E+04  0.7818609E-02  0.9098053E-01
        2   -1    0    0  501    0  0.00000000000E+00  0.00000000000E+00  0.74309563080E+03  0.74309563081E+03  0.25500000920E-02 0.  1.
       -2   -1    0    0    0  501  0.00000000000E+00  0.00000000000E+00 -0.49833315789E+03  0.49833315790E+03  0.25500000920E-02 0. -1.
    10030    2    1    2    0    0  0.00000000000E+00  0.00000000000E+00  0.24476247292E+03  0.12414287887E+04  0.12170607090E+04 0.  0.
        5    1    3    3  502    0  0.21912469012E+03  0.33567684488E+03 -0.34459789024E+03  0.52864389712E+03  0.46999998093E+01 0. -1.
       -5    1    3    3    0  502 -0.21912469012E+03 -0.33567684488E+03  0.58936036316E+03  0.71278489158E+03  0.46999998093E+01 0.  1.
</event>
<event>
 5   0  0.1455076E-03  0.1192592E+04  0.7818609E-02  0.9119365E-01
        1   -1    0    0  501    0  0.00000000000E+00  0.00000000000E+00  0.98753151675E+03  0.98753151676E+03  0.50400001928E-02 0.  1.
       -1   -1    0    0    0  501  0.00000000000E+00  0.00000000000E+00 -0.36005838293E+03  0.36005838297E+03  0.50400001928E-02 0. -1.
    10030    2    1    2    0    0  0.00000000000E+00  0.00000000000E+00  0.62747313382E+03  0.13475898997E+04  0.11925921366E+04 0.  0.
        4    1    3    3  502    0 -0.14771089254E+03  0.44705782618E+03 -0.99726693979E+02  0.48127563217E+03  0.12699999809E+01 0. -1.
       -4    1    3    3    0  502  0.14771089254E+03 -0.44705782618E+03  0.72719982780E+03  0.86631426756E+03  0.12699999809E+01 0.  1.
</event>
<event>
 5   0  0.1403154E-03  0.1201016E+04  0.7818609E-02  0.9111968E-01
        1   -1    0    0  501    0  0.00000000000E+00  0.00000000000E+00  0.11376556909E+04  0.11376556909E+04  0.50400001928E-02 0. -1.
       -1   -1    0    0    0  501  0.00000000000E+00  0.00000000000E+00 -0.31697612698E+03  0.31697612702E+03  0.50400001928E-02 0.  1.
    10030    2    1    2    0    0  0.00000000000E+00  0.00000000000E+00  0.82067956388E+03  0.14546318179E+04  0.12010157281E+04 0.  0.
        3    1    3    3  502    0  0.38841747875E+03  0.20015263802E+03  0.90924760638E+03  0.10087915722E+04  0.10100000352E+00 0. -1.
       -3    1    3    3    0  502 -0.38841747875E+03 -0.20015263802E+03 -0.88568042493E+02  0.44584024567E+03  0.10100000352E+00 0.  1.
</event>
<event>
 5   0  0.2484507E-03  0.1212655E+04  0.7818609E-02  0.9101851E-01
       -2   -1    0    0    0  501  0.00000000000E+00  0.00000000000E+00  0.10787956706E+04  0.10787956707E+04  0.25500000920E-02 0.  1.
        2   -1    0    0  501    0  0.00000000000E+00  0.00000000000E+00 -0.34078101526E+03  0.34078101527E+03  0.25500000920E-02 0. -1.
    10030    2    1    2    0    0  0.00000000000E+00  0.00000000000E+00  0.73801465539E+03  0.14195766859E+04  0.12126550769E+04 0.  0.
        2    1    3    3  502    0 -0.40308503960E+03 -0.37504153580E+03  0.71704292608E+02  0.55522536714E+03  0.25500000920E-02 0. -1.
       -2    1    3    3    0  502  0.40308503960E+03  0.37504153580E+03  0.66631036278E+03  0.86435131878E+03  0.25500000920E-02 0.  1.
</event>
<event>
 5   0  0.9678750E-04  0.1190653E+04  0.7818609E-02  0.9121077E-01
        4   -1    0    0  501    0  0.00000000000E+00  0.00000000000E+00  0.13066335092E+04  0.13066341264E+04  0.12699999809E+01 0.  1.
       -4   -1    0    0    0  501  0.00000000000E+00  0.00000000000E+00 -0.27123986996E+03  0.27124284314E+03  0.12699999809E+01 0. -1.
    10030    2    1    2    0    0  0.00000000000E+00  0.00000000000E+00  0.10353936393E+04  0.15778769696E+04  0.11906534940E+04 0.  0.
        5    1    3    3  502    0 -0.68182306330E+02  0.39456100317E+03  0.11014925909E+04  0.11720218556E+04  0.46999998093E+01 0.  1.
       -5    1    3    3    0  502  0.68182306330E+02 -0.39456100317E+03 -0.66098951671E+02  0.40585511396E+03  0.46999998093E+01 0. -1.
</event>
<event>
 5   0  0.2499890E-03  0.1187794E+04  0.7818609E-02  0.9123608E-01
       -2   -1    0    0    0  501  0.00000000000E+00  0.00000000000E+00  0.82024391618E+03  0.82024391619E+03  0.25500000920E-02 0. -1.
        2   -1    0    0  501    0  0.00000000000E+00  0.00000000000E+00 -0.43001090240E+03  0.43001090241E+03  0.25500000920E-02 0.  1.
    10030    2    1    2    0    0  0.00000000000E+00  0.00000000000E+00  0.39023301378E+03  0.12502548186E+04  0.11877943031E+04 0.  0.
        5    1    3    3  502    0  0.31137536582E+03  0.11436447505E+03 -0.32339034887E+03  0.46328960633E+03  0.46999998093E+01 0.  1.
       -5    1    3    3    0  502 -0.31137536582E+03 -0.11436447505E+03  0.71362336265E+03  0.78696521227E+03  0.46999998093E+01 0. -1.
</event>
<event>
 5   0  0.1404833E-03  0.1206432E+04  0.7818609E-02  0.9107246E-01
       -1   -1    0    0    0  501  0.00000000000E+00  0.00000000000E+00  0.65774612239E+03  0.65774612241E+03  0.50400001928E-02 0.  1.
        1   -1    0    0  501    0  0.00000000000E+00  0.00000000000E+00 -0.55320632665E+03  0.55320632667E+03  0.50400001928E-02 0. -1.
    10030    2    1    2    0    0  0.00000000000E+00  0.00000000000E+00  0.10453979574E+03  0.12109524491E+04  0.12064316247E+04 0.  0.
        1    1    3    3  502    0  0.41285983454E+02  0.16854315859E+03  0.63215267600E+03  0.65553667673E+03  0.50400001928E-02 0.  1.
       -1    1    3    3    0  502 -0.41285983454E+02 -0.16854315859E+03 -0.52761288026E+03  0.55541577235E+03  0.50400001928E-02 0. -1.
</event>
<event>
 5   0  0.2517023E-03  0.1179635E+04  0.7818609E-02  0.9130871E-01
       -2   -1    0    0    0  501  0.00000000000E+00  0.00000000000E+00  0.82185832232E+03  0.82185832233E+03  0.25500000920E-02 0. -1.
        2   -1    0    0  501    0  0.00000000000E+00  0.00000000000E+00 -0.42329059082E+03  0.42329059083E+03  0.25500000920E-02 0.  1.
    10030    2    1    2    0    0  0.00000000000E+00  0.00000000000E+00  0.39856773151E+03  0.12451489132E+04  0.11796353586E+04 0.  0.
        3    1    3    3  502    0 -0.15460623878E+03 -0.45878084704E+00 -0.40152132348E+03  0.43025885575E+03  0.10100000352E+00 0.  1.
       -3    1    3    3    0  502  0.15460623878E+03  0.45878084704E+00  0.80008905498E+03  0.81489005740E+03  0.10100000352E+00 0. -1.
</event>
<event>
 5   0  0.2499890E-03  0.1201163E+04  0.7818609E-02  0.9111839E-01
        2   -1    0    0  501    0  0.00000000000E+00  0.00000000000E+00  0.93724052817E+03  0.93724052818E+03  0.25500000920E-02 0. -1.
       -2   -1    0    0    0  501  0.00000000000E+00  0.00000000000E+00 -0.38485121772E+03  0.38485121772E+03  0.25500000920E-02 0.  1.
    10030    2    1    2    0    0  0.00000000000E+00  0.00000000000E+00  0.55238931046E+03  0.13220917459E+04  0.12011630340E+04 0.  0.
        5    1    3    3  502    0 -0.13087178657E+03  0.14877166118E+02  0.92112648797E+03  0.93050784598E+03  0.46999998093E+01 0. -1.
       -5    1    3    3    0  502  0.13087178657E+03 -0.14877166118E+02 -0.36873717752E+03  0.39158389992E+03  0.46999998093E+01 0.  1.
</event>
<event>
 5   0  0.1404833E-03  0.1211273E+04  0.7818609E-02  0.9103046E-01
       -1   -1    0    0    0  501  0.00000000000E+00  0.00000000000E+00  0.62197478754E+03  0.62197478756E+03  0.50400001928E-02 0. -1.
        1   -1    0    0  501    0  0.00000000000E+00  0.00000000000E+00 -0.58972703404E+03  0.58972703407E+03  0.50400001928E-02 0.  1.
    10030    2    1    2    0    0  0.00000000000E+00  0.00000000000E+00  0.32247753493E+02  0.12117018216E+04  0.12112726311E+04 0.  0.
        1    1    3    3  502    0 -0.47925283267E+03 -0.35093142305E+03 -0.10206706828E+03  0.60270542370E+03  0.50400001928E-02 0.  1.
       -1    1    3    3    0  502  0.47925283267E+03  0.35093142305E+03  0.13431482178E+03  0.60899639792E+03  0.50400001928E-02 0. -1.
</event>
<event>
 5   0  0.2484507E-03  0.1219996E+04  0.7818609E-02  0.9095532E-01
        2   -1    0    0  501    0  0.00000000000E+00  0.00000000000E+00  0.35508208737E+03  0.35508208738E+03  0.25500000920E-02 0. -1.
       -2   -1    0    0    0  501  0.00000000000E+00  0.00000000000E+00 -0.10479204746E+04  0.10479204746E+04  0.25500000920E-02 0.  1.
    10030    2    1    2    0    0  0.00000000000E+00  0.00000000000E+00 -0.69283838723E+03  0.14030025620E+04  0.12199963763E+04 0.  0.
        2    1    3    3  502    0 -0.46116852422E+03 -0.39810929658E+03 -0.31134176760E+03  0.68417915491E+03  0.25500000920E-02 0.  1.
       -2    1    3    3    0  502  0.46116852422E+03  0.39810929658E+03 -0.38149661964E+03  0.71882340707E+03  0.25500000920E-02 0. -1.
</event>
<event>
 5   0  0.2499890E-03  0.1203913E+04  0.7818609E-02  0.9109438E-01
        2   -1    0    0  501    0  0.00000000000E+00  0.00000000000E+00  0.14545478317E+04  0.14545478317E+04  0.25500000920E-02 0.  1.
       -2   -1    0    0    0  501  0.00000000000E+00  0.00000000000E+00 -0.24911644695E+03  0.24911644696E+03  0.25500000920E-02 0. -1.
    10030    2    1    2    0    0  0.00000000000E+00  0.00000000000E+00  0.12054313848E+04  0.17036642787E+04  0.12039132656E+04 0.  0.
        5    1    3    3  502    0  0.55114315489E+03 -0.61641435913E+02  0.93389649909E+03  0.10861598431E+04  0.46999998093E+01 0.  1.
       -5    1    3    3    0  502 -0.55114315489E+03  0.61641435913E+02  0.27153488569E+03  0.61750443557E+03  0.46999998093E+01 0. -1.
</event>
<event>
 5   0  0.1423024E-03  0.1078475E+04  0.7818609E-02  0.9226430E-01
        1   -1    0    0  501    0  0.00000000000E+00  0.00000000000E+00  0.10177110679E+04  0.10177110679E+04  0.50400001928E-02 0.  1.
       -1   -1    0    0    0  501  0.00000000000E+00  0.00000000000E+00 -0.28571660828E+03  0.28571660832E+03  0.50400001928E-02 0. -1.
    10030    2    1    2    0    0  0.00000000000E+00  0.00000000000E+00  0.73199445964E+03  0.13034276763E+04  0.10784747648E+04 0.  0.
        2    1    3    3  502    0  0.23289923556E+03 -0.47686028014E+03  0.48153671296E+03  0.71659987904E+03  0.25500000920E-02 0.  1.
       -2    1    3    3    0  502 -0.23289923556E+03  0.47686028014E+03  0.25045774668E+03  0.58682779722E+03  0.25500000920E-02 0. -1.
</event>
<event>
 5   0  0.2499890E-03  0.1192783E+04  0.7818609E-02  0.9119197E-01
        2   -1    0    0  501    0  0.00000000000E+00  0.00000000000E+00  0.14699961267E+04  0.14699961267E+04  0.25500000920E-02 0. -1.
       -2   -1    0    0    0  501  0.00000000000E+00  0.00000000000E+00 -0.24196190416E+03  0.24196190418E+03  0.25500000920E-02 0.  1.
    10030    2    1    2    0    0  0.00000000000E+00  0.00000000000E+00  0.12280342225E+04  0.17119580309E+04  0.11927834035E+04 0.  0.
        5    1    3    3  502    0 -0.51213381565E+03  0.30558093807E+03  0.61468585115E+03  0.85645872081E+03  0.46999998093E+01 0.  1.
       -5    1    3    3    0  502  0.51213381565E+03 -0.30558093807E+03  0.61334837137E+03  0.85549931005E+03  0.46999998093E+01 0. -1.
</event>
<event>
 5   0  0.1455076E-03  0.1177545E+04  0.7818609E-02  0.9132741E-01
       -1   -1    0    0    0  501  0.00000000000E+00  0.00000000000E+00  0.47606309778E+03  0.47606309780E+03  0.50400001928E-02 0. -1.
        1   -1    0    0  501    0  0.00000000000E+00  0.00000000000E+00 -0.72816667510E+03  0.72816667512E+03  0.50400001928E-02 0.  1.
    10030    2    1    2    0    0  0.00000000000E+00  0.00000000000E+00 -0.25210357732E+03  0.12042297729E+04  0.11775453844E+04 0.  0.
        4    1    3    3  502    0 -0.87170056955E+02  0.29869183566E+03 -0.63721480271E+03  0.70912604607E+03  0.12699999809E+01 0.  1.
       -4    1    3    3    0  502  0.87170056955E+02 -0.29869183566E+03  0.38511122539E+03  0.49510372685E+03  0.12699999809E+01 0. -1.
</event>
<event>
 5   0  0.1469851E-03  0.1207952E+04  0.7818609E-02  0.9105925E-01
        1   -1    0    0  501    0  0.00000000000E+00  0.00000000000E+00  0.49148677277E+03  0.49148677279E+03  0.50400001928E-02 0. -1.
       -1   -1    0    0    0  501  0.00000000000E+00  0.00000000000E+00 -0.74221086563E+03  0.74221086565E+03  0.50400001928E-02 0.  1.
    10030    2    1    2    0    0  0.00000000000E+00  0.00000000000E+00 -0.25072409286E+03  0.12336976384E+04  0.12079516929E+04 0.  0.
        5    1    3    3  502    0  0.62498664149E+01  0.51068179086E+03  0.20389052249E+03  0.54993489388E+03  0.46999998093E+01 0. -1.
       -5    1    3    3    0  502 -0.62498664149E+01 -0.51068179086E+03 -0.45461461536E+03  0.68376274456E+03  0.46999998093E+01 0.  1.
</event>
<event>
 5   0  0.1469851E-03  0.1327707E+04  0.7818609E-02  0.9007877E-01
       -1   -1    0    0    0  501  0.00000000000E+00  0.00000000000E+00  0.93684498520E+03  0.93684498522E+03  0.50400001928E-02 0.  1.
        1   -1    0    0  501    0  0.00000000000E+00  0.00000000000E+00 -0.47041042732E+03  0.47041042735E+03  0.50400001928E-02 0. -1.
    10030    2    1    2    0    0  0.00000000000E+00  0.00000000000E+00  0.46643455788E+03  0.14072554126E+04  0.13277072717E+04 0.  0.
        5    1    3    3  502    0  0.44226565101E+03 -0.27752530063E+03  0.66773074503E+03  0.84764711786E+03  0.46999998093E+01 0.  1.
       -5    1    3    3    0  502 -0.44226565101E+03  0.27752530063E+03 -0.20129618715E+03  0.55960829471E+03  0.46999998093E+01 0. -1.
</event>
<event>
 5   0  0.1469851E-03  0.1130060E+04  0.7818609E-02  0.9176378E-01
       -1   -1    0    0    0  501  0.00000000000E+00  0.00000000000E+00  0.59417171767E+03  0.59417171769E+03  0.50400001928E-02 0. -1.
        1   -1    0    0  501    0  0.00000000000E+00  0.00000000000E+00 -0.53731804068E+03  0.53731804070E+03  0.50400001928E-02 0.  1.
    10030    2    1    2    0    0  0.00000000000E+00  0.00000000000E+00  0.56853676989E+02  0.11314897584E+04  0.11300604996E+04 0.  0.
        5    1    3    3  502    0 -0.33926866433E+03  0.44429122279E+03  0.11062315017E+03  0.56987497628E+03  0.46999998093E+01 0. -1.
       -5    1    3    3    0  502  0.33926866433E+03 -0.44429122279E+03 -0.53769473178E+02  0.56161478211E+03  0.46999998093E+01 0.  1.
</event>
<event>
 5   0  0.2517023E-03  0.1145735E+04  0.7818609E-02  0.9161727E-01
        2   -1    0    0  501    0  0.00000000000E+00  0.00000000000E+00  0.80635606240E+03  0.80635606240E+03  0.25500000920E-02 0.  1.
       -2   -1    0    0    0  501  0.00000000000E+00  0.00000000000E+00 -0.40698822924E+03  0.40698822925E+03  0.25500000920E-02 0. -1.
    10030    2    1    2    0    0  0.00000000000E+00  0.00000000000E+00  0.39936783316E+03  0.12133442916E+04  0.11457354424E+04 0.  0.
        3    1    3    3  502    0 -0.51299406622E+01  0.23328223870E+03  0.75374965553E+03  0.78904085611E+03  0.10100000352E+00 0.  1.
       -3    1    3    3    0  502  0.51299406622E+01 -0.23328223870E+03 -0.35438182237E+03  0.42430343554E+03  0.10100000352E+00 0. -1.
</event>
<event>
 5   0  0.1469851E-03  0.1187606E+04  0.7818609E-02  0.9123775E-01
        1   -1    0    0  501    0  0.00000000000E+00  0.00000000000E+00  0.76566951704E+03  0.76566951705E+03  0.50400001928E-02 0.  1.
       -1   -1    0    0    0  501  0.00000000000E+00  0.00000000000E+00 -0.46051469832E+03  0.46051469835E+03  0.50400001928E-02 0. -1.
    10030    2    1    2    0    0  0.00000000000E+00  0.00000000000E+00  0.30515481872E+03  0.12261842154E+04  0.11876061076E+04 0.  0.
        5    1    3    3  502    0  0.50993304278E+01 -0.41490999526E+03  0.59111414765E+03  0.72222872616E+03  0.46999998093E+01 0.  1.
       -5    1    3    3    0  502 -0.50993304278E+01  0.41490999526E+03 -0.28595932893E+03  0.50395548924E+03  0.46999998093E+01 0. -1.
</event>
<event>
 5   0  0.1469851E-03  0.1236781E+04  0.7818609E-02  0.9081258E-01
       -1   -1    0    0    0  501  0.00000000000E+00  0.00000000000E+00  0.33803622340E+03  0.33803622343E+03  0.50400001928E-02 0.  1.
        1   -1    0    0  501    0  0.00000000000E+00  0.00000000000E+00 -0.11312599268E+04  0.11312599269E+04  0.50400001928E-02 0. -1.
    10030    2    1    2    0    0  0.00000000000E+00  0.00000000000E+00 -0.79322370345E+03  0.14692961503E+04  0.12367810370E+04 0.  0.
        5    1    3    3  502    0  0.10281461186E+03 -0.46972553500E+03 -0.85851608748E+03  0.98401467728E+03  0.46999998093E+01 0. -1.
       -5    1    3    3    0  502 -0.10281461186E+03  0.46972553500E+03  0.65292384023E+02  0.48528147302E+03  0.46999998093E+01 0.  1.
</event>
<event>
 5   0  0.2517023E-03  0.1207825E+04  0.7818609E-02  0.9106035E-01
        2   -1    0    0  501    0  0.00000000000E+00  0.00000000000E+00  0.10242050373E+04  0.10242050373E+04  0.25500000920E-02 0.  1.
       -2   -1    0    0    0  501  0.00000000000E+00  0.00000000000E+00 -0.35609097811E+03  0.35609097812E+03  0.25500000920E-02 0. -1.
    10030    2    1    2    0    0  0.00000000000E+00  0.00000000000E+00  0.66811405923E+03  0.13802960155E+04  0.12078247779E+04 0.  0.
        3    1    3    3  502    0  0.23906697953E+02 -0.31923700575E+03 -0.25114588287E+03  0.40688826566E+03  0.10100000352E+00 0. -1.
       -3    1    3    3    0  502 -0.23906697953E+02  0.31923700575E+03  0.91925994210E+03  0.97340774981E+03  0.10100000352E+00 0.  1.
</event>
<event>
 5   0  0.2580244E-03  0.1212466E+04  0.7818609E-02  0.9102015E-01
       -2   -1    0    0    0  501  0.00000000000E+00  0.00000000000E+00  0.46983643763E+03  0.46983643764E+03  0.25500000920E-02 0. -1.
        2   -1    0    0  501    0  0.00000000000E+00  0.00000000000E+00 -0.78222637047E+03  0.78222637048E+03  0.25500000920E-02 0.  1.
    10030    2    1    2    0    0  0.00000000000E+00  0.00000000000E+00 -0.31238993284E+03  0.12520628081E+04  0.12124660017E+04 0.  0.
        1    1    3    3  502    0 -0.24039557089E+03 -0.10696098562E+03  0.40779875353E+03  0.48531485281E+03  0.50400001928E-02 0. -1.
       -1    1    3    3    0  502  0.24039557089E+03  0.10696098562E+03 -0.72018868638E+03  0.76674795530E+03  0.50400001928E-02 0.  1.
</event>
<event>
 5   0  0.2579442E-03  0.1214993E+04  0.7818609E-02  0.9099833E-01
       -2   -1    0    0    0  501  0.00000000000E+00  0.00000000000E+00  0.46801357357E+03  0.46801357358E+03  0.25500000920E-02 0. -1.
        2   -1    0    0  501    0  0.00000000000E+00  0.00000000000E+00 -0.78855028865E+03  0.78855028865E+03  0.25500000920E-02 0.  1.
    10030    2    1    2    0    0  0.00000000000E+00  0.00000000000E+00 -0.32053671508E+03  0.12565638622E+04  0.12149933967E+04 0.  0.
        4    1    3    3  502    0 -0.37925966534E+03 -0.44988672250E+03 -0.40551563723E+01  0.58843352558E+03  0.12699999809E+01 0.  1.
       -4    1    3    3    0  502  0.37925966534E+03  0.44988672250E+03 -0.31648155870E+03  0.66813033664E+03  0.12699999809E+01 0. -1.
</event>
<event>
 5   0  0.1423024E-03  0.1205622E+04  0.7818609E-02  0.9107950E-01
       -1   -1    0    0    0  501  0.00000000000E+00  0.00000000000E+00  0.66429041682E+03  0.66429041684E+03  0.50400001928E-02 0.  1.
        1   -1    0    0  501    0  0.00000000000E+00  0.00000000000E+00 -0.54702134195E+03  0.54702134197E+03  0.50400001928E-02 0. -1.
    10030    2    1    2    0    0  0.00000000000E+00  0.00000000000E+00  0.11726907488E+03  0.12113117588E+04  0.12056218898E+04 0.  0.
        2    1    3    3  502    0 -0.15322916518E+03  0.55301076739E+03 -0.12684698440E+03  0.58769910955E+03  0.25500000920E-02 0. -1.
       -2    1    3    3    0  502  0.15322916518E+03 -0.55301076739E+03  0.24411605928E+03  0.62361264926E+03  0.25500000920E-02 0.  1.
</event>
<event>
 5   0  0.2499890E-03  0.1210237E+04  0.7818609E-02  0.9103943E-01
       -2   -1    0    0    0  501  0.00000000000E+00  0.00000000000E+00  0.18500219615E+03  0.18500219617E+03  0.25500000920E-02 0. -1.
        2   -1    0    0  501    0  0.00000000000E+00  0.00000000000E+00 -0.19792645748E+04  0.19792645748E+04  0.25500000920E-02 0.  1.
    10030    2    1    2    0    0  0.00000000000E+00  0.00000000000E+00 -0.17942623787E+04  0.21642667710E+04  0.12102368250E+04 0.  0.
        5    1    3    3  502    0  0.30537327687E+03  0.52220825658E+03 -0.92190425714E+03  0.11026712342E+04  0.46999998093E+01 0.  1.
       -5    1    3    3    0  502 -0.30537327687E+03 -0.52220825658E+03 -0.87235812153E+03  0.10615955368E+04  0.46999998093E+01 0. -1.
</event>
<event>
 5   0  0.1455076E-03  0.1193723E+04  0.7818609E-02  0.9118369E-01
        1   -1    0    0  501    0  0.00000000000E+00  0.00000000000E+00  0.15738393651E+04  0.15738393651E+04  0.50400001928E-02 0.  1.
       -1   -1    0    0    0  501  0.00000000000E+00  0.00000000000E+00 -0.22635327029E+03  0.22635327035E+03  0.50400001928E-02 0. -1.
    10030    2    1    2    0    0  0.00000000000E+00  0.00000000000E+00  0.13474860948E+04  0.18001926354E+04  0.11937230621E+04 0.  0.
        4    1    3    3  502    0 -0.35125002678E+03 -0.23973708750E+03  0.13053106129E+04  0.13728393429E+04  0.12699999809E+01 0.  1.
       -4    1    3    3    0  502  0.35125002678E+03  0.23973708750E+03  0.42175481874E+02  0.42735329250E+03  0.12699999809E+01 0. -1.
</event>
<event>
 5   0  0.2580244E-03  0.1181668E+04  0.7818609E-02  0.9129056E-01
       -2   -1    0    0    0  501  0.00000000000E+00  0.00000000000E+00  0.49408657604E+03  0.49408657604E+03  0.25500000920E-02 0.  1.
        2   -1    0    0  501    0  0.00000000000E+00  0.00000000000E+00 -0.70652506214E+03  0.70652506215E+03  0.25500000920E-02 0. -1.
    10030    2    1    2    0    0  0.00000000000E+00  0.00000000000E+00 -0.21243848611E+03  0.12006116382E+04  0.11816675486E+04 0.  0.
        1    1    3    3  502    0  0.30650938226E+03 -0.28318053685E+03  0.31875089905E+03  0.52511080119E+03  0.50400001928E-02 0.  1.
       -1    1    3    3    0  502 -0.30650938226E+03  0.28318053685E+03 -0.53118938515E+03  0.67550083700E+03  0.50400001928E-02 0. -1.
</event>
<event>
 5   0  0.2499890E-03  0.1184809E+04  0.7818609E-02  0.9126258E-01
       -2   -1    0    0    0  501  0.00000000000E+00  0.00000000000E+00  0.17979166491E+03  0.17979166493E+03  0.25500000920E-02 0. -1.
        2   -1    0    0  501    0  0.00000000000E+00  0.00000000000E+00 -0.19519421650E+04  0.19519421650E+04  0.25500000920E-02 0.  1.
    10030    2    1    2    0    0  0.00000000000E+00  0.00000000000E+00 -0.17721505001E+04  0.21317338300E+04  0.11848087300E+04 0.  0.
        5    1    3    3  502    0 -0.36657921970E+03 -0.23361203138E+03 -0.16101719607E+04  0.16678221544E+04  0.46999998093E+01 0.  1.
       -5    1    3    3    0  502  0.36657921970E+03  0.23361203138E+03 -0.16197853941E+03  0.46391167560E+03  0.46999998093E+01 0. -1.
</event>
<event>
 5   0  0.2484507E-03  0.1209910E+04  0.7818609E-02  0.9104226E-01
        2   -1    0    0  501    0  0.00000000000E+00  0.00000000000E+00  0.11892366007E+04  0.11892366007E+04  0.25500000920E-02 0.  1.
       -2   -1    0    0    0  501  0.00000000000E+00  0.00000000000E+00 -0.30773564256E+03  0.30773564257E+03  0.25500000920E-02 0. -1.
    10030    2    1    2    0    0  0.00000000000E+00  0.00000000000E+00  0.88150095816E+03  0.14969722433E+04  0.12099098966E+04 0.  0.
        2    1    3    3  502    0 -0.33799427836E+03 -0.60316213223E+01 -0.17997150929E+03  0.38297030801E+03  0.25500000920E-02 0. -1.
       -2    1    3    3    0  502  0.33799427836E+03  0.60316213223E+01  0.10614724674E+04  0.11140019353E+04  0.25500000920E-02 0.  1.
</event>
<event>
 5   0  0.1404833E-03  0.1205521E+04  0.7818609E-02  0.9108038E-01
        1   -1    0    0  501    0  0.00000000000E+00  0.00000000000E+00  0.47326002645E+03  0.47326002648E+03  0.50400001928E-02 0. -1.
       -1   -1    0    0    0  501  0.00000000000E+00  0.00000000000E+00 -0.76769653802E+03  0.76769653804E+03  0.50400001928E-02 0.  1.
    10030    2    1    2    0    0  0.00000000000E+00  0.00000000000E+00 -0.29443651157E+03  0.12409565645E+04  0.12055207736E+04 0.  0.
        1    1    3    3  502    0 -0.44840118401E+03  0.31296014500E+03 -0.40827160740E+03  0.68241730606E+03  0.50400001928E-02 0. -1.
       -1    1    3    3    0  502  0.44840118401E+03 -0.31296014500E+03  0.11383509583E+03  0.55853925846E+03  0.50400001928E-02 0.  1.
</event>
<event>
 5   0  0.1455076E-03  0.9871162E+03  0.7818609E-02  0.9322789E-01
        1   -1    0    0  501    0  0.00000000000E+00  0.00000000000E+00  0.10954802812E+04  0.10954802813E+04  0.50400001928E-02 0. -1.
       -1   -1    0    0    0  501  0.00000000000E+00  0.00000000000E+00 -0.22236786674E+03  0.22236786680E+03  0.50400001928E-02 0.  1.
    10030    2    1    2    0    0  0.00000000000E+00  0.00000000000E+00  0.87311241450E+03  0.13178481481E+04  0.98711623073E+03 0.  0.
        4    1    3    3  502    0 -0.39346935604E+02 -0.45992340317E+03  0.20332248128E+03  0.50440000239E+03  0.12699999809E+01 0.  1.
       -4    1    3    3    0  502  0.39346935604E+02  0.45992340317E+03  0.66978993323E+03  0.81344814566E+03  0.12699999809E+01 0. -1.
</event>
<event>
 5   0  0.2484507E-03  0.1216103E+04  0.7818609E-02  0.9098877E-01
        2   -1    0    0  501    0  0.00000000000E+00  0.00000000000E+00  0.17360527847E+04  0.17360527847E+04  0.25500000920E-02 0. -1.
       -2   -1    0    0    0  501  0.00000000000E+00  0.00000000000E+00 -0.21296986248E+03  0.21296986249E+03  0.25500000920E-02 0.  1.
    10030    2    1    2    0    0  0.00000000000E+00  0.00000000000E+00  0.15230829222E+04  0.19490226472E+04  0.12161034871E+04 0.  0.
        2    1    3    3  502    0 -0.11138503041E+03 -0.59770410248E+03  0.77496035805E+03  0.98499765263E+03  0.25500000920E-02 0.  1.
       -2    1    3    3    0  502  0.11138503041E+03  0.59770410248E+03  0.74812256416E+03  0.96402499456E+03  0.25500000920E-02 0. -1.
</event>
<event>
 5   0  0.2499890E-03  0.1191652E+04  0.7818609E-02  0.9120195E-01
       -2   -1    0    0    0  501  0.00000000000E+00  0.00000000000E+00  0.26701910021E+03  0.26701910022E+03  0.25500000920E-02 0. -1.
        2   -1    0    0  501    0  0.00000000000E+00  0.00000000000E+00 -0.13295244292E+04  0.13295244292E+04  0.25500000920E-02 0.  1.
    10030    2    1    2    0    0  0.00000000000E+00  0.00000000000E+00 -0.10625053290E+04  0.15965435294E+04  0.11916516552E+04 0.  0.
        5    1    3    3  502    0 -0.52291542864E+03  0.11084301497E+02 -0.14895224127E+03  0.54384948968E+03  0.46999998093E+01 0. -1.
       -5    1    3    3    0  502  0.52291542864E+03 -0.11084301497E+02 -0.91355308774E+03  0.10526940398E+04  0.46999998093E+01 0.  1.
</event>
<event>
 5   0  0.1455076E-03  0.1199918E+04  0.7818609E-02  0.9112928E-01
        1   -1    0    0  501    0  0.00000000000E+00  0.00000000000E+00  0.16085146428E+04  0.16085146428E+04  0.50400001928E-02 0. -1.
       -1   -1    0    0    0  501  0.00000000000E+00  0.00000000000E+00 -0.22377831342E+03  0.22377831348E+03  0.50400001928E-02 0.  1.
    10030    2    1    2    0    0  0.00000000000E+00  0.00000000000E+00  0.13847363294E+04  0.18322929563E+04  0.11999178204E+04 0.  0.
        4    1    3    3  502    0 -0.27682693617E+03 -0.13883712681E+03  0.14770225738E+04  0.15091408804E+04  0.12699999809E+01 0. -1.
       -4    1    3    3    0  502  0.27682693617E+03  0.13883712681E+03 -0.92286244410E+02  0.32315207593E+03  0.12699999809E+01 0.  1.
</event>
<event>
 5   0  0.1423024E-03  0.1196820E+04  0.7818609E-02  0.9115644E-01
       -1   -1    0    0    0  501  0.00000000000E+00  0.00000000000E+00  0.17332261504E+04  0.17332261504E+04  0.50400001928E-02 0.  1.
        1   -1    0    0  501    0  0.00000000000E+00  0.00000000000E+00 -0.20660594196E+03  0.20660594202E+03  0.50400001928E-02 0. -1.
    10030    2    1    2    0    0  0.00000000000E+00  0.00000000000E+00  0.15266202085E+04  0.19398320925E+04  0.11968204903E+04 0.  0.
        2    1    3    3  502    0 -0.17504021133E+03 -0.39050926627E+03  0.85352793863E+02  0.43637330584E+03  0.25500000920E-02 0. -1.
       -2    1    3    3    0  502  0.17504021133E+03  0.39050926627E+03  0.14412674146E+04  0.15034587866E+04  0.25500000920E-02 0.  1.
</event>
<event>
 5   0  0.2579442E-03  0.1384524E+04  0.7818609E-02  0.8965098E-01
        2   -1    0    0  501    0  0.00000000000E+00  0.00000000000E+00  0.55976151215E+03  0.55976151216E+03  0.25500000920E-02 0. -1.
       -2   -1    0    0    0  501  0.00000000000E+00  0.00000000000E+00 -0.85612628953E+03  0.85612628953E+03  0.25500000920E-02 0.  1.
    10030    2    1    2    0    0  0.00000000000E+00  0.00000000000E+00 -0.29636477737E+03  0.14158878017E+04  0.13845238119E+04 0.  0.
        4    1    3    3  502    0  0.36543864107E+03 -0.27130493484E+03  0.38524003155E+03  0.59629125673E+03  0.12699999809E+01 0. -1.
       -4    1    3    3    0  502 -0.36543864107E+03  0.27130493484E+03 -0.68160480892E+03  0.81959654495E+03  0.12699999809E+01 0.  1.
</event>
<event>
 5   0  0.1469851E-03  0.1202977E+04  0.7818609E-02  0.9110254E-01
        1   -1    0    0  501    0  0.00000000000E+00  0.00000000000E+00  0.97073760160E+03  0.97073760161E+03  0.50400001928E-02 0.  1.
       -1   -1    0    0    0  501  0.00000000000E+00  0.00000000000E+00 -0.37269464301E+03  0.37269464304E+03  0.50400001928E-02 0. -1.
    10030    2    1    2    0    0  0.00000000000E+00  0.00000000000E+00  0.59804295859E+03  0.13434322447E+04  0.12029774793E+04 0.  0.
        5    1    3    3  502    0 -0.39498635671E+03 -0.23998486560E+03 -0.13083477662E+03  0.48036110008E+03  0.46999998093E+01 0. -1.
       -5    1    3    3    0  502  0.39498635671E+03  0.23998486560E+03  0.72887773521E+03  0.86307114457E+03  0.46999998093E+01 0.  1.
</event>
<event>
 5   0  0.2579442E-03  0.1194151E+04  0.7818609E-02  0.9117991E-01
       -2   -1    0    0    0  501  0.00000000000E+00  0.00000000000E+00  0.76302609625E+03  0.76302609626E+03  0.25500000920E-02 0. -1.
        2   -1    0    0  501    0  0.00000000000E+00  0.00000000000E+00 -0.46721778617E+03  0.46721778618E+03  0.25500000920E-02 0.  1.
    10030    2    1    2    0    0  0.00000000000E+00  0.00000000000E+00  0.29580831008E+03  0.12302438824E+04  0.11941513530E+04 0.  0.
        4    1    3    3  502    0  0.14589107336E+03 -0.44567951151E+03  0.52864605167E+03  0.70667014449E+03  0.12699999809E+01 0. -1.
       -4    1    3    3    0  502 -0.14589107336E+03  0.44567951151E+03 -0.23283774159E+03  0.52357373795E+03  0.12699999809E+01 0.  1.
</event>
<event>
 5   0  0.2579442E-03  0.1197701E+04  0.7818609E-02  0.9114872E-01
       -2   -1    0    0    0  501  0.00000000000E+00  0.00000000000E+00  0.45421121785E+03  0.45421121785E+03  0.25500000920E-02 0.  1.
        2   -1    0    0  501    0  0.00000000000E+00  0.00000000000E+00 -0.78954823871E+03  0.78954823872E+03  0.25500000920E-02 0. -1.
    10030    2    1    2    0    0  0.00000000000E+00  0.00000000000E+00 -0.33533702087E+03  0.12437594566E+04  0.11977005754E+04 0.  0.
        4    1    3    3  502    0 -0.32277665783E+03 -0.15755993791E+02 -0.69122654978E+03  0.76303917213E+03  0.12699999809E+01 0. -1.
       -4    1    3    3    0  502  0.32277665783E+03  0.15755993791E+02  0.35588952892E+03  0.48072028444E+03  0.12699999809E+01 0.  1.
</event>
<event>
 5   0  0.2517023E-03  0.1205692E+04  0.7818609E-02  0.9107889E-01
       -2   -1    0    0    0  501  0.00000000000E+00  0.00000000000E+00  0.66408854332E+03  0.66408854333E+03  0.25500000920E-02 0.  1.
        2   -1    0    0  501    0  0.00000000000E+00  0.00000000000E+00 -0.54725137987E+03  0.54725137987E+03  0.25500000920E-02 0. -1.
    10030    2    1    2    0    0  0.00000000000E+00  0.00000000000E+00  0.11683716346E+03  0.12113399232E+04  0.12056921194E+04 0.  0.
        3    1    3    3  502    0  0.29764346117E+03 -0.40277144643E+03 -0.27872282714E+03  0.57315171867E+03  0.10100000352E+00 0. -1.
       -3    1    3    3    0  502 -0.29764346117E+03  0.40277144643E+03  0.39555999060E+03  0.63818820453E+03  0.10100000352E+00 0.  1.
</event>
<event>
 5   0  0.1423024E-03  0.1199276E+04  0.7818609E-02  0.9113491E-01
        1   -1    0    0  501    0  0.00000000000E+00  0.00000000000E+00  0.48313237559E+03  0.48313237562E+03  0.50400001928E-02 0.  1.
       -1   -1    0    0    0  501  0.00000000000E+00  0.00000000000E+00 -0.74423822923E+03  0.74423822925E+03  0.50400001928E-02 0. -1.
    10030    2    1    2    0    0  0.00000000000E+00  0.00000000000E+00 -0.26110585364E+03  0.12273706049E+04  0.11992757543E+04 0.  0.
        2    1    3    3  502    0  0.55885980382E+03  0.15737216003E+03  0.22876787719E+02  0.58104528610E+03  0.25500000920E-02 0. -1.
       -2    1    3    3    0  502 -0.55885980382E+03 -0.15737216003E+03 -0.28398264136E+03  0.64632531876E+03  0.25500000920E-02 0.  1.
</event>
<event>
 5   0  0.1455076E-03  0.1202221E+04  0.7818609E-02  0.9110914E-01
       -1   -1    0    0    0  501  0.00000000000E+00  0.00000000000E+00  0.35674785459E+03  0.35674785462E+03  0.50400001928E-02 0.  1.
        1   -1    0    0  501    0  0.00000000000E+00  0.00000000000E+00 -0.10128556997E+04  0.10128556997E+04  0.50400001928E-02 0. -1.
    10030    2    1    2    0    0  0.00000000000E+00  0.00000000000E+00 -0.65610784509E+03  0.13696035543E+04  0.12022214403E+04 0.  0.
        4    1    3    3  502    0  0.10980263252E+03  0.28664022675E+03 -0.91684079584E+03  0.96685981172E+03  0.12699999809E+01 0. -1.
       -4    1    3    3    0  502 -0.10980263252E+03 -0.28664022675E+03  0.26073295075E+03  0.40274374260E+03  0.12699999809E+01 0.  1.
</event>
<event>
 5   0  0.1469851E-03  0.1184313E+04  0.7818609E-02  0.9126699E-01
        1   -1    0    0  501    0  0.00000000000E+00  0.00000000000E+00  0.10482216488E+04  0.10482216488E+04  0.50400001928E-02 0.  1.
       -1   -1    0    0    0  501  0.00000000000E+00  0.00000000000E+00 -0.33451815648E+03  0.33451815652E+03  0.50400001928E-02 0. -1.
    10030    2    1    2    0    0  0.00000000000E+00  0.00000000000E+00  0.71370349236E+03  0.13827398054E+04  0.11843127519E+04 0.  0.
        5    1    3    3  502    0  0.22583398302E+03 -0.31183380017E+03 -0.16839582601E+03  0.42026247874E+03  0.46999998093E+01 0. -1.
       -5    1    3    3    0  502 -0.22583398302E+03  0.31183380017E+03  0.88209931837E+03  0.96247732663E+03  0.46999998093E+01 0.  1.
</event>
<event>
 5   0  0.2580244E-03  0.1212610E+04  0.7818609E-02  0.9101890E-01
       -2   -1    0    0    0  501  0.00000000000E+00  0.00000000000E+00  0.28733524371E+03  0.28733524373E+03  0.25500000920E-02 0. -1.
        2   -1    0    0  501    0  0.00000000000E+00  0.00000000000E+00 -0.12793608548E+04  0.12793608548E+04  0.25500000920E-02 0.  1.
    10030    2    1    2    0    0  0.00000000000E+00  0.00000000000E+00 -0.99202561107E+03  0.15666960985E+04  0.12126095217E+04 0.  0.
        1    1    3    3  502    0 -0.10159971181E+02 -0.23226771879E+03  0.22745618711E+03  0.32525041935E+03  0.50400001928E-02 0. -1.
       -1    1    3    3    0  502  0.10159971181E+02  0.23226771879E+03 -0.12194817982E+04  0.12414456792E+04  0.50400001928E-02 0.  1.
</event>
<event>
 5   0  0.2499890E-03  0.1084423E+04  0.7818609E-02  0.9220509E-01
        2   -1    0    0  501    0  0.00000000000E+00  0.00000000000E+00  0.10605522863E+04  0.10605522863E+04  0.25500000920E-02 0.  1.
       -2   -1    0    0    0  501  0.00000000000E+00  0.00000000000E+00 -0.27720765904E+03  0.27720765905E+03  0.25500000920E-02 0. -1.
    10030    2    1    2    0    0  0.00000000000E+00  0.00000000000E+00  0.78334462727E+03  0.13377599454E+04  0.10844228264E+04 0.  0.
        5    1    3    3  502    0 -0.17443438131E+03  0.10068718313E+03  0.10126669775E+04  0.10325123532E+04  0.46999998093E+01 0.  1.
       -5    1    3    3    0  502  0.17443438131E+03 -0.10068718313E+03 -0.22932235019E+03  0.30524759217E+03  0.46999998093E+01 0. -1.
</event>
<event>
 5   0  0.2579442E-03  0.1186569E+04  0.7818609E-02  0.9124695E-01
       -2   -1    0    0    0  501  0.00000000000E+00  0.00000000000E+00  0.26644085555E+03  0.26644085556E+03  0.25500000920E-02 0.  1.
        2   -1    0    0  501    0  0.00000000000E+00  0.00000000000E+00 -0.13210681276E+04  0.13210681276E+04  0.25500000920E-02 0. -1.
    10030    2    1    2    0    0  0.00000000000E+00  0.00000000000E+00 -0.10546272721E+04  0.15875089832E+04  0.11865690408E+04 0.  0.
        4    1    3    3  502    0 -0.72961205442E+02  0.15986774062E+03  0.23082032840E+03  0.29010458268E+03  0.12699999809E+01 0.  1.
       -4    1    3    3    0  502  0.72961205442E+02 -0.15986774062E+03 -0.12854476005E+04  0.12974044005E+04  0.12699999809E+01 0. -1.
</event>
<event>
 5   0  0.1469851E-03  0.1194511E+04  0.7818609E-02  0.9117675E-01
        1   -1    0    0  501    0  0.00000000000E+00  0.00000000000E+00  0.61633460796E+03  0.61633460798E+03  0.50400001928E-02 0. -1.
       -1   -1    0    0    0  501  0.00000000000E+00  0.00000000000E+00 -0.57876672518E+03  0.57876672520E+03  0.50400001928E-02 0.  1.
    10030    2    1    2    0    0  0.00000000000E+00  0.00000000000E+00  0.37567882781E+02  0.11951013332E+04  0.11945107160E+04 0.  0.
        5    1    3    3  502    0 -0.42714394763E+03  0.24739883919E+03  0.35515507587E+03  0.60812445728E+03  0.46999998093E+01 0. -1.
       -5    1    3    3    0  502  0.42714394763E+03 -0.24739883919E+03 -0.31758719309E+03  0.58697687590E+03  0.46999998093E+01 0.  1.
</event>
<event>
 5   0  0.1404833E-03  0.1193181E+04  0.7818609E-02  0.9118846E-01
        1   -1    0    0  501    0  0.00000000000E+00  0.00000000000E+00  0.11249387602E+04  0.11249387602E+04  0.50400001928E-02 0. -1.
       -1   -1    0    0    0  501  0.00000000000E+00  0.00000000000E+00 -0.31639071333E+03  0.31639071337E+03  0.50400001928E-02 0.  1.
    10030    2    1    2    0    0  0.00000000000E+00  0.00000000000E+00  0.80854804687E+03  0.14413294736E+04  0.11931809198E+04 0.  0.
        1    1    3    3  502    0  0.32372332244E+03 -0.26884647851E+03 -0.10657823596E+03  0.43409001245E+03  0.50400001928E-02 0.  1.
       -1    1    3    3    0  502 -0.32372332244E+03  0.26884647851E+03  0.91512628283E+03  0.10072394611E+04  0.50400001928E-02 0. -1.
</event>
<event>
 5   0  0.1423024E-03  0.1208124E+04  0.7818609E-02  0.9105775E-01
        1   -1    0    0  501    0  0.00000000000E+00  0.00000000000E+00  0.44511356301E+03  0.44511356304E+03  0.50400001928E-02 0.  1.
       -1   -1    0    0    0  501  0.00000000000E+00  0.00000000000E+00 -0.81977032429E+03  0.81977032430E+03  0.50400001928E-02 0. -1.
    10030    2    1    2    0    0  0.00000000000E+00  0.00000000000E+00 -0.37465676128E+03  0.12648838873E+04  0.12081239836E+04 0.  0.
        2    1    3    3  502    0  0.93460690219E+02  0.49472229637E+03 -0.53678488697E+03  0.73595045080E+03  0.25500000920E-02 0. -1.
       -2    1    3    3    0  502 -0.93460690219E+02 -0.49472229637E+03  0.16212812569E+03  0.52893343654E+03  0.25500000920E-02 0.  1.
</event>
<event>
 5   0  0.1423024E-03  0.1275971E+04  0.7818609E-02  0.9048840E-01
        1   -1    0    0  501    0  0.00000000000E+00  0.00000000000E+00  0.72857575181E+03  0.72857575183E+03  0.50400001928E-02 0.  1.
       -1   -1    0    0    0  501  0.00000000000E+00  0.00000000000E+00 -0.55865952170E+03  0.55865952173E+03  0.50400001928E-02 0. -1.
    10030    2    1    2    0    0  0.00000000000E+00  0.00000000000E+00  0.16991623011E+03  0.12872352736E+04  0.12759714433E+04 0.  0.
        2    1    3    3  502    0 -0.60608491822E+03  0.19155527592E+03  0.29762894330E+02  0.63633181730E+03  0.25500000920E-02 0. -1.
       -2    1    3    3    0  502  0.60608491822E+03 -0.19155527592E+03  0.14015333578E+03  0.65090345625E+03  0.25500000920E-02 0.  1.
</event>
<event>
 5   0  0.1403154E-03  0.1202028E+04  0.7818609E-02  0.9111083E-01
        1   -1    0    0  501    0  0.00000000000E+00  0.00000000000E+00  0.58122102034E+03  0.58122102037E+03  0.50400001928E-02 0.  1.
       -1   -1    0    0    0  501  0.00000000000E+00  0.00000000000E+00 -0.62148133168E+03  0.62148133170E+03  0.50400001928E-02 0. -1.
    10030    2    1    2    0    0  0.00000000000E+00  0.00000000000E+00 -0.40260311332E+02  0.12027023521E+04  0.12020283087E+04 0.  0.
        3    1    3    3  502    0 -0.38005538620E+03 -0.19053382202E+03 -0.44518924378E+03  0.61557997603E+03  0.10100000352E+00 0. -1.
       -3    1    3    3    0  502  0.38005538620E+03  0.19053382202E+03  0.40492893245E+03  0.58712237604E+03  0.10100000352E+00 0.  1.
</event>
<event>
 5   0  0.2580244E-03  0.1220420E+04  0.7818609E-02  0.9095168E-01
        2   -1    0    0  501    0  0.00000000000E+00  0.00000000000E+00  0.10247464422E+04  0.10247464422E+04  0.25500000920E-02 0. -1.
       -2   -1    0    0    0  501  0.00000000000E+00  0.00000000000E+00 -0.36336454534E+03  0.36336454535E+03  0.25500000920E-02 0.  1.
    10030    2    1    2    0    0  0.00000000000E+00  0.00000000000E+00  0.66138189681E+03  0.13881109875E+04  0.12204204604E+04 0.  0.
        1    1    3    3  502    0 -0.62525122328E+02 -0.53342001830E+03  0.12161984854E+01  0.53707335254E+03  0.50400001928E-02 0.  1.
       -1    1    3    3    0  502  0.62525122328E+02  0.53342001830E+03  0.66016569832E+03  0.85103763496E+03  0.50400001928E-02 0. -1.
</event>
<event>
 5   0  0.1423024E-03  0.1195703E+04  0.7818609E-02  0.9116626E-01
        1   -1    0    0  501    0  0.00000000000E+00  0.00000000000E+00  0.11098494158E+04  0.11098494159E+04  0.50400001928E-02 0.  1.
       -1   -1    0    0    0  501  0.00000000000E+00  0.00000000000E+00 -0.32204927744E+03  0.32204927748E+03  0.50400001928E-02 0. -1.
    10030    2    1    2    0    0  0.00000000000E+00  0.00000000000E+00  0.78780013840E+03  0.14318986933E+04  0.11957026428E+04 0.  0.
        2    1    3    3  502    0 -0.21507093840E+02  0.58754693665E+03  0.26407770463E+03  0.64452384900E+03  0.25500000920E-02 0. -1.
       -2    1    3    3    0  502  0.21507093840E+02 -0.58754693665E+03  0.52372243378E+03  0.78737484434E+03  0.25500000920E-02 0.  1.
</event>
<event>
 5   0  0.1404833E-03  0.1216322E+04  0.7818609E-02  0.9098689E-01
       -1   -1    0    0    0  501  0.00000000000E+00  0.00000000000E+00  0.19313451875E+03  0.19313451882E+03  0.50400001928E-02 0.  1.
        1   -1    0    0  501    0  0.00000000000E+00  0.00000000000E+00 -0.19150361434E+04  0.19150361434E+04  0.50400001928E-02 0. -1.
    10030    2    1    2    0    0  0.00000000000E+00  0.00000000000E+00 -0.17219016247E+04  0.21081706622E+04  0.12163216417E+04 0.  0.
        1    1    3    3  502    0  0.93645471590E+02  0.23106045791E+02  0.17979297577E+03  0.20403156095E+03  0.50400001928E-02 0.  1.
       -1    1    3    3    0  502 -0.93645471590E+02 -0.23106045791E+02 -0.19016946004E+04  0.19041391013E+04  0.50400001928E-02 0. -1.
</event>
<event>
 5   0  0.2579442E-03  0.1202068E+04  0.7818609E-02  0.9111048E-01
        2   -1    0    0  501    0  0.00000000000E+00  0.00000000000E+00  0.14647463124E+04  0.14647463124E+04  0.25500000920E-02 0.  1.
       -2   -1    0    0    0  501  0.00000000000E+00  0.00000000000E+00 -0.24662431232E+03  0.24662431233E+03  0.25500000920E-02 0. -1.
    10030    2    1    2    0    0  0.00000000000E+00  0.00000000000E+00  0.12181220001E+04  0.17113706247E+04  0.12020683043E+04 0.  0.
        4    1    3    3  502    0  0.23567510601E+03 -0.14451581664E+03 -0.15073101726E+03  0.31487938852E+03  0.12699999809E+01 0. -1.
       -4    1    3    3    0  502 -0.23567510601E+03  0.14451581664E+03  0.13688530173E+04  0.13964912362E+04  0.12699999809E+01 0.  1.
</event>
<event>
 5   0  0.1469851E-03  0.1169988E+04  0.7818609E-02  0.9139539E-01
       -1   -1    0    0    0  501  0.00000000000E+00  0.00000000000E+00  0.63629577832E+03  0.63629577834E+03  0.50400001928E-02 0.  1.
        1   -1    0    0  501    0  0.00000000000E+00  0.00000000000E+00 -0.53782851337E+03  0.53782851339E+03  0.50400001928E-02 0. -1.
    10030    2    1    2    0    0  0.00000000000E+00  0.00000000000E+00  0.98467264956E+02  0.11741242917E+04  0.11699880556E+04 0.  0.
        5    1    3    3  502    0  0.26610353853E+03 -0.31144364400E+03 -0.36984020864E+03  0.55191675688E+03  0.46999998093E+01 0. -1.
       -5    1    3    3    0  502 -0.26610353853E+03  0.31144364400E+03  0.46830747359E+03  0.62220753485E+03  0.46999998093E+01 0.  1.
</event>
<event>
 5   0  0.1469851E-03  0.1202748E+04  0.7818609E-02  0.9110455E-01
       -1   -1    0    0    0  501  0.00000000000E+00  0.00000000000E+00  0.25797495687E+03  0.25797495692E+03  0.50400001928E-02 0. -1.
        1   -1    0    0  501    0  0.00000000000E+00  0.00000000000E+00 -0.14018822371E+04  0.14018822371E+04  0.50400001928E-02 0.  1.
    10030    2    1    2    0    0  0.00000000000E+00  0.00000000000E+00 -0.11439072802E+04  0.16598571940E+04  0.12027477037E+04 0.  0.
        5    1    3    3  502    0  0.54599514719E+03 -0.24746649193E+03 -0.50608507141E+03  0.78453461038E+03  0.46999998093E+01 0. -1.
       -5    1    3    3    0  502 -0.54599514719E+03  0.24746649193E+03 -0.63782220883E+03  0.87532258365E+03  0.46999998093E+01 0.  1.
</event>
<event>
 5   0  0.1423024E-03  0.1283798E+04  0.7818609E-02  0.9042513E-01
        1   -1    0    0  501    0  0.00000000000E+00  0.00000000000E+00  0.47812986978E+03  0.47812986981E+03  0.50400001928E-02 0.  1.
       -1   -1    0    0    0  501  0.00000000000E+00  0.00000000000E+00 -0.86176268004E+03  0.86176268006E+03  0.50400001928E-02 0. -1.
    10030    2    1    2    0    0  0.00000000000E+00  0.00000000000E+00 -0.38363281026E+03  0.13398925499E+04  0.12837982365E+04 0.  0.
        2    1    3    3  502    0 -0.11392481920E+03  0.26494878012E+03 -0.79033444236E+03  0.84131162556E+03  0.25500000920E-02 0. -1.
       -2    1    3    3    0  502  0.11392481920E+03 -0.26494878012E+03  0.40670163210E+03  0.49858092430E+03  0.25500000920E-02 0.  1.
</event>
<event>
 5   0  0.2580244E-03  0.1150256E+04  0.7818609E-02  0.9157547E-01
       -2   -1    0    0    0  501  0.00000000000E+00  0.00000000000E+00  0.62952979645E+03  0.62952979645E+03  0.25500000920E-02 0. -1.
        2   -1    0    0  501    0  0.00000000000E+00  0.00000000000E+00 -0.52542764881E+03  0.52542764881E+03  0.25500000920E-02 0.  1.
    10030    2    1    2    0    0  0.00000000000E+00  0.00000000000E+00  0.10410214764E+03  0.11549574453E+04  0.11502562511E+04 0.  0.
        1    1    3    3  502    0  0.12416096764E+03 -0.12821371608E+03  0.60101924628E+03  0.62695999657E+03  0.50400001928E-02 0. -1.
       -1    1    3    3    0  502 -0.12416096764E+03  0.12821371608E+03 -0.49691709864E+03  0.52799744869E+03  0.50400001928E-02 0.  1.
</event>
<event>
 5   0  0.1423024E-03  0.1206104E+04  0.7818609E-02  0.9107531E-01
        1   -1    0    0  501    0  0.00000000000E+00  0.00000000000E+00  0.64397809697E+03  0.64397809699E+03  0.50400001928E-02 0.  1.
       -1   -1    0    0    0  501  0.00000000000E+00  0.00000000000E+00 -0.56472677072E+03  0.56472677074E+03  0.50400001928E-02 0. -1.
    10030    2    1    2    0    0  0.00000000000E+00  0.00000000000E+00  0.79251326253E+02  0.12087048677E+04  0.12061039278E+04 0.  0.
        2    1    3    3  502    0 -0.31974206972E+03  0.15535743358E+03 -0.44856008059E+03  0.57234348885E+03  0.25500000920E-02 0. -1.
       -2    1    3    3    0  502  0.31974206972E+03 -0.15535743358E+03  0.52781140685E+03  0.63636137888E+03  0.25500000920E-02 0.  1.
</event>
<event>
 5   0  0.2580244E-03  0.1204432E+04  0.7818609E-02  0.9108986E-01
       -2   -1    0    0    0  501  0.00000000000E+00  0.00000000000E+00  0.24779065600E+03  0.24779065602E+03  0.25500000920E-02 0.  1.
        2   -1    0    0  501    0  0.00000000000E+00  0.00000000000E+00 -0.14635910114E+04  0.14635910114E+04  0.25500000920E-02 0. -1.
    10030    2    1    2    0    0  0.00000000000E+00  0.00000000000E+00 -0.12158003554E+04  0.17113816674E+04  0.12044321099E+04 0.  0.
        1    1    3    3  502    0  0.46093920338E+03 -0.35323159895E+03 -0.83447374988E+03  0.10166533091E+04  0.50400001928E-02 0. -1.
       -1    1    3    3    0  502 -0.46093920338E+03  0.35323159895E+03 -0.38132660553E+03  0.69472835830E+03  0.50400001928E-02 0.  1.
</event>
<event>
 5   0  0.2517023E-03  0.1197377E+04  0.7818609E-02  0.9115155E-01
       -2   -1    0    0    0  501  0.00000000000E+00  0.00000000000E+00  0.27542760936E+03  0.27542760937E+03  0.25500000920E-02 0. -1.
        2   -1    0    0  501    0  0.00000000000E+00  0.00000000000E+00 -0.13013517219E+04  0.13013517219E+04  0.25500000920E-02 0.  1.
    10030    2    1    2    0    0  0.00000000000E+00  0.00000000000E+00 -0.10259241125E+04  0.15767793312E+04  0.11973774571E+04 0.  0.
        3    1    3    3  502    0  0.37183866257E+03  0.46493742885E+03 -0.42970375490E+03  0.73421804044E+03  0.10100000352E+00 0.  1.
       -3    1    3    3    0  502 -0.37183866257E+03 -0.46493742885E+03 -0.59622035760E+03  0.84256129079E+03  0.10100000352E+00 0. -1.
</event>
<event>
 5   0  0.2517023E-03  0.1195756E+04  0.7818609E-02  0.9116580E-01
       -2   -1    0    0    0  501  0.00000000000E+00  0.00000000000E+00  0.51058954669E+03  0.51058954670E+03  0.25500000920E-02 0. -1.
        2   -1    0    0  501    0  0.00000000000E+00  0.00000000000E+00 -0.70008841209E+03  0.70008841209E+03  0.25500000920E-02 0.  1.
    10030    2    1    2    0    0  0.00000000000E+00  0.00000000000E+00 -0.18949886539E+03  0.12106779588E+04  0.11957555352E+04 0.  0.
        3    1    3    3  502    0  0.21802794043E+03  0.52322007812E+03  0.97787810711E+02  0.57520248529E+03  0.10100000352E+00 0. -1.
       -3    1    3    3    0  502 -0.21802794043E+03 -0.52322007812E+03 -0.28728667610E+03  0.63547547350E+03  0.10100000352E+00 0.  1.
</event>
<event>
 5   0  0.1404833E-03  0.1192400E+04  0.7818609E-02  0.9119535E-01
        1   -1    0    0  501    0  0.00000000000E+00  0.00000000000E+00  0.38475208193E+03  0.38475208196E+03  0.50400001928E-02 0. -1.
       -1   -1    0    0    0  501  0.00000000000E+00  0.00000000000E+00 -0.92385271879E+03  0.92385271881E+03  0.50400001928E-02 0.  1.
    10030    2    1    2    0    0  0.00000000000E+00  0.00000000000E+00 -0.53910063686E+03  0.13086048008E+04  0.11923996930E+04 0.  0.
        1    1    3    3  502    0  0.34044906886E+03  0.67024155193E+02 -0.80162518046E+03  0.87349913328E+03  0.50400001928E-02 0.  1.
       -1    1    3    3    0  502 -0.34044906886E+03 -0.67024155193E+02  0.26252454360E+03  0.43510566749E+03  0.50400001928E-02 0. -1.
</event>
<event>
 5   0  0.1469851E-03  0.1189864E+04  0.7818609E-02  0.9121775E-01
        1   -1    0    0  501    0  0.00000000000E+00  0.00000000000E+00  0.34540946879E+03  0.34540946882E+03  0.50400001928E-02 0. -1.
       -1   -1    0    0    0  501  0.00000000000E+00  0.00000000000E+00 -0.10247088568E+04  0.10247088568E+04  0.50400001928E-02 0.  1.
    10030    2    1    2    0    0  0.00000000000E+00  0.00000000000E+00 -0.67929938800E+03  0.13701183256E+04  0.11898640963E+04 0.  0.
        5    1    3    3  502    0  0.19207069721E+03 -0.18647245863E+00 -0.98800263848E+03  0.10065100552E+04  0.46999998093E+01 0.  1.
       -5    1    3    3    0  502 -0.19207069721E+03  0.18647245863E+00  0.30870325048E+03  0.36360827046E+03  0.46999998093E+01 0. -1.
</event>
<event>
 5   0  0.2517023E-03  0.1205963E+04  0.7818609E-02  0.9107653E-01
        2   -1    0    0  501    0  0.00000000000E+00  0.00000000000E+00  0.36080482006E+03  0.36080482007E+03  0.25500000920E-02 0.  1.
       -2   -1    0    0    0  501  0.00000000000E+00  0.00000000000E+00 -0.10077104412E+04  0.10077104412E+04  0.25500000920E-02 0. -1.
    10030    2    1    2    0    0  0.00000000000E+00  0.00000000000E+00 -0.64690562119E+03  0.13685152613E+04  0.12059631577E+04 0.  0.
        3    1    3    3  502    0 -0.29212708931E+03 -0.24204389107E+02  0.27451026156E+03  0.40159679115E+03  0.10100000352E+00 0.  1.
       -3    1    3    3    0  502  0.29212708931E+03  0.24204389107E+02 -0.92141588275E+03  0.96691847016E+03  0.10100000352E+00 0. -1.
</event>
<event>
 5   0  0.1469851E-03  0.1164581E+04  0.7818609E-02  0.9144436E-01
        1   -1    0    0  501    0  0.00000000000E+00  0.00000000000E+00  0.18991404431E+04  0.18991404431E+04  0.50400001928E-02 0. -1.
       -1   -1    0    0    0  501  0.00000000000E+00  0.00000000000E+00 -0.17853461848E+03  0.17853461855E+03  0.50400001928E-02 0.  1.
    10030    2    1    2    0    0  0.00000000000E+00  0.00000000000E+00  0.17206058246E+04  0.20776750616E+04  0.11645811514E+04 0.  0.
        5    1    3    3  502    0 -0.21002911890E+03 -0.14487549805E+03  0.17940620603E+04  0.18121208312E+04  0.46999998093E+01 0. -1.
       -5    1    3    3    0  502  0.21002911890E+03  0.14487549805E+03 -0.73456235716E+02  0.26555423040E+03  0.46999998093E+01 0.  1.
</event>
<event>
 5   0  0.2484507E-03  0.1196803E+04  0.7818609E-02  0.9115659E-01
        2   -1    0    0  501    0  0.00000000000E+00  0.00000000000E+00  0.47001684542E+03  0.47001684543E+03  0.25500000920E-02 0.  1.
       -2   -1    0    0    0  501  0.00000000000E+00  0.00000000000E+00 -0.76185451876E+03  0.76185451877E+03  0.25500000920E-02 0. -1.
    10030    2    1    2    0    0  0.00000000000E+00  0.00000000000E+00 -0.29183767334E+03  0.12318713642E+04  0.11968031711E+04 0.  0.
        2    1    3    3  502    0  0.26837542220E+03 -0.52937078065E+03 -0.22448136551E+03  0.63454761374E+03  0.25500000920E-02 0. -1.
       -2    1    3    3    0  502 -0.26837542220E+03  0.52937078065E+03 -0.67356307836E+02  0.59732375045E+03  0.25500000920E-02 0.  1.
</event>
<event>
 5   0  0.1404833E-03  0.1203249E+04  0.7818609E-02  0.9110017E-01
       -1   -1    0    0    0  501  0.00000000000E+00  0.00000000000E+00  0.22740145706E+03  0.22740145711E+03  0.50400001928E-02 0. -1.
        1   -1    0    0  501    0  0.00000000000E+00  0.00000000000E+00 -0.15916874240E+04  0.15916874240E+04  0.50400001928E-02 0.  1.
    10030    2    1    2    0    0  0.00000000000E+00  0.00000000000E+00 -0.13642859670E+04  0.18190888811E+04  0.12032490008E+04 0.  0.
        1    1    3    3  502    0  0.33288101928E+03  0.86741820943E+02 -0.14283394805E+04  0.14691792226E+04  0.50400001928E-02 0.  1.
       -1    1    3    3    0  502 -0.33288101928E+03 -0.86741820943E+02  0.64053513574E+02  0.34990965852E+03  0.50400001928E-02 0. -1.
</event>
<event>
 5   0  0.1404833E-03  0.1217297E+04  0.7818609E-02  0.9097850E-01
       -1   -1    0    0    0  501  0.00000000000E+00  0.00000000000E+00  0.64911825749E+03  0.64911825751E+03  0.50400001928E-02 0. -1.
        1   -1    0    0  501    0  0.00000000000E+00  0.00000000000E+00 -0.57070141609E+03  0.57070141612E+03  0.50400001928E-02 0.  1.
    10030    2    1    2    0    0  0.00000000000E+00  0.00000000000E+00  0.78416841395E+02  0.12198196736E+04  0.12172965272E+04 0.  0.
        1    1    3    3  502    0 -0.36702686464E+03  0.57739480443E+02  0.52229701986E+03  0.64096547797E+03  0.50400001928E-02 0. -1.
       -1    1    3    3    0  502  0.36702686464E+03 -0.57739480443E+02 -0.44388017846E+03  0.57885419566E+03  0.50400001928E-02 0.  1.
</event>
<event>
 5   0  0.1423024E-03  0.1234078E+04  0.7818609E-02  0.9083541E-01
        1   -1    0    0  501    0  0.00000000000E+00  0.00000000000E+00  0.75319114165E+03  0.75319114167E+03  0.50400001928E-02 0.  1.
       -1   -1    0    0    0  501  0.00000000000E+00  0.00000000000E+00 -0.50549829116E+03  0.50549829118E+03  0.50400001928E-02 0. -1.
    10030    2    1    2    0    0  0.00000000000E+00  0.00000000000E+00  0.24769285049E+03  0.12586894328E+04  0.12340775260E+04 0.  0.
        2    1    3    3  502    0  0.37507111262E+03 -0.26385258421E+03  0.54492418105E+03  0.71220705474E+03  0.25500000920E-02 0.  1.
       -2    1    3    3    0  502 -0.37507111262E+03  0.26385258421E+03 -0.29723133056E+03  0.54648237811E+03  0.25500000920E-02 0. -1.
</event>
<event>
 5   0  0.2579442E-03  0.1190174E+04  0.7818609E-02  0.9121501E-01
        2   -1    0    0  501    0  0.00000000000E+00  0.00000000000E+00  0.13607556342E+04  0.13607556342E+04  0.25500000920E-02 0.  1.
       -2   -1    0    0    0  501  0.00000000000E+00  0.00000000000E+00 -0.26024420711E+03  0.26024420712E+03  0.25500000920E-02 0. -1.
    10030    2    1    2    0    0  0.00000000000E+00  0.00000000000E+00  0.11005114271E+04  0.16209998413E+04  0.11901743924E+04 0.  0.
        4    1    3    3  502    0  0.79674985501E+02 -0.43933927088E+03  0.14456816652E+02  0.44674121222E+03  0.12699999809E+01 0. -1.
       -4    1    3    3    0  502 -0.79674985501E+02  0.43933927088E+03  0.10860546104E+04  0.11742586291E+04  0.12699999809E+01 0.  1.
</event>
<event>
 5   0  0.1403154E-03  0.1208176E+04  0.7818609E-02  0.9105730E-01
        1   -1    0    0  501    0  0.00000000000E+00  0.00000000000E+00  0.15217647915E+04  0.15217647915E+04  0.50400001928E-02 0.  1.
       -1   -1    0    0    0  501  0.00000000000E+00  0.00000000000E+00 -0.23980203395E+03  0.23980203400E+03  0.50400001928E-02 0. -1.
    10030    2    1    2    0    0  0.00000000000E+00  0.00000000000E+00  0.12819627575E+04  0.17615668255E+04  0.12081759677E+04 0.  0.
        3    1    3    3  502    0  0.25004861249E+03  0.54635324162E+03  0.73199040519E+03  0.94701432763E+03  0.10100000352E+00 0. -1.
       -3    1    3    3    0  502 -0.25004861249E+03 -0.54635324162E+03  0.54997235232E+03  0.81455249785E+03  0.10100000352E+00 0.  1.
</event>
<event>
 5   0  0.1469851E-03  0.1213341E+04  0.7818609E-02  0.9101259E-01
        1   -1    0    0  501    0  0.00000000000E+00  0.00000000000E+00  0.30202454835E+03  0.30202454839E+03  0.50400001928E-02 0.  1.
       -1   -1    0    0    0  501  0.00000000000E+00  0.00000000000E+00 -0.12186067050E+04  0.12186067050E+04  0.50400001928E-02 0. -1.
    10030    2    1    2    0    0  0.00000000000E+00  0.00000000000E+00 -0.91658215668E+03  0.15206312534E+04  0.12133410728E+04 0.  0.
        5    1    3    3  502    0  0.64822396732E+02  0.42179492668E+03 -0.99866854584E+03  0.10860358455E+04  0.46999998093E+01 0. -1.
       -5    1    3    3    0  502 -0.64822396732E+02 -0.42179492668E+03  0.82086389162E+02  0.43459540791E+03  0.46999998093E+01 0.  1.
</event>
<event>
 5   0  0.1455076E-03  0.1198734E+04  0.7818609E-02  0.9113966E-01
        1   -1    0    0  501    0  0.00000000000E+00  0.00000000000E+00  0.17214352441E+04  0.17214352441E+04  0.50400001928E-02 0.  1.
       -1   -1    0    0    0  501  0.00000000000E+00  0.00000000000E+00 -0.20868670747E+03  0.20868670753E+03  0.50400001928E-02 0. -1.
    10030    2    1    2    0    0  0.00000000000E+00  0.00000000000E+00  0.15127485366E+04  0.19301219516E+04  0.11987337540E+04 0.  0.
        4    1    3    3  502    0 -0.29207371916E+03  0.80465846293E+02  0.15890754621E+04  0.16176972050E+04  0.12699999809E+01 0.  1.
       -4    1    3    3    0  502  0.29207371916E+03 -0.80465846293E+02 -0.76326925514E+02  0.31242474662E+03  0.12699999809E+01 0. -1.
</event>
<event>
 5   0  0.2484507E-03  0.1207805E+04  0.7818609E-02  0.9106053E-01
       -2   -1    0    0    0  501  0.00000000000E+00  0.00000000000E+00  0.43992117428E+03  0.43992117428E+03  0.25500000920E-02 0.  1.
        2   -1    0    0  501    0  0.00000000000E+00  0.00000000000E+00 -0.82900756417E+03  0.82900756417E+03  0.25500000920E-02 0. -1.
    10030    2    1    2    0    0  0.00000000000E+00  0.00000000000E+00 -0.38908638989E+03  0.12689287385E+04  0.12078045887E+04 0.  0.
        2    1    3    3  502    0  0.46944253825E+03  0.25825624257E+03 -0.48725650905E+03  0.72421784648E+03  0.25500000920E-02 0. -1.
       -2    1    3    3    0  502 -0.46944253825E+03 -0.25825624257E+03  0.98170119155E+02  0.54471089198E+03  0.25500000920E-02 0.  1.
</event>
<event>
 5   0  0.9678750E-04  0.1185117E+04  0.7818609E-02  0.9125985E-01
        3   -1    0    0  501    0  0.00000000000E+00  0.00000000000E+00  0.89246170941E+03  0.89246171513E+03  0.10100000352E+00 0.  1.
       -3   -1    0    0    0  501  0.00000000000E+00  0.00000000000E+00 -0.39343457269E+03  0.39343458565E+03  0.10100000352E+00 0. -1.
    10030    2    1    2    0    0  0.00000000000E+00  0.00000000000E+00  0.49902713672E+03  0.12858963008E+04  0.11851165399E+04 0.  0.
        3    1    3    3  502    0  0.40201472135E+03 -0.29164886154E+03  0.60018463809E+03  0.77903562475E+03  0.10100000352E+00 0.  1.
       -3    1    3    3    0  502 -0.40201472135E+03  0.29164886154E+03 -0.10115750137E+03  0.50686067603E+03  0.10100000352E+00 0. -1.
</event>
<event>
 5   0  0.2579442E-03  0.1191456E+04  0.7818609E-02  0.9120368E-01
       -2   -1    0    0    0  501  0.00000000000E+00  0.00000000000E+00  0.18424862392E+03  0.18424862394E+03  0.25500000920E-02 0. -1.
        2   -1    0    0  501    0  0.00000000000E+00  0.00000000000E+00 -0.19261571151E+04  0.19261571151E+04  0.25500000920E-02 0.  1.
    10030    2    1    2    0    0  0.00000000000E+00  0.00000000000E+00 -0.17419084911E+04  0.21104057390E+04  0.11914559126E+04 0.  0.
        4    1    3    3  502    0 -0.92193279525E+02  0.13046899367E+03  0.14559626905E+03  0.21615190391E+03  0.12699999809E+01 0. -1.
       -4    1    3    3    0  502  0.92193279525E+02 -0.13046899367E+03 -0.18875047602E+04  0.18942538351E+04  0.12699999809E+01 0.  1.
</event>
<event>
 5   0  0.2579442E-03  0.1201001E+04  0.7818609E-02  0.9111981E-01
       -2   -1    0    0    0  501  0.00000000000E+00  0.00000000000E+00  0.15955589519E+03  0.15955589521E+03  0.25500000920E-02 0.  1.
        2   -1    0    0  501    0  0.00000000000E+00  0.00000000000E+00 -0.22600267124E+04  0.22600267124E+04  0.25500000920E-02 0. -1.
    10030    2    1    2    0    0  0.00000000000E+00  0.00000000000E+00 -0.21004708172E+04  0.24195826076E+04  0.12010005583E+04 0.  0.
        4    1    3    3  502    0 -0.87907899716E+02  0.18545052496E+03 -0.21871761611E+04  0.21967842108E+04  0.12699999809E+01 0. -1.
       -4    1    3    3    0  502  0.87907899716E+02 -0.18545052496E+03  0.86705343950E+02  0.22279839679E+03  0.12699999809E+01 0.  1.
</event>
<event>
 5   0  0.1455076E-03  0.1191492E+04  0.7818609E-02  0.9120336E-01
       -1   -1    0    0    0  501  0.00000000000E+00  0.00000000000E+00  0.19965792643E+03  0.19965792650E+03  0.50400001928E-02 0. -1.
        1   -1    0    0  501    0  0.00000000000E+00  0.00000000000E+00 -0.17776068396E+04  0.17776068396E+04  0.50400001928E-02 0.  1.
    10030    2    1    2    0    0  0.00000000000E+00  0.00000000000E+00 -0.15779489132E+04  0.19772647661E+04  0.11914919986E+04 0.  0.
        4    1    3    3  502    0 -0.19724314957E+03 -0.12681825796E+03 -0.16977973793E+04  0.17139151918E+04  0.12699999809E+01 0.  1.
       -4    1    3    3    0  502  0.19724314957E+03  0.12681825796E+03  0.11984846607E+03  0.26334957437E+03  0.12699999809E+01 0. -1.
</event>
<event>
 5   0  0.2484507E-03  0.1204578E+04  0.7818609E-02  0.9108859E-01
        2   -1    0    0  501    0  0.00000000000E+00  0.00000000000E+00  0.54373230930E+03  0.54373230931E+03  0.25500000920E-02 0. -1.
       -2   -1    0    0    0  501  0.00000000000E+00  0.00000000000E+00 -0.66715231372E+03  0.66715231372E+03  0.25500000920E-02 0.  1.
    10030    2    1    2    0    0  0.00000000000E+00  0.00000000000E+00 -0.12342000442E+03  0.12108846230E+04  0.12045783797E+04 0.  0.
        2    1    3    3  502    0  0.22995292430E+03  0.55470104403E+03 -0.14767857457E+02  0.60065771057E+03  0.25500000920E-02 0. -1.
       -2    1    3    3    0  502 -0.22995292430E+03 -0.55470104403E+03 -0.10865214696E+03  0.61022691246E+03  0.25500000920E-02 0.  1.
</event>
<event>
 5   0  0.2579442E-03  0.1200979E+04  0.7818609E-02  0.9112000E-01
       -2   -1    0    0    0  501  0.00000000000E+00  0.00000000000E+00  0.61403136252E+03  0.61403136253E+03  0.25500000920E-02 0. -1.
        2   -1    0    0  501    0  0.00000000000E+00  0.00000000000E+00 -0.58724660832E+03  0.58724660833E+03  0.25500000920E-02 0.  1.
    10030    2    1    2    0    0  0.00000000000E+00  0.00000000000E+00  0.26784754197E+02  0.12012779709E+04  0.12009793255E+04 0.  0.
        4    1    3    3  502    0 -0.67813436800E+02 -0.53693014618E+03 -0.24685221695E+03  0.59483634220E+03  0.12699999809E+01 0.  1.
       -4    1    3    3    0  502  0.67813436800E+02  0.53693014618E+03  0.27363697115E+03  0.60644162866E+03  0.12699999809E+01 0. -1.
</event>
<event>
 5   0  0.2499890E-03  0.1208542E+04  0.7818609E-02  0.9105413E-01
       -2   -1    0    0    0  501  0.00000000000E+00  0.00000000000E+00  0.35097798333E+03  0.35097798334E+03  0.25500000920E-02 0.  1.
        2   -1    0    0  501    0  0.00000000000E+00  0.00000000000E+00 -0.10403596203E+04  0.10403596203E+04  0.25500000920E-02 0. -1.
    10030    2    1    2    0    0  0.00000000000E+00  0.00000000000E+00 -0.68938163700E+03  0.13913376037E+04  0.12085418015E+04 0.  0.
        5    1    3    3  502    0  0.32774839370E+03 -0.33495810876E+03 -0.78383813556E+03  0.91325804511E+03  0.46999998093E+01 0. -1.
       -5    1    3    3    0  502 -0.32774839370E+03  0.33495810876E+03  0.94456498558E+02  0.47807955857E+03  0.46999998093E+01 0.  1.
</event>
<event>
 5   0  0.9678750E-04  0.1194668E+04  0.7818609E-02  0.9117537E-01
        4   -1    0    0  501    0  0.00000000000E+00  0.00000000000E+00  0.53301739355E+03  0.53301890653E+03  0.12699999809E+01 0.  1.
       -4   -1    0    0    0  501  0.00000000000E+00  0.00000000000E+00 -0.66940794613E+03  0.66940915085E+03  0.12699999809E+01 0. -1.
    10030    2    1    2    0    0  0.00000000000E+00  0.00000000000E+00 -0.13639055258E+03  0.12024280574E+04  0.11946676736E+04 0.  0.
        4    1    3    3  502    0  0.12508445044E+02 -0.43661552794E+03 -0.47829326678E+03  0.64773114977E+03  0.12699999809E+01 0. -1.
       -4    1    3    3    0  502 -0.12508445044E+02  0.43661552794E+03  0.34190271420E+03  0.55469690761E+03  0.12699999809E+01 0.  1.
</event>
<event>
 5   0  0.2499890E-03  0.1196841E+04  0.7818609E-02  0.9115626E-01
       -2   -1    0    0    0  501  0.00000000000E+00  0.00000000000E+00  0.60863443338E+03  0.60863443338E+03  0.25500000920E-02 0.  1.
        2   -1    0    0  501    0  0.00000000000E+00  0.00000000000E+00 -0.58837829625E+03  0.58837829626E+03  0.25500000920E-02 0. -1.
    10030    2    1    2    0    0  0.00000000000E+00  0.00000000000E+00  0.20256137126E+02  0.11970127296E+04  0.11968413278E+04 0.  0.
        5    1    3    3  502    0 -0.29189047768E+03  0.37341436313E+03 -0.35522804333E+03  0.59232372088E+03  0.46999998093E+01 0. -1.
       -5    1    3    3    0  502  0.29189047768E+03 -0.37341436313E+03  0.37548418045E+03  0.60468900876E+03  0.46999998093E+01 0.  1.
</event>
<event>
 5   0  0.1469851E-03  0.1284902E+04  0.7818609E-02  0.9041625E-01
        1   -1    0    0  501    0  0.00000000000E+00  0.00000000000E+00  0.22023116407E+04  0.22023116407E+04  0.50400001928E-02 0. -1.
       -1   -1    0    0    0  501  0.00000000000E+00  0.00000000000E+00 -0.18741354964E+03  0.18741354971E+03  0.50400001928E-02 0.  1.
    10030    2    1    2    0    0  0.00000000000E+00  0.00000000000E+00  0.20148980910E+04  0.23897251904E+04  0.12849016181E+04 0.  0.
        5    1    3    3  502    0 -0.32973922297E+03 -0.26357947225E+03  0.10677640288E+03  0.43545996781E+03  0.46999998093E+01 0.  1.
       -5    1    3    3    0  502  0.32973922297E+03  0.26357947225E+03  0.19081216882E+04  0.19542652226E+04  0.46999998093E+01 0. -1.
</event>
<event>
 5   0  0.1423024E-03  0.1168756E+04  0.7818609E-02  0.9140653E-01
        1   -1    0    0  501    0  0.00000000000E+00  0.00000000000E+00  0.38887579672E+03  0.38887579675E+03  0.50400001928E-02 0.  1.
       -1   -1    0    0    0  501  0.00000000000E+00  0.00000000000E+00 -0.87816563230E+03  0.87816563231E+03  0.50400001928E-02 0. -1.
    10030    2    1    2    0    0  0.00000000000E+00  0.00000000000E+00 -0.48928983558E+03  0.12670414291E+04  0.11687555090E+04 0.  0.
        2    1    3    3  502    0  0.10303075982E+03  0.44783324622E+03  0.14672281844E+03  0.48238733332E+03  0.25500000920E-02 0.  1.
       -2    1    3    3    0  502 -0.10303075982E+03 -0.44783324622E+03 -0.63601265402E+03  0.78465409574E+03  0.25500000920E-02 0. -1.
</event>
<event>
 5   0  0.2580244E-03  0.1199375E+04  0.7818609E-02  0.9113403E-01
       -2   -1    0    0    0  501  0.00000000000E+00  0.00000000000E+00  0.32283662302E+03  0.32283662303E+03  0.25500000920E-02 0. -1.
        2   -1    0    0  501    0  0.00000000000E+00  0.00000000000E+00 -0.11139546466E+04  0.11139546466E+04  0.25500000920E-02 0.  1.
    10030    2    1    2    0    0  0.00000000000E+00  0.00000000000E+00 -0.79111802359E+03  0.14367912697E+04  0.11993754313E+04 0.  0.
        1    1    3    3  502    0  0.29623784430E+03 -0.32174384045E+03 -0.88708254380E+03  0.98903559026E+03  0.50400001928E-02 0.  1.
       -1    1    3    3    0  502 -0.29623784430E+03  0.32174384045E+03  0.95964520205E+02  0.44775567939E+03  0.50400001928E-02 0. -1.
</event>
<event>
 5   0  0.1455076E-03  0.1178251E+04  0.7818609E-02  0.9132109E-01
       -1   -1    0    0    0  501  0.00000000000E+00  0.00000000000E+00  0.29748456339E+03  0.29748456343E+03  0.50400001928E-02 0. -1.
        1   -1    0    0  501    0  0.00000000000E+00  0.00000000000E+00 -0.11666793232E+04  0.11666793232E+04  0.50400001928E-02 0.  1.
    10030    2    1    2    0    0  0.00000000000E+00  0.00000000000E+00 -0.86919475982E+03  0.14641638866E+04  0.11782513978E+04 0.  0.
        4    1    3    3  502    0 -0.44774349790E+03 -0.11314721213E+01  0.41183294055E+02  0.44963673865E+03  0.12699999809E+01 0. -1.
       -4    1    3    3    0  502  0.44774349790E+03  0.11314721213E+01 -0.91037805387E+03  0.10145271480E+04  0.12699999809E+01 0.  1.
</event>
<event>
 5   0  0.2517023E-03  0.1192398E+04  0.7818609E-02  0.9119536E-01
        2   -1    0    0  501    0  0.00000000000E+00  0.00000000000E+00  0.30887676316E+03  0.30887676318E+03  0.25500000920E-02 0. -1.
       -2   -1    0    0    0  501  0.00000000000E+00  0.00000000000E+00 -0.11507939535E+04  0.11507939535E+04  0.25500000920E-02 0.  1.
    10030    2    1    2    0    0  0.00000000000E+00  0.00000000000E+00 -0.84191719033E+03  0.14596707167E+04  0.11923984425E+04 0.  0.
        3    1    3    3  502    0  0.42107115882E+03  0.10254066918E+03 -0.92216858662E+03  0.10189261121E+04  0.10100000352E+00 0.  1.
       -3    1    3    3    0  502 -0.42107115882E+03 -0.10254066918E+03  0.80251396293E+02  0.44074460454E+03  0.10100000352E+00 0. -1.
</event>
<event>
 5   0  0.1469851E-03  0.1189341E+04  0.7818609E-02  0.9122238E-01
        1   -1    0    0  501    0  0.00000000000E+00  0.00000000000E+00  0.37853405081E+03  0.37853405084E+03  0.50400001928E-02 0. -1.
       -1   -1    0    0    0  501  0.00000000000E+00  0.00000000000E+00 -0.93421689169E+03  0.93421689170E+03  0.50400001928E-02 0.  1.
    10030    2    1    2    0    0  0.00000000000E+00  0.00000000000E+00 -0.55568284088E+03  0.13127509425E+04  0.11893408332E+04 0.  0.
        5    1    3    3  502    0  0.41564719441E+03 -0.16518178495E+03 -0.71037476046E+03  0.83946530756E+03  0.46999998093E+01 0.  1.
       -5    1    3    3    0  502 -0.41564719441E+03  0.16518178495E+03  0.15469191958E+03  0.47328563499E+03  0.46999998093E+01 0. -1.
</event>
<event>
 5   0  0.1403154E-03  0.1210415E+04  0.7818609E-02  0.9103789E-01
       -1   -1    0    0    0  501  0.00000000000E+00  0.00000000000E+00  0.25837579579E+03  0.25837579584E+03  0.50400001928E-02 0.  1.
        1   -1    0    0  501    0  0.00000000000E+00  0.00000000000E+00 -0.14176098897E+04  0.14176098897E+04  0.50400001928E-02 0. -1.
    10030    2    1    2    0    0  0.00000000000E+00  0.00000000000E+00 -0.11592340939E+04  0.16759856856E+04  0.12104149428E+04 0.  0.
        3    1    3    3  502    0 -0.11765986853E+02 -0.38130320153E+03  0.70934870557E+02  0.38802362815E+03  0.10100000352E+00 0.  1.
       -3    1    3    3    0  502  0.11765986853E+02  0.38130320153E+03 -0.12301689645E+04  0.12879620574E+04  0.10100000352E+00 0. -1.
</event>
<event>
 5   0  0.9678750E-04  0.1239907E+04  0.7818609E-02  0.9078625E-01
       -3   -1    0    0    0  501  0.00000000000E+00  0.00000000000E+00  0.39554652358E+03  0.39554653648E+03  0.10100000352E+00 0.  1.
        3   -1    0    0  501    0  0.00000000000E+00  0.00000000000E+00 -0.97167471919E+03  0.97167472444E+03  0.10100000352E+00 0. -1.
    10030    2    1    2    0    0  0.00000000000E+00  0.00000000000E+00 -0.57612819560E+03  0.13672212609E+04  0.12399073669E+04 0.  0.
        2    1    3    3  502    0 -0.49364071057E+03  0.25299509393E+03  0.17230785925E+02  0.55496357419E+03  0.25500000920E-02 0.  1.
       -2    1    3    3    0  502  0.49364071057E+03 -0.25299509393E+03 -0.59335898153E+03  0.81225768673E+03  0.25500000920E-02 0. -1.
</event>
<event>
 5   0  0.2484507E-03  0.1194637E+04  0.7818609E-02  0.9117563E-01
        2   -1    0    0  501    0  0.00000000000E+00  0.00000000000E+00  0.10923737288E+04  0.10923737288E+04  0.25500000920E-02 0.  1.
       -2   -1    0    0    0  501  0.00000000000E+00  0.00000000000E+00 -0.32661859284E+03  0.32661859285E+03  0.25500000920E-02 0. -1.
    10030    2    1    2    0    0  0.00000000000E+00  0.00000000000E+00  0.76575513594E+03  0.14189923216E+04  0.11946373009E+04 0.  0.
        2    1    3    3  502    0 -0.25260759029E+03  0.48004895357E+03  0.67990397141E+03  0.86978560740E+03  0.25500000920E-02 0.  1.
       -2    1    3    3    0  502  0.25260759029E+03 -0.48004895357E+03  0.85851164529E+02  0.54920671423E+03  0.25500000920E-02 0. -1.
</event>
<event>
 5   0  0.2499890E-03  0.1212054E+04  0.7818609E-02  0.9102370E-01
        2   -1    0    0  501    0  0.00000000000E+00  0.00000000000E+00  0.10883980073E+04  0.10883980074E+04  0.25500000920E-02 0.  1.
       -2   -1    0    0    0  501  0.00000000000E+00  0.00000000000E+00 -0.33743983836E+03  0.33743983837E+03  0.25500000920E-02 0. -1.
    10030    2    1    2    0    0  0.00000000000E+00  0.00000000000E+00  0.75095816899E+03  0.14258378457E+04  0.12120542029E+04 0.  0.
        5    1    3    3  502    0  0.44095765193E+03  0.30361341847E+03  0.41457234404E+02  0.53699678859E+03  0.46999998093E+01 0. -1.
       -5    1    3    3    0  502 -0.44095765193E+03 -0.30361341847E+03  0.70950093458E+03  0.88884105713E+03  0.46999998093E+01 0.  1.
</event>
<event>
 5   0  0.1455076E-03  0.1202761E+04  0.7818609E-02  0.9110443E-01
        1   -1    0    0  501    0  0.00000000000E+00  0.00000000000E+00  0.36226348076E+03  0.36226348080E+03  0.50400001928E-02 0.  1.
       -1   -1    0    0    0  501  0.00000000000E+00  0.00000000000E+00 -0.99833056441E+03  0.99833056443E+03  0.50400001928E-02 0. -1.
    10030    2    1    2    0    0  0.00000000000E+00  0.00000000000E+00 -0.63606708365E+03  0.13605940452E+04  0.12027613317E+04 0.  0.
        4    1    3    3  502    0  0.45035301089E+03 -0.17877227270E+03 -0.72097804506E+03  0.86867042903E+03  0.12699999809E+01 0. -1.
       -4    1    3    3    0  502 -0.45035301089E+03  0.17877227270E+03  0.84910961411E+02  0.49192361620E+03  0.12699999809E+01 0.  1.
</event>
<event>
 5   0  0.2579442E-03  0.1276014E+04  0.7818609E-02  0.9048806E-01
        2   -1    0    0  501    0  0.00000000000E+00  0.00000000000E+00  0.12631541191E+04  0.12631541191E+04  0.25500000920E-02 0.  1.
       -2   -1    0    0    0  501  0.00000000000E+00  0.00000000000E+00 -0.32225110141E+03  0.32225110142E+03  0.25500000920E-02 0. -1.
    10030    2    1    2    0    0  0.00000000000E+00  0.00000000000E+00  0.94090301774E+03  0.15854052206E+04  0.12760138027E+04 0.  0.
        4    1    3    3  502    0 -0.48096324243E+03 -0.36023539828E+03  0.73680357610E+03  0.95077668535E+03  0.12699999809E+01 0. -1.
       -4    1    3    3    0  502  0.48096324243E+03  0.36023539828E+03  0.20409944163E+03  0.63462853522E+03  0.12699999809E+01 0.  1.
</event>
<event>
 5   0  0.1469851E-03  0.1189637E+04  0.7818609E-02  0.9121976E-01
       -1   -1    0    0    0  501  0.00000000000E+00  0.00000000000E+00  0.38551462891E+03  0.38551462894E+03  0.50400001928E-02 0. -1.
        1   -1    0    0  501    0  0.00000000000E+00  0.00000000000E+00 -0.91775766454E+03  0.91775766456E+03  0.50400001928E-02 0.  1.
    10030    2    1    2    0    0  0.00000000000E+00  0.00000000000E+00 -0.53224303563E+03  0.13032722935E+04  0.11896369287E+04 0.  0.
        5    1    3    3  502    0  0.10977561485E+03 -0.57761103212E+03 -0.16751412260E+03  0.61136589806E+03  0.46999998093E+01 0. -1.
       -5    1    3    3    0  502 -0.10977561485E+03  0.57761103212E+03 -0.36472891304E+03  0.69190639544E+03  0.46999998093E+01 0.  1.
</event>
<event>
 5   0  0.2484507E-03  0.1198121E+04  0.7818609E-02  0.9114503E-01
       -2   -1    0    0    0  501  0.00000000000E+00  0.00000000000E+00  0.23982945794E+03  0.23982945795E+03  0.25500000920E-02 0.  1.
        2   -1    0    0  501    0  0.00000000000E+00  0.00000000000E+00 -0.14963690390E+04  0.14963690390E+04  0.25500000920E-02 0. -1.
    10030    2    1    2    0    0  0.00000000000E+00  0.00000000000E+00 -0.12565395811E+04  0.17361984970E+04  0.11981208211E+04 0.  0.
        2    1    3    3  502    0  0.13850489256E+03 -0.54638404039E+03 -0.33429769406E+03  0.65534271425E+03  0.25500000920E-02 0.  1.
       -2    1    3    3    0  502 -0.13850489256E+03  0.54638404039E+03 -0.92224188700E+03  0.10808557827E+04  0.25500000920E-02 0. -1.
</event>
<event>
 5   0  0.2517023E-03  0.1214456E+04  0.7818609E-02  0.9100296E-01
        2   -1    0    0  501    0  0.00000000000E+00  0.00000000000E+00  0.90728751251E+03  0.90728751251E+03  0.25500000920E-02 0.  1.
       -2   -1    0    0    0  501  0.00000000000E+00  0.00000000000E+00 -0.40640487484E+03  0.40640487485E+03  0.25500000920E-02 0. -1.
    10030    2    1    2    0    0  0.00000000000E+00  0.00000000000E+00  0.50088263766E+03  0.13136923874E+04  0.12144563689E+04 0.  0.
        3    1    3    3  502    0  0.27203289153E+03 -0.21809179016E+03  0.78821677603E+03  0.86188840300E+03  0.10100000352E+00 0.  1.
       -3    1    3    3    0  502 -0.27203289153E+03  0.21809179016E+03 -0.28733413837E+03  0.45180398436E+03  0.10100000352E+00 0. -1.
</event>
<event>
 5   0  0.1423024E-03  0.1200566E+04  0.7818609E-02  0.9112361E-01
       -1   -1    0    0    0  501  0.00000000000E+00  0.00000000000E+00  0.10792680940E+04  0.10792680940E+04  0.50400001928E-02 0.  1.
        1   -1    0    0  501    0  0.00000000000E+00  0.00000000000E+00 -0.33387424374E+03  0.33387424378E+03  0.50400001928E-02 0. -1.
    10030    2    1    2    0    0  0.00000000000E+00  0.00000000000E+00  0.74539385024E+03  0.14131423378E+04  0.12005662309E+04 0.  0.
        2    1    3    3  502    0  0.46972841471E+03  0.14654213399E+03 -0.32015060894E+02  0.49309668905E+03  0.25500000920E-02 0. -1.
       -2    1    3    3    0  502 -0.46972841471E+03 -0.14654213399E+03  0.77740891113E+03  0.92004564873E+03  0.25500000920E-02 0.  1.
</event>
<event>
 5   0  0.1469851E-03  0.1179092E+04  0.7818609E-02  0.9131357E-01
        1   -1    0    0  501    0  0.00000000000E+00  0.00000000000E+00  0.10016771296E+04  0.10016771296E+04  0.50400001928E-02 0.  1.
       -1   -1    0    0    0  501  0.00000000000E+00  0.00000000000E+00 -0.34698239334E+03  0.34698239337E+03  0.50400001928E-02 0. -1.
    10030    2    1    2    0    0  0.00000000000E+00  0.00000000000E+00  0.65469473628E+03  0.13486595230E+04  0.11790917315E+04 0.  0.
        5    1    3    3  502    0 -0.45724328746E+03 -0.37195509675E+03  0.31480605806E+03  0.66824169439E+03  0.46999998093E+01 0.  1.
       -5    1    3    3    0  502  0.45724328746E+03  0.37195509675E+03  0.33988867821E+03  0.68041782862E+03  0.46999998093E+01 0. -1.
</event>
<event>
 5   0  0.2517023E-03  0.1201725E+04  0.7818609E-02  0.9111348E-01
       -2   -1    0    0    0  501  0.00000000000E+00  0.00000000000E+00  0.59206183811E+03  0.59206183811E+03  0.25500000920E-02 0.  1.
        2   -1    0    0  501    0  0.00000000000E+00  0.00000000000E+00 -0.60979429242E+03  0.60979429242E+03  0.25500000920E-02 0. -1.
    10030    2    1    2    0    0  0.00000000000E+00  0.00000000000E+00 -0.17732454312E+02  0.12018561305E+04  0.12017253091E+04 0.  0.
        3    1    3    3  502    0  0.16137017862E+03  0.56465497098E+03 -0.13600342592E+03  0.60280387595E+03  0.10100000352E+00 0. -1.
       -3    1    3    3    0  502 -0.16137017862E+03 -0.56465497098E+03  0.11827097161E+03  0.59905225459E+03  0.10100000352E+00 0.  1.
</event>
<event>
 5   0  0.2517023E-03  0.1192221E+04  0.7818609E-02  0.9119693E-01
        2   -1    0    0  501    0  0.00000000000E+00  0.00000000000E+00  0.92015687388E+03  0.92015687388E+03  0.25500000920E-02 0. -1.
       -2   -1    0    0    0  501  0.00000000000E+00  0.00000000000E+00 -0.38618175466E+03  0.38618175467E+03  0.25500000920E-02 0.  1.
    10030    2    1    2    0    0  0.00000000000E+00  0.00000000000E+00  0.53397511921E+03  0.13063386285E+04  0.11922211139E+04 0.  0.
        3    1    3    3  502    0 -0.46885616741E+03 -0.36763025177E+03  0.28805495625E+03  0.66178076110E+03  0.10100000352E+00 0. -1.
       -3    1    3    3    0  502  0.46885616741E+03  0.36763025177E+03  0.24592016296E+03  0.64455786745E+03  0.10100000352E+00 0.  1.
</event>
<event>
 5   0  0.2484507E-03  0.1188407E+04  0.7818609E-02  0.9123065E-01
       -2   -1    0    0    0  501  0.00000000000E+00  0.00000000000E+00  0.23148012656E+03  0.23148012658E+03  0.25500000920E-02 0.  1.
        2   -1    0    0  501    0  0.00000000000E+00  0.00000000000E+00 -0.15253047871E+04  0.15253047871E+04  0.25500000920E-02 0. -1.
    10030    2    1    2    0    0  0.00000000000E+00  0.00000000000E+00 -0.12938246606E+04  0.17567849137E+04  0.11884069087E+04 0.  0.
        2    1    3    3  502    0 -0.29240289259E+03  0.26760014463E+03 -0.13013171829E+04  0.13603439636E+04  0.25500000920E-02 0. -1.
       -2    1    3    3    0  502  0.29240289259E+03 -0.26760014463E+03  0.74925222822E+01  0.39644095008E+03  0.25500000920E-02 0.  1.
</event>
<event>
 5   0  0.1404833E-03  0.1200294E+04  0.7818609E-02  0.9112600E-01
       -1   -1    0    0    0  501  0.00000000000E+00  0.00000000000E+00  0.16025064511E+03  0.16025064519E+03  0.50400001928E-02 0. -1.
        1   -1    0    0  501    0  0.00000000000E+00  0.00000000000E+00 -0.22475799504E+04  0.22475799504E+04  0.50400001928E-02 0.  1.
    10030    2    1    2    0    0  0.00000000000E+00  0.00000000000E+00 -0.20873293052E+04  0.24078305956E+04  0.12002935259E+04 0.  0.
        1    1    3    3  502    0  0.56887230006E+02 -0.59723466510E+03 -0.10754294344E+04  0.12314519359E+04  0.50400001928E-02 0.  1.
       -1    1    3    3    0  502 -0.56887230006E+02  0.59723466510E+03 -0.10118998708E+04  0.11763786596E+04  0.50400001928E-02 0. -1.
</event>
<event>
 5   0  0.2579442E-03  0.1203752E+04  0.7818609E-02  0.9109578E-01
        2   -1    0    0  501    0  0.00000000000E+00  0.00000000000E+00  0.17184425986E+04  0.17184425986E+04  0.25500000920E-02 0.  1.
       -2   -1    0    0    0  501  0.00000000000E+00  0.00000000000E+00 -0.21080421611E+03  0.21080421613E+03  0.25500000920E-02 0. -1.
    10030    2    1    2    0    0  0.00000000000E+00  0.00000000000E+00  0.15076383825E+04  0.19292468148E+04  0.12037523748E+04 0.  0.
        4    1    3    3  502    0 -0.84763943378E+02 -0.24300730425E+03  0.16258024004E+04  0.16460475492E+04  0.12699999809E+01 0.  1.
       -4    1    3    3    0  502  0.84763943378E+02  0.24300730425E+03 -0.11816401788E+03  0.28319926561E+03  0.12699999809E+01 0. -1.
</event>
<event>
 5   0  0.2517023E-03  0.1201576E+04  0.7818609E-02  0.9111478E-01
       -2   -1    0    0    0  501  0.00000000000E+00  0.00000000000E+00  0.45510498970E+03  0.45510498971E+03  0.25500000920E-02 0. -1.
        2   -1    0    0  501    0  0.00000000000E+00  0.00000000000E+00 -0.79310516748E+03  0.79310516749E+03  0.25500000920E-02 0.  1.
    10030    2    1    2    0    0  0.00000000000E+00  0.00000000000E+00 -0.33800017778E+03  0.12482101572E+04  0.12015758305E+04 0.  0.
        3    1    3    3  502    0  0.28200484170E+03 -0.28143250325E+03 -0.63613609749E+03  0.75059984636E+03  0.10100000352E+00 0.  1.
       -3    1    3    3    0  502 -0.28200484170E+03  0.28143250325E+03  0.29813591971E+03  0.49761031084E+03  0.10100000352E+00 0. -1.
</event>
<event>
 5   0  0.1423024E-03  0.1191436E+04  0.7818609E-02  0.9120385E-01
        1   -1    0    0  501    0  0.00000000000E+00  0.00000000000E+00  0.80836192514E+03  0.80836192516E+03  0.50400001928E-02 0.  1.
       -1   -1    0    0    0  501  0.00000000000E+00  0.00000000000E+00 -0.43901145462E+03  0.43901145464E+03  0.50400001928E-02 0. -1.
    10030    2    1    2    0    0  0.00000000000E+00  0.00000000000E+00  0.36935047053E+03  0.12473733798E+04  0.11914363510E+04 0.  0.
        2    1    3    3  502    0 -0.62282757750E+02 -0.50007284390E+02 -0.43337985446E+03  0.44067898596E+03  0.25500000920E-02 0. -1.
       -2    1    3    3    0  502  0.62282757750E+02  0.50007284390E+02  0.80273032499E+03  0.80669439385E+03  0.25500000920E-02 0.  1.
</event>
<event>
 5   0  0.1404833E-03  0.1175506E+04  0.7818609E-02  0.9134570E-01
       -1   -1    0    0    0  501  0.00000000000E+00  0.00000000000E+00  0.49092845102E+03  0.49092845104E+03  0.50400001928E-02 0.  1.
        1   -1    0    0  501    0  0.00000000000E+00  0.00000000000E+00 -0.70367454549E+03  0.70367454550E+03  0.50400001928E-02 0. -1.
    10030    2    1    2    0    0  0.00000000000E+00  0.00000000000E+00 -0.21274609447E+03  0.11946029965E+04  0.11755064520E+04 0.  0.
        1    1    3    3  502    0 -0.27379744932E+03 -0.41309537525E+03 -0.42748250137E+03  0.65448767850E+03  0.50400001928E-02 0. -1.
       -1    1    3    3    0  502  0.27379744932E+03  0.41309537525E+03  0.21473640690E+03  0.54011531804E+03  0.50400001928E-02 0.  1.
</event>
<event>
 5   0  0.2580244E-03  0.1196353E+04  0.7818609E-02  0.9116055E-01
       -2   -1    0    0    0  501  0.00000000000E+00  0.00000000000E+00  0.35229158188E+03  0.35229158189E+03  0.25500000920E-02 0. -1.
        2   -1    0    0  501    0  0.00000000000E+00  0.00000000000E+00 -0.10156791483E+04  0.10156791483E+04  0.25500000920E-02 0.  1.
    10030    2    1    2    0    0  0.00000000000E+00  0.00000000000E+00 -0.66338756639E+03  0.13679707302E+04  0.11963531483E+04 0.  0.
        1    1    3    3  502    0  0.78666364680E+02 -0.52570166053E+03 -0.64539249292E+03  0.83611129807E+03  0.50400001928E-02 0.  1.
       -1    1    3    3    0  502 -0.78666364680E+02  0.52570166053E+03 -0.17995073467E+02  0.53185943210E+03  0.50400001928E-02 0. -1.
</event>
<event>
 5   0  0.1469851E-03  0.1222086E+04  0.7818609E-02  0.9093741E-01
        1   -1    0    0  501    0  0.00000000000E+00  0.00000000000E+00  0.98112054214E+03  0.98112054216E+03  0.50400001928E-02 0.  1.
       -1   -1    0    0    0  501  0.00000000000E+00  0.00000000000E+00 -0.38055845544E+03  0.38055845548E+03  0.50400001928E-02 0. -1.
    10030    2    1    2    0    0  0.00000000000E+00  0.00000000000E+00  0.60056208670E+03  0.13616789976E+04  0.12220862787E+04 0.  0.
        5    1    3    3  502    0  0.59340058415E+03 -0.12693504601E+03  0.37996852970E+03  0.71598528807E+03  0.46999998093E+01 0. -1.
       -5    1    3    3    0  502 -0.59340058415E+03  0.12693504601E+03  0.22059355700E+03  0.64569370956E+03  0.46999998093E+01 0.  1.
</event>
<event>
 5   0  0.1455076E-03  0.1204796E+04  0.7818609E-02  0.9108669E-01
       -1   -1    0    0    0  501  0.00000000000E+00  0.00000000000E+00  0.84842649766E+03  0.84842649767E+03  0.50400001928E-02 0. -1.
        1   -1    0    0  501    0  0.00000000000E+00  0.00000000000E+00 -0.42771308412E+03  0.42771308415E+03  0.50400001928E-02 0.  1.
    10030    2    1    2    0    0  0.00000000000E+00  0.00000000000E+00  0.42071341354E+03  0.12761395818E+04  0.12047956075E+04 0.  0.
        4    1    3    3  502    0  0.89630577148E+02  0.13907254597E+03 -0.40317271557E+03  0.43580347048E+03  0.12699999809E+01 0.  1.
       -4    1    3    3    0  502 -0.89630577148E+02 -0.13907254597E+03  0.82388612910E+03  0.84033611135E+03  0.12699999809E+01 0. -1.
</event>
<event>
 5   0  0.2517023E-03  0.1266567E+04  0.7818609E-02  0.9056506E-01
       -2   -1    0    0    0  501  0.00000000000E+00  0.00000000000E+00  0.22850483500E+03  0.22850483502E+03  0.25500000920E-02 0.  1.
        2   -1    0    0  501    0  0.00000000000E+00  0.00000000000E+00 -0.17550957187E+04  0.17550957187E+04  0.25500000920E-02 0. -1.
    10030    2    1    2    0    0  0.00000000000E+00  0.00000000000E+00 -0.15265908837E+04  0.19836005537E+04  0.12665667888E+04 0.  0.
        3    1    3    3  502    0 -0.54326297950E+03 -0.27969184093E+02 -0.12710938452E+04  0.13826049738E+04  0.10100000352E+00 0. -1.
       -3    1    3    3    0  502  0.54326297950E+03  0.27969184093E+02 -0.25549703848E+03  0.60099557987E+03  0.10100000352E+00 0.  1.
</event>
<event>
 5   0  0.1455076E-03  0.1218543E+04  0.7818609E-02  0.9096779E-01
        1   -1    0    0  501    0  0.00000000000E+00  0.00000000000E+00  0.11704871009E+04  0.11704871009E+04  0.50400001928E-02 0. -1.
       -1   -1    0    0    0  501  0.00000000000E+00  0.00000000000E+00 -0.31714274824E+03  0.31714274828E+03  0.50400001928E-02 0.  1.
    10030    2    1    2    0    0  0.00000000000E+00  0.00000000000E+00  0.85334435270E+03  0.14876298492E+04  0.12185425655E+04 0.  0.
        4    1    3    3  502    0 -0.11500329898E+03  0.54662355065E+03  0.12966518234E+03  0.57344375252E+03  0.12699999809E+01 0. -1.
       -4    1    3    3    0  502  0.11500329898E+03 -0.54662355065E+03  0.72367917036E+03  0.91418609670E+03  0.12699999809E+01 0.  1.
</event>
<event>
 5   0  0.1404833E-03  0.1200921E+04  0.7818609E-02  0.9112051E-01
        1   -1    0    0  501    0  0.00000000000E+00  0.00000000000E+00  0.15253988867E+04  0.15253988867E+04  0.50400001928E-02 0. -1.
       -1   -1    0    0    0  501  0.00000000000E+00  0.00000000000E+00 -0.23636634673E+03  0.23636634678E+03  0.50400001928E-02 0.  1.
    10030    2    1    2    0    0  0.00000000000E+00  0.00000000000E+00  0.12890325400E+04  0.17617652335E+04  0.12009212501E+04 0.  0.
        1    1    3    3  502    0 -0.28421065854E+03  0.54554627473E+00  0.14204765373E+04  0.14486302458E+04  0.50400001928E-02 0. -1.
       -1    1    3    3    0  502  0.28421065854E+03 -0.54554627473E+00 -0.13144399733E+03  0.31313498767E+03  0.50400001928E-02 0.  1.
</event>
<event>
 5   0  0.1423024E-03  0.1192669E+04  0.7818609E-02  0.9119297E-01
        1   -1    0    0  501    0  0.00000000000E+00  0.00000000000E+00  0.10877230095E+04  0.10877230095E+04  0.50400001928E-02 0. -1.
       -1   -1    0    0    0  501  0.00000000000E+00  0.00000000000E+00 -0.32693522738E+03  0.32693522742E+03  0.50400001928E-02 0.  1.
    10030    2    1    2    0    0  0.00000000000E+00  0.00000000000E+00  0.76078778212E+03  0.14146582369E+04  0.11926692240E+04 0.  0.
        2    1    3    3  502    0 -0.27928709124E+03  0.46169594644E+03  0.79270279313E+02  0.54538812188E+03  0.25500000920E-02 0.  1.
       -2    1    3    3    0  502  0.27928709124E+03 -0.46169594644E+03  0.68151750281E+03  0.86927011506E+03  0.25500000920E-02 0. -1.
</event>
<event>
 5   0  0.2580244E-03  0.1206287E+04  0.7818609E-02  0.9107371E-01
       -2   -1    0    0    0  501  0.00000000000E+00  0.00000000000E+00  0.12434844293E+03  0.12434844296E+03  0.25500000920E-02 0. -1.
        2   -1    0    0  501    0  0.00000000000E+00  0.00000000000E+00 -0.29255070961E+04  0.29255070961E+04  0.25500000920E-02 0.  1.
    10030    2    1    2    0    0  0.00000000000E+00  0.00000000000E+00 -0.28011586532E+04  0.30498555391E+04  0.12062872829E+04 0.  0.
        1    1    3    3  502    0 -0.23961035337E+02 -0.57667550641E+03 -0.18432374327E+04  0.19314898406E+04  0.50400001928E-02 0.  1.
       -1    1    3    3    0  502  0.23961035337E+02  0.57667550641E+03 -0.95792122049E+03  0.11183656985E+04  0.50400001928E-02 0. -1.
</event>
<event>
 5   0  0.9678750E-04  0.1194678E+04  0.7818609E-02  0.9117527E-01
       -3   -1    0    0    0  501  0.00000000000E+00  0.00000000000E+00  0.69326098745E+03  0.69326099481E+03  0.10100000352E+00 0.  1.
        3   -1    0    0  501    0  0.00000000000E+00  0.00000000000E+00 -0.51468943309E+03  0.51468944300E+03  0.10100000352E+00 0. -1.
    10030    2    1    2    0    0  0.00000000000E+00  0.00000000000E+00  0.17857155436E+03  0.12079504378E+04  0.11946783919E+04 0.  0.
        2    1    3    3  502    0 -0.31229953587E+03  0.50519508679E+03  0.24851538934E+02  0.59444989260E+03  0.25500000920E-02 0. -1.
       -2    1    3    3    0  502  0.31229953587E+03 -0.50519508679E+03  0.15372001543E+03  0.61350054521E+03  0.25500000920E-02 0.  1.
</event>
<event>
 5   0  0.2517023E-03  0.1196401E+04  0.7818609E-02  0.9116013E-01
       -2   -1    0    0    0  501  0.00000000000E+00  0.00000000000E+00  0.31019936733E+03  0.31019936734E+03  0.25500000920E-02 0. -1.
        2   -1    0    0  501    0  0.00000000000E+00  0.00000000000E+00 -0.11535925280E+04  0.11535925280E+04  0.25500000920E-02 0.  1.
    10030    2    1    2    0    0  0.00000000000E+00  0.00000000000E+00 -0.84339316063E+03  0.14637918953E+04  0.11964007227E+04 0.  0.
        3    1    3    3  502    0 -0.93340700607E+02  0.58892183251E+03 -0.36299105200E+03  0.69807157601E+03  0.10100000352E+00 0. -1.
       -3    1    3    3    0  502  0.93340700607E+02 -0.58892183251E+03 -0.48040210863E+03  0.76572031929E+03  0.10100000352E+00 0.  1.
</event>
<event>
 5   0  0.2484507E-03  0.1204303E+04  0.7818609E-02  0.9109098E-01
        2   -1    0    0  501    0  0.00000000000E+00  0.00000000000E+00  0.86387440273E+03  0.86387440274E+03  0.25500000920E-02 0. -1.
       -2   -1    0    0    0  501  0.00000000000E+00  0.00000000000E+00 -0.41972149031E+03  0.41972149032E+03  0.25500000920E-02 0.  1.
    10030    2    1    2    0    0  0.00000000000E+00  0.00000000000E+00  0.44415291242E+03  0.12835958931E+04  0.12043033700E+04 0.  0.
        2    1    3    3  502    0  0.78869331147E+02  0.32929523498E+03 -0.30863415447E+03  0.45816019522E+03  0.25500000920E-02 0.  1.
       -2    1    3    3    0  502 -0.78869331147E+02 -0.32929523498E+03  0.75278706689E+03  0.82543569783E+03  0.25500000920E-02 0. -1.
</event>
<event>
 5   0  0.2579442E-03  0.1189991E+04  0.7818609E-02  0.9121663E-01
        2   -1    0    0  501    0  0.00000000000E+00  0.00000000000E+00  0.11674172983E+04  0.11674172983E+04  0.25500000920E-02 0.  1.
       -2   -1    0    0    0  501  0.00000000000E+00  0.00000000000E+00 -0.30325035216E+03  0.30325035217E+03  0.25500000920E-02 0. -1.
    10030    2    1    2    0    0  0.00000000000E+00  0.00000000000E+00  0.86416694614E+03  0.14706676505E+04  0.11899911039E+04 0.  0.
        4    1    3    3  502    0 -0.16532350347E+02 -0.50712438063E+03  0.48030504535E+02  0.50966361289E+03  0.12699999809E+01 0. -1.
       -4    1    3    3    0  502  0.16532350347E+02  0.50712438063E+03  0.81613644160E+03  0.96100403758E+03  0.12699999809E+01 0.  1.
</event>
<event>
 5   0  0.2517023E-03  0.1194625E+04  0.7818609E-02  0.9117574E-01
       -2   -1    0    0    0  501  0.00000000000E+00  0.00000000000E+00  0.25910463624E+03  0.25910463625E+03  0.25500000920E-02 0.  1.
        2   -1    0    0  501    0  0.00000000000E+00  0.00000000000E+00 -0.13769808981E+04  0.13769808982E+04  0.25500000920E-02 0. -1.
    10030    2    1    2    0    0  0.00000000000E+00  0.00000000000E+00 -0.11178762619E+04  0.16360855344E+04  0.11946248528E+04 0.  0.
        3    1    3    3  502    0 -0.19451850623E+03  0.50217956073E+03 -0.91280003290E+03  0.10598234149E+04  0.10100000352E+00 0. -1.
       -3    1    3    3    0  502  0.19451850623E+03 -0.50217956073E+03 -0.20507622901E+03  0.57626211952E+03  0.10100000352E+00 0.  1.
</event>
<event>
 5   0  0.1404833E-03  0.1199588E+04  0.7818609E-02  0.9113217E-01
       -1   -1    0    0    0  501  0.00000000000E+00  0.00000000000E+00  0.14695253214E+04  0.14695253214E+04  0.50400001928E-02 0.  1.
        1   -1    0    0  501    0  0.00000000000E+00  0.00000000000E+00 -0.24480899530E+03  0.24480899535E+03  0.50400001928E-02 0. -1.
    10030    2    1    2    0    0  0.00000000000E+00  0.00000000000E+00  0.12247163261E+04  0.17143343168E+04  0.11995882920E+04 0.  0.
        1    1    3    3  502    0 -0.22482839524E+03  0.51698614310E+03  0.90499467937E+03  0.10662259841E+04  0.50400001928E-02 0.  1.
       -1    1    3    3    0  502  0.22482839524E+03 -0.51698614310E+03  0.31972164675E+03  0.64810833268E+03  0.50400001928E-02 0. -1.
</event>
<event>
 5   0  0.1469851E-03  0.1201945E+04  0.7818609E-02  0.9111155E-01
        1   -1    0    0  501    0  0.00000000000E+00  0.00000000000E+00  0.84360838947E+03  0.84360838948E+03  0.50400001928E-02 0.  1.
       -1   -1    0    0    0  501  0.00000000000E+00  0.00000000000E+00 -0.42812301751E+03  0.42812301754E+03  0.50400001928E-02 0. -1.
    10030    2    1    2    0    0  0.00000000000E+00  0.00000000000E+00  0.41548537196E+03  0.12717314070E+04  0.12019453720E+04 0.  0.
        5    1    3    3  502    0 -0.17780617194E+03 -0.44543507016E+03 -0.17538442955E+03  0.51069484493E+03  0.46999998093E+01 0. -1.
       -5    1    3    3    0  502  0.17780617194E+03  0.44543507016E+03  0.59086980151E+03  0.76103656209E+03  0.46999998093E+01 0.  1.
</event>
<event>
 5   0  0.9678750E-04  0.1213505E+04  0.7818609E-02  0.9101117E-01
        3   -1    0    0  501    0  0.00000000000E+00  0.00000000000E+00  0.77296607402E+03  0.77296608062E+03  0.10100000352E+00 0.  1.
       -3   -1    0    0    0  501  0.00000000000E+00  0.00000000000E+00 -0.47628022142E+03  0.47628023213E+03  0.10100000352E+00 0. -1.
    10030    2    1    2    0    0  0.00000000000E+00  0.00000000000E+00  0.29668585261E+03  0.12492463127E+04  0.12135047815E+04 0.  0.
        4    1    3    3  502    0  0.29911153692E+03  0.21876592789E+03 -0.34624541503E+03  0.50716244247E+03  0.12699999809E+01 0. -1.
       -4    1    3    3    0  502 -0.29911153692E+03 -0.21876592789E+03  0.64293126764E+03  0.74208387028E+03  0.12699999809E+01 0.  1.
</event>
<event>
 5   0  0.2579442E-03  0.1197699E+04  0.7818609E-02  0.9114873E-01
       -2   -1    0    0    0  501  0.00000000000E+00  0.00000000000E+00  0.25311621972E+03  0.25311621973E+03  0.25500000920E-02 0. -1.
        2   -1    0    0  501    0  0.00000000000E+00  0.00000000000E+00 -0.14168215908E+04  0.14168215908E+04  0.25500000920E-02 0.  1.
    10030    2    1    2    0    0  0.00000000000E+00  0.00000000000E+00 -0.11637053711E+04  0.16699378106E+04  0.11976986684E+04 0.  0.
        4    1    3    3  502    0  0.23935180454E+03  0.97537573465E+02  0.17134212113E+03  0.31010095122E+03  0.12699999809E+01 0. -1.
       -4    1    3    3    0  502 -0.23935180454E+03 -0.97537573465E+02 -0.13350474922E+04  0.13598368593E+04  0.12699999809E+01 0.  1.
</event>
<event>
 5   0  0.2484507E-03  0.1201043E+04  0.7818609E-02  0.9111944E-01
        2   -1    0    0  501    0  0.00000000000E+00  0.00000000000E+00  0.57981679082E+03  0.57981679083E+03  0.25500000920E-02 0.  1.
       -2   -1    0    0    0  501  0.00000000000E+00  0.00000000000E+00 -0.62196594653E+03  0.62196594654E+03  0.25500000920E-02 0. -1.
    10030    2    1    2    0    0  0.00000000000E+00  0.00000000000E+00 -0.42149155709E+02  0.12017827374E+04  0.12010433783E+04 0.  0.
        2    1    3    3  502    0  0.55144555709E+03 -0.16917080374E+01 -0.25898392441E+03  0.60923537112E+03  0.25500000920E-02 0. -1.
       -2    1    3    3    0  502 -0.55144555709E+03  0.16917080374E+01  0.21683476870E+03  0.59254736624E+03  0.25500000920E-02 0.  1.
</event>
<event>
 5   0  0.1423024E-03  0.1193707E+04  0.7818609E-02  0.9118383E-01
        1   -1    0    0  501    0  0.00000000000E+00  0.00000000000E+00  0.12069747103E+04  0.12069747103E+04  0.50400001928E-02 0. -1.
       -1   -1    0    0    0  501  0.00000000000E+00  0.00000000000E+00 -0.29514624731E+03  0.29514624735E+03  0.50400001928E-02 0.  1.
    10030    2    1    2    0    0  0.00000000000E+00  0.00000000000E+00  0.91182846298E+03  0.15021209576E+04  0.11937069261E+04 0.  0.
        2    1    3    3  502    0 -0.18015614466E+03 -0.49899835991E+03  0.11180569964E+03  0.54217719809E+03  0.25500000920E-02 0.  1.
       -2    1    3    3    0  502  0.18015614466E+03  0.49899835991E+03  0.80002276334E+03  0.95994375956E+03  0.25500000920E-02 0. -1.
</event>
<event>
 5   0  0.9678750E-04  0.1203779E+04  0.7818609E-02  0.9109555E-01
       -4   -1    0    0    0  501  0.00000000000E+00  0.00000000000E+00  0.84296874482E+03  0.84296970150E+03  0.12699999809E+01 0.  1.
        4   -1    0    0  501    0  0.00000000000E+00  0.00000000000E+00 -0.42975391458E+03  0.42975579111E+03  0.12699999809E+01 0. -1.
    10030    2    1    2    0    0  0.00000000000E+00  0.00000000000E+00  0.41321483024E+03  0.12727254926E+04  0.12037789181E+04 0.  0.
        1    1    3    3  502    0  0.32670410732E+03 -0.28496488227E+03  0.64805030591E+03  0.77968567826E+03  0.50400001928E-02 0.  1.
       -1    1    3    3    0  502 -0.32670410732E+03  0.28496488227E+03 -0.23483547567E+03  0.49303981434E+03  0.50400001928E-02 0. -1.
</event>
<event>
 5   0  0.2580244E-03  0.1204614E+04  0.7818609E-02  0.9108827E-01
       -2   -1    0    0    0  501  0.00000000000E+00  0.00000000000E+00  0.50281895495E+03  0.50281895495E+03  0.25500000920E-02 0. -1.
        2   -1    0    0  501    0  0.00000000000E+00  0.00000000000E+00 -0.72148009851E+03  0.72148009851E+03  0.25500000920E-02 0.  1.
    10030    2    1    2    0    0  0.00000000000E+00  0.00000000000E+00 -0.21866114356E+03  0.12242990535E+04  0.12046142439E+04 0.  0.
        1    1    3    3  502    0 -0.21948814045E+03  0.22864421450E+01 -0.67938255308E+03  0.71396143108E+03  0.50400001928E-02 0.  1.
       -1    1    3    3    0  502  0.21948814045E+03 -0.22864421450E+01  0.46072140952E+03  0.51033762239E+03  0.50400001928E-02 0. -1.
</event>
<event>
 5   0  0.1455076E-03  0.1198263E+04  0.7818609E-02  0.9114378E-01
        1   -1    0    0  501    0  0.00000000000E+00  0.00000000000E+00  0.15552283184E+04  0.15552283184E+04  0.50400001928E-02 0. -1.
       -1   -1    0    0    0  501  0.00000000000E+00  0.00000000000E+00 -0.23080756778E+03  0.23080756784E+03  0.50400001928E-02 0.  1.
    10030    2    1    2    0    0  0.00000000000E+00  0.00000000000E+00  0.13244207506E+04  0.17860358862E+04  0.11982628519E+04 0.  0.
        4    1    3    3  502    0 -0.11991769133E+03  0.13779260242E+03 -0.18828798310E+03  0.26233762874E+03  0.12699999809E+01 0.  1.
       -4    1    3    3    0  502  0.11991769133E+03 -0.13779260242E+03  0.15127087337E+04  0.15236982575E+04  0.12699999809E+01 0. -1.
</event>
<event>
 5   0  0.1469851E-03  0.1198724E+04  0.7818609E-02  0.9113974E-01
       -1   -1    0    0    0  501  0.00000000000E+00  0.00000000000E+00  0.52863814267E+03  0.52863814269E+03  0.50400001928E-02 0.  1.
        1   -1    0    0  501    0  0.00000000000E+00  0.00000000000E+00 -0.67954786237E+03  0.67954786239E+03  0.50400001928E-02 0. -1.
    10030    2    1    2    0    0  0.00000000000E+00  0.00000000000E+00 -0.15090971971E+03  0.12081860051E+04  0.11987241882E+04 0.  0.
        5    1    3    3  502    0  0.48189707884E+03 -0.35632305181E+03 -0.70736239958E+02  0.60350361845E+03  0.46999998093E+01 0. -1.
       -5    1    3    3    0  502 -0.48189707884E+03  0.35632305181E+03 -0.80173479748E+02  0.60468238663E+03  0.46999998093E+01 0.  1.
</event>
<event>
 5   0  0.1404833E-03  0.1176006E+04  0.7818609E-02  0.9134122E-01
       -1   -1    0    0    0  501  0.00000000000E+00  0.00000000000E+00  0.10991601458E+04  0.10991601458E+04  0.50400001928E-02 0.  1.
        1   -1    0    0  501    0  0.00000000000E+00  0.00000000000E+00 -0.31455603911E+03  0.31455603916E+03  0.50400001928E-02 0. -1.
    10030    2    1    2    0    0  0.00000000000E+00  0.00000000000E+00  0.78460410672E+03  0.14137161850E+04  0.11760058875E+04 0.  0.
        1    1    3    3  502    0  0.23842429636E+03  0.20696585950E+03 -0.20401734293E+03  0.37590436062E+03  0.50400001928E-02 0. -1.
       -1    1    3    3    0  502 -0.23842429636E+03 -0.20696585950E+03  0.98862144965E+03  0.10378118244E+04  0.50400001928E-02 0.  1.
</event>
<event>
 5   0  0.1403154E-03  0.1201130E+04  0.7818609E-02  0.9111868E-01
        1   -1    0    0  501    0  0.00000000000E+00  0.00000000000E+00  0.16480433216E+04  0.16480433216E+04  0.50400001928E-02 0. -1.
       -1   -1    0    0    0  501  0.00000000000E+00  0.00000000000E+00 -0.21885242019E+03  0.21885242025E+03  0.50400001928E-02 0.  1.
    10030    2    1    2    0    0  0.00000000000E+00  0.00000000000E+00  0.14291909014E+04  0.18668957419E+04  0.12011299173E+04 0.  0.
        3    1    3    3  502    0  0.56755323620E+03  0.19446821146E+03  0.75698203702E+03  0.96589666930E+03  0.10100000352E+00 0.  1.
       -3    1    3    3    0  502 -0.56755323620E+03 -0.19446821146E+03  0.67220886438E+03  0.90099907255E+03  0.10100000352E+00 0. -1.
</event>
<event>
 5   0  0.2517023E-03  0.1201560E+04  0.7818609E-02  0.9111492E-01
        2   -1    0    0  501    0  0.00000000000E+00  0.00000000000E+00  0.19327674141E+04  0.19327674141E+04  0.25500000920E-02 0. -1.
       -2   -1    0    0    0  501  0.00000000000E+00  0.00000000000E+00 -0.18674595807E+03  0.18674595809E+03  0.25500000920E-02 0.  1.
    10030    2    1    2    0    0  0.00000000000E+00  0.00000000000E+00  0.17460214560E+04  0.21195133722E+04  0.12015598237E+04 0.  0.
        3    1    3    3  502    0 -0.62952530836E+02  0.11142394525E+03 -0.16242236703E+03  0.20678334610E+03  0.10100000352E+00 0.  1.
       -3    1    3    3    0  502  0.62952530836E+02 -0.11142394525E+03  0.19084438230E+04  0.19127300260E+04  0.10100000352E+00 0. -1.
</event>
<event>
 5   0  0.2580244E-03  0.1194592E+04  0.7818609E-02  0.9117603E-01
        2   -1    0    0  501    0  0.00000000000E+00  0.00000000000E+00  0.69705865427E+03  0.69705865428E+03  0.25500000920E-02 0. -1.
       -2   -1    0    0    0  501  0.00000000000E+00  0.00000000000E+00 -0.51181170666E+03  0.51181170667E+03  0.25500000920E-02 0.  1.
    10030    2    1    2    0    0  0.00000000000E+00  0.00000000000E+00  0.18524694761E+03  0.12088703609E+04  0.11945924485E+04 0.  0.
        1    1    3    3  502    0  0.52459574588E+03  0.15011256451E+02  0.38122814696E+03  0.64866087786E+03  0.50400001928E-02 0. -1.
       -1    1    3    3    0  502 -0.52459574588E+03 -0.15011256451E+02 -0.19598119934E+03  0.56020948308E+03  0.50400001928E-02 0.  1.
</event>
<event>
 5   0  0.9678750E-04  0.1205080E+04  0.7818609E-02  0.9108422E-01
       -3   -1    0    0    0  501  0.00000000000E+00  0.00000000000E+00  0.18434884458E+03  0.18434887225E+03  0.10100000352E+00 0.  1.
        3   -1    0    0  501    0  0.00000000000E+00  0.00000000000E+00 -0.19693871020E+04  0.19693871046E+04  0.10100000352E+00 0. -1.
    10030    2    1    2    0    0  0.00000000000E+00  0.00000000000E+00 -0.17850382574E+04  0.21537359768E+04  0.12050796976E+04 0.  0.
        2    1    3    3  502    0  0.16149850537E+03  0.15380595496E+03 -0.18929063587E+04  0.19059990876E+04  0.25500000920E-02 0. -1.
       -2    1    3    3    0  502 -0.16149850537E+03 -0.15380595496E+03  0.10786810128E+03  0.24773688926E+03  0.25500000920E-02 0.  1.
</event>
<event>
 5   0  0.2579442E-03  0.1179004E+04  0.7818609E-02  0.9131435E-01
       -2   -1    0    0    0  501  0.00000000000E+00  0.00000000000E+00  0.22540807255E+03  0.22540807257E+03  0.25500000920E-02 0.  1.
        2   -1    0    0  501    0  0.00000000000E+00  0.00000000000E+00 -0.15417043855E+04  0.15417043855E+04  0.25500000920E-02 0. -1.
    10030    2    1    2    0    0  0.00000000000E+00  0.00000000000E+00 -0.13162963130E+04  0.17671124581E+04  0.11790040102E+04 0.  0.
        4    1    3    3  502    0 -0.37346788156E+03  0.40439104402E+03 -0.34196992434E+03  0.64803967247E+03  0.12699999809E+01 0.  1.
       -4    1    3    3    0  502  0.37346788156E+03 -0.40439104402E+03 -0.97432638862E+03  0.11190727856E+04  0.12699999809E+01 0. -1.
</event>
<event>
 5   0  0.1423024E-03  0.1206116E+04  0.7818609E-02  0.9107520E-01
       -1   -1    0    0    0  501  0.00000000000E+00  0.00000000000E+00  0.27652164264E+03  0.27652164269E+03  0.50400001928E-02 0. -1.
        1   -1    0    0  501    0  0.00000000000E+00  0.00000000000E+00 -0.13151912633E+04  0.13151912633E+04  0.50400001928E-02 0.  1.
    10030    2    1    2    0    0  0.00000000000E+00  0.00000000000E+00 -0.10386696206E+04  0.15917129060E+04  0.12061158295E+04 0.  0.
        2    1    3    3  502    0 -0.50139772683E+03  0.98392176964E+02 -0.96621931074E+02  0.52001586373E+03  0.25500000920E-02 0. -1.
       -2    1    3    3    0  502  0.50139772683E+03 -0.98392176964E+02 -0.94204768956E+03  0.10716970422E+04  0.25500000920E-02 0.  1.
</event>
<event>
 5   0  0.2499890E-03  0.1205674E+04  0.7818609E-02  0.9107904E-01
       -2   -1    0    0    0  501  0.00000000000E+00  0.00000000000E+00  0.47082628696E+03  0.47082628697E+03  0.25500000920E-02 0.  1.
        2   -1    0    0  501    0  0.00000000000E+00  0.00000000000E+00 -0.77186131413E+03  0.77186131413E+03  0.25500000920E-02 0. -1.
    10030    2    1    2    0    0  0.00000000000E+00  0.00000000000E+00 -0.30103502716E+03  0.12426876011E+04  0.12056742455E+04 0.  0.
        5    1    3    3  502    0  0.14795246268E+03 -0.46407393091E+03  0.21554178491E+03  0.53266771594E+03  0.46999998093E+01 0.  1.
       -5    1    3    3    0  502 -0.14795246268E+03  0.46407393091E+03 -0.51657681207E+03  0.71001988517E+03  0.46999998093E+01 0. -1.
</event>
<event>
 5   0  0.2499890E-03  0.1188339E+04  0.7818609E-02  0.9123125E-01
        2   -1    0    0  501    0  0.00000000000E+00  0.00000000000E+00  0.91985379322E+03  0.91985379322E+03  0.25500000920E-02 0. -1.
       -2   -1    0    0    0  501  0.00000000000E+00  0.00000000000E+00 -0.38379724983E+03  0.38379724984E+03  0.25500000920E-02 0.  1.
    10030    2    1    2    0    0  0.00000000000E+00  0.00000000000E+00  0.53605654339E+03  0.13036510431E+04  0.11883389350E+04 0.  0.
        5    1    3    3  502    0  0.32654258047E+03  0.10215805097E+03 -0.26485249661E+03  0.43270689756E+03  0.46999998093E+01 0.  1.
       -5    1    3    3    0  502 -0.32654258047E+03 -0.10215805097E+03  0.80090904000E+03  0.87094414550E+03  0.46999998093E+01 0. -1.
</event>
<event>
 5   0  0.2517023E-03  0.1166280E+04  0.7818609E-02  0.9142895E-01
       -2   -1    0    0    0  501  0.00000000000E+00  0.00000000000E+00  0.62971553014E+03  0.62971553015E+03  0.25500000920E-02 0. -1.
        2   -1    0    0  501    0  0.00000000000E+00  0.00000000000E+00 -0.54000937002E+03  0.54000937003E+03  0.25500000920E-02 0.  1.
    10030    2    1    2    0    0  0.00000000000E+00  0.00000000000E+00  0.89706160122E+02  0.11697249002E+04  0.11662800465E+04 0.  0.
        3    1    3    3  502    0 -0.22835192862E+03 -0.38469965177E+03  0.42000851697E+03  0.61363310692E+03  0.10100000352E+00 0. -1.
       -3    1    3    3    0  502  0.22835192862E+03  0.38469965177E+03 -0.33030235685E+03  0.55609179325E+03  0.10100000352E+00 0.  1.
</event>
<event>
 5   0  0.2499890E-03  0.1193099E+04  0.7818609E-02  0.9118918E-01
        2   -1    0    0  501    0  0.00000000000E+00  0.00000000000E+00  0.12890080661E+04  0.12890080661E+04  0.25500000920E-02 0.  1.
       -2   -1    0    0    0  501  0.00000000000E+00  0.00000000000E+00 -0.27608163293E+03  0.27608163294E+03  0.25500000920E-02 0. -1.
    10030    2    1    2    0    0  0.00000000000E+00  0.00000000000E+00  0.10129264331E+04  0.15650896990E+04  0.11930992444E+04 0.  0.
        5    1    3    3  502    0 -0.20938912410E+03 -0.42231112576E+03  0.98604375855E+03  0.10929294927E+04  0.46999998093E+01 0.  1.
       -5    1    3    3    0  502  0.20938912410E+03  0.42231112576E+03  0.26882674579E+02  0.47216020631E+03  0.46999998093E+01 0. -1.
</event>
<event>
 5   0  0.2484507E-03  0.1214098E+04  0.7818609E-02  0.9100606E-01
        2   -1    0    0  501    0  0.00000000000E+00  0.00000000000E+00  0.14286025249E+04  0.14286025249E+04  0.25500000920E-02 0. -1.
       -2   -1    0    0    0  501  0.00000000000E+00  0.00000000000E+00 -0.25795021265E+03  0.25795021266E+03  0.25500000920E-02 0.  1.
    10030    2    1    2    0    0  0.00000000000E+00  0.00000000000E+00  0.11706523123E+04  0.16865527376E+04  0.12140977310E+04 0.  0.
        2    1    3    3  502    0  0.34224719919E+03 -0.45479832707E+03  0.29217576364E+03  0.63979789037E+03  0.25500000920E-02 0.  1.
       -2    1    3    3    0  502 -0.34224719919E+03  0.45479832707E+03  0.87847654864E+03  0.10467548472E+04  0.25500000920E-02 0. -1.
</event>
<event>
 5   0  0.2499890E-03  0.1181559E+04  0.7818609E-02  0.9129152E-01
        2   -1    0    0  501    0  0.00000000000E+00  0.00000000000E+00  0.62248895482E+03  0.62248895483E+03  0.25500000920E-02 0. -1.
       -2   -1    0    0    0  501  0.00000000000E+00  0.00000000000E+00 -0.56068566177E+03  0.56068566177E+03  0.25500000920E-02 0.  1.
    10030    2    1    2    0    0  0.00000000000E+00  0.00000000000E+00  0.61803293055E+02  0.11831746166E+04  0.11815593622E+04 0.  0.
        5    1    3    3  502    0  0.65492167759E+02 -0.53942190934E+03 -0.20121973184E+03  0.57946241535E+03  0.46999998093E+01 0.  1.
       -5    1    3    3    0  502 -0.65492167759E+02  0.53942190934E+03  0.26302302490E+03  0.60371220125E+03  0.46999998093E+01 0. -1.
</event>
<event>
 5   0  0.2484507E-03  0.1200306E+04  0.7818609E-02  0.9112589E-01
        2   -1    0    0  501    0  0.00000000000E+00  0.00000000000E+00  0.22728023006E+03  0.22728023008E+03  0.25500000920E-02 0.  1.
       -2   -1    0    0    0  501  0.00000000000E+00  0.00000000000E+00 -0.15847546418E+04  0.15847546418E+04  0.25500000920E-02 0. -1.
    10030    2    1    2    0    0  0.00000000000E+00  0.00000000000E+00 -0.13574744118E+04  0.18120348719E+04  0.12003056271E+04 0.  0.
        2    1    3    3  502    0 -0.94293384908E+02  0.35070223719E+03  0.42582435511E+02  0.36564540941E+03  0.25500000920E-02 0.  1.
       -2    1    3    3    0  502  0.94293384908E+02 -0.35070223719E+03 -0.14000568473E+04  0.14463894625E+04  0.25500000920E-02 0. -1.
</event>
<event>
 5   0  0.2579442E-03  0.1210632E+04  0.7818609E-02  0.9103601E-01
        2   -1    0    0  501    0  0.00000000000E+00  0.00000000000E+00  0.16100679443E+04  0.16100679443E+04  0.25500000920E-02 0.  1.
       -2   -1    0    0    0  501  0.00000000000E+00  0.00000000000E+00 -0.22757249187E+03  0.22757249189E+03  0.25500000920E-02 0. -1.
    10030    2    1    2    0    0  0.00000000000E+00  0.00000000000E+00  0.13824954524E+04  0.18376404362E+04  0.12106315281E+04 0.  0.
        4    1    3    3  502    0  0.40177222176E+03 -0.93807811188E+02  0.18919773548E+02  0.41301379438E+03  0.12699999809E+01 0. -1.
       -4    1    3    3    0  502 -0.40177222176E+03  0.93807811188E+02  0.13635756789E+04  0.14246266418E+04  0.12699999809E+01 0.  1.
</event>
<event>
 5   0  0.2580244E-03  0.1184989E+04  0.7818609E-02  0.9126098E-01
       -2   -1    0    0    0  501  0.00000000000E+00  0.00000000000E+00  0.24117227697E+03  0.24117227698E+03  0.25500000920E-02 0.  1.
        2   -1    0    0  501    0  0.00000000000E+00  0.00000000000E+00 -0.14555976125E+04  0.14555976125E+04  0.25500000920E-02 0. -1.
    10030    2    1    2    0    0  0.00000000000E+00  0.00000000000E+00 -0.12144253355E+04  0.16967698894E+04  0.11849890979E+04 0.  0.
        1    1    3    3  502    0  0.33061748725E+01 -0.35350809165E+03 -0.12880304880E+04  0.13356651676E+04  0.50400001928E-02 0. -1.
       -1    1    3    3    0  502 -0.33061748725E+01  0.35350809165E+03  0.73605152560E+02  0.36110472188E+03  0.50400001928E-02 0.  1.
</event>
<event>
 5   0  0.1404833E-03  0.1200495E+04  0.7818609E-02  0.9112424E-01
        1   -1    0    0  501    0  0.00000000000E+00  0.00000000000E+00  0.71141618118E+03  0.71141618119E+03  0.50400001928E-02 0.  1.
       -1   -1    0    0    0  501  0.00000000000E+00  0.00000000000E+00 -0.50645027356E+03  0.50645027358E+03  0.50400001928E-02 0. -1.
    10030    2    1    2    0    0  0.00000000000E+00  0.00000000000E+00  0.20496590762E+03  0.12178664548E+04  0.12004947640E+04 0.  0.
        1    1    3    3  502    0  0.11659664527E+02 -0.13551101600E+03 -0.49061167254E+03  0.50911589691E+03  0.50400001928E-02 0. -1.
       -1    1    3    3    0  502 -0.11659664527E+02  0.13551101600E+03  0.69557758015E+03  0.70875055786E+03  0.50400001928E-02 0.  1.
</event>
<event>
 5   0  0.1469851E-03  0.1203059E+04  0.7818609E-02  0.9110183E-01
       -1   -1    0    0    0  501  0.00000000000E+00  0.00000000000E+00  0.23214984703E+03  0.23214984708E+03  0.50400001928E-02 0.  1.
        1   -1    0    0  501    0  0.00000000000E+00  0.00000000000E+00 -0.15586379085E+04  0.15586379085E+04  0.50400001928E-02 0. -1.
    10030    2    1    2    0    0  0.00000000000E+00  0.00000000000E+00 -0.13264880615E+04  0.17907877556E+04  0.12030586887E+04 0.  0.
        5    1    3    3  502    0  0.30233974264E+03 -0.44926273391E+03 -0.27346214954E+03  0.60667121350E+03  0.46999998093E+01 0.  1.
       -5    1    3    3    0  502 -0.30233974264E+03  0.44926273391E+03 -0.10530259119E+04  0.11841165421E+04  0.46999998093E+01 0. -1.
</event>
<event>
 5   0  0.1423024E-03  0.1217534E+04  0.7818609E-02  0.9097646E-01
       -1   -1    0    0    0  501  0.00000000000E+00  0.00000000000E+00  0.36050952478E+03  0.36050952481E+03  0.50400001928E-02 0.  1.
        1   -1    0    0  501    0  0.00000000000E+00  0.00000000000E+00 -0.10279823783E+04  0.10279823783E+04  0.50400001928E-02 0. -1.
    10030    2    1    2    0    0  0.00000000000E+00  0.00000000000E+00 -0.66747285349E+03  0.13884919031E+04  0.12175342931E+04 0.  0.
        2    1    3    3  502    0 -0.87639488745E+02  0.44458614927E+03 -0.79733907818E+03  0.91710802511E+03  0.25500000920E-02 0.  1.
       -2    1    3    3    0  502  0.87639488745E+02 -0.44458614927E+03  0.12986622469E+03  0.47138387799E+03  0.25500000920E-02 0. -1.
</event>
<event>
 5   0  0.1469851E-03  0.1208892E+04  0.7818609E-02  0.9105109E-01
        1   -1    0    0  501    0  0.00000000000E+00  0.00000000000E+00  0.13537657611E+04  0.13537657611E+04  0.50400001928E-02 0.  1.
       -1   -1    0    0    0  501  0.00000000000E+00  0.00000000000E+00 -0.26988056077E+03  0.26988056082E+03  0.50400001928E-02 0. -1.
    10030    2    1    2    0    0  0.00000000000E+00  0.00000000000E+00  0.10838852003E+04  0.16236463219E+04  0.12088921586E+04 0.  0.
        5    1    3    3  502    0  0.29513029909E+03 -0.36912216232E+03  0.35864762821E+02  0.47398463621E+03  0.46999998093E+01 0. -1.
       -5    1    3    3    0  502 -0.29513029909E+03  0.36912216232E+03  0.10480204375E+04  0.11496616857E+04  0.46999998093E+01 0.  1.
</event>
<event>
 5   0  0.2580244E-03  0.1139167E+04  0.7818609E-02  0.9167836E-01
        2   -1    0    0  501    0  0.00000000000E+00  0.00000000000E+00  0.36446466110E+03  0.36446466111E+03  0.25500000920E-02 0.  1.
       -2   -1    0    0    0  501  0.00000000000E+00  0.00000000000E+00 -0.89014206973E+03  0.89014206973E+03  0.25500000920E-02 0. -1.
    10030    2    1    2    0    0  0.00000000000E+00  0.00000000000E+00 -0.52567740863E+03  0.12546067308E+04  0.11391669373E+04 0.  0.
        1    1    3    3  502    0  0.18544417475E+02 -0.15583795759E+03 -0.86586066977E+03  0.87996821756E+03  0.50400001928E-02 0. -1.
       -1    1    3    3    0  502 -0.18544417475E+02  0.15583795759E+03  0.34018326114E+03  0.37463851328E+03  0.50400001928E-02 0.  1.
</event>
<event>
 5   0  0.2579442E-03  0.1219523E+04  0.7818609E-02  0.9095938E-01
        2   -1    0    0  501    0  0.00000000000E+00  0.00000000000E+00  0.20345040878E+04  0.20345040878E+04  0.25500000920E-02 0.  1.
       -2   -1    0    0    0  501  0.00000000000E+00  0.00000000000E+00 -0.18275165464E+03  0.18275165466E+03  0.25500000920E-02 0. -1.
    10030    2    1    2    0    0  0.00000000000E+00  0.00000000000E+00  0.18517524332E+04  0.22172557425E+04  0.12195228386E+04 0.  0.
        4    1    3    3  502    0 -0.52862361924E+03 -0.64902382191E+02  0.14656878560E+04  0.15594543130E+04  0.12699999809E+01 0.  1.
       -4    1    3    3    0  502  0.52862361924E+03  0.64902382191E+02  0.38606457716E+03  0.65780142951E+03  0.12699999809E+01 0. -1.
</event>
<event>
 5   0  0.1455076E-03  0.1210733E+04  0.7818609E-02  0.9103513E-01
       -1   -1    0    0    0  501  0.00000000000E+00  0.00000000000E+00  0.15560076410E+04  0.15560076410E+04  0.50400001928E-02 0. -1.
        1   -1    0    0  501    0  0.00000000000E+00  0.00000000000E+00 -0.23551856531E+03  0.23551856536E+03  0.50400001928E-02 0.  1.
    10030    2    1    2    0    0  0.00000000000E+00  0.00000000000E+00  0.13204890756E+04  0.17915262063E+04  0.12107331453E+04 0.  0.
        4    1    3    3  502    0  0.26144916673E+03 -0.24129765387E+03 -0.64488324012E+02  0.36158067064E+03  0.12699999809E+01 0.  1.
       -4    1    3    3    0  502 -0.26144916673E+03  0.24129765387E+03  0.13849773997E+04  0.14299455357E+04  0.12699999809E+01 0. -1.
</event>
<event>
 5   0  0.1423024E-03  0.1197293E+04  0.7818609E-02  0.9115229E-01
        1   -1    0    0  501    0  0.00000000000E+00  0.00000000000E+00  0.62959163387E+03  0.62959163389E+03  0.50400001928E-02 0.  1.
       -1   -1    0    0    0  501  0.00000000000E+00  0.00000000000E+00 -0.56922216050E+03  0.56922216052E+03  0.50400001928E-02 0. -1.
    10030    2    1    2    0    0  0.00000000000E+00  0.00000000000E+00  0.60369473371E+02  0.11988137944E+04  0.11972927964E+04 0.  0.
        2    1    3    3  502    0 -0.59484464209E+03  0.66952583199E+02  0.37590988501E+02  0.59977985882E+03  0.25500000920E-02 0.  1.
       -2    1    3    3    0  502  0.59484464209E+03 -0.66952583199E+02  0.22778484869E+02  0.59903393560E+03  0.25500000920E-02 0. -1.
</event>
<event>
 5   0  0.1423024E-03  0.1192481E+04  0.7818609E-02  0.9119464E-01
       -1   -1    0    0    0  501  0.00000000000E+00  0.00000000000E+00  0.26378370539E+03  0.26378370544E+03  0.50400001928E-02 0.  1.
        1   -1    0    0  501    0  0.00000000000E+00  0.00000000000E+00 -0.13477050609E+04  0.13477050609E+04  0.50400001928E-02 0. -1.
    10030    2    1    2    0    0  0.00000000000E+00  0.00000000000E+00 -0.10839213555E+04  0.16114887663E+04  0.11924808338E+04 0.  0.
        2    1    3    3  502    0  0.58689156303E+03  0.95331675293E+02 -0.60198363257E+03  0.84611708939E+03  0.25500000920E-02 0. -1.
       -2    1    3    3    0  502 -0.58689156303E+03 -0.95331675293E+02 -0.48193772290E+03  0.76537167692E+03  0.25500000920E-02 0.  1.
</event>
<event>
 5   0  0.2484507E-03  0.1307379E+04  0.7818609E-02  0.9023734E-01
        2   -1    0    0  501    0  0.00000000000E+00  0.00000000000E+00  0.36604604814E+03  0.36604604815E+03  0.25500000920E-02 0. -1.
       -2   -1    0    0    0  501  0.00000000000E+00  0.00000000000E+00 -0.11673669048E+04  0.11673669048E+04  0.25500000920E-02 0.  1.
    10030    2    1    2    0    0  0.00000000000E+00  0.00000000000E+00 -0.80132085667E+03  0.15334129530E+04  0.13073791221E+04 0.  0.
        2    1    3    3  502    0 -0.97006077441E+01 -0.59579360618E+03 -0.85403788038E+02  0.60196173464E+03  0.25500000920E-02 0. -1.
       -2    1    3    3    0  502  0.97006077441E+01  0.59579360618E+03 -0.71591706863E+03  0.93145121833E+03  0.25500000920E-02 0.  1.
</event>
<event>
 5   0  0.1404833E-03  0.1190986E+04  0.7818609E-02  0.9120783E-01
        1   -1    0    0  501    0  0.00000000000E+00  0.00000000000E+00  0.15100856793E+04  0.15100856793E+04  0.50400001928E-02 0. -1.
       -1   -1    0    0    0  501  0.00000000000E+00  0.00000000000E+00 -0.23482903728E+03  0.23482903734E+03  0.50400001928E-02 0.  1.
    10030    2    1    2    0    0  0.00000000000E+00  0.00000000000E+00  0.12752566420E+04  0.17449147167E+04  0.11909860895E+04 0.  0.
        1    1    3    3  502    0 -0.12035193353E+03 -0.25420941134E+03 -0.13138209537E+03  0.31043238833E+03  0.50400001928E-02 0.  1.
       -1    1    3    3    0  502  0.12035193353E+03  0.25420941134E+03  0.14066387374E+04  0.14344823283E+04  0.50400001928E-02 0. -1.
</event>
<event>
 5   0  0.1423024E-03  0.1184686E+04  0.7818609E-02  0.9126368E-01
        1   -1    0    0  501    0  0.00000000000E+00  0.00000000000E+00  0.55277766710E+03  0.55277766712E+03  0.50400001928E-02 0.  1.
       -1   -1    0    0    0  501  0.00000000000E+00  0.00000000000E+00 -0.63473991793E+03  0.63473991795E+03  0.50400001928E-02 0. -1.
    10030    2    1    2    0    0  0.00000000000E+00  0.00000000000E+00 -0.81962250830E+02  0.11875175851E+04  0.11846856985E+04 0.  0.
        2    1    3    3  502    0  0.38728920662E+03 -0.32362361683E+03  0.26983244760E+03  0.57230649544E+03  0.25500000920E-02 0.  1.
       -2    1    3    3    0  502 -0.38728920662E+03  0.32362361683E+03 -0.35179469843E+03  0.61521108962E+03  0.25500000920E-02 0. -1.
</event>
<event>
 5   0  0.1403154E-03  0.1204396E+04  0.7818609E-02  0.9109017E-01
       -1   -1    0    0    0  501  0.00000000000E+00  0.00000000000E+00  0.93867606437E+03  0.93867606438E+03  0.50400001928E-02 0.  1.
        1   -1    0    0  501    0  0.00000000000E+00  0.00000000000E+00 -0.38633400382E+03  0.38633400386E+03  0.50400001928E-02 0. -1.
    10030    2    1    2    0    0  0.00000000000E+00  0.00000000000E+00  0.55234206055E+03  0.13250100682E+04  0.12043960848E+04 0.  0.
        3    1    3    3  502    0  0.54939438039E+03 -0.59020859769E+02  0.53957433049E+03  0.77230700852E+03  0.10100000352E+00 0.  1.
       -3    1    3    3    0  502 -0.54939438039E+03  0.59020859769E+02  0.12767730054E+02  0.55270305972E+03  0.10100000352E+00 0. -1.
</event>
<event>
 5   0  0.1455076E-03  0.1185772E+04  0.7818609E-02  0.9125402E-01
        1   -1    0    0  501    0  0.00000000000E+00  0.00000000000E+00  0.88686066178E+03  0.88686066180E+03  0.50400001928E-02 0.  1.
       -1   -1    0    0    0  501  0.00000000000E+00  0.00000000000E+00 -0.39635752463E+03  0.39635752467E+03  0.50400001928E-02 0. -1.
    10030    2    1    2    0    0  0.00000000000E+00  0.00000000000E+00  0.49050313715E+03  0.12832181865E+04  0.11857721478E+04 0.  0.
        4    1    3    3  502    0 -0.48677782106E+03 -0.33602962829E+03  0.20137689327E+03  0.62483823843E+03  0.12699999809E+01 0. -1.
       -4    1    3    3    0  502  0.48677782106E+03  0.33602962829E+03  0.28912624388E+03  0.65837994803E+03  0.12699999809E+01 0.  1.
</event>
<event>
 5   0  0.2579442E-03  0.1090582E+04  0.7818609E-02  0.9214420E-01
       -2   -1    0    0    0  501  0.00000000000E+00  0.00000000000E+00  0.23988654950E+03  0.23988654952E+03  0.25500000920E-02 0. -1.
        2   -1    0    0  501    0  0.00000000000E+00  0.00000000000E+00 -0.12395116257E+04  0.12395116257E+04  0.25500000920E-02 0.  1.
    10030    2    1    2    0    0  0.00000000000E+00  0.00000000000E+00 -0.99962507616E+03  0.14793981752E+04  0.10905818025E+04 0.  0.
        4    1    3    3  502    0 -0.86504911261E+02  0.49223602901E+03 -0.20397519884E+03  0.53980265150E+03  0.12699999809E+01 0.  1.
       -4    1    3    3    0  502  0.86504911261E+02 -0.49223602901E+03 -0.79564987732E+03  0.93959552368E+03  0.12699999809E+01 0. -1.
</event>
<event>
 5   0  0.2484507E-03  0.1187195E+04  0.7818609E-02  0.9124139E-01
        2   -1    0    0  501    0  0.00000000000E+00  0.00000000000E+00  0.12929320664E+04  0.12929320664E+04  0.25500000920E-02 0.  1.
       -2   -1    0    0    0  501  0.00000000000E+00  0.00000000000E+00 -0.27252619131E+03  0.27252619132E+03  0.25500000920E-02 0. -1.
    10030    2    1    2    0    0  0.00000000000E+00  0.00000000000E+00  0.10204058751E+04  0.15654582577E+04  0.11871947636E+04 0.  0.
        2    1    3    3  502    0  0.26495595681E+03 -0.50971074084E+03  0.31306532706E+03  0.65422977415E+03  0.25500000920E-02 0.  1.
       -2    1    3    3    0  502 -0.26495595681E+03  0.50971074084E+03  0.70734054800E+03  0.91122848355E+03  0.25500000920E-02 0. -1.
</event>
<event>
 5   0  0.2499890E-03  0.1197941E+04  0.7818609E-02  0.9114661E-01
       -2   -1    0    0    0  501  0.00000000000E+00  0.00000000000E+00  0.25403718739E+03  0.25403718741E+03  0.25500000920E-02 0. -1.
        2   -1    0    0  501    0  0.00000000000E+00  0.00000000000E+00 -0.14122560253E+04  0.14122560253E+04  0.25500000920E-02 0.  1.
    10030    2    1    2    0    0  0.00000000000E+00  0.00000000000E+00 -0.11582188379E+04  0.16662932127E+04  0.11979408141E+04 0.  0.
        5    1    3    3  502    0  0.19829571285E+03 -0.35549378136E+03 -0.11902582176E+04  0.12579482235E+04  0.46999998093E+01 0.  1.
       -5    1    3    3    0  502 -0.19829571285E+03  0.35549378136E+03  0.32039379788E+02  0.40834498917E+03  0.46999998093E+01 0. -1.
</event>
<event>
 5   0  0.2517023E-03  0.1215625E+04  0.7818609E-02  0.9099289E-01
        2   -1    0    0  501    0  0.00000000000E+00  0.00000000000E+00  0.61095196111E+03  0.61095196112E+03  0.25500000920E-02 0.  1.
       -2   -1    0    0    0  501  0.00000000000E+00  0.00000000000E+00 -0.60468893790E+03  0.60468893791E+03  0.25500000920E-02 0. -1.
    10030    2    1    2    0    0  0.00000000000E+00  0.00000000000E+00  0.62630232115E+01  0.12156408990E+04  0.12156247653E+04 0.  0.
        3    1    3    3  502    0  0.39945538526E+03 -0.17283758401E+03 -0.42113635771E+03  0.60563460704E+03  0.10100000352E+00 0. -1.
       -3    1    3    3    0  502 -0.39945538526E+03  0.17283758401E+03  0.42739938092E+03  0.61000629199E+03  0.10100000352E+00 0.  1.
</event>
<event>
 5   0  0.2580244E-03  0.1243281E+04  0.7818609E-02  0.9075794E-01
        2   -1    0    0  501    0  0.00000000000E+00  0.00000000000E+00  0.62529477956E+03  0.62529477957E+03  0.25500000920E-02 0.  1.
       -2   -1    0    0    0  501  0.00000000000E+00  0.00000000000E+00 -0.61800773492E+03  0.61800773493E+03  0.25500000920E-02 0. -1.
    10030    2    1    2    0    0  0.00000000000E+00  0.00000000000E+00  0.72870446396E+01  0.12433025145E+04  0.12432811595E+04 0.  0.
        1    1    3    3  502    0  0.16471128333E+03 -0.39337761509E+03  0.45593577599E+03  0.62430215983E+03  0.50400001928E-02 0.  1.
       -1    1    3    3    0  502 -0.16471128333E+03  0.39337761509E+03 -0.44864873135E+03  0.61900035467E+03  0.50400001928E-02 0. -1.
</event>
<event>
 5   0  0.1403154E-03  0.1214574E+04  0.7818609E-02  0.9100194E-01
        1   -1    0    0  501    0  0.00000000000E+00  0.00000000000E+00  0.69689448451E+03  0.69689448453E+03  0.50400001928E-02 0.  1.
       -1   -1    0    0    0  501  0.00000000000E+00  0.00000000000E+00 -0.52920177913E+03  0.52920177915E+03  0.50400001928E-02 0. -1.
    10030    2    1    2    0    0  0.00000000000E+00  0.00000000000E+00  0.16769270538E+03  0.12260962637E+04  0.12145744952E+04 0.  0.
        3    1    3    3  502    0  0.50475418104E+03 -0.15327981726E+03  0.38757643617E+03  0.65458917630E+03  0.10100000352E+00 0.  1.
       -3    1    3    3    0  502 -0.50475418104E+03  0.15327981726E+03 -0.21988373079E+03  0.57150708738E+03  0.10100000352E+00 0. -1.
</event>
<event>
 5   0  0.1403154E-03  0.1195110E+04  0.7818609E-02  0.9117147E-01
        1   -1    0    0  501    0  0.00000000000E+00  0.00000000000E+00  0.61493739370E+03  0.61493739372E+03  0.50400001928E-02 0. -1.
       -1   -1    0    0    0  501  0.00000000000E+00  0.00000000000E+00 -0.58066424415E+03  0.58066424418E+03  0.50400001928E-02 0.  1.
    10030    2    1    2    0    0  0.00000000000E+00  0.00000000000E+00  0.34273149544E+02  0.11956016379E+04  0.11951102994E+04 0.  0.
        3    1    3    3  502    0 -0.42879477715E+03 -0.42471187713E+02 -0.39704255204E+03  0.58592794867E+03  0.10100000352E+00 0.  1.
       -3    1    3    3    0  502  0.42879477715E+03  0.42471187713E+02  0.43131570159E+03  0.60967368923E+03  0.10100000352E+00 0. -1.
</event>
<event>
 5   0  0.2499890E-03  0.1095251E+04  0.7818609E-02  0.9209833E-01
        2   -1    0    0  501    0  0.00000000000E+00  0.00000000000E+00  0.14451100082E+04  0.14451100082E+04  0.25500000920E-02 0. -1.
       -2   -1    0    0    0  501  0.00000000000E+00  0.00000000000E+00 -0.20752302208E+03  0.20752302209E+03  0.25500000920E-02 0.  1.
    10030    2    1    2    0    0  0.00000000000E+00  0.00000000000E+00  0.12375869861E+04  0.16526330303E+04  0.10952508318E+04 0.  0.
        5    1    3    3  502    0 -0.42925064920E+02  0.26403774844E+03 -0.10219472682E+03  0.28639892805E+03  0.46999998093E+01 0.  1.
       -5    1    3    3    0  502  0.42925064920E+02 -0.26403774844E+03  0.13397817129E+04  0.13662341022E+04  0.46999998093E+01 0. -1.
</event>
<event>
 5   0  0.1455076E-03  0.1198227E+04  0.7818609E-02  0.9114410E-01
       -1   -1    0    0    0  501  0.00000000000E+00  0.00000000000E+00  0.37537885945E+03  0.37537885949E+03  0.50400001928E-02 0.  1.
        1   -1    0    0  501    0  0.00000000000E+00  0.00000000000E+00 -0.95619884863E+03  0.95619884864E+03  0.50400001928E-02 0. -1.
    10030    2    1    2    0    0  0.00000000000E+00  0.00000000000E+00 -0.58081998918E+03  0.13315777081E+04  0.11982267452E+04 0.  0.
        4    1    3    3  502    0 -0.17551658419E+03  0.12886766920E+03  0.32984755393E+03  0.39523912916E+03  0.12699999809E+01 0.  1.
       -4    1    3    3    0  502  0.17551658419E+03 -0.12886766920E+03 -0.91066754310E+03  0.93633857896E+03  0.12699999809E+01 0. -1.
</event>
<event>
 5   0  0.2580244E-03  0.1210905E+04  0.7818609E-02  0.9103365E-01
        2   -1    0    0  501    0  0.00000000000E+00  0.00000000000E+00  0.30178157860E+03  0.30178157861E+03  0.25500000920E-02 0.  1.
       -2   -1    0    0    0  501  0.00000000000E+00  0.00000000000E+00 -0.12146955420E+04  0.12146955420E+04  0.25500000920E-02 0. -1.
    10030    2    1    2    0    0  0.00000000000E+00  0.00000000000E+00 -0.91291396342E+03  0.15164771206E+04  0.12109050140E+04 0.  0.
        1    1    3    3  502    0  0.41124822636E+03  0.21714769022E+03 -0.94196605532E+03  0.10505133376E+04  0.50400001928E-02 0. -1.
       -1    1    3    3    0  502 -0.41124822636E+03 -0.21714769022E+03  0.29052091899E+02  0.46596378305E+03  0.50400001928E-02 0.  1.
</event>
<event>
 5   0  0.2517023E-03  0.1202280E+04  0.7818609E-02  0.9110863E-01
       -2   -1    0    0    0  501  0.00000000000E+00  0.00000000000E+00  0.20069605854E+03  0.20069605855E+03  0.25500000920E-02 0. -1.
        2   -1    0    0  501    0  0.00000000000E+00  0.00000000000E+00 -0.18005796004E+04  0.18005796004E+04  0.25500000920E-02 0.  1.
    10030    2    1    2    0    0  0.00000000000E+00  0.00000000000E+00 -0.15998835418E+04  0.20012756589E+04  0.12022798824E+04 0.  0.
        3    1    3    3  502    0 -0.29370290541E+03 -0.45992147688E+03 -0.38021971646E+03  0.66509864271E+03  0.10100000352E+00 0. -1.
       -3    1    3    3    0  502  0.29370290541E+03  0.45992147688E+03 -0.12196638254E+04  0.13361770162E+04  0.10100000352E+00 0.  1.
</event>
<event>
 5   0  0.1404833E-03  0.1205991E+04  0.7818609E-02  0.9107629E-01
        1   -1    0    0  501    0  0.00000000000E+00  0.00000000000E+00  0.70739774474E+03  0.70739774476E+03  0.50400001928E-02 0. -1.
       -1   -1    0    0    0  501  0.00000000000E+00  0.00000000000E+00 -0.51400163865E+03  0.51400163867E+03  0.50400001928E-02 0.  1.
    10030    2    1    2    0    0  0.00000000000E+00  0.00000000000E+00  0.19339610610E+03  0.12213993834E+04  0.12059910447E+04 0.  0.
        1    1    3    3  502    0  0.52569925569E+03 -0.24713521304E+03  0.26053035552E+03  0.63664086197E+03  0.50400001928E-02 0. -1.
       -1    1    3    3    0  502 -0.52569925569E+03  0.24713521304E+03 -0.67134249422E+02  0.58475852147E+03  0.50400001928E-02 0.  1.
</event>
<event>
 5   0  0.2517023E-03  0.1197187E+04  0.7818609E-02  0.9115322E-01
       -2   -1    0    0    0  501  0.00000000000E+00  0.00000000000E+00  0.18949887300E+03  0.18949887301E+03  0.25500000920E-02 0.  1.
        2   -1    0    0  501    0  0.00000000000E+00  0.00000000000E+00 -0.18908507955E+04  0.18908507955E+04  0.25500000920E-02 0. -1.
    10030    2    1    2    0    0  0.00000000000E+00  0.00000000000E+00 -0.17013519225E+04  0.20803496685E+04  0.11971868606E+04 0.  0.
        3    1    3    3  502    0 -0.56722122983E+03  0.12093308633E+03 -0.11081214136E+04  0.12507189182E+04  0.10100000352E+00 0.  1.
       -3    1    3    3    0  502  0.56722122983E+03 -0.12093308633E+03 -0.59323050894E+03  0.82963075032E+03  0.10100000352E+00 0. -1.
</event>
<event>
 5   0  0.2580244E-03  0.1192551E+04  0.7818609E-02  0.9119402E-01
       -2   -1    0    0    0  501  0.00000000000E+00  0.00000000000E+00  0.39669279604E+03  0.39669279604E+03  0.25500000920E-02 0. -1.
        2   -1    0    0  501    0  0.00000000000E+00  0.00000000000E+00 -0.89627088266E+03  0.89627088267E+03  0.25500000920E-02 0.  1.
    10030    2    1    2    0    0  0.00000000000E+00  0.00000000000E+00 -0.49957808663E+03  0.12929636787E+04  0.11925505481E+04 0.  0.
        1    1    3    3  502    0  0.56997447731E+03 -0.51220763235E+02 -0.43137149665E+03  0.71664205816E+03  0.50400001928E-02 0. -1.
       -1    1    3    3    0  502 -0.56997447731E+03  0.51220763235E+02 -0.68206589981E+02  0.57632162055E+03  0.50400001928E-02 0.  1.
</event>
<event>
 5   0  0.1423024E-03  0.1200393E+04  0.7818609E-02  0.9112513E-01
        1   -1    0    0  501    0  0.00000000000E+00  0.00000000000E+00  0.39846236534E+03  0.39846236538E+03  0.50400001928E-02 0. -1.
       -1   -1    0    0    0  501  0.00000000000E+00  0.00000000000E+00 -0.90406480083E+03  0.90406480085E+03  0.50400001928E-02 0.  1.
    10030    2    1    2    0    0  0.00000000000E+00  0.00000000000E+00 -0.50560243549E+03  0.13025271662E+04  0.12003929340E+04 0.  0.
        2    1    3    3  502    0  0.50124062112E+03  0.26640301803E+03 -0.41215205623E+02  0.56913216519E+03  0.25500000920E-02 0. -1.
       -2    1    3    3    0  502 -0.50124062112E+03 -0.26640301803E+03 -0.46438722987E+03  0.73339500103E+03  0.25500000920E-02 0.  1.
</event>
<event>
 5   0  0.2579442E-03  0.1201532E+04  0.7818609E-02  0.9111516E-01
       -2   -1    0    0    0  501  0.00000000000E+00  0.00000000000E+00  0.72605411303E+03  0.72605411303E+03  0.25500000920E-02 0.  1.
        2   -1    0    0  501    0  0.00000000000E+00  0.00000000000E+00 -0.49709801054E+03  0.49709801055E+03  0.25500000920E-02 0. -1.
    10030    2    1    2    0    0  0.00000000000E+00  0.00000000000E+00  0.22895610249E+03  0.12231521236E+04  0.12015324467E+04 0.  0.
        4    1    3    3  502    0  0.43899723701E+03  0.33605734220E+03 -0.12483774073E+03  0.56677966244E+03  0.12699999809E+01 0. -1.
       -4    1    3    3    0  502 -0.43899723701E+03 -0.33605734220E+03  0.35379384322E+03  0.65637246114E+03  0.12699999809E+01 0.  1.
</event>
<event>
 5   0  0.2484507E-03  0.1194514E+04  0.7818609E-02  0.9117672E-01
       -2   -1    0    0    0  501  0.00000000000E+00  0.00000000000E+00  0.22277729066E+03  0.22277729068E+03  0.25500000920E-02 0.  1.
        2   -1    0    0  501    0  0.00000000000E+00  0.00000000000E+00 -0.16012222270E+04  0.16012222270E+04  0.25500000920E-02 0. -1.
    10030    2    1    2    0    0  0.00000000000E+00  0.00000000000E+00 -0.13784449364E+04  0.18239995177E+04  0.11945140426E+04 0.  0.
        2    1    3    3  502    0 -0.23711475984E+03  0.40694786154E+03 -0.12841103064E+03  0.48817964331E+03  0.25500000920E-02 0.  1.
       -2    1    3    3    0  502  0.23711475984E+03 -0.40694786154E+03 -0.12500339057E+04  0.13358198744E+04  0.25500000920E-02 0. -1.
</event>
<event>
 5   0  0.1403154E-03  0.1219947E+04  0.7818609E-02  0.9095574E-01
       -1   -1    0    0    0  501  0.00000000000E+00  0.00000000000E+00  0.81114363510E+03  0.81114363511E+03  0.50400001928E-02 0. -1.
        1   -1    0    0  501    0  0.00000000000E+00  0.00000000000E+00 -0.45869523985E+03  0.45869523988E+03  0.50400001928E-02 0.  1.
    10030    2    1    2    0    0  0.00000000000E+00  0.00000000000E+00  0.35244839524E+03  0.12698388750E+04  0.12199470878E+04 0.  0.
        3    1    3    3  502    0 -0.30360966931E+03  0.19748646065E+03  0.68709983120E+03  0.77671482648E+03  0.10100000352E+00 0. -1.
       -3    1    3    3    0  502  0.30360966931E+03 -0.19748646065E+03 -0.33465143595E+03  0.49312404852E+03  0.10100000352E+00 0.  1.
</event>
<event>
 5   0  0.1455076E-03  0.1198147E+04  0.7818609E-02  0.9114480E-01
        1   -1    0    0  501    0  0.00000000000E+00  0.00000000000E+00  0.55608423155E+03  0.55608423158E+03  0.50400001928E-02 0. -1.
       -1   -1    0    0    0  501  0.00000000000E+00  0.00000000000E+00 -0.64538658266E+03  0.64538658268E+03  0.50400001928E-02 0.  1.
    10030    2    1    2    0    0  0.00000000000E+00  0.00000000000E+00 -0.89302351111E+02  0.12014708143E+04  0.11981474065E+04 0.  0.
        4    1    3    3  502    0 -0.29253585206E+03 -0.51238190583E+03  0.59440640924E+02  0.59299852011E+03  0.12699999809E+01 0.  1.
       -4    1    3    3    0  502  0.29253585206E+03  0.51238190583E+03 -0.14874299203E+03  0.60847229415E+03  0.12699999809E+01 0. -1.
</event>
<event>
 5   0  0.1469851E-03  0.1201639E+04  0.7818609E-02  0.9111424E-01
        1   -1    0    0  501    0  0.00000000000E+00  0.00000000000E+00  0.11367407234E+04  0.11367407234E+04  0.50400001928E-02 0.  1.
       -1   -1    0    0    0  501  0.00000000000E+00  0.00000000000E+00 -0.31756035757E+03  0.31756035761E+03  0.50400001928E-02 0. -1.
    10030    2    1    2    0    0  0.00000000000E+00  0.00000000000E+00  0.81918036582E+03  0.14543010810E+04  0.12016385324E+04 0.  0.
        5    1    3    3  502    0 -0.18105884531E+03  0.24107372758E+03 -0.21935516107E+03  0.37287749232E+03  0.46999998093E+01 0. -1.
       -5    1    3    3    0  502  0.18105884531E+03 -0.24107372758E+03  0.10385355269E+04  0.10814235887E+04  0.46999998093E+01 0.  1.
</event>
<event>
 5   0  0.1455076E-03  0.1195052E+04  0.7818609E-02  0.9117198E-01
        1   -1    0    0  501    0  0.00000000000E+00  0.00000000000E+00  0.12110835681E+04  0.12110835681E+04  0.50400001928E-02 0. -1.
       -1   -1    0    0    0  501  0.00000000000E+00  0.00000000000E+00 -0.29480838815E+03  0.29480838820E+03  0.50400001928E-02 0.  1.
    10030    2    1    2    0    0  0.00000000000E+00  0.00000000000E+00  0.91627517997E+03  0.15058919563E+04  0.11950524586E+04 0.  0.
        4    1    3    3  502    0 -0.12741037273E+03  0.32695883846E+03  0.10675656067E+04  0.11237586141E+04  0.12699999809E+01 0. -1.
       -4    1    3    3    0  502  0.12741037273E+03 -0.32695883846E+03 -0.15129042677E+03  0.38213334225E+03  0.12699999809E+01 0.  1.
</event>
<event>
 5   0  0.1404833E-03  0.1190231E+04  0.7818609E-02  0.9121451E-01
       -1   -1    0    0    0  501  0.00000000000E+00  0.00000000000E+00  0.24594705961E+03  0.24594705966E+03  0.50400001928E-02 0.  1.
        1   -1    0    0  501    0  0.00000000000E+00  0.00000000000E+00 -0.14399946679E+04  0.14399946679E+04  0.50400001928E-02 0. -1.
    10030    2    1    2    0    0  0.00000000000E+00  0.00000000000E+00 -0.11940476083E+04  0.16859417275E+04  0.11902309935E+04 0.  0.
        1    1    3    3  502    0  0.34222115015E+01  0.39271924703E+03  0.36323554114E+02  0.39441034358E+03  0.50400001928E-02 0.  1.
       -1    1    3    3    0  502 -0.34222115015E+01 -0.39271924703E+03 -0.12303711624E+04  0.12915313840E+04  0.50400001928E-02 0. -1.
</event>
<event>
 5   0  0.2499890E-03  0.1197578E+04  0.7818609E-02  0.9114980E-01
       -2   -1    0    0    0  501  0.00000000000E+00  0.00000000000E+00  0.43115790498E+03  0.43115790498E+03  0.25500000920E-02 0.  1.
        2   -1    0    0  501    0  0.00000000000E+00  0.00000000000E+00 -0.83159320530E+03  0.83159320530E+03  0.25500000920E-02 0. -1.
    10030    2    1    2    0    0  0.00000000000E+00  0.00000000000E+00 -0.40043530032E+03  0.12627511103E+04  0.11975775285E+04 0.  0.
        5    1    3    3  502    0 -0.52427562239E+03 -0.17923363938E+03  0.39152838147E+02  0.55546796528E+03  0.46999998093E+01 0.  1.
       -5    1    3    3    0  502  0.52427562239E+03  0.17923363938E+03 -0.43958813847E+03  0.70728314500E+03  0.46999998093E+01 0. -1.
</event>
<event>
 5   0  0.1455076E-03  0.1202114E+04  0.7818609E-02  0.9111008E-01
       -1   -1    0    0    0  501  0.00000000000E+00  0.00000000000E+00  0.19511980719E+03  0.19511980725E+03  0.50400001928E-02 0. -1.
        1   -1    0    0  501    0  0.00000000000E+00  0.00000000000E+00 -0.18515274904E+04  0.18515274904E+04  0.50400001928E-02 0.  1.
    10030    2    1    2    0    0  0.00000000000E+00  0.00000000000E+00 -0.16564076832E+04  0.20466472976E+04  0.12021142824E+04 0.  0.
        4    1    3    3  502    0  0.23215777770E+03 -0.52325236580E+03 -0.51622626412E+03  0.77083165525E+03  0.12699999809E+01 0.  1.
       -4    1    3    3    0  502 -0.23215777770E+03  0.52325236580E+03 -0.11401814191E+04  0.12758156424E+04  0.12699999809E+01 0. -1.
</event>
<event>
 5   0  0.9678750E-04  0.1200967E+04  0.7818609E-02  0.9112011E-01
       -4   -1    0    0    0  501  0.00000000000E+00  0.00000000000E+00  0.56398747184E+03  0.56398890174E+03  0.12699999809E+01 0.  1.
        4   -1    0    0  501    0  0.00000000000E+00  0.00000000000E+00 -0.63933784253E+03  0.63933910391E+03  0.12699999809E+01 0. -1.
    10030    2    1    2    0    0  0.00000000000E+00  0.00000000000E+00 -0.75350370695E+02  0.12033280057E+04  0.12009665319E+04 0.  0.
        2    1    3    3  502    0 -0.38200954337E+03  0.46307328390E+03 -0.23086500459E+02  0.60075048398E+03  0.25500000920E-02 0.  1.
       -2    1    3    3    0  502  0.38200954337E+03 -0.46307328390E+03 -0.52263870236E+02  0.60257752168E+03  0.25500000920E-02 0. -1.
</event>
<event>
 5   0  0.2517023E-03  0.1170082E+04  0.7818609E-02  0.9139454E-01
        2   -1    0    0  501    0  0.00000000000E+00  0.00000000000E+00  0.40740167859E+03  0.40740167860E+03  0.25500000920E-02 0. -1.
       -2   -1    0    0    0  501  0.00000000000E+00  0.00000000000E+00 -0.84013687528E+03  0.84013687528E+03  0.25500000920E-02 0.  1.
    10030    2    1    2    0    0  0.00000000000E+00  0.00000000000E+00 -0.43273519669E+03  0.12475385539E+04  0.11700823445E+04 0.  0.
        3    1    3    3  502    0 -0.19210130307E+03 -0.54674354026E+03 -0.13079403759E+03  0.59408627313E+03  0.10100000352E+00 0.  1.
       -3    1    3    3    0  502  0.19210130307E+03  0.54674354026E+03 -0.30194115910E+03  0.65345228075E+03  0.10100000352E+00 0. -1.
</event>
<event>
 5   0  0.2517023E-03  0.1124148E+04  0.7818609E-02  0.9181970E-01
       -2   -1    0    0    0  501  0.00000000000E+00  0.00000000000E+00  0.27547861150E+03  0.27547861151E+03  0.25500000920E-02 0. -1.
        2   -1    0    0  501    0  0.00000000000E+00  0.00000000000E+00 -0.11468299414E+04  0.11468299414E+04  0.25500000920E-02 0.  1.
    10030    2    1    2    0    0  0.00000000000E+00  0.00000000000E+00 -0.87135132989E+03  0.14223085529E+04  0.11241478904E+04 0.  0.
        3    1    3    3  502    0 -0.45375676613E+03 -0.11393350090E+03 -0.41517504034E+02  0.46968048584E+03  0.10100000352E+00 0. -1.
       -3    1    3    3    0  502  0.45375676613E+03  0.11393350090E+03 -0.82983382586E+03  0.95262806707E+03  0.10100000352E+00 0.  1.
</event>
<event>
 5   0  0.1469851E-03  0.1218449E+04  0.7818609E-02  0.9096860E-01
       -1   -1    0    0    0  501  0.00000000000E+00  0.00000000000E+00  0.60071055836E+03  0.60071055838E+03  0.50400001928E-02 0.  1.
        1   -1    0    0  501    0  0.00000000000E+00  0.00000000000E+00 -0.61785916476E+03  0.61785916478E+03  0.50400001928E-02 0. -1.
    10030    2    1    2    0    0  0.00000000000E+00  0.00000000000E+00 -0.17148606402E+02  0.12185697232E+04  0.12184490533E+04 0.  0.
        5    1    3    3  502    0  0.52261957137E+03  0.31304841998E+03 -0.99543823060E+01  0.60930428307E+03  0.46999998093E+01 0.  1.
       -5    1    3    3    0  502 -0.52261957137E+03 -0.31304841998E+03 -0.71942240961E+01  0.60926544010E+03  0.46999998093E+01 0. -1.
</event>
<event>
 5   0  0.2499890E-03  0.1308871E+04  0.7818609E-02  0.9022560E-01
        2   -1    0    0  501    0  0.00000000000E+00  0.00000000000E+00  0.20023599607E+04  0.20023599607E+04  0.25500000920E-02 0.  1.
       -2   -1    0    0    0  501  0.00000000000E+00  0.00000000000E+00 -0.21389037967E+03  0.21389037968E+03  0.25500000920E-02 0. -1.
    10030    2    1    2    0    0  0.00000000000E+00  0.00000000000E+00  0.17884695810E+04  0.22162503404E+04  0.13088705547E+04 0.  0.
        5    1    3    3  502    0 -0.91006326370E+02 -0.61695881424E+03  0.12300933911E+04  0.13791563257E+04  0.46999998093E+01 0. -1.
       -5    1    3    3    0  502  0.91006326370E+02  0.61695881424E+03  0.55837618986E+03  0.83709401461E+03  0.46999998093E+01 0.  1.
</event>
<event>
 5   0  0.2517023E-03  0.1209044E+04  0.7818609E-02  0.9104977E-01
        2   -1    0    0  501    0  0.00000000000E+00  0.00000000000E+00  0.13735335862E+04  0.13735335862E+04  0.25500000920E-02 0.  1.
       -2   -1    0    0    0  501  0.00000000000E+00  0.00000000000E+00 -0.26606335861E+03  0.26606335862E+03  0.25500000920E-02 0. -1.
    10030    2    1    2    0    0  0.00000000000E+00  0.00000000000E+00  0.11074702276E+04  0.16395969449E+04  0.12090441830E+04 0.  0.
        3    1    3    3  502    0  0.22828249497E+03  0.51420095564E+03  0.25375747911E+03  0.61717776102E+03  0.10100000352E+00 0. -1.
       -3    1    3    3    0  502 -0.22828249497E+03 -0.51420095564E+03  0.85371274852E+03  0.10224191838E+04  0.10100000352E+00 0.  1.
</event>
<event>
 5   0  0.1403154E-03  0.1196224E+04  0.7818609E-02  0.9116168E-01
        1   -1    0    0  501    0  0.00000000000E+00  0.00000000000E+00  0.12052227979E+04  0.12052227979E+04  0.50400001928E-02 0. -1.
       -1   -1    0    0    0  501  0.00000000000E+00  0.00000000000E+00 -0.29682317538E+03  0.29682317542E+03  0.50400001928E-02 0.  1.
    10030    2    1    2    0    0  0.00000000000E+00  0.00000000000E+00  0.90839962253E+03  0.15020459733E+04  0.11962241562E+04 0.  0.
        3    1    3    3  502    0  0.35752429098E+03  0.47887217249E+03  0.48485097559E+03  0.76956003986E+03  0.10100000352E+00 0. -1.
       -3    1    3    3    0  502 -0.35752429098E+03 -0.47887217249E+03  0.42354864695E+03  0.73248593349E+03  0.10100000352E+00 0.  1.
</event>
<event>
 5   0  0.1403154E-03  0.1200659E+04  0.7818609E-02  0.9112280E-01
        1   -1    0    0  501    0  0.00000000000E+00  0.00000000000E+00  0.90280979766E+03  0.90280979767E+03  0.50400001928E-02 0.  1.
       -1   -1    0    0    0  501  0.00000000000E+00  0.00000000000E+00 -0.39919326015E+03  0.39919326018E+03  0.50400001928E-02 0. -1.
    10030    2    1    2    0    0  0.00000000000E+00  0.00000000000E+00  0.50361653751E+03  0.13020030578E+04  0.12006591297E+04 0.  0.
        3    1    3    3  502    0  0.20638398940E+03 -0.28502888043E+03 -0.27561916358E+03  0.44699188727E+03  0.10100000352E+00 0. -1.
       -3    1    3    3    0  502 -0.20638398940E+03  0.28502888043E+03  0.77923570109E+03  0.85501117057E+03  0.10100000352E+00 0.  1.
</event>
<event>
 5   0  0.1455076E-03  0.1197572E+04  0.7818609E-02  0.9114984E-01
        1   -1    0    0  501    0  0.00000000000E+00  0.00000000000E+00  0.13702844452E+04  0.13702844452E+04  0.50400001928E-02 0.  1.
       -1   -1    0    0    0  501  0.00000000000E+00  0.00000000000E+00 -0.26165730317E+03  0.26165730322E+03  0.50400001928E-02 0. -1.
    10030    2    1    2    0    0  0.00000000000E+00  0.00000000000E+00  0.11086271420E+04  0.16319417484E+04  0.11975724321E+04 0.  0.
        4    1    3    3  502    0  0.41083164535E+03 -0.74716425024E+02  0.11391331418E+04  0.12132564084E+04  0.12699999809E+01 0.  1.
       -4    1    3    3    0  502 -0.41083164535E+03  0.74716425024E+02 -0.30505999770E+02  0.41868533998E+03  0.12699999809E+01 0. -1.
</event>
<event>
 5   0  0.2580244E-03  0.1188300E+04  0.7818609E-02  0.9123160E-01
        2   -1    0    0  501    0  0.00000000000E+00  0.00000000000E+00  0.52277191989E+03  0.52277191990E+03  0.25500000920E-02 0.  1.
       -2   -1    0    0    0  501  0.00000000000E+00  0.00000000000E+00 -0.67527349643E+03  0.67527349644E+03  0.25500000920E-02 0. -1.
    10030    2    1    2    0    0  0.00000000000E+00  0.00000000000E+00 -0.15250157654E+03  0.11980454163E+04  0.11882996629E+04 0.  0.
        1    1    3    3  502    0 -0.13215453026E+03  0.14850793181E+03  0.48824712101E+03  0.52716665001E+03  0.50400001928E-02 0.  1.
       -1    1    3    3    0  502  0.13215453026E+03 -0.14850793181E+03 -0.64074869755E+03  0.67087876633E+03  0.50400001928E-02 0. -1.
</event>
<event>
 5   0  0.9678750E-04  0.1198516E+04  0.7818609E-02  0.9114156E-01
       -4   -1    0    0    0  501  0.00000000000E+00  0.00000000000E+00  0.10133715338E+04  0.10133723296E+04  0.12699999809E+01 0. -1.
        4   -1    0    0  501    0  0.00000000000E+00  0.00000000000E+00 -0.35436983816E+03  0.35437211389E+03  0.12699999809E+01 0.  1.
    10030    2    1    2    0    0  0.00000000000E+00  0.00000000000E+00  0.65900169567E+03  0.13677444435E+04  0.11985164279E+04 0.  0.
        2    1    3    3  502    0 -0.45448159940E+03 -0.38272930071E+03  0.24055206446E+03  0.64101523971E+03  0.25500000920E-02 0.  1.
       -2    1    3    3    0  502  0.45448159940E+03  0.38272930071E+03  0.41844963120E+03  0.72672920381E+03  0.25500000920E-02 0. -1.
</event>
<event>
 5   0  0.2484507E-03  0.1204691E+04  0.7818609E-02  0.9108761E-01
       -2   -1    0    0    0  501  0.00000000000E+00  0.00000000000E+00  0.37928743266E+03  0.37928743267E+03  0.25500000920E-02 0.  1.
        2   -1    0    0  501    0  0.00000000000E+00  0.00000000000E+00 -0.95658321463E+03  0.95658321463E+03  0.25500000920E-02 0. -1.
    10030    2    1    2    0    0  0.00000000000E+00  0.00000000000E+00 -0.57729578196E+03  0.13358706473E+04  0.12046908178E+04 0.  0.
        2    1    3    3  502    0 -0.50273291837E+03 -0.33104883446E+03 -0.31310072223E+03  0.67850260153E+03  0.25500000920E-02 0.  1.
       -2    1    3    3    0  502  0.50273291837E+03  0.33104883446E+03 -0.26419505974E+03  0.65736804578E+03  0.25500000920E-02 0. -1.
</event>
<event>
 5   0  0.2517023E-03  0.1185520E+04  0.7818609E-02  0.9125626E-01
        2   -1    0    0  501    0  0.00000000000E+00  0.00000000000E+00  0.13948087392E+04  0.13948087392E+04  0.25500000920E-02 0. -1.
       -2   -1    0    0    0  501  0.00000000000E+00  0.00000000000E+00 -0.25190854650E+03  0.25190854651E+03  0.25500000920E-02 0.  1.
    10030    2    1    2    0    0  0.00000000000E+00  0.00000000000E+00  0.11429001927E+04  0.16467172858E+04  0.11855197040E+04 0.  0.
        3    1    3    3  502    0  0.34712289311E+03  0.24331810986E+02 -0.95105517301E+02  0.36073731380E+03  0.10100000352E+00 0.  1.
       -3    1    3    3    0  502 -0.34712289311E+03 -0.24331810986E+02  0.12380057100E+04  0.12859799719E+04  0.10100000352E+00 0. -1.
</event>
<event>
 5   0  0.1423024E-03  0.1214301E+04  0.7818609E-02  0.9100430E-01
        1   -1    0    0  501    0  0.00000000000E+00  0.00000000000E+00  0.47265930948E+03  0.47265930951E+03  0.50400001928E-02 0. -1.
       -1   -1    0    0    0  501  0.00000000000E+00  0.00000000000E+00 -0.77991056807E+03  0.77991056809E+03  0.50400001928E-02 0.  1.
    10030    2    1    2    0    0  0.00000000000E+00  0.00000000000E+00 -0.30725125859E+03  0.12525698776E+04  0.12143014298E+04 0.  0.
        2    1    3    3  502    0 -0.37191483381E+03  0.30496021066E+03  0.22860678725E+03  0.53252458805E+03  0.25500000920E-02 0. -1.
       -2    1    3    3    0  502  0.37191483381E+03 -0.30496021066E+03 -0.53585804585E+03  0.72004528955E+03  0.25500000920E-02 0.  1.
</event>
<event>
 5   0  0.1404833E-03  0.1042686E+04  0.7818609E-02  0.9262928E-01
        1   -1    0    0  501    0  0.00000000000E+00  0.00000000000E+00  0.63270671913E+03  0.63270671915E+03  0.50400001928E-02 0. -1.
       -1   -1    0    0    0  501  0.00000000000E+00  0.00000000000E+00 -0.42958080466E+03  0.42958080469E+03  0.50400001928E-02 0.  1.
    10030    2    1    2    0    0  0.00000000000E+00  0.00000000000E+00  0.20312591447E+03  0.10622875238E+04  0.10426862645E+04 0.  0.
        1    1    3    3  502    0  0.17931853627E+03  0.60464382857E+02 -0.39335476326E+03  0.43650778785E+03  0.50400001928E-02 0.  1.
       -1    1    3    3    0  502 -0.17931853627E+03 -0.60464382857E+02  0.59648067773E+03  0.62577973599E+03  0.50400001928E-02 0. -1.
</event>
<event>
 5   0  0.2517023E-03  0.1207765E+04  0.7818609E-02  0.9106087E-01
        2   -1    0    0  501    0  0.00000000000E+00  0.00000000000E+00  0.10954655777E+04  0.10954655777E+04  0.25500000920E-02 0. -1.
       -2   -1    0    0    0  501  0.00000000000E+00  0.00000000000E+00 -0.33289393357E+03  0.33289393358E+03  0.25500000920E-02 0.  1.
    10030    2    1    2    0    0  0.00000000000E+00  0.00000000000E+00  0.76257164415E+03  0.14283595113E+04  0.12077646216E+04 0.  0.
        3    1    3    3  502    0  0.31391479889E+03  0.65549977298E+02  0.98644369922E+03  0.10372610483E+04  0.10100000352E+00 0. -1.
       -3    1    3    3    0  502 -0.31391479889E+03 -0.65549977298E+02 -0.22387205507E+03  0.39109846296E+03  0.10100000352E+00 0.  1.
</event>
<event>
 5   0  0.2499890E-03  0.1208051E+04  0.7818609E-02  0.9105838E-01
       -2   -1    0    0    0  501  0.00000000000E+00  0.00000000000E+00  0.40333620452E+03  0.40333620453E+03  0.25500000920E-02 0.  1.
        2   -1    0    0  501    0  0.00000000000E+00  0.00000000000E+00 -0.90457292404E+03  0.90457292404E+03  0.25500000920E-02 0. -1.
    10030    2    1    2    0    0  0.00000000000E+00  0.00000000000E+00 -0.50123671952E+03  0.13079091286E+04  0.12080513398E+04 0.  0.
        5    1    3    3  502    0 -0.14974062153E+03 -0.20745817211E+02 -0.88374068774E+03  0.89658927934E+03  0.46999998093E+01 0. -1.
       -5    1    3    3    0  502  0.14974062153E+03  0.20745817211E+02  0.38250396822E+03  0.41131984923E+03  0.46999998093E+01 0.  1.
</event>
<event>
 5   0  0.1403154E-03  0.1200173E+04  0.7818609E-02  0.9112705E-01
        1   -1    0    0  501    0  0.00000000000E+00  0.00000000000E+00  0.13137274454E+04  0.13137274454E+04  0.50400001928E-02 0.  1.
       -1   -1    0    0    0  501  0.00000000000E+00  0.00000000000E+00 -0.27410860453E+03  0.27410860457E+03  0.50400001928E-02 0. -1.
    10030    2    1    2    0    0  0.00000000000E+00  0.00000000000E+00  0.10396188408E+04  0.15878360499E+04  0.12001733155E+04 0.  0.
        3    1    3    3  502    0 -0.48648218116E+03  0.34858479547E+03  0.46172187348E+03  0.75588581867E+03  0.10100000352E+00 0. -1.
       -3    1    3    3    0  502  0.48648218116E+03 -0.34858479547E+03  0.57789696735E+03  0.83195023127E+03  0.10100000352E+00 0.  1.
</event>
<event>
 5   0  0.1423024E-03  0.1210148E+04  0.7818609E-02  0.9104020E-01
       -1   -1    0    0    0  501  0.00000000000E+00  0.00000000000E+00  0.25255655852E+03  0.25255655857E+03  0.50400001928E-02 0.  1.
        1   -1    0    0  501    0  0.00000000000E+00  0.00000000000E+00 -0.14496334485E+04  0.14496334485E+04  0.50400001928E-02 0. -1.
    10030    2    1    2    0    0  0.00000000000E+00  0.00000000000E+00 -0.11970768900E+04  0.17021900071E+04  0.12101478173E+04 0.  0.
        2    1    3    3  502    0 -0.30565796278E+03 -0.18865579327E+03  0.86369668901E+02  0.36942863757E+03  0.25500000920E-02 0.  1.
       -2    1    3    3    0  502  0.30565796278E+03  0.18865579327E+03 -0.12834465589E+04  0.13327613695E+04  0.25500000920E-02 0. -1.
</event>
<event>
 5   0  0.1423024E-03  0.1221220E+04  0.7818609E-02  0.9094483E-01
        1   -1    0    0  501    0  0.00000000000E+00  0.00000000000E+00  0.53815442770E+03  0.53815442772E+03  0.50400001928E-02 0. -1.
       -1   -1    0    0    0  501  0.00000000000E+00  0.00000000000E+00 -0.69282083214E+03  0.69282083215E+03  0.50400001928E-02 0.  1.
    10030    2    1    2    0    0  0.00000000000E+00  0.00000000000E+00 -0.15466640444E+03  0.12309752599E+04  0.12212200431E+04 0.  0.
        2    1    3    3  502    0 -0.49917937310E+03 -0.34628579684E+03 -0.15601038884E+02  0.60773126630E+03  0.25500000920E-02 0. -1.
       -2    1    3    3    0  502  0.49917937310E+03  0.34628579684E+03 -0.13906536556E+03  0.62324399357E+03  0.25500000920E-02 0.  1.
</event>
<event>
 5   0  0.2579442E-03  0.1187246E+04  0.7818609E-02  0.9124094E-01
        2   -1    0    0  501    0  0.00000000000E+00  0.00000000000E+00  0.26800360104E+04  0.26800360104E+04  0.25500000920E-02 0. -1.
       -2   -1    0    0    0  501  0.00000000000E+00  0.00000000000E+00 -0.13148630163E+03  0.13148630165E+03  0.25500000920E-02 0.  1.
    10030    2    1    2    0    0  0.00000000000E+00  0.00000000000E+00  0.25485497088E+04  0.28115223121E+04  0.11872455909E+04 0.  0.
        4    1    3    3  502    0 -0.15982796232E+03  0.26149359135E+03  0.70348924287E+02  0.31444309486E+03  0.12699999809E+01 0.  1.
       -4    1    3    3    0  502  0.15982796232E+03 -0.26149359135E+03  0.24782007845E+04  0.24970792172E+04  0.12699999809E+01 0. -1.
</event>
<event>
 5   0  0.1469851E-03  0.1191750E+04  0.7818609E-02  0.9120109E-01
       -1   -1    0    0    0  501  0.00000000000E+00  0.00000000000E+00  0.69313815418E+03  0.69313815420E+03  0.50400001928E-02 0. -1.
        1   -1    0    0  501    0  0.00000000000E+00  0.00000000000E+00 -0.51226003507E+03  0.51226003510E+03  0.50400001928E-02 0.  1.
    10030    2    1    2    0    0  0.00000000000E+00  0.00000000000E+00  0.18087811911E+03  0.12053981893E+04  0.11917499322E+04 0.  0.
        5    1    3    3  502    0  0.35698434173E+03  0.46774426233E+03  0.18544221561E+03  0.61695495825E+03  0.46999998093E+01 0. -1.
       -5    1    3    3    0  502 -0.35698434173E+03 -0.46774426233E+03 -0.45640964978E+01  0.58844323104E+03  0.46999998093E+01 0.  1.
</event>
<event>
 5   0  0.2499890E-03  0.1201022E+04  0.7818609E-02  0.9111963E-01
        2   -1    0    0  501    0  0.00000000000E+00  0.00000000000E+00  0.93382350547E+03  0.93382350547E+03  0.25500000920E-02 0.  1.
       -2   -1    0    0    0  501  0.00000000000E+00  0.00000000000E+00 -0.38616867618E+03  0.38616867619E+03  0.25500000920E-02 0. -1.
    10030    2    1    2    0    0  0.00000000000E+00  0.00000000000E+00  0.54765482929E+03  0.13199921817E+04  0.12010218764E+04 0.  0.
        5    1    3    3  502    0 -0.50220558580E+03  0.10620715940E+03  0.61630490838E+03  0.80208742741E+03  0.46999998093E+01 0.  1.
       -5    1    3    3    0  502  0.50220558580E+03 -0.10620715940E+03 -0.68650079091E+02  0.51790475425E+03  0.46999998093E+01 0. -1.
</event>
<event>
 5   0  0.1423024E-03  0.1192930E+04  0.7818609E-02  0.9119068E-01
        1   -1    0    0  501    0  0.00000000000E+00  0.00000000000E+00  0.54886296012E+03  0.54886296014E+03  0.50400001928E-02 0. -1.
       -1   -1    0    0    0  501  0.00000000000E+00  0.00000000000E+00 -0.64819512424E+03  0.64819512426E+03  0.50400001928E-02 0.  1.
    10030    2    1    2    0    0  0.00000000000E+00  0.00000000000E+00 -0.99332164128E+02  0.11970580844E+04  0.11929296621E+04 0.  0.
        2    1    3    3  502    0  0.52098873978E+03  0.23421867149E+03 -0.22196540985E+03  0.61282648134E+03  0.25500000920E-02 0.  1.
       -2    1    3    3    0  502 -0.52098873978E+03 -0.23421867149E+03  0.12263324572E+03  0.58423160306E+03  0.25500000920E-02 0. -1.
</event>
<event>
 5   0  0.2580244E-03  0.1197830E+04  0.7818609E-02  0.9114758E-01
        2   -1    0    0  501    0  0.00000000000E+00  0.00000000000E+00  0.20280946510E+03  0.20280946512E+03  0.25500000920E-02 0. -1.
       -2   -1    0    0    0  501  0.00000000000E+00  0.00000000000E+00 -0.17686515492E+04  0.17686515492E+04  0.25500000920E-02 0.  1.
    10030    2    1    2    0    0  0.00000000000E+00  0.00000000000E+00 -0.15658420841E+04  0.19714610144E+04  0.11978301627E+04 0.  0.
        1    1    3    3  502    0 -0.17406580465E+03 -0.48774816111E+03 -0.12780545074E+04  0.13789925659E+04  0.50400001928E-02 0.  1.
       -1    1    3    3    0  502  0.17406580465E+03  0.48774816111E+03 -0.28778757673E+03  0.59246844841E+03  0.50400001928E-02 0. -1.
</event>
<event>
 5   0  0.1469851E-03  0.1191467E+04  0.7818609E-02  0.9120358E-01
       -1   -1    0    0    0  501  0.00000000000E+00  0.00000000000E+00  0.19696945517E+03  0.19696945524E+03  0.50400001928E-02 0. -1.
        1   -1    0    0  501    0  0.00000000000E+00  0.00000000000E+00 -0.18017947400E+04  0.18017947400E+04  0.50400001928E-02 0.  1.
    10030    2    1    2    0    0  0.00000000000E+00  0.00000000000E+00 -0.16048252848E+04  0.19987641952E+04  0.11914672104E+04 0.  0.
        5    1    3    3  502    0 -0.20368857665E+02  0.69558027028E+02 -0.17943394005E+04  0.17958087826E+04  0.46999998093E+01 0.  1.
       -5    1    3    3    0  502  0.20368857665E+02 -0.69558027028E+02  0.18951411567E+03  0.20295541265E+03  0.46999998093E+01 0. -1.
</event>
<event>
 5   0  0.9678750E-04  0.1206286E+04  0.7818609E-02  0.9107372E-01
       -4   -1    0    0    0  501  0.00000000000E+00  0.00000000000E+00  0.56536461071E+03  0.56536603713E+03  0.12699999809E+01 0.  1.
        4   -1    0    0  501    0  0.00000000000E+00  0.00000000000E+00 -0.64344333948E+03  0.64344459282E+03  0.12699999809E+01 0. -1.
    10030    2    1    2    0    0  0.00000000000E+00  0.00000000000E+00 -0.78078728776E+02  0.12088106299E+04  0.12062863885E+04 0.  0.
        3    1    3    3  502    0 -0.27745515972E+03 -0.52015580295E+03 -0.16673552034E+03  0.61265338401E+03  0.10100000352E+00 0. -1.
       -3    1    3    3    0  502  0.27745515972E+03  0.52015580295E+03  0.88656791565E+02  0.59615724594E+03  0.10100000352E+00 0.  1.
</event>
<event>
 5   0  0.2484507E-03  0.1193188E+04  0.7818609E-02  0.9118840E-01
        2   -1    0    0  501    0  0.00000000000E+00  0.00000000000E+00  0.90598514103E+03  0.90598514104E+03  0.25500000920E-02 0. -1.
       -2   -1    0    0    0  501  0.00000000000E+00  0.00000000000E+00 -0.39285882188E+03  0.39285882189E+03  0.25500000920E-02 0.  1.
    10030    2    1    2    0    0  0.00000000000E+00  0.00000000000E+00  0.51312631915E+03  0.12988439629E+04  0.11931877558E+04 0.  0.
        2    1    3    3  502    0  0.83951650068E+02  0.59043650635E+02  0.89630272625E+03  0.90215996881E+03  0.25500000920E-02 0. -1.
       -2    1    3    3    0  502 -0.83951650068E+02 -0.59043650635E+02 -0.38317640710E+03  0.39668399412E+03  0.25500000920E-02 0.  1.
</event>
<event>
 5   0  0.2484507E-03  0.1205351E+04  0.7818609E-02  0.9108186E-01
       -2   -1    0    0    0  501  0.00000000000E+00  0.00000000000E+00  0.35873469595E+03  0.35873469596E+03  0.25500000920E-02 0. -1.
        2   -1    0    0  501    0  0.00000000000E+00  0.00000000000E+00 -0.10124966612E+04  0.10124966612E+04  0.25500000920E-02 0.  1.
    10030    2    1    2    0    0  0.00000000000E+00  0.00000000000E+00 -0.65376196527E+03  0.13712313572E+04  0.12053508733E+04 0.  0.
        2    1    3    3  502    0 -0.28888065294E+03 -0.14892059750E+03 -0.90425910078E+03  0.96089224024E+03  0.25500000920E-02 0.  1.
       -2    1    3    3    0  502  0.28888065294E+03  0.14892059750E+03  0.25049713550E+03  0.41033911696E+03  0.25500000920E-02 0. -1.
</event>
<event>
 5   0  0.2579442E-03  0.1170601E+04  0.7818609E-02  0.9138986E-01
        2   -1    0    0  501    0  0.00000000000E+00  0.00000000000E+00  0.93766225704E+03  0.93766225704E+03  0.25500000920E-02 0. -1.
       -2   -1    0    0    0  501  0.00000000000E+00  0.00000000000E+00 -0.36535157724E+03  0.36535157724E+03  0.25500000920E-02 0.  1.
    10030    2    1    2    0    0  0.00000000000E+00  0.00000000000E+00  0.57231067981E+03  0.13030138343E+04  0.11706005032E+04 0.  0.
        4    1    3    3  502    0 -0.49565896063E+03 -0.20279010342E+03  0.23278170709E+02  0.53604581654E+03  0.12699999809E+01 0.  1.
       -4    1    3    3    0  502  0.49565896063E+03  0.20279010342E+03  0.54903250910E+03  0.76696801775E+03  0.12699999809E+01 0. -1.
</event>
<event>
 5   0  0.2484507E-03  0.1194636E+04  0.7818609E-02  0.9117565E-01
        2   -1    0    0  501    0  0.00000000000E+00  0.00000000000E+00  0.73427359654E+03  0.73427359654E+03  0.25500000920E-02 0. -1.
       -2   -1    0    0    0  501  0.00000000000E+00  0.00000000000E+00 -0.48590699496E+03  0.48590699496E+03  0.25500000920E-02 0.  1.
    10030    2    1    2    0    0  0.00000000000E+00  0.00000000000E+00  0.24836660158E+03  0.12201805915E+04  0.11946358052E+04 0.  0.
        2    1    3    3  502    0 -0.18126841882E+03  0.56900387675E+03  0.13730420944E+03  0.61276104426E+03  0.25500000920E-02 0.  1.
       -2    1    3    3    0  502  0.18126841882E+03 -0.56900387675E+03  0.11106239214E+03  0.60741954725E+03  0.25500000920E-02 0. -1.
</event>
<event>
 5   0  0.2484507E-03  0.1238507E+04  0.7818609E-02  0.9079803E-01
       -2   -1    0    0    0  501  0.00000000000E+00  0.00000000000E+00  0.10039651511E+04  0.10039651511E+04  0.25500000920E-02 0.  1.
        2   -1    0    0  501    0  0.00000000000E+00  0.00000000000E+00 -0.38196060392E+03  0.38196060393E+03  0.25500000920E-02 0. -1.
    10030    2    1    2    0    0  0.00000000000E+00  0.00000000000E+00  0.62200454722E+03  0.13859257551E+04  0.12385073846E+04 0.  0.
        2    1    3    3  502    0 -0.23759702236E+02  0.48754840875E+03 -0.11541558260E+03  0.50158621496E+03  0.25500000920E-02 0. -1.
       -2    1    3    3    0  502  0.23759702236E+02 -0.48754840875E+03  0.73742012982E+03  0.88433954010E+03  0.25500000920E-02 0.  1.
</event>
<event>
 5   0  0.2517023E-03  0.1176816E+04  0.7818609E-02  0.9133395E-01
        2   -1    0    0  501    0  0.00000000000E+00  0.00000000000E+00  0.66902219969E+03  0.66902219970E+03  0.25500000920E-02 0.  1.
       -2   -1    0    0    0  501  0.00000000000E+00  0.00000000000E+00 -0.51750748722E+03  0.51750748722E+03  0.25500000920E-02 0. -1.
    10030    2    1    2    0    0  0.00000000000E+00  0.00000000000E+00  0.15151471248E+03  0.11865296869E+04  0.11768160391E+04 0.  0.
        3    1    3    3  502    0 -0.23028716709E+03 -0.52010729502E+03  0.22759993185E+03  0.61265448406E+03  0.10100000352E+00 0.  1.
       -3    1    3    3    0  502  0.23028716709E+03  0.52010729502E+03 -0.76085219378E+02  0.57387520286E+03  0.10100000352E+00 0. -1.
</event>
<event>
 5   0  0.1455076E-03  0.1165780E+04  0.7818609E-02  0.9143348E-01
       -1   -1    0    0    0  501  0.00000000000E+00  0.00000000000E+00  0.55595667787E+03  0.55595667790E+03  0.50400001928E-02 0. -1.
        1   -1    0    0  501    0  0.00000000000E+00  0.00000000000E+00 -0.61112765932E+03  0.61112765934E+03  0.50400001928E-02 0.  1.
    10030    2    1    2    0    0  0.00000000000E+00  0.00000000000E+00 -0.55170981442E+02  0.11670843372E+04  0.11657795731E+04 0.  0.
        4    1    3    3  502    0 -0.87893557058E+02  0.34676683481E+02  0.54823748631E+03  0.55632158330E+03  0.12699999809E+01 0. -1.
       -4    1    3    3    0  502  0.87893557058E+02 -0.34676683481E+02 -0.60340846775E+03  0.61076275394E+03  0.12699999809E+01 0.  1.
</event>
<event>
 5   0  0.1404833E-03  0.1198109E+04  0.7818609E-02  0.9114513E-01
        1   -1    0    0  501    0  0.00000000000E+00  0.00000000000E+00  0.23867246885E+04  0.23867246885E+04  0.50400001928E-02 0.  1.
       -1   -1    0    0    0  501  0.00000000000E+00  0.00000000000E+00 -0.15035937497E+03  0.15035937505E+03  0.50400001928E-02 0. -1.
    10030    2    1    2    0    0  0.00000000000E+00  0.00000000000E+00  0.22363653135E+04  0.25370840636E+04  0.11981092312E+04 0.  0.
        1    1    3    3  502    0  0.18562375666E+03 -0.14891661647E+02 -0.87511732790E+02  0.20575773138E+03  0.50400001928E-02 0. -1.
       -1    1    3    3    0  502 -0.18562375666E+03  0.14891661647E+02  0.23238770463E+04  0.23313263322E+04  0.50400001928E-02 0.  1.
</event>
<event>
 5   0  0.1403154E-03  0.1198924E+04  0.7818609E-02  0.9113799E-01
       -1   -1    0    0    0  501  0.00000000000E+00  0.00000000000E+00  0.63335735591E+03  0.63335735593E+03  0.50400001928E-02 0.  1.
        1   -1    0    0  501    0  0.00000000000E+00  0.00000000000E+00 -0.56738042890E+03  0.56738042892E+03  0.50400001928E-02 0. -1.
    10030    2    1    2    0    0  0.00000000000E+00  0.00000000000E+00  0.65976927015E+02  0.12007377849E+04  0.11989237979E+04 0.  0.
        3    1    3    3  502    0 -0.24978206537E+03  0.13272987463E+03 -0.49634338576E+03  0.57128370062E+03  0.10100000352E+00 0. -1.
       -3    1    3    3    0  502  0.24978206537E+03 -0.13272987463E+03  0.56232031278E+03  0.62945408424E+03  0.10100000352E+00 0.  1.
</event>
<event>
 5   0  0.1423024E-03  0.1202351E+04  0.7818609E-02  0.9110801E-01
        1   -1    0    0  501    0  0.00000000000E+00  0.00000000000E+00  0.58286614493E+03  0.58286614495E+03  0.50400001928E-02 0.  1.
       -1   -1    0    0    0  501  0.00000000000E+00  0.00000000000E+00 -0.62005989810E+03  0.62005989812E+03  0.50400001928E-02 0. -1.
    10030    2    1    2    0    0  0.00000000000E+00  0.00000000000E+00 -0.37193753176E+02  0.12029260431E+04  0.12023509013E+04 0.  0.
        2    1    3    3  502    0  0.40080876855E+02  0.58624047020E+03  0.10845818905E+03  0.59753455496E+03  0.25500000920E-02 0.  1.
       -2    1    3    3    0  502 -0.40080876855E+02 -0.58624047020E+03 -0.14565194223E+03  0.60539148811E+03  0.25500000920E-02 0. -1.
</event>
<event>
 5   0  0.1404833E-03  0.1172165E+04  0.7818609E-02  0.9137576E-01
       -1   -1    0    0    0  501  0.00000000000E+00  0.00000000000E+00  0.29200477155E+03  0.29200477159E+03  0.50400001928E-02 0. -1.
        1   -1    0    0  501    0  0.00000000000E+00  0.00000000000E+00 -0.11763248967E+04  0.11763248967E+04  0.50400001928E-02 0.  1.
    10030    2    1    2    0    0  0.00000000000E+00  0.00000000000E+00 -0.88432012510E+03  0.14683296683E+04  0.11721646348E+04 0.  0.
        1    1    3    3  502    0 -0.53936814802E+03 -0.49932110883E+02 -0.16182809990E+03  0.56533136189E+03  0.50400001928E-02 0. -1.
       -1    1    3    3    0  502  0.53936814802E+03  0.49932110883E+02 -0.72249202520E+03  0.90299830636E+03  0.50400001928E-02 0.  1.
</event>
<event>
 5   0  0.2579442E-03  0.1229685E+04  0.7818609E-02  0.9087263E-01
        2   -1    0    0  501    0  0.00000000000E+00  0.00000000000E+00  0.10465284741E+04  0.10465284741E+04  0.25500000920E-02 0.  1.
       -2   -1    0    0    0  501  0.00000000000E+00  0.00000000000E+00 -0.36122395974E+03  0.36122395975E+03  0.25500000920E-02 0. -1.
    10030    2    1    2    0    0  0.00000000000E+00  0.00000000000E+00  0.68530451437E+03  0.14077524339E+04  0.12296847717E+04 0.  0.
        4    1    3    3  502    0  0.23463981710E+03  0.42048320091E+03  0.78033358687E+03  0.91694279304E+03  0.12699999809E+01 0.  1.
       -4    1    3    3    0  502 -0.23463981710E+03 -0.42048320091E+03 -0.95029072495E+02  0.49080964083E+03  0.12699999809E+01 0. -1.
</event>
<event>
 5   0  0.2579442E-03  0.1185028E+04  0.7818609E-02  0.9126063E-01
        2   -1    0    0  501    0  0.00000000000E+00  0.00000000000E+00  0.22357481040E+04  0.22357481040E+04  0.25500000920E-02 0. -1.
       -2   -1    0    0    0  501  0.00000000000E+00  0.00000000000E+00 -0.15702713567E+03  0.15702713569E+03  0.25500000920E-02 0.  1.
    10030    2    1    2    0    0  0.00000000000E+00  0.00000000000E+00  0.20787209684E+04  0.23927752397E+04  0.11850284737E+04 0.  0.
        4    1    3    3  502    0  0.12238136661E+03 -0.74712661955E+01 -0.13112931222E+03  0.17952584252E+03  0.12699999809E+01 0.  1.
       -4    1    3    3    0  502 -0.12238136661E+03  0.74712661955E+01  0.22098502806E+04  0.22132493972E+04  0.12699999809E+01 0. -1.
</event>
<event>
 5   0  0.2484507E-03  0.1223422E+04  0.7818609E-02  0.9092599E-01
        2   -1    0    0  501    0  0.00000000000E+00  0.00000000000E+00  0.12076867626E+04  0.12076867626E+04  0.25500000920E-02 0.  1.
       -2   -1    0    0    0  501  0.00000000000E+00  0.00000000000E+00 -0.30984039703E+03  0.30984039704E+03  0.25500000920E-02 0. -1.
    10030    2    1    2    0    0  0.00000000000E+00  0.00000000000E+00  0.89784636561E+03  0.15175271597E+04  0.12234216706E+04 0.  0.
        2    1    3    3  502    0 -0.40802717359E+03 -0.34324806003E+03  0.82080358250E+03  0.97878696669E+03  0.25500000920E-02 0. -1.
       -2    1    3    3    0  502  0.40802717359E+03  0.34324806003E+03  0.77042783115E+02  0.53874019299E+03  0.25500000920E-02 0.  1.
</event>
<event>
 5   0  0.1469851E-03  0.1219841E+04  0.7818609E-02  0.9095664E-01
       -1   -1    0    0    0  501  0.00000000000E+00  0.00000000000E+00  0.66475644305E+03  0.66475644307E+03  0.50400001928E-02 0.  1.
        1   -1    0    0  501    0  0.00000000000E+00  0.00000000000E+00 -0.55960844396E+03  0.55960844398E+03  0.50400001928E-02 0. -1.
    10030    2    1    2    0    0  0.00000000000E+00  0.00000000000E+00  0.10514799909E+03  0.12243648871E+04  0.12198414958E+04 0.  0.
        5    1    3    3  502    0  0.52985342267E+03 -0.23732148605E+02 -0.24966279069E+03  0.58622646089E+03  0.46999998093E+01 0. -1.
       -5    1    3    3    0  502 -0.52985342267E+03  0.23732148605E+02  0.35481078979E+03  0.63813842616E+03  0.46999998093E+01 0.  1.
</event>
<event>
 5   0  0.1455076E-03  0.1213027E+04  0.7818609E-02  0.9101530E-01
       -1   -1    0    0    0  501  0.00000000000E+00  0.00000000000E+00  0.50777373166E+03  0.50777373169E+03  0.50400001928E-02 0. -1.
        1   -1    0    0  501    0  0.00000000000E+00  0.00000000000E+00 -0.72445341097E+03  0.72445341098E+03  0.50400001928E-02 0.  1.
    10030    2    1    2    0    0  0.00000000000E+00  0.00000000000E+00 -0.21667967930E+03  0.12322271427E+04  0.12130266476E+04 0.  0.
        4    1    3    3  502    0  0.64841909002E+02 -0.35741435457E+03  0.38505104772E+03  0.52935377232E+03  0.12699999809E+01 0. -1.
       -4    1    3    3    0  502 -0.64841909002E+02  0.35741435457E+03 -0.60173072702E+03  0.70287337036E+03  0.12699999809E+01 0.  1.
</event>
<event>
 5   0  0.1403154E-03  0.1178979E+04  0.7818609E-02  0.9131457E-01
        1   -1    0    0  501    0  0.00000000000E+00  0.00000000000E+00  0.61532520938E+03  0.61532520940E+03  0.50400001928E-02 0.  1.
       -1   -1    0    0    0  501  0.00000000000E+00  0.00000000000E+00 -0.56473886158E+03  0.56473886160E+03  0.50400001928E-02 0. -1.
    10030    2    1    2    0    0  0.00000000000E+00  0.00000000000E+00  0.50586347804E+02  0.11800640710E+04  0.11789793183E+04 0.  0.
        3    1    3    3  502    0  0.47807169701E+03 -0.23392598705E+01  0.37048731824E+03  0.60482963122E+03  0.10100000352E+00 0.  1.
       -3    1    3    3    0  502 -0.47807169701E+03  0.23392598705E+01 -0.31990097043E+03  0.57523443978E+03  0.10100000352E+00 0. -1.
</event>
<event>
 5   0  0.9678750E-04  0.1210183E+04  0.7818609E-02  0.9103990E-01
        3   -1    0    0  501    0  0.00000000000E+00  0.00000000000E+00  0.24885437852E+03  0.24885439902E+03  0.10100000352E+00 0. -1.
       -3   -1    0    0    0  501  0.00000000000E+00  0.00000000000E+00 -0.14712838967E+04  0.14712839002E+04  0.10100000352E+00 0.  1.
    10030    2    1    2    0    0  0.00000000000E+00  0.00000000000E+00 -0.12224295182E+04  0.17201382992E+04  0.12101825653E+04 0.  0.
        5    1    3    3  502    0  0.29062190060E+02  0.46653721520E+03 -0.65113734203E+02  0.47197825420E+03  0.46999998093E+01 0. -1.
       -5    1    3    3    0  502 -0.29062190060E+02 -0.46653721520E+03 -0.11573157840E+04  0.12481600450E+04  0.46999998093E+01 0.  1.
</event>
<event>
 5   0  0.1455076E-03  0.1181719E+04  0.7818609E-02  0.9129010E-01
        1   -1    0    0  501    0  0.00000000000E+00  0.00000000000E+00  0.14126422607E+04  0.14126422607E+04  0.50400001928E-02 0.  1.
       -1   -1    0    0    0  501  0.00000000000E+00  0.00000000000E+00 -0.24713618644E+03  0.24713618649E+03  0.50400001928E-02 0. -1.
    10030    2    1    2    0    0  0.00000000000E+00  0.00000000000E+00  0.11655060743E+04  0.16597784472E+04  0.11817191226E+04 0.  0.
        4    1    3    3  502    0  0.11884535298E+03  0.53046353073E+03  0.25758439129E+03  0.60155391022E+03  0.12699999809E+01 0. -1.
       -4    1    3    3    0  502 -0.11884535298E+03 -0.53046353073E+03  0.90792168298E+03  0.10582245370E+04  0.12699999809E+01 0.  1.
</event>
<event>
 5   0  0.1423024E-03  0.1225703E+04  0.7818609E-02  0.9090652E-01
        1   -1    0    0  501    0  0.00000000000E+00  0.00000000000E+00  0.35374940462E+03  0.35374940465E+03  0.50400001928E-02 0.  1.
       -1   -1    0    0    0  501  0.00000000000E+00  0.00000000000E+00 -0.10617310881E+04  0.10617310881E+04  0.50400001928E-02 0. -1.
    10030    2    1    2    0    0  0.00000000000E+00  0.00000000000E+00 -0.70798168344E+03  0.14154804927E+04  0.12257026398E+04 0.  0.
        2    1    3    3  502    0 -0.26691854283E+03  0.43095363616E+03  0.43748073054E+02  0.50880294705E+03  0.25500000920E-02 0.  1.
       -2    1    3    3    0  502  0.26691854283E+03 -0.43095363616E+03 -0.75172975650E+03  0.90667754568E+03  0.25500000920E-02 0. -1.
</event>
<event>
 5   0  0.2580244E-03  0.1212527E+04  0.7818609E-02  0.9101962E-01
       -2   -1    0    0    0  501  0.00000000000E+00  0.00000000000E+00  0.49623093850E+03  0.49623093851E+03  0.25500000920E-02 0.  1.
        2   -1    0    0  501    0  0.00000000000E+00  0.00000000000E+00 -0.74069434067E+03  0.74069434067E+03  0.25500000920E-02 0. -1.
    10030    2    1    2    0    0  0.00000000000E+00  0.00000000000E+00 -0.24446340217E+03  0.12369252792E+04  0.12125270270E+04 0.  0.
        1    1    3    3  502    0 -0.10512823288E+03 -0.24242826570E+03  0.43439600952E+03  0.50845186839E+03  0.50400001928E-02 0.  1.
       -1    1    3    3    0  502  0.10512823288E+03  0.24242826570E+03 -0.67885941169E+03  0.72847341079E+03  0.50400001928E-02 0. -1.
</event>
<event>
 5   0  0.2484507E-03  0.1203373E+04  0.7818609E-02  0.9109910E-01
       -2   -1    0    0    0  501  0.00000000000E+00  0.00000000000E+00  0.55105360446E+03  0.55105360447E+03  0.25500000920E-02 0. -1.
        2   -1    0    0  501    0  0.00000000000E+00  0.00000000000E+00 -0.65697132415E+03  0.65697132415E+03  0.25500000920E-02 0.  1.
    10030    2    1    2    0    0  0.00000000000E+00  0.00000000000E+00 -0.10591771969E+03  0.12080249286E+04  0.12033726209E+04 0.  0.
        2    1    3    3  502    0 -0.24009863795E+03 -0.29099709145E+03  0.41757464638E+03  0.56275682890E+03  0.25500000920E-02 0. -1.
       -2    1    3    3    0  502  0.24009863795E+03  0.29099709145E+03 -0.52349236606E+03  0.64526809971E+03  0.25500000920E-02 0.  1.
</event>
<event>
 5   0  0.2517023E-03  0.1184342E+04  0.7818609E-02  0.9126674E-01
        2   -1    0    0  501    0  0.00000000000E+00  0.00000000000E+00  0.68956942542E+03  0.68956942543E+03  0.25500000920E-02 0.  1.
       -2   -1    0    0    0  501  0.00000000000E+00  0.00000000000E+00 -0.50852922438E+03  0.50852922438E+03  0.25500000920E-02 0. -1.
    10030    2    1    2    0    0  0.00000000000E+00  0.00000000000E+00  0.18104020105E+03  0.11980986498E+04  0.11843415134E+04 0.  0.
        3    1    3    3  502    0 -0.38832366535E+03 -0.39157803118E+03  0.30875162359E+03  0.63202547325E+03  0.10100000352E+00 0.  1.
       -3    1    3    3    0  502  0.38832366535E+03  0.39157803118E+03 -0.12771142254E+03  0.56607317656E+03  0.10100000352E+00 0. -1.
</event>
<event>
 5   0  0.2499890E-03  0.1206879E+04  0.7818609E-02  0.9106856E-01
        2   -1    0    0  501    0  0.00000000000E+00  0.00000000000E+00  0.10905597502E+04  0.10905597502E+04  0.25500000920E-02 0. -1.
       -2   -1    0    0    0  501  0.00000000000E+00  0.00000000000E+00 -0.33390147752E+03  0.33390147753E+03  0.25500000920E-02 0.  1.
    10030    2    1    2    0    0  0.00000000000E+00  0.00000000000E+00  0.75665827270E+03  0.14244612277E+04  0.12068794669E+04 0.  0.
        5    1    3    3  502    0  0.34074589946E+03  0.79023930731E+02  0.95867024347E+03  0.10205014823E+04  0.46999998093E+01 0. -1.
       -5    1    3    3    0  502 -0.34074589946E+03 -0.79023930731E+02 -0.20201197077E+03  0.40395974547E+03  0.46999998093E+01 0.  1.
</event>
<event>
 5   0  0.1469851E-03  0.1197083E+04  0.7818609E-02  0.9115413E-01
       -1   -1    0    0    0  501  0.00000000000E+00  0.00000000000E+00  0.18450766833E+03  0.18450766840E+03  0.50400001928E-02 0.  1.
        1   -1    0    0  501    0  0.00000000000E+00  0.00000000000E+00 -0.19416650680E+04  0.19416650680E+04  0.50400001928E-02 0. -1.
    10030    2    1    2    0    0  0.00000000000E+00  0.00000000000E+00 -0.17571573997E+04  0.21261727364E+04  0.11970832794E+04 0.  0.
        5    1    3    3  502    0 -0.67439677974E+02 -0.39963803799E+03 -0.16608239870E+04  0.17095663419E+04  0.46999998093E+01 0. -1.
       -5    1    3    3    0  502  0.67439677974E+02  0.39963803799E+03 -0.96333412713E+02  0.41660639455E+03  0.46999998093E+01 0.  1.
</event>
<event>
 5   0  0.1423024E-03  0.1209337E+04  0.7818609E-02  0.9104723E-01
       -1   -1    0    0    0  501  0.00000000000E+00  0.00000000000E+00  0.24692891430E+03  0.24692891435E+03  0.50400001928E-02 0.  1.
        1   -1    0    0  501    0  0.00000000000E+00  0.00000000000E+00 -0.14806843301E+04  0.14806843301E+04  0.50400001928E-02 0. -1.
    10030    2    1    2    0    0  0.00000000000E+00  0.00000000000E+00 -0.12337554158E+04  0.17276132445E+04  0.12093366349E+04 0.  0.
        2    1    3    3  502    0 -0.28498859121E+03 -0.43162762849E+03 -0.10643232299E+04  0.11833447699E+04  0.25500000920E-02 0. -1.
       -2    1    3    3    0  502  0.28498859121E+03  0.43162762849E+03 -0.16943218596E+03  0.54426847460E+03  0.25500000920E-02 0.  1.
</event>
<event>
 5   0  0.1469851E-03  0.1182566E+04  0.7818609E-02  0.9128255E-01
        1   -1    0    0  501    0  0.00000000000E+00  0.00000000000E+00  0.82042896706E+03  0.82042896707E+03  0.50400001928E-02 0.  1.
       -1   -1    0    0    0  501  0.00000000000E+00  0.00000000000E+00 -0.42613764012E+03  0.42613764015E+03  0.50400001928E-02 0. -1.
    10030    2    1    2    0    0  0.00000000000E+00  0.00000000000E+00  0.39429132693E+03  0.12465666072E+04  0.11825661317E+04 0.  0.
        5    1    3    3  502    0  0.21009690205E+03 -0.53310108629E+03  0.35083078282E+03  0.67189419154E+03  0.46999998093E+01 0.  1.
       -5    1    3    3    0  502 -0.21009690205E+03  0.53310108629E+03  0.43460544109E+02  0.57467241568E+03  0.46999998093E+01 0. -1.
</event>
<event>
 5   0  0.2484507E-03  0.1193125E+04  0.7818609E-02  0.9118896E-01
       -2   -1    0    0    0  501  0.00000000000E+00  0.00000000000E+00  0.10707504068E+04  0.10707504068E+04  0.25500000920E-02 0.  1.
        2   -1    0    0  501    0  0.00000000000E+00  0.00000000000E+00 -0.33237126912E+03  0.33237126913E+03  0.25500000920E-02 0. -1.
    10030    2    1    2    0    0  0.00000000000E+00  0.00000000000E+00  0.73837913766E+03  0.14031216759E+04  0.11931247573E+04 0.  0.
        2    1    3    3  502    0 -0.31178527171E+03  0.26498633114E+03 -0.14133630410E+03  0.43290156180E+03  0.25500000920E-02 0. -1.
       -2    1    3    3    0  502  0.31178527171E+03 -0.26498633114E+03  0.87971544175E+03  0.97022011410E+03  0.25500000920E-02 0.  1.
</event>
<event>
 5   0  0.2580244E-03  0.1216748E+04  0.7818609E-02  0.9098322E-01
        2   -1    0    0  501    0  0.00000000000E+00  0.00000000000E+00  0.18501654594E+04  0.18501654594E+04  0.25500000920E-02 0. -1.
       -2   -1    0    0    0  501  0.00000000000E+00  0.00000000000E+00 -0.20004629392E+03  0.20004629394E+03  0.25500000920E-02 0.  1.
    10030    2    1    2    0    0  0.00000000000E+00  0.00000000000E+00  0.16501191654E+04  0.20502117533E+04  0.12167477032E+04 0.  0.
        1    1    3    3  502    0 -0.70915378020E+02 -0.58037641660E+03  0.11082836914E+04  0.12530596619E+04  0.50400001928E-02 0.  1.
       -1    1    3    3    0  502  0.70915378020E+02  0.58037641660E+03  0.54183547407E+03  0.79715209137E+03  0.50400001928E-02 0. -1.
</event>
<event>
 5   0  0.2580244E-03  0.1183624E+04  0.7818609E-02  0.9127312E-01
        2   -1    0    0  501    0  0.00000000000E+00  0.00000000000E+00  0.15721021045E+04  0.15721021045E+04  0.25500000920E-02 0. -1.
       -2   -1    0    0    0  501  0.00000000000E+00  0.00000000000E+00 -0.22278547488E+03  0.22278547489E+03  0.25500000920E-02 0.  1.
    10030    2    1    2    0    0  0.00000000000E+00  0.00000000000E+00  0.13493166296E+04  0.17948875794E+04  0.11836241193E+04 0.  0.
        1    1    3    3  502    0 -0.38307642699E+03 -0.30941264542E+03  0.11724501435E+04  0.12716615403E+04  0.50400001928E-02 0. -1.
       -1    1    3    3    0  502  0.38307642699E+03  0.30941264542E+03  0.17686648614E+03  0.52322603911E+03  0.50400001928E-02 0.  1.
</event>
<event>
 5   0  0.2517023E-03  0.1204660E+04  0.7818609E-02  0.9108788E-01
        2   -1    0    0  501    0  0.00000000000E+00  0.00000000000E+00  0.50582004496E+03  0.50582004497E+03  0.25500000920E-02 0. -1.
       -2   -1    0    0    0  501  0.00000000000E+00  0.00000000000E+00 -0.71725369054E+03  0.71725369055E+03  0.25500000920E-02 0.  1.
    10030    2    1    2    0    0  0.00000000000E+00  0.00000000000E+00 -0.21143364559E+03  0.12230737355E+04  0.12046597760E+04 0.  0.
        3    1    3    3  502    0  0.17473153912E+03  0.30301688444E+03  0.39213656999E+03  0.52547258991E+03  0.10100000352E+00 0. -1.
       -3    1    3    3    0  502 -0.17473153912E+03 -0.30301688444E+03 -0.60357021558E+03  0.69760114561E+03  0.10100000352E+00 0.  1.
</event>
<event>
 5   0  0.1455076E-03  0.1206631E+04  0.7818609E-02  0.9107072E-01
       -1   -1    0    0    0  501  0.00000000000E+00  0.00000000000E+00  0.44832821291E+03  0.44832821293E+03  0.50400001928E-02 0. -1.
        1   -1    0    0  501    0  0.00000000000E+00  0.00000000000E+00 -0.81188258683E+03  0.81188258685E+03  0.50400001928E-02 0.  1.
    10030    2    1    2    0    0  0.00000000000E+00  0.00000000000E+00 -0.36355437393E+03  0.12602107998E+04  0.12066314587E+04 0.  0.
        4    1    3    3  502    0 -0.46500780022E+03 -0.24616643394E+03 -0.49011188681E+03  0.71905593799E+03  0.12699999809E+01 0.  1.
       -4    1    3    3    0  502  0.46500780022E+03  0.24616643394E+03  0.12655751289E+03  0.54115486179E+03  0.12699999809E+01 0. -1.
</event>
<event>
 5   0  0.2517023E-03  0.1204866E+04  0.7818609E-02  0.9108608E-01
       -2   -1    0    0    0  501  0.00000000000E+00  0.00000000000E+00  0.34824624066E+03  0.34824624067E+03  0.25500000920E-02 0.  1.
        2   -1    0    0  501    0  0.00000000000E+00  0.00000000000E+00 -0.10421523773E+04  0.10421523773E+04  0.25500000920E-02 0. -1.
    10030    2    1    2    0    0  0.00000000000E+00  0.00000000000E+00 -0.69390613664E+03  0.13903986180E+04  0.12048662126E+04 0.  0.
        3    1    3    3  502    0 -0.41278563548E+03 -0.26925038068E+03  0.52862477212E+02  0.49566339390E+03  0.10100000352E+00 0. -1.
       -3    1    3    3    0  502  0.41278563548E+03  0.26925038068E+03 -0.74676861385E+03  0.89473522407E+03  0.10100000352E+00 0.  1.
</event>
<event>
 5   0  0.1423024E-03  0.1206544E+04  0.7818609E-02  0.9107148E-01
        1   -1    0    0  501    0  0.00000000000E+00  0.00000000000E+00  0.58602095387E+03  0.58602095389E+03  0.50400001928E-02 0.  1.
       -1   -1    0    0    0  501  0.00000000000E+00  0.00000000000E+00 -0.62103077999E+03  0.62103078002E+03  0.50400001928E-02 0. -1.
    10030    2    1    2    0    0  0.00000000000E+00  0.00000000000E+00 -0.35009826123E+02  0.12070517339E+04  0.12065439074E+04 0.  0.
        2    1    3    3  502    0 -0.47141849833E+02 -0.29930016229E+02 -0.61843975713E+03  0.62095562892E+03  0.25500000920E-02 0. -1.
       -2    1    3    3    0  502  0.47141849833E+02  0.29930016229E+02  0.58342993101E+03  0.58609610499E+03  0.25500000920E-02 0.  1.
</event>
<event>
 5   0  0.2499890E-03  0.1176819E+04  0.7818609E-02  0.9133392E-01
       -2   -1    0    0    0  501  0.00000000000E+00  0.00000000000E+00  0.16234042368E+03  0.16234042370E+03  0.25500000920E-02 0. -1.
        2   -1    0    0  501    0  0.00000000000E+00  0.00000000000E+00 -0.21327160195E+04  0.21327160195E+04  0.25500000920E-02 0.  1.
    10030    2    1    2    0    0  0.00000000000E+00  0.00000000000E+00 -0.19703755959E+04  0.22950564432E+04  0.11768194802E+04 0.  0.
        5    1    3    3  502    0  0.53245762558E+03 -0.23877776068E+03 -0.11321416047E+04  0.12736925238E+04  0.46999998093E+01 0.  1.
       -5    1    3    3    0  502 -0.53245762558E+03  0.23877776068E+03 -0.83823399118E+03  0.10213639195E+04  0.46999998093E+01 0. -1.
</event>
<event>
 5   0  0.2517023E-03  0.1198274E+04  0.7818609E-02  0.9114369E-01
        2   -1    0    0  501    0  0.00000000000E+00  0.00000000000E+00  0.34741591385E+03  0.34741591386E+03  0.25500000920E-02 0.  1.
       -2   -1    0    0    0  501  0.00000000000E+00  0.00000000000E+00 -0.10332426457E+04  0.10332426457E+04  0.25500000920E-02 0. -1.
    10030    2    1    2    0    0  0.00000000000E+00  0.00000000000E+00 -0.68582673186E+03  0.13806585596E+04  0.11982736549E+04 0.  0.
        3    1    3    3  502    0 -0.78382300797E+02  0.39388317524E+03 -0.85519472706E+03  0.94479932907E+03  0.10100000352E+00 0. -1.
       -3    1    3    3    0  502  0.78382300797E+02 -0.39388317524E+03  0.16936799519E+03  0.43585923050E+03  0.10100000352E+00 0.  1.
</event>
<event>
 5   0  0.1423024E-03  0.1203695E+04  0.7818609E-02  0.9109628E-01
        1   -1    0    0  501    0  0.00000000000E+00  0.00000000000E+00  0.48200700572E+03  0.48200700575E+03  0.50400001928E-02 0. -1.
       -1   -1    0    0    0  501  0.00000000000E+00  0.00000000000E+00 -0.75148405003E+03  0.75148405004E+03  0.50400001928E-02 0.  1.
    10030    2    1    2    0    0  0.00000000000E+00  0.00000000000E+00 -0.26947704431E+03  0.12334910558E+04  0.12036952718E+04 0.  0.
        2    1    3    3  502    0  0.12722029063E+03 -0.55774572040E+01  0.46804351599E+03  0.48505756694E+03  0.25500000920E-02 0. -1.
       -2    1    3    3    0  502 -0.12722029063E+03  0.55774572040E+01 -0.73752056030E+03  0.74843348886E+03  0.25500000920E-02 0.  1.
</event>
<event>
 5   0  0.1423024E-03  0.1235586E+04  0.7818609E-02  0.9082266E-01
       -1   -1    0    0    0  501  0.00000000000E+00  0.00000000000E+00  0.39823732511E+03  0.39823732515E+03  0.50400001928E-02 0.  1.
        1   -1    0    0  501    0  0.00000000000E+00  0.00000000000E+00 -0.95839366455E+03  0.95839366456E+03  0.50400001928E-02 0. -1.
    10030    2    1    2    0    0  0.00000000000E+00  0.00000000000E+00 -0.56015633943E+03  0.13566309897E+04  0.12355859005E+04 0.  0.
        2    1    3    3  502    0 -0.27408706168E+03  0.21915729243E+03  0.27817505149E+03  0.44781133916E+03  0.25500000920E-02 0.  1.
       -2    1    3    3    0  502  0.27408706168E+03 -0.21915729243E+03 -0.83833139092E+03  0.90881965054E+03  0.25500000920E-02 0. -1.
</event>
<event>
 5   0  0.1469851E-03  0.1202584E+04  0.7818609E-02  0.9110598E-01
        1   -1    0    0  501    0  0.00000000000E+00  0.00000000000E+00  0.55116835174E+03  0.55116835176E+03  0.50400001928E-02 0. -1.
       -1   -1    0    0    0  501  0.00000000000E+00  0.00000000000E+00 -0.65597424849E+03  0.65597424851E+03  0.50400001928E-02 0.  1.
    10030    2    1    2    0    0  0.00000000000E+00  0.00000000000E+00 -0.10480589675E+03  0.12071426003E+04  0.12025842928E+04 0.  0.
        5    1    3    3  502    0  0.11123620928E+03 -0.58265545739E+03 -0.15110816292E+03  0.61214103210E+03  0.46999998093E+01 0.  1.
       -5    1    3    3    0  502 -0.11123620928E+03  0.58265545739E+03  0.46302266174E+02  0.59500156818E+03  0.46999998093E+01 0. -1.
</event>
<event>
 5   0  0.2484507E-03  0.1190087E+04  0.7818609E-02  0.9121578E-01
       -2   -1    0    0    0  501  0.00000000000E+00  0.00000000000E+00  0.25956051875E+03  0.25956051876E+03  0.25500000920E-02 0.  1.
        2   -1    0    0  501    0  0.00000000000E+00  0.00000000000E+00 -0.13641401171E+04  0.13641401171E+04  0.25500000920E-02 0. -1.
    10030    2    1    2    0    0  0.00000000000E+00  0.00000000000E+00 -0.11045795983E+04  0.16237006359E+04  0.11900872513E+04 0.  0.
        2    1    3    3  502    0  0.59183166319E+03 -0.61477343482E+02 -0.56009590122E+03  0.81716069404E+03  0.25500000920E-02 0.  1.
       -2    1    3    3    0  502 -0.59183166319E+03  0.61477343482E+02 -0.54448369713E+03  0.80653994182E+03  0.25500000920E-02 0. -1.
</event>
<event>
 5   0  0.2484507E-03  0.1157702E+04  0.7818609E-02  0.9150707E-01
        2   -1    0    0  501    0  0.00000000000E+00  0.00000000000E+00  0.88122590966E+03  0.88122590966E+03  0.25500000920E-02 0. -1.
       -2   -1    0    0    0  501  0.00000000000E+00  0.00000000000E+00 -0.38022992047E+03  0.38022992047E+03  0.25500000920E-02 0.  1.
    10030    2    1    2    0    0  0.00000000000E+00  0.00000000000E+00  0.50099598919E+03  0.12614558301E+04  0.11577019609E+04 0.  0.
        2    1    3    3  502    0  0.28691662504E+03 -0.11460597274E+03 -0.28287407192E+03  0.41889547537E+03  0.25500000920E-02 0.  1.
       -2    1    3    3    0  502 -0.28691662504E+03  0.11460597274E+03  0.78387006112E+03  0.84256035477E+03  0.25500000920E-02 0. -1.
</event>
<event>
 5   0  0.1403154E-03  0.1222998E+04  0.7818609E-02  0.9092961E-01
        1   -1    0    0  501    0  0.00000000000E+00  0.00000000000E+00  0.18565500639E+04  0.18565500639E+04  0.50400001928E-02 0. -1.
       -1   -1    0    0    0  501  0.00000000000E+00  0.00000000000E+00 -0.20141190708E+03  0.20141190714E+03  0.50400001928E-02 0.  1.
    10030    2    1    2    0    0  0.00000000000E+00  0.00000000000E+00  0.16551381568E+04  0.20579619710E+04  0.12229984285E+04 0.  0.
        3    1    3    3  502    0  0.20579243789E+03 -0.47075156638E+03  0.26954120495E+03  0.58018103736E+03  0.10100000352E+00 0.  1.
       -3    1    3    3    0  502 -0.20579243789E+03  0.47075156638E+03  0.13855969518E+04  0.14777809337E+04  0.10100000352E+00 0. -1.
</event>
<event>
 5   0  0.2579442E-03  0.1197073E+04  0.7818609E-02  0.9115422E-01
       -2   -1    0    0    0  501  0.00000000000E+00  0.00000000000E+00  0.44836733332E+03  0.44836733332E+03  0.25500000920E-02 0.  1.
        2   -1    0    0  501    0  0.00000000000E+00  0.00000000000E+00 -0.79900111034E+03  0.79900111034E+03  0.25500000920E-02 0. -1.
    10030    2    1    2    0    0  0.00000000000E+00  0.00000000000E+00 -0.35063377702E+03  0.12473684437E+04  0.11970730925E+04 0.  0.
        4    1    3    3  502    0 -0.36149090931E+03  0.44681615507E+03 -0.11910846403E+01  0.57473766671E+03  0.12699999809E+01 0.  1.
       -4    1    3    3    0  502  0.36149090931E+03 -0.44681615507E+03 -0.34944269238E+03  0.67263077696E+03  0.12699999809E+01 0. -1.
</event>
<event>
 5   0  0.1404833E-03  0.1211982E+04  0.7818609E-02  0.9102433E-01
        1   -1    0    0  501    0  0.00000000000E+00  0.00000000000E+00  0.14121396504E+04  0.14121396504E+04  0.50400001928E-02 0.  1.
       -1   -1    0    0    0  501  0.00000000000E+00  0.00000000000E+00 -0.26004870025E+03  0.26004870030E+03  0.50400001928E-02 0. -1.
    10030    2    1    2    0    0  0.00000000000E+00  0.00000000000E+00  0.11520909502E+04  0.16721883507E+04  0.12119819813E+04 0.  0.
        1    1    3    3  502    0  0.11625580871E+02 -0.20492645134E+03  0.13627184418E+04  0.13780898216E+04  0.50400001928E-02 0.  1.
       -1    1    3    3    0  502 -0.11625580871E+02  0.20492645134E+03 -0.21062749166E+03  0.29409852916E+03  0.50400001928E-02 0. -1.
</event>
<event>
 5   0  0.2484507E-03  0.1205277E+04  0.7818609E-02  0.9108250E-01
        2   -1    0    0  501    0  0.00000000000E+00  0.00000000000E+00  0.23714619113E+04  0.23714619113E+04  0.25500000920E-02 0. -1.
       -2   -1    0    0    0  501  0.00000000000E+00  0.00000000000E+00 -0.15314316686E+03  0.15314316688E+03  0.25500000920E-02 0.  1.
    10030    2    1    2    0    0  0.00000000000E+00  0.00000000000E+00  0.22183187445E+04  0.25246050782E+04  0.12052770424E+04 0.  0.
        2    1    3    3  502    0  0.48038879140E+03 -0.33013307624E+03  0.14296573880E+04  0.15439175774E+04  0.25500000920E-02 0. -1.
       -2    1    3    3    0  502 -0.48038879140E+03  0.33013307624E+03  0.78866135651E+03  0.98068750078E+03  0.25500000920E-02 0.  1.
</event>
<event>
 5   0  0.1403154E-03  0.1201915E+04  0.7818609E-02  0.9111182E-01
       -1   -1    0    0    0  501  0.00000000000E+00  0.00000000000E+00  0.49941605223E+03  0.49941605226E+03  0.50400001928E-02 0.  1.
        1   -1    0    0  501    0  0.00000000000E+00  0.00000000000E+00 -0.72314385440E+03  0.72314385442E+03  0.50400001928E-02 0. -1.
    10030    2    1    2    0    0  0.00000000000E+00  0.00000000000E+00 -0.22372780217E+03  0.12225599067E+04  0.12019145543E+04 0.  0.
        3    1    3    3  502    0  0.29367034717E+03  0.52406804395E+03 -0.12826700576E+03  0.61428171263E+03  0.10100000352E+00 0. -1.
       -3    1    3    3    0  502 -0.29367034717E+03 -0.52406804395E+03 -0.95460796414E+02  0.60827819405E+03  0.10100000352E+00 0.  1.
</event>
<event>
 5   0  0.2580244E-03  0.1202208E+04  0.7818609E-02  0.9110926E-01
        2   -1    0    0  501    0  0.00000000000E+00  0.00000000000E+00  0.10391506288E+04  0.10391506288E+04  0.25500000920E-02 0. -1.
       -2   -1    0    0    0  501  0.00000000000E+00  0.00000000000E+00 -0.34771295445E+03  0.34771295446E+03  0.25500000920E-02 0.  1.
    10030    2    1    2    0    0  0.00000000000E+00  0.00000000000E+00  0.69143767436E+03  0.13868635833E+04  0.12022081937E+04 0.  0.
        1    1    3    3  502    0  0.48032371553E+03 -0.29791279475E+03  0.10968708567E+03  0.57575529677E+03  0.50400001928E-02 0.  1.
       -1    1    3    3    0  502 -0.48032371553E+03  0.29791279475E+03  0.58175058870E+03  0.81110828651E+03  0.50400001928E-02 0. -1.
</event>
<event>
 5   0  0.2499890E-03  0.1207020E+04  0.7818609E-02  0.9106734E-01
       -2   -1    0    0    0  501  0.00000000000E+00  0.00000000000E+00  0.92589231925E+03  0.92589231925E+03  0.25500000920E-02 0.  1.
        2   -1    0    0  501    0  0.00000000000E+00  0.00000000000E+00 -0.39337624878E+03  0.39337624879E+03  0.25500000920E-02 0. -1.
    10030    2    1    2    0    0  0.00000000000E+00  0.00000000000E+00  0.53251607047E+03  0.13192685680E+04  0.12070195480E+04 0.  0.
        5    1    3    3  502    0  0.60215141796E+03 -0.29940307822E+02  0.23694604514E+03  0.64780264780E+03  0.46999998093E+01 0. -1.
       -5    1    3    3    0  502 -0.60215141796E+03  0.29940307822E+02  0.29557002532E+03  0.67146592025E+03  0.46999998093E+01 0.  1.
</event>
<event>
 5   0  0.1404833E-03  0.1190601E+04  0.7818609E-02  0.9121123E-01
        1   -1    0    0  501    0  0.00000000000E+00  0.00000000000E+00  0.19018887436E+04  0.19018887436E+04  0.50400001928E-02 0.  1.
       -1   -1    0    0    0  501  0.00000000000E+00  0.00000000000E+00 -0.18633205184E+03  0.18633205190E+03  0.50400001928E-02 0. -1.
    10030    2    1    2    0    0  0.00000000000E+00  0.00000000000E+00  0.17155566918E+04  0.20882207955E+04  0.11906012465E+04 0.  0.
        1    1    3    3  502    0 -0.20233385072E+03 -0.43564743293E+03  0.24101834035E+03  0.53741744796E+03  0.50400001928E-02 0. -1.
       -1    1    3    3    0  502  0.20233385072E+03  0.43564743293E+03  0.14745383514E+04  0.15508033476E+04  0.50400001928E-02 0.  1.
</event>
<event>
 5   0  0.1455076E-03  0.1179488E+04  0.7818609E-02  0.9131003E-01
       -1   -1    0    0    0  501  0.00000000000E+00  0.00000000000E+00  0.98342886501E+03  0.98342886502E+03  0.50400001928E-02 0.  1.
        1   -1    0    0  501    0  0.00000000000E+00  0.00000000000E+00 -0.35365830746E+03  0.35365830749E+03  0.50400001928E-02 0. -1.
    10030    2    1    2    0    0  0.00000000000E+00  0.00000000000E+00  0.62977055756E+03  0.13370871725E+04  0.11794876649E+04 0.  0.
        4    1    3    3  502    0 -0.10673091516E+03  0.85612481751E+02 -0.33541492361E+03  0.36225097538E+03  0.12699999809E+01 0. -1.
       -4    1    3    3    0  502  0.10673091516E+03 -0.85612481751E+02  0.96518548117E+03  0.97483619713E+03  0.12699999809E+01 0.  1.
</event>
<event>
 5   0  0.1455076E-03  0.1205749E+04  0.7818609E-02  0.9107839E-01
        1   -1    0    0  501    0  0.00000000000E+00  0.00000000000E+00  0.41718448247E+03  0.41718448250E+03  0.50400001928E-02 0. -1.
       -1   -1    0    0    0  501  0.00000000000E+00  0.00000000000E+00 -0.87121621175E+03  0.87121621176E+03  0.50400001928E-02 0.  1.
    10030    2    1    2    0    0  0.00000000000E+00  0.00000000000E+00 -0.45403172928E+03  0.12884006943E+04  0.12057493677E+04 0.  0.
        4    1    3    3  502    0  0.18130649825E+03  0.53161329198E+03  0.70217731786E+01  0.56172560624E+03  0.12699999809E+01 0. -1.
       -4    1    3    3    0  502 -0.18130649825E+03 -0.53161329198E+03 -0.46105350246E+03  0.72667508801E+03  0.12699999809E+01 0.  1.
</event>
<event>
 5   0  0.2484507E-03  0.1190461E+04  0.7818609E-02  0.9121247E-01
       -2   -1    0    0    0  501  0.00000000000E+00  0.00000000000E+00  0.44392787687E+03  0.44392787688E+03  0.25500000920E-02 0.  1.
        2   -1    0    0  501    0  0.00000000000E+00  0.00000000000E+00 -0.79810160653E+03  0.79810160653E+03  0.25500000920E-02 0. -1.
    10030    2    1    2    0    0  0.00000000000E+00  0.00000000000E+00 -0.35417372966E+03  0.12420294834E+04  0.11904613420E+04 0.  0.
        2    1    3    3  502    0  0.28602208357E+03 -0.24932911788E+03  0.30139226207E+03  0.48457294286E+03  0.25500000920E-02 0.  1.
       -2    1    3    3    0  502 -0.28602208357E+03  0.24932911788E+03 -0.65556599173E+03  0.75745654055E+03  0.25500000920E-02 0. -1.
</event>
<event>
 5   0  0.2484507E-03  0.1194528E+04  0.7818609E-02  0.9117660E-01
        2   -1    0    0  501    0  0.00000000000E+00  0.00000000000E+00  0.49781552345E+03  0.49781552345E+03  0.25500000920E-02 0.  1.
       -2   -1    0    0    0  501  0.00000000000E+00  0.00000000000E+00 -0.71657933502E+03  0.71657933502E+03  0.25500000920E-02 0. -1.
    10030    2    1    2    0    0  0.00000000000E+00  0.00000000000E+00 -0.21876381157E+03  0.12143948585E+04  0.11945280520E+04 0.  0.
        2    1    3    3  502    0 -0.29094191577E+03 -0.33851262042E+03  0.29406370038E+03  0.53451983352E+03  0.25500000920E-02 0.  1.
       -2    1    3    3    0  502  0.29094191577E+03  0.33851262042E+03 -0.51282751195E+03  0.67987502496E+03  0.25500000920E-02 0. -1.
</event>
<event>
 5   0  0.2579442E-03  0.1189530E+04  0.7818609E-02  0.9122071E-01
       -2   -1    0    0    0  501  0.00000000000E+00  0.00000000000E+00  0.14962100395E+03  0.14962100397E+03  0.25500000920E-02 0.  1.
        2   -1    0    0  501    0  0.00000000000E+00  0.00000000000E+00 -0.23642765518E+04  0.23642765518E+04  0.25500000920E-02 0. -1.
    10030    2    1    2    0    0  0.00000000000E+00  0.00000000000E+00 -0.22146555478E+04  0.25138975558E+04  0.11895300439E+04 0.  0.
        4    1    3    3  502    0 -0.17701374242E+03  0.50971093809E+03 -0.57854697735E+03  0.79111144810E+03  0.12699999809E+01 0.  1.
       -4    1    3    3    0  502  0.17701374242E+03 -0.50971093809E+03 -0.16361085705E+04  0.17227861077E+04  0.12699999809E+01 0. -1.
</event>
<event>
 5   0  0.2499890E-03  0.1204257E+04  0.7818609E-02  0.9109138E-01
       -2   -1    0    0    0  501  0.00000000000E+00  0.00000000000E+00  0.22148559592E+03  0.22148559593E+03  0.25500000920E-02 0.  1.
        2   -1    0    0  501    0  0.00000000000E+00  0.00000000000E+00 -0.16369408269E+04  0.16369408269E+04  0.25500000920E-02 0. -1.
    10030    2    1    2    0    0  0.00000000000E+00  0.00000000000E+00 -0.14154552309E+04  0.18584264228E+04  0.12042571396E+04 0.  0.
        5    1    3    3  502    0 -0.21328123452E+03  0.12893574833E+03  0.13812175258E+03  0.28497898296E+03  0.46999998093E+01 0.  1.
       -5    1    3    3    0  502  0.21328123452E+03 -0.12893574833E+03 -0.15535769835E+04  0.15734474398E+04  0.46999998093E+01 0. -1.
</event>
<event>
 5   0  0.2484507E-03  0.1199565E+04  0.7818609E-02  0.9113237E-01
       -2   -1    0    0    0  501  0.00000000000E+00  0.00000000000E+00  0.23979788855E+03  0.23979788857E+03  0.25500000920E-02 0.  1.
        2   -1    0    0  501    0  0.00000000000E+00  0.00000000000E+00 -0.15001757452E+04  0.15001757452E+04  0.25500000920E-02 0. -1.
    10030    2    1    2    0    0  0.00000000000E+00  0.00000000000E+00 -0.12603778566E+04  0.17399736338E+04  0.11995648814E+04 0.  0.
        2    1    3    3  502    0 -0.41459449607E+03  0.23316476611E+03 -0.10023945979E+03  0.48610940500E+03  0.25500000920E-02 0.  1.
       -2    1    3    3    0  502  0.41459449607E+03 -0.23316476611E+03 -0.11601383968E+04  0.12538642288E+04  0.25500000920E-02 0. -1.
</event>
<event>
 5   0  0.2580244E-03  0.1248354E+04  0.7818609E-02  0.9071555E-01
        2   -1    0    0  501    0  0.00000000000E+00  0.00000000000E+00  0.70509520241E+03  0.70509520241E+03  0.25500000920E-02 0. -1.
       -2   -1    0    0    0  501  0.00000000000E+00  0.00000000000E+00 -0.55254476171E+03  0.55254476172E+03  0.25500000920E-02 0.  1.
    10030    2    1    2    0    0  0.00000000000E+00  0.00000000000E+00  0.15255044070E+03  0.12576399641E+04  0.12483535727E+04 0.  0.
        1    1    3    3  502    0  0.22458621741E+03 -0.43134345197E+03 -0.31791609424E+03  0.58100497899E+03  0.50400001928E-02 0.  1.
       -1    1    3    3    0  502 -0.22458621741E+03  0.43134345197E+03  0.47046653494E+03  0.67663498515E+03  0.50400001928E-02 0. -1.
</event>
<event>
 5   0  0.2579442E-03  0.1166982E+04  0.7818609E-02  0.9142258E-01
        2   -1    0    0  501    0  0.00000000000E+00  0.00000000000E+00  0.73537604327E+03  0.73537604327E+03  0.25500000920E-02 0.  1.
       -2   -1    0    0    0  501  0.00000000000E+00  0.00000000000E+00 -0.46297652536E+03  0.46297652537E+03  0.25500000920E-02 0. -1.
    10030    2    1    2    0    0  0.00000000000E+00  0.00000000000E+00  0.27239951791E+03  0.11983525686E+04  0.11669821684E+04 0.  0.
        4    1    3    3  502    0  0.43228088919E+03 -0.81947173471E+02  0.52974888523E+03  0.68863459156E+03  0.12699999809E+01 0.  1.
       -4    1    3    3    0  502 -0.43228088919E+03  0.81947173471E+02 -0.25734936732E+03  0.50971797708E+03  0.12699999809E+01 0. -1.
</event>
<event>
 5   0  0.2579442E-03  0.1197624E+04  0.7818609E-02  0.9114939E-01
        2   -1    0    0  501    0  0.00000000000E+00  0.00000000000E+00  0.50812673226E+03  0.50812673227E+03  0.25500000920E-02 0.  1.
       -2   -1    0    0    0  501  0.00000000000E+00  0.00000000000E+00 -0.70568203767E+03  0.70568203767E+03  0.25500000920E-02 0. -1.
    10030    2    1    2    0    0  0.00000000000E+00  0.00000000000E+00 -0.19755530540E+03  0.12138087699E+04  0.11976241611E+04 0.  0.
        4    1    3    3  502    0 -0.17014847228E+03  0.26266216599E+03  0.41864317460E+03  0.52269076575E+03  0.12699999809E+01 0.  1.
       -4    1    3    3    0  502  0.17014847228E+03 -0.26266216599E+03 -0.61619848001E+03  0.69111800419E+03  0.12699999809E+01 0. -1.
</event>
<event>
 5   0  0.2499890E-03  0.1201257E+04  0.7818609E-02  0.9111757E-01
       -2   -1    0    0    0  501  0.00000000000E+00  0.00000000000E+00  0.35417875252E+03  0.35417875252E+03  0.25500000920E-02 0.  1.
        2   -1    0    0  501    0  0.00000000000E+00  0.00000000000E+00 -0.10185657669E+04  0.10185657669E+04  0.25500000920E-02 0. -1.
    10030    2    1    2    0    0  0.00000000000E+00  0.00000000000E+00 -0.66438701434E+03  0.13727445194E+04  0.12012565965E+04 0.  0.
        5    1    3    3  502    0 -0.19348978439E+03  0.53972201394E+03 -0.53659731156E+03  0.78530052450E+03  0.46999998093E+01 0. -1.
       -5    1    3    3    0  502  0.19348978439E+03 -0.53972201394E+03 -0.12778970278E+03  0.58744399489E+03  0.46999998093E+01 0.  1.
</event>
<event>
 5   0  0.1423024E-03  0.1194272E+04  0.7818609E-02  0.9117885E-01
       -1   -1    0    0    0  501  0.00000000000E+00  0.00000000000E+00  0.23556176276E+03  0.23556176281E+03  0.50400001928E-02 0. -1.
        1   -1    0    0  501    0  0.00000000000E+00  0.00000000000E+00 -0.15137062844E+04  0.15137062844E+04  0.50400001928E-02 0.  1.
    10030    2    1    2    0    0  0.00000000000E+00  0.00000000000E+00 -0.12781445216E+04  0.17492680472E+04  0.11942718630E+04 0.  0.
        2    1    3    3  502    0 -0.27787807130E+03 -0.35575993378E+03 -0.12116053378E+04  0.12929690049E+04  0.25500000920E-02 0.  1.
       -2    1    3    3    0  502  0.27787807130E+03  0.35575993378E+03 -0.66539183773E+02  0.45629904227E+03  0.25500000920E-02 0. -1.
</event>
<event>
 5   0  0.2499890E-03  0.1223336E+04  0.7818609E-02  0.9092672E-01
        2   -1    0    0  501    0  0.00000000000E+00  0.00000000000E+00  0.13299592096E+04  0.13299592096E+04  0.25500000920E-02 0. -1.
       -2   -1    0    0    0  501  0.00000000000E+00  0.00000000000E+00 -0.28131540448E+03  0.28131540449E+03  0.25500000920E-02 0.  1.
    10030    2    1    2    0    0  0.00000000000E+00  0.00000000000E+00  0.10486438051E+04  0.16112746141E+04  0.12233364427E+04 0.  0.
        5    1    3    3  502    0  0.52685674542E+03  0.30155961337E+03  0.62288304694E+03  0.86978250774E+03  0.46999998093E+01 0. -1.
       -5    1    3    3    0  502 -0.52685674542E+03 -0.30155961337E+03  0.42576075819E+03  0.74149210638E+03  0.46999998093E+01 0.  1.
</event>
<event>
 5   0  0.2517023E-03  0.1142993E+04  0.7818609E-02  0.9164273E-01
       -2   -1    0    0    0  501  0.00000000000E+00  0.00000000000E+00  0.10098588406E+04  0.10098588406E+04  0.25500000920E-02 0. -1.
        2   -1    0    0  501    0  0.00000000000E+00  0.00000000000E+00 -0.32341945244E+03  0.32341945245E+03  0.25500000920E-02 0.  1.
    10030    2    1    2    0    0  0.00000000000E+00  0.00000000000E+00  0.68643938813E+03  0.13332782930E+04  0.11429925516E+04 0.  0.
        3    1    3    3  502    0  0.23857445439E+03 -0.50940041194E+03  0.22540268297E+03  0.60598096477E+03  0.10100000352E+00 0.  1.
       -3    1    3    3    0  502 -0.23857445439E+03  0.50940041194E+03  0.46103670516E+03  0.72729732825E+03  0.10100000352E+00 0. -1.
</event>
<event>
 5   0  0.9678750E-04  0.1190104E+04  0.7818609E-02  0.9121563E-01
       -4   -1    0    0    0  501  0.00000000000E+00  0.00000000000E+00  0.54351313225E+03  0.54351461602E+03  0.12699999809E+01 0.  1.
        4   -1    0    0  501    0  0.00000000000E+00  0.00000000000E+00 -0.65147512680E+03  0.65147636468E+03  0.12699999809E+01 0. -1.
    10030    2    1    2    0    0  0.00000000000E+00  0.00000000000E+00 -0.10796199455E+03  0.11949909807E+04  0.11901040508E+04 0.  0.
        4    1    3    3  502    0  0.21870201148E+03 -0.53597128202E+03 -0.19234930548E+03  0.60999643704E+03  0.12699999809E+01 0. -1.
       -4    1    3    3    0  502 -0.21870201148E+03  0.53597128202E+03  0.84387310938E+02  0.58499454367E+03  0.12699999809E+01 0.  1.
</event>
<event>
 5   0  0.1404833E-03  0.1195757E+04  0.7818609E-02  0.9116578E-01
       -1   -1    0    0    0  501  0.00000000000E+00  0.00000000000E+00  0.57430696344E+03  0.57430696346E+03  0.50400001928E-02 0. -1.
        1   -1    0    0  501    0  0.00000000000E+00  0.00000000000E+00 -0.62241766584E+03  0.62241766586E+03  0.50400001928E-02 0.  1.
    10030    2    1    2    0    0  0.00000000000E+00  0.00000000000E+00 -0.48110702402E+02  0.11967246293E+04  0.11957571655E+04 0.  0.
        1    1    3    3  502    0  0.32402681295E+03 -0.38733520839E+03 -0.34437189291E+03  0.61123967461E+03  0.50400001928E-02 0.  1.
       -1    1    3    3    0  502 -0.32402681295E+03  0.38733520839E+03  0.29626119051E+03  0.58548495471E+03  0.50400001928E-02 0. -1.
</event>
<event>
 5   0  0.1469851E-03  0.1189675E+04  0.7818609E-02  0.9121943E-01
       -1   -1    0    0    0  501  0.00000000000E+00  0.00000000000E+00  0.36841543377E+03  0.36841543381E+03  0.50400001928E-02 0. -1.
        1   -1    0    0  501    0  0.00000000000E+00  0.00000000000E+00 -0.96041441633E+03  0.96041441634E+03  0.50400001928E-02 0.  1.
    10030    2    1    2    0    0  0.00000000000E+00  0.00000000000E+00 -0.59199898255E+03  0.13288298502E+04  0.11896747351E+04 0.  0.
        5    1    3    3  502    0  0.11624621758E+02 -0.47470838362E+03 -0.69612739777E+03  0.84267349859E+03  0.46999998093E+01 0.  1.
       -5    1    3    3    0  502 -0.11624621758E+02  0.47470838362E+03  0.10412841521E+03  0.48615635156E+03  0.46999998093E+01 0. -1.
</event>
<event>
 5   0  0.1469851E-03  0.1202430E+04  0.7818609E-02  0.9110732E-01
        1   -1    0    0  501    0  0.00000000000E+00  0.00000000000E+00  0.48221867844E+03  0.48221867847E+03  0.50400001928E-02 0. -1.
       -1   -1    0    0    0  501  0.00000000000E+00  0.00000000000E+00 -0.74957640337E+03  0.74957640339E+03  0.50400001928E-02 0.  1.
    10030    2    1    2    0    0  0.00000000000E+00  0.00000000000E+00 -0.26735772493E+03  0.12317950819E+04  0.12024304431E+04 0.  0.
        5    1    3    3  502    0 -0.14287370804E+03  0.42169022330E+03  0.28016964152E+03  0.52607286463E+03  0.46999998093E+01 0. -1.
       -5    1    3    3    0  502  0.14287370804E+03 -0.42169022330E+03 -0.54752736644E+03  0.70572221722E+03  0.46999998093E+01 0.  1.
</event>
<event>
 5   0  0.9678750E-04  0.1215784E+04  0.7818609E-02  0.9099152E-01
        3   -1    0    0  501    0  0.00000000000E+00  0.00000000000E+00  0.64525709402E+03  0.64525710193E+03  0.10100000352E+00 0. -1.
       -3   -1    0    0    0  501  0.00000000000E+00  0.00000000000E+00 -0.57269019307E+03  0.57269020198E+03  0.10100000352E+00 0.  1.
    10030    2    1    2    0    0  0.00000000000E+00  0.00000000000E+00  0.72566900952E+02  0.12179473039E+04  0.12157835663E+04 0.  0.
        5    1    3    3  502    0 -0.60639120588E+03  0.27908829528E+02  0.68295487700E+02  0.61088097120E+03  0.46999998093E+01 0. -1.
       -5    1    3    3    0  502  0.60639120588E+03 -0.27908829528E+02  0.42714132526E+01  0.60706633271E+03  0.46999998093E+01 0.  1.
</event>
<event>
 5   0  0.2580244E-03  0.1197024E+04  0.7818609E-02  0.9115465E-01
        2   -1    0    0  501    0  0.00000000000E+00  0.00000000000E+00  0.19364807508E+04  0.19364807508E+04  0.25500000920E-02 0.  1.
       -2   -1    0    0    0  501  0.00000000000E+00  0.00000000000E+00 -0.18498333683E+03  0.18498333685E+03  0.25500000920E-02 0. -1.
    10030    2    1    2    0    0  0.00000000000E+00  0.00000000000E+00  0.17514974140E+04  0.21214640877E+04  0.11970240950E+04 0.  0.
        1    1    3    3  502    0 -0.51746784234E+03  0.27297567149E+03  0.10994215322E+04  0.12453980852E+04  0.50400001928E-02 0.  1.
       -1    1    3    3    0  502  0.51746784234E+03 -0.27297567149E+03  0.65207588179E+03  0.87606600249E+03  0.50400001928E-02 0. -1.
</event>
<event>
 5   0  0.2580244E-03  0.1152194E+04  0.7818609E-02  0.9155762E-01
       -2   -1    0    0    0  501  0.00000000000E+00  0.00000000000E+00  0.43589082186E+03  0.43589082186E+03  0.25500000920E-02 0.  1.
        2   -1    0    0  501    0  0.00000000000E+00  0.00000000000E+00 -0.76140050159E+03  0.76140050160E+03  0.25500000920E-02 0. -1.
    10030    2    1    2    0    0  0.00000000000E+00  0.00000000000E+00 -0.32550967974E+03  0.11972913235E+04  0.11521935435E+04 0.  0.
        1    1    3    3  502    0  0.12365423007E+03 -0.54047831713E+03 -0.16894758725E+00  0.55444315171E+03  0.50400001928E-02 0. -1.
       -1    1    3    3    0  502 -0.12365423007E+03  0.54047831713E+03 -0.32534073215E+03  0.64284817176E+03  0.50400001928E-02 0.  1.
</event>
<event>
 5   0  0.1455076E-03  0.1186692E+04  0.7818609E-02  0.9124585E-01
       -1   -1    0    0    0  501  0.00000000000E+00  0.00000000000E+00  0.31414852425E+03  0.31414852430E+03  0.50400001928E-02 0.  1.
        1   -1    0    0  501    0  0.00000000000E+00  0.00000000000E+00 -0.11206783307E+04  0.11206783307E+04  0.50400001928E-02 0. -1.
    10030    2    1    2    0    0  0.00000000000E+00  0.00000000000E+00 -0.80652980640E+03  0.14348268550E+04  0.11866919462E+04 0.  0.
        4    1    3    3  502    0 -0.15720453715E+03 -0.56971805061E+03 -0.46685365539E+03  0.75315726920E+03  0.12699999809E+01 0. -1.
       -4    1    3    3    0  502  0.15720453715E+03  0.56971805061E+03 -0.33967615101E+03  0.68166958576E+03  0.12699999809E+01 0.  1.
</event>
<event>
 5   0  0.2484507E-03  0.1211597E+04  0.7818609E-02  0.9102766E-01
        2   -1    0    0  501    0  0.00000000000E+00  0.00000000000E+00  0.19292358593E+04  0.19292358593E+04  0.25500000920E-02 0.  1.
       -2   -1    0    0    0  501  0.00000000000E+00  0.00000000000E+00 -0.19022661120E+03  0.19022661122E+03  0.25500000920E-02 0. -1.
    10030    2    1    2    0    0  0.00000000000E+00  0.00000000000E+00  0.17390092481E+04  0.21194624705E+04  0.12115972924E+04 0.  0.
        2    1    3    3  502    0 -0.44252918954E+03 -0.66061634932E+02  0.15507416575E+03  0.47354431693E+03  0.25500000920E-02 0. -1.
       -2    1    3    3    0  502  0.44252918954E+03  0.66061634932E+02  0.15839350823E+04  0.16459181535E+04  0.25500000920E-02 0.  1.
</event>
<event>
 5   0  0.9678750E-04  0.1145306E+04  0.7818609E-02  0.9162125E-01
       -3   -1    0    0    0  501  0.00000000000E+00  0.00000000000E+00  0.91956177506E+03  0.91956178061E+03  0.10100000352E+00 0. -1.
        3   -1    0    0  501    0  0.00000000000E+00  0.00000000000E+00 -0.35661682712E+03  0.35661684143E+03  0.10100000352E+00 0.  1.
    10030    2    1    2    0    0  0.00000000000E+00  0.00000000000E+00  0.56294494794E+03  0.12761786220E+04  0.11453055753E+04 0.  0.
        4    1    3    3  502    0 -0.53820547766E+03  0.10612276075E+03  0.98371151492E+02  0.55732008117E+03  0.12699999809E+01 0.  1.
       -4    1    3    3    0  502  0.53820547766E+03 -0.10612276075E+03  0.46457379645E+03  0.71885854086E+03  0.12699999809E+01 0. -1.
</event>
<event>
 5   0  0.2499890E-03  0.1201832E+04  0.7818609E-02  0.9111255E-01
       -2   -1    0    0    0  501  0.00000000000E+00  0.00000000000E+00  0.27189312458E+03  0.27189312459E+03  0.25500000920E-02 0.  1.
        2   -1    0    0  501    0  0.00000000000E+00  0.00000000000E+00 -0.13280948067E+04  0.13280948067E+04  0.25500000920E-02 0. -1.
    10030    2    1    2    0    0  0.00000000000E+00  0.00000000000E+00 -0.10562016821E+04  0.15999879313E+04  0.12018316799E+04 0.  0.
        5    1    3    3  502    0  0.59885289463E+03  0.28541140970E+02 -0.58198723626E+03  0.83556604724E+03  0.46999998093E+01 0.  1.
       -5    1    3    3    0  502 -0.59885289463E+03 -0.28541140970E+02 -0.47421444581E+03  0.76442188401E+03  0.46999998093E+01 0. -1.
</event>
<event>
 5   0  0.2499890E-03  0.1211577E+04  0.7818609E-02  0.9102783E-01
        2   -1    0    0  501    0  0.00000000000E+00  0.00000000000E+00  0.94778271927E+03  0.94778271928E+03  0.25500000920E-02 0. -1.
       -2   -1    0    0    0  501  0.00000000000E+00  0.00000000000E+00 -0.38719823589E+03  0.38719823590E+03  0.25500000920E-02 0.  1.
    10030    2    1    2    0    0  0.00000000000E+00  0.00000000000E+00  0.56058448338E+03  0.13349809552E+04  0.12115771489E+04 0.  0.
        5    1    3    3  502    0 -0.15770709754E+03 -0.29835350236E+03 -0.27400855273E+03  0.43472878666E+03  0.46999998093E+01 0.  1.
       -5    1    3    3    0  502  0.15770709754E+03  0.29835350236E+03  0.83459303612E+03  0.90025216851E+03  0.46999998093E+01 0. -1.
</event>
<event>
 5   0  0.1404833E-03  0.1199085E+04  0.7818609E-02  0.9113658E-01
       -1   -1    0    0    0  501  0.00000000000E+00  0.00000000000E+00  0.38725253482E+03  0.38725253485E+03  0.50400001928E-02 0. -1.
        1   -1    0    0  501    0  0.00000000000E+00  0.00000000000E+00 -0.92820864130E+03  0.92820864131E+03  0.50400001928E-02 0.  1.
    10030    2    1    2    0    0  0.00000000000E+00  0.00000000000E+00 -0.54095610648E+03  0.13154611762E+04  0.11990848998E+04 0.  0.
        1    1    3    3  502    0  0.56610253626E+03 -0.11999367353E+03 -0.44247637792E+03  0.72846132930E+03  0.50400001928E-02 0.  1.
       -1    1    3    3    0  502 -0.56610253626E+03  0.11999367353E+03 -0.98479728553E+02  0.58699984686E+03  0.50400001928E-02 0. -1.
</event>
<event>
 5   0  0.1455076E-03  0.1234896E+04  0.7818609E-02  0.9082849E-01
        1   -1    0    0  501    0  0.00000000000E+00  0.00000000000E+00  0.28232501209E+03  0.28232501214E+03  0.50400001928E-02 0. -1.
       -1   -1    0    0    0  501  0.00000000000E+00  0.00000000000E+00 -0.13503653498E+04  0.13503653498E+04  0.50400001928E-02 0.  1.
    10030    2    1    2    0    0  0.00000000000E+00  0.00000000000E+00 -0.10680403377E+04  0.16326903620E+04  0.12348958074E+04 0.  0.
        4    1    3    3  502    0 -0.17351929516E+03 -0.35815659566E+03 -0.11581643225E+04  0.12246351717E+04  0.12699999809E+01 0.  1.
       -4    1    3    3    0  502  0.17351929516E+03  0.35815659566E+03  0.90123984787E+02  0.40805519031E+03  0.12699999809E+01 0. -1.
</event>
<event>
 5   0  0.2517023E-03  0.1199706E+04  0.7818609E-02  0.9113114E-01
        2   -1    0    0  501    0  0.00000000000E+00  0.00000000000E+00  0.73696304136E+03  0.73696304136E+03  0.25500000920E-02 0.  1.
       -2   -1    0    0    0  501  0.00000000000E+00  0.00000000000E+00 -0.48825189196E+03  0.48825189196E+03  0.25500000920E-02 0. -1.
    10030    2    1    2    0    0  0.00000000000E+00  0.00000000000E+00  0.24871114940E+03  0.12252149333E+04  0.11997059627E+04 0.  0.
        3    1    3    3  502    0  0.43810790067E+03  0.18429764806E+03  0.49808669750E+03  0.68847260231E+03  0.10100000352E+00 0.  1.
       -3    1    3    3    0  502 -0.43810790067E+03 -0.18429764806E+03 -0.24937554810E+03  0.53674233101E+03  0.10100000352E+00 0. -1.
</event>
<event>
 5   0  0.2580244E-03  0.1216650E+04  0.7818609E-02  0.9098406E-01
       -2   -1    0    0    0  501  0.00000000000E+00  0.00000000000E+00  0.28503695137E+03  0.28503695138E+03  0.25500000920E-02 0.  1.
        2   -1    0    0  501    0  0.00000000000E+00  0.00000000000E+00 -0.12982863817E+04  0.12982863817E+04  0.25500000920E-02 0. -1.
    10030    2    1    2    0    0  0.00000000000E+00  0.00000000000E+00 -0.10132494304E+04  0.15833233331E+04  0.12166504712E+04 0.  0.
        1    1    3    3  502    0 -0.44246691973E+02  0.20131362849E+03  0.23820830743E+03  0.31500499126E+03  0.50400001928E-02 0.  1.
       -1    1    3    3    0  502  0.44246691973E+02 -0.20131362849E+03 -0.12514577378E+04  0.12683183419E+04  0.50400001928E-02 0. -1.
</event>
<event>
 5   0  0.2499890E-03  0.1203831E+04  0.7818609E-02  0.9109509E-01
       -2   -1    0    0    0  501  0.00000000000E+00  0.00000000000E+00  0.47042066596E+03  0.47042066597E+03  0.25500000920E-02 0. -1.
        2   -1    0    0  501    0  0.00000000000E+00  0.00000000000E+00 -0.77016716165E+03  0.77016716166E+03  0.25500000920E-02 0.  1.
    10030    2    1    2    0    0  0.00000000000E+00  0.00000000000E+00 -0.29974649569E+03  0.12405878276E+04  0.12038314651E+04 0.  0.
        5    1    3    3  502    0  0.20369894474E+03 -0.31777104431E+03  0.33327935739E+03  0.50355626970E+03  0.46999998093E+01 0. -1.
       -5    1    3    3    0  502 -0.20369894474E+03  0.31777104431E+03 -0.63302585309E+03  0.73703155792E+03  0.46999998093E+01 0.  1.
</event>
<event>
 5   0  0.9678750E-04  0.1180752E+04  0.7818609E-02  0.9129873E-01
        4   -1    0    0  501    0  0.00000000000E+00  0.00000000000E+00  0.33568364065E+03  0.33568604305E+03  0.12699999809E+01 0. -1.
       -4   -1    0    0    0  501  0.00000000000E+00  0.00000000000E+00 -0.10383036960E+04  0.10383044727E+04  0.12699999809E+01 0.  1.
    10030    2    1    2    0    0  0.00000000000E+00  0.00000000000E+00 -0.70262005536E+03  0.13739905158E+04  0.11807518771E+04 0.  0.
        4    1    3    3  502    0  0.58776618733E+02  0.34904423251E+03  0.19851719749E+03  0.40582909920E+03  0.12699999809E+01 0. -1.
       -4    1    3    3    0  502 -0.58776618733E+02 -0.34904423251E+03 -0.90113725285E+03  0.96816141656E+03  0.12699999809E+01 0.  1.
</event>
<event>
 5   0  0.2517023E-03  0.1145394E+04  0.7818609E-02  0.9162043E-01
        2   -1    0    0  501    0  0.00000000000E+00  0.00000000000E+00  0.23920414721E+03  0.23920414722E+03  0.25500000920E-02 0.  1.
       -2   -1    0    0    0  501  0.00000000000E+00  0.00000000000E+00 -0.13711388512E+04  0.13711388512E+04  0.25500000920E-02 0. -1.
    10030    2    1    2    0    0  0.00000000000E+00  0.00000000000E+00 -0.11319347039E+04  0.16103429984E+04  0.11453944292E+04 0.  0.
        3    1    3    3  502    0  0.14682137584E+03 -0.34376950300E+03 -0.11759656534E+04  0.12339486277E+04  0.10100000352E+00 0. -1.
       -3    1    3    3    0  502 -0.14682137584E+03  0.34376950300E+03  0.44030949423E+02  0.37639437072E+03  0.10100000352E+00 0.  1.
</event>
<event>
 5   0  0.2579442E-03  0.1203691E+04  0.7818609E-02  0.9109632E-01
       -2   -1    0    0    0  501  0.00000000000E+00  0.00000000000E+00  0.34212111037E+03  0.34212111038E+03  0.25500000920E-02 0. -1.
        2   -1    0    0  501    0  0.00000000000E+00  0.00000000000E+00 -0.10587420146E+04  0.10587420146E+04  0.25500000920E-02 0.  1.
    10030    2    1    2    0    0  0.00000000000E+00  0.00000000000E+00 -0.71662090423E+03  0.14008631250E+04  0.12036909797E+04 0.  0.
        4    1    3    3  502    0  0.22397174306E+02  0.89317378582E+02  0.33387271820E+03  0.34634063058E+03  0.12699999809E+01 0. -1.
       -4    1    3    3    0  502 -0.22397174306E+02 -0.89317378582E+02 -0.10504936224E+04  0.10545224944E+04  0.12699999809E+01 0.  1.
</event>
<event>
 5   0  0.1469851E-03  0.1197789E+04  0.7818609E-02  0.9114794E-01
        1   -1    0    0  501    0  0.00000000000E+00  0.00000000000E+00  0.13875916018E+04  0.13875916018E+04  0.50400001928E-02 0. -1.
       -1   -1    0    0    0  501  0.00000000000E+00  0.00000000000E+00 -0.25848719261E+03  0.25848719266E+03  0.50400001928E-02 0.  1.
    10030    2    1    2    0    0  0.00000000000E+00  0.00000000000E+00  0.11291044092E+04  0.16460787944E+04  0.11977890594E+04 0.  0.
        5    1    3    3  502    0  0.40751735717E+03  0.39703515901E+03  0.82145236637E+03  0.99925642059E+03  0.46999998093E+01 0. -1.
       -5    1    3    3    0  502 -0.40751735717E+03 -0.39703515901E+03  0.30765204280E+03  0.64682237386E+03  0.46999998093E+01 0.  1.
</event>
<event>
 5   0  0.2517023E-03  0.1185373E+04  0.7818609E-02  0.9125757E-01
       -2   -1    0    0    0  501  0.00000000000E+00  0.00000000000E+00  0.52370497966E+03  0.52370497967E+03  0.25500000920E-02 0. -1.
        2   -1    0    0  501    0  0.00000000000E+00  0.00000000000E+00 -0.67075370540E+03  0.67075370541E+03  0.25500000920E-02 0.  1.
    10030    2    1    2    0    0  0.00000000000E+00  0.00000000000E+00 -0.14704872574E+03  0.11944586851E+04  0.11853726092E+04 0.  0.
        3    1    3    3  502    0 -0.58956738457E+03 -0.39870018727E+02 -0.11967637460E+03  0.60291107486E+03  0.10100000352E+00 0. -1.
       -3    1    3    3    0  502  0.58956738457E+03  0.39870018727E+02 -0.27372351139E+02  0.59154761022E+03  0.10100000352E+00 0.  1.
</event>
<event>
 5   0  0.2579442E-03  0.1215913E+04  0.7818609E-02  0.9099041E-01
       -2   -1    0    0    0  501  0.00000000000E+00  0.00000000000E+00  0.45047308057E+03  0.45047308058E+03  0.25500000920E-02 0.  1.
        2   -1    0    0  501    0  0.00000000000E+00  0.00000000000E+00 -0.82049506461E+03  0.82049506461E+03  0.25500000920E-02 0. -1.
    10030    2    1    2    0    0  0.00000000000E+00  0.00000000000E+00 -0.37002198403E+03  0.12709681452E+04  0.12159127261E+04 0.  0.
        4    1    3    3  502    0  0.48794328064E+03  0.31554672529E+03  0.18308408895E+01  0.58108807064E+03  0.12699999809E+01 0.  1.
       -4    1    3    3    0  502 -0.48794328064E+03 -0.31554672529E+03 -0.37185282492E+03  0.68988007455E+03  0.12699999809E+01 0. -1.
</event>
<event>
 5   0  0.2580244E-03  0.1197536E+04  0.7818609E-02  0.9115016E-01
       -2   -1    0    0    0  501  0.00000000000E+00  0.00000000000E+00  0.34419344509E+03  0.34419344510E+03  0.25500000920E-02 0. -1.
        2   -1    0    0  501    0  0.00000000000E+00  0.00000000000E+00 -0.10416332703E+04  0.10416332703E+04  0.25500000920E-02 0.  1.
    10030    2    1    2    0    0  0.00000000000E+00  0.00000000000E+00 -0.69743982522E+03  0.13858267154E+04  0.11975363775E+04 0.  0.
        1    1    3    3  502    0 -0.35271224921E+03  0.46841466597E+03 -0.20838865770E+03  0.62228937217E+03  0.50400001928E-02 0. -1.
       -1    1    3    3    0  502  0.35271224921E+03 -0.46841466597E+03 -0.48905116753E+03  0.76353734324E+03  0.50400001928E-02 0.  1.
</event>
<event>
 5   0  0.1455076E-03  0.1198770E+04  0.7818609E-02  0.9113934E-01
       -1   -1    0    0    0  501  0.00000000000E+00  0.00000000000E+00  0.20481100454E+03  0.20481100460E+03  0.50400001928E-02 0.  1.
        1   -1    0    0  501    0  0.00000000000E+00  0.00000000000E+00 -0.17541160452E+04  0.17541160452E+04  0.50400001928E-02 0. -1.
    10030    2    1    2    0    0  0.00000000000E+00  0.00000000000E+00 -0.15493050406E+04  0.19589270498E+04  0.11987698184E+04 0.  0.
        4    1    3    3  502    0 -0.26090713532E+03  0.25221927240E+03  0.48963859338E+01  0.36292241888E+03  0.12699999809E+01 0.  1.
       -4    1    3    3    0  502  0.26090713532E+03 -0.25221927240E+03 -0.15542014265E+04  0.15960046309E+04  0.12699999809E+01 0. -1.
</event>
<event>
 5   0  0.2517023E-03  0.1190237E+04  0.7818609E-02  0.9121445E-01
        2   -1    0    0  501    0  0.00000000000E+00  0.00000000000E+00  0.12865321182E+04  0.12865321182E+04  0.25500000920E-02 0.  1.
       -2   -1    0    0    0  501  0.00000000000E+00  0.00000000000E+00 -0.27528724273E+03  0.27528724274E+03  0.25500000920E-02 0. -1.
    10030    2    1    2    0    0  0.00000000000E+00  0.00000000000E+00  0.10112448755E+04  0.15618193609E+04  0.11902367487E+04 0.  0.
        3    1    3    3  502    0 -0.12303573685E+03  0.58215753485E+03  0.49120734007E+03  0.77157621080E+03  0.10100000352E+00 0.  1.
       -3    1    3    3    0  502  0.12303573685E+03 -0.58215753485E+03  0.52003753540E+03  0.79024315015E+03  0.10100000352E+00 0. -1.
</event>
<event>
 5   0  0.2499890E-03  0.1166551E+04  0.7818609E-02  0.9142649E-01
        2   -1    0    0  501    0  0.00000000000E+00  0.00000000000E+00  0.31304985863E+03  0.31304985864E+03  0.25500000920E-02 0.  1.
       -2   -1    0    0    0  501  0.00000000000E+00  0.00000000000E+00 -0.10867611195E+04  0.10867611195E+04  0.25500000920E-02 0. -1.
    10030    2    1    2    0    0  0.00000000000E+00  0.00000000000E+00 -0.77371126090E+03  0.13998109782E+04  0.11665511816E+04 0.  0.
        5    1    3    3  502    0  0.23146564230E+03 -0.26131810215E+03 -0.94753833991E+03  0.10098091353E+04  0.46999998093E+01 0. -1.
       -5    1    3    3    0  502 -0.23146564230E+03  0.26131810215E+03  0.17382707901E+03  0.39000184291E+03  0.46999998093E+01 0.  1.
</event>
<event>
 5   0  0.1403154E-03  0.1225602E+04  0.7818609E-02  0.9090738E-01
       -1   -1    0    0    0  501  0.00000000000E+00  0.00000000000E+00  0.51192247557E+03  0.51192247560E+03  0.50400001928E-02 0. -1.
        1   -1    0    0  501    0  0.00000000000E+00  0.00000000000E+00 -0.73355801595E+03  0.73355801597E+03  0.50400001928E-02 0.  1.
    10030    2    1    2    0    0  0.00000000000E+00  0.00000000000E+00 -0.22163554038E+03  0.12454804916E+04  0.12256016246E+04 0.  0.
        3    1    3    3  502    0  0.52766105478E+03 -0.16676279242E+03  0.15667937128E+03  0.57513863829E+03  0.10100000352E+00 0. -1.
       -3    1    3    3    0  502 -0.52766105478E+03  0.16676279242E+03 -0.37831491166E+03  0.67034185328E+03  0.10100000352E+00 0.  1.
</event>
<event>
 5   0  0.9678750E-04  0.1208325E+04  0.7818609E-02  0.9105600E-01
        3   -1    0    0  501    0  0.00000000000E+00  0.00000000000E+00  0.62075442859E+03  0.62075443681E+03  0.10100000352E+00 0.  1.
       -3   -1    0    0    0  501  0.00000000000E+00  0.00000000000E+00 -0.58801451629E+03  0.58801452496E+03  0.10100000352E+00 0. -1.
    10030    2    1    2    0    0  0.00000000000E+00  0.00000000000E+00  0.32739912300E+02  0.12087689618E+04  0.12083254947E+04 0.  0.
        3    1    3    3  502    0  0.39196169849E+03  0.45679005965E+03 -0.35817028641E+02  0.60297097892E+03  0.10100000352E+00 0. -1.
       -3    1    3    3    0  502 -0.39196169849E+03 -0.45679005965E+03  0.68556940941E+02  0.60579798285E+03  0.10100000352E+00 0.  1.
</event>
<event>
 5   0  0.1455076E-03  0.1201720E+04  0.7818609E-02  0.9111352E-01
        1   -1    0    0  501    0  0.00000000000E+00  0.00000000000E+00  0.63474203434E+03  0.63474203436E+03  0.50400001928E-02 0.  1.
       -1   -1    0    0    0  501  0.00000000000E+00  0.00000000000E+00 -0.56878657164E+03  0.56878657166E+03  0.50400001928E-02 0. -1.
    10030    2    1    2    0    0  0.00000000000E+00  0.00000000000E+00  0.65955462702E+02  0.12035286060E+04  0.12017200100E+04 0.  0.
        4    1    3    3  502    0  0.21411413922E+03  0.55337658911E+03  0.12778074077E+03  0.60695967296E+03  0.12699999809E+01 0.  1.
       -4    1    3    3    0  502 -0.21411413922E+03 -0.55337658911E+03 -0.61825278067E+02  0.59656893306E+03  0.12699999809E+01 0. -1.
</event>
<event>
 5   0  0.2579442E-03  0.1197340E+04  0.7818609E-02  0.9115188E-01
       -2   -1    0    0    0  501  0.00000000000E+00  0.00000000000E+00  0.31437481966E+03  0.31437481967E+03  0.25500000920E-02 0. -1.
        2   -1    0    0  501    0  0.00000000000E+00  0.00000000000E+00 -0.11400580563E+04  0.11400580563E+04  0.25500000920E-02 0.  1.
    10030    2    1    2    0    0  0.00000000000E+00  0.00000000000E+00 -0.82568323664E+03  0.14544328760E+04  0.11973396274E+04 0.  0.
        4    1    3    3  502    0 -0.42063800647E+03 -0.36311978389E+03 -0.68340439295E+03  0.88081524007E+03  0.12699999809E+01 0.  1.
       -4    1    3    3    0  502  0.42063800647E+03  0.36311978389E+03 -0.14227884368E+03  0.57361763589E+03  0.12699999809E+01 0. -1.
</event>
<event>
 5   0  0.1403154E-03  0.1201357E+04  0.7818609E-02  0.9111670E-01
       -1   -1    0    0    0  501  0.00000000000E+00  0.00000000000E+00  0.53120645304E+03  0.53120645307E+03  0.50400001928E-02 0.  1.
        1   -1    0    0  501    0  0.00000000000E+00  0.00000000000E+00 -0.67923581658E+03  0.67923581660E+03  0.50400001928E-02 0. -1.
    10030    2    1    2    0    0  0.00000000000E+00  0.00000000000E+00 -0.14802936354E+03  0.12104422697E+04  0.12013566480E+04 0.  0.
        3    1    3    3  502    0 -0.55947369082E+03 -0.21670346491E+03 -0.44756537738E+02  0.60164305057E+03  0.10100000352E+00 0.  1.
       -3    1    3    3    0  502  0.55947369082E+03  0.21670346491E+03 -0.10327282580E+03  0.60879921910E+03  0.10100000352E+00 0. -1.
</event>
<event>
 5   0  0.2499890E-03  0.1160470E+04  0.7818609E-02  0.9148179E-01
       -2   -1    0    0    0  501  0.00000000000E+00  0.00000000000E+00  0.20958619073E+03  0.20958619075E+03  0.25500000920E-02 0. -1.
        2   -1    0    0  501    0  0.00000000000E+00  0.00000000000E+00 -0.16063673479E+04  0.16063673479E+04  0.25500000920E-02 0.  1.
    10030    2    1    2    0    0  0.00000000000E+00  0.00000000000E+00 -0.13967811571E+04  0.18159535386E+04  0.11604695832E+04 0.  0.
        5    1    3    3  502    0  0.38669813083E+03  0.17584107018E+03 -0.13168400927E+04  0.13836710035E+04  0.46999998093E+01 0.  1.
       -5    1    3    3    0  502 -0.38669813083E+03 -0.17584107018E+03 -0.79941064449E+02  0.43228253508E+03  0.46999998093E+01 0. -1.
</event>
<event>
 5   0  0.2484507E-03  0.1194329E+04  0.7818609E-02  0.9117835E-01
       -2   -1    0    0    0  501  0.00000000000E+00  0.00000000000E+00  0.22391650104E+03  0.22391650105E+03  0.25500000920E-02 0. -1.
        2   -1    0    0  501    0  0.00000000000E+00  0.00000000000E+00 -0.15925814492E+04  0.15925814492E+04  0.25500000920E-02 0.  1.
    10030    2    1    2    0    0  0.00000000000E+00  0.00000000000E+00 -0.13686649482E+04  0.18164979503E+04  0.11943287081E+04 0.  0.
        2    1    3    3  502    0 -0.52382857471E+03  0.24244530694E+03 -0.91713593335E+03  0.10836578901E+04  0.25500000920E-02 0.  1.
       -2    1    3    3    0  502  0.52382857471E+03 -0.24244530694E+03 -0.45152901482E+03  0.73284006016E+03  0.25500000920E-02 0. -1.
</event>
<event>
 5   0  0.2499890E-03  0.1217685E+04  0.7818609E-02  0.9097517E-01
        2   -1    0    0  501    0  0.00000000000E+00  0.00000000000E+00  0.92564360911E+03  0.92564360911E+03  0.25500000920E-02 0. -1.
       -2   -1    0    0    0  501  0.00000000000E+00  0.00000000000E+00 -0.40046616158E+03  0.40046616159E+03  0.25500000920E-02 0.  1.
    10030    2    1    2    0    0  0.00000000000E+00  0.00000000000E+00  0.52517744753E+03  0.13261097707E+04  0.12176845949E+04 0.  0.
        5    1    3    3  502    0  0.17018519183E+02 -0.21758221210E+03  0.88155870932E+03  0.90818472625E+03  0.46999998093E+01 0. -1.
       -5    1    3    3    0  502 -0.17018519183E+02  0.21758221210E+03 -0.35638126180E+03  0.41792504444E+03  0.46999998093E+01 0.  1.
</event>
<event>
 5   0  0.1403154E-03  0.1196972E+04  0.7818609E-02  0.9115511E-01
        1   -1    0    0  501    0  0.00000000000E+00  0.00000000000E+00  0.12581978775E+04  0.12581978775E+04  0.50400001928E-02 0. -1.
       -1   -1    0    0    0  501  0.00000000000E+00  0.00000000000E+00 -0.28468136557E+03  0.28468136561E+03  0.50400001928E-02 0.  1.
    10030    2    1    2    0    0  0.00000000000E+00  0.00000000000E+00  0.97351651191E+03  0.15428792431E+04  0.11969719963E+04 0.  0.
        3    1    3    3  502    0 -0.37361244687E+03 -0.37084728149E+03  0.11974471677E+03  0.53986366245E+03  0.10100000352E+00 0. -1.
       -3    1    3    3    0  502  0.37361244687E+03  0.37084728149E+03  0.85377179514E+03  0.10030155807E+04  0.10100000352E+00 0.  1.
</event>
<event>
 5   0  0.1455076E-03  0.1202909E+04  0.7818609E-02  0.9110314E-01
       -1   -1    0    0    0  501  0.00000000000E+00  0.00000000000E+00  0.86052511098E+03  0.86052511099E+03  0.50400001928E-02 0.  1.
        1   -1    0    0  501    0  0.00000000000E+00  0.00000000000E+00 -0.42038008226E+03  0.42038008229E+03  0.50400001928E-02 0. -1.
    10030    2    1    2    0    0  0.00000000000E+00  0.00000000000E+00  0.44014502872E+03  0.12809051933E+04  0.12029091686E+04 0.  0.
        4    1    3    3  502    0 -0.24203569968E+03  0.55013074008E+03  0.24437543113E+03  0.64880357223E+03  0.12699999809E+01 0. -1.
       -4    1    3    3    0  502  0.24203569968E+03 -0.55013074008E+03  0.19576959759E+03  0.63210162105E+03  0.12699999809E+01 0.  1.
</event>
<event>
 5   0  0.2517023E-03  0.1209217E+04  0.7818609E-02  0.9104827E-01
       -2   -1    0    0    0  501  0.00000000000E+00  0.00000000000E+00  0.28104556012E+03  0.28104556013E+03  0.25500000920E-02 0. -1.
        2   -1    0    0  501    0  0.00000000000E+00  0.00000000000E+00 -0.13006847213E+04  0.13006847213E+04  0.25500000920E-02 0.  1.
    10030    2    1    2    0    0  0.00000000000E+00  0.00000000000E+00 -0.10196391611E+04  0.15817302814E+04  0.12092173767E+04 0.  0.
        3    1    3    3  502    0  0.90799894751E+01 -0.55893297208E+03 -0.20850195807E+03  0.59662516726E+03  0.10100000352E+00 0. -1.
       -3    1    3    3    0  502 -0.90799894751E+01  0.55893297208E+03 -0.81113720308E+03  0.98510511414E+03  0.10100000352E+00 0.  1.
</event>
<event>
 5   0  0.1423024E-03  0.1179278E+04  0.7818609E-02  0.9131191E-01
        1   -1    0    0  501    0  0.00000000000E+00  0.00000000000E+00  0.41806217820E+03  0.41806217823E+03  0.50400001928E-02 0. -1.
       -1   -1    0    0    0  501  0.00000000000E+00  0.00000000000E+00 -0.83163207611E+03  0.83163207613E+03  0.50400001928E-02 0.  1.
    10030    2    1    2    0    0  0.00000000000E+00  0.00000000000E+00 -0.41356989791E+03  0.12496942544E+04  0.11792776047E+04 0.  0.
        2    1    3    3  502    0  0.50332349127E+03 -0.18551353660E+03 -0.46619602276E+03  0.71069581451E+03  0.25500000920E-02 0.  1.
       -2    1    3    3    0  502 -0.50332349127E+03  0.18551353660E+03  0.52626124841E+02  0.53899843984E+03  0.25500000920E-02 0. -1.
</event>
<event>
 5   0  0.2579442E-03  0.1251592E+04  0.7818609E-02  0.9068859E-01
        2   -1    0    0  501    0  0.00000000000E+00  0.00000000000E+00  0.17075161776E+04  0.17075161776E+04  0.25500000920E-02 0. -1.
       -2   -1    0    0    0  501  0.00000000000E+00  0.00000000000E+00 -0.22935103965E+03  0.22935103967E+03  0.25500000920E-02 0.  1.
    10030    2    1    2    0    0  0.00000000000E+00  0.00000000000E+00  0.14781651379E+04  0.19368672173E+04  0.12515919632E+04 0.  0.
        4    1    3    3  502    0  0.36037652440E+03  0.50751841832E+03  0.83904839645E+03  0.10447248484E+04  0.12699999809E+01 0. -1.
       -4    1    3    3    0  502 -0.36037652440E+03 -0.50751841832E+03  0.63911674150E+03  0.89214236892E+03  0.12699999809E+01 0.  1.
</event>
<event>
 5   0  0.1455076E-03  0.1199523E+04  0.7818609E-02  0.9113274E-01
        1   -1    0    0  501    0  0.00000000000E+00  0.00000000000E+00  0.80050085101E+03  0.80050085103E+03  0.50400001928E-02 0.  1.
       -1   -1    0    0    0  501  0.00000000000E+00  0.00000000000E+00 -0.44936128823E+03  0.44936128826E+03  0.50400001928E-02 0. -1.
    10030    2    1    2    0    0  0.00000000000E+00  0.00000000000E+00  0.35113956278E+03  0.12498621393E+04  0.11995233948E+04 0.  0.
        4    1    3    3  502    0 -0.80789544873E+02 -0.58464507244E+03  0.64437079636E+02  0.59370915558E+03  0.12699999809E+01 0. -1.
       -4    1    3    3    0  502  0.80789544873E+02  0.58464507244E+03  0.28670248315E+03  0.65615298371E+03  0.12699999809E+01 0.  1.
</event>
<event>
 5   0  0.1404833E-03  0.1197575E+04  0.7818609E-02  0.9114981E-01
        1   -1    0    0  501    0  0.00000000000E+00  0.00000000000E+00  0.10717162390E+04  0.10717162390E+04  0.50400001928E-02 0.  1.
       -1   -1    0    0    0  501  0.00000000000E+00  0.00000000000E+00 -0.33455378055E+03  0.33455378058E+03  0.50400001928E-02 0. -1.
    10030    2    1    2    0    0  0.00000000000E+00  0.00000000000E+00  0.73716245846E+03  0.14062700196E+04  0.11975754164E+04 0.  0.
        1    1    3    3  502    0  0.29028494669E+03 -0.49427893835E+03  0.16529542813E+03  0.59657321241E+03  0.50400001928E-02 0.  1.
       -1    1    3    3    0  502 -0.29028494669E+03  0.49427893835E+03  0.57186703033E+03  0.80969680720E+03  0.50400001928E-02 0. -1.
</event>
<event>
 5   0  0.1469851E-03  0.1207619E+04  0.7818609E-02  0.9106213E-01
        1   -1    0    0  501    0  0.00000000000E+00  0.00000000000E+00  0.75636365972E+03  0.75636365974E+03  0.50400001928E-02 0.  1.
       -1   -1    0    0    0  501  0.00000000000E+00  0.00000000000E+00 -0.48202498095E+03  0.48202498098E+03  0.50400001928E-02 0. -1.
    10030    2    1    2    0    0  0.00000000000E+00  0.00000000000E+00  0.27433867877E+03  0.12383886407E+04  0.12076194412E+04 0.  0.
        5    1    3    3  502    0  0.12410857940E+03 -0.39134537357E+03  0.59117986366E+03  0.71977070105E+03  0.46999998093E+01 0.  1.
       -5    1    3    3    0  502 -0.12410857940E+03  0.39134537357E+03 -0.31684118489E+03  0.51861793966E+03  0.46999998093E+01 0. -1.
</event>
<event>
 5   0  0.1403154E-03  0.1193197E+04  0.7818609E-02  0.9118832E-01
        1   -1    0    0  501    0  0.00000000000E+00  0.00000000000E+00  0.12236755030E+04  0.12236755030E+04  0.50400001928E-02 0. -1.
       -1   -1    0    0    0  501  0.00000000000E+00  0.00000000000E+00 -0.29086963935E+03  0.29086963939E+03  0.50400001928E-02 0.  1.
    10030    2    1    2    0    0  0.00000000000E+00  0.00000000000E+00  0.93280586363E+03  0.15145451424E+04  0.11931974728E+04 0.  0.
        3    1    3    3  502    0  0.27445635371E+03 -0.50304012159E+03  0.25570256934E+03  0.62750256429E+03  0.10100000352E+00 0.  1.
       -3    1    3    3    0  502 -0.27445635371E+03  0.50304012159E+03  0.67710329429E+03  0.88704257810E+03  0.10100000352E+00 0. -1.
</event>
<event>
 5   0  0.2484507E-03  0.1139421E+04  0.7818609E-02  0.9167599E-01
        2   -1    0    0  501    0  0.00000000000E+00  0.00000000000E+00  0.47384025874E+03  0.47384025874E+03  0.25500000920E-02 0. -1.
       -2   -1    0    0    0  501  0.00000000000E+00  0.00000000000E+00 -0.68497742909E+03  0.68497742909E+03  0.25500000920E-02 0.  1.
    10030    2    1    2    0    0  0.00000000000E+00  0.00000000000E+00 -0.21113717035E+03  0.11588176878E+04  0.11394206988E+04 0.  0.
        2    1    3    3  502    0 -0.16503048731E+03 -0.25551570295E+02  0.44838906495E+03  0.47847747916E+03  0.25500000920E-02 0. -1.
       -2    1    3    3    0  502  0.16503048731E+03  0.25551570295E+02 -0.65952623530E+03  0.68034020868E+03  0.25500000920E-02 0.  1.
</event>
<event>
 5   0  0.1455076E-03  0.1197043E+04  0.7818609E-02  0.9115448E-01
       -1   -1    0    0    0  501  0.00000000000E+00  0.00000000000E+00  0.51257827891E+03  0.51257827893E+03  0.50400001928E-02 0.  1.
        1   -1    0    0  501    0  0.00000000000E+00  0.00000000000E+00 -0.69887526205E+03  0.69887526207E+03  0.50400001928E-02 0. -1.
    10030    2    1    2    0    0  0.00000000000E+00  0.00000000000E+00 -0.18629698315E+03  0.12114535410E+04  0.11970434896E+04 0.  0.
        4    1    3    3  502    0 -0.67357348573E+02  0.83584381361E+02  0.50275485644E+03  0.51408892206E+03  0.12699999809E+01 0.  1.
       -4    1    3    3    0  502  0.67357348573E+02 -0.83584381361E+02 -0.68905183959E+03  0.69736461894E+03  0.12699999809E+01 0. -1.
</event>
<event>
 5   0  0.2499890E-03  0.1204477E+04  0.7818609E-02  0.9108947E-01
       -2   -1    0    0    0  501  0.00000000000E+00  0.00000000000E+00  0.80790787504E+03  0.80790787505E+03  0.25500000920E-02 0.  1.
        2   -1    0    0  501    0  0.00000000000E+00  0.00000000000E+00 -0.44892615536E+03  0.44892615537E+03  0.25500000920E-02 0. -1.
    10030    2    1    2    0    0  0.00000000000E+00  0.00000000000E+00  0.35898171968E+03  0.12568340304E+04  0.12044766104E+04 0.  0.
        5    1    3    3  502    0 -0.31208736955E+03  0.13606720820E+03  0.69782938305E+03  0.77646683717E+03  0.46999998093E+01 0.  1.
       -5    1    3    3    0  502  0.31208736955E+03 -0.13606720820E+03 -0.33884766337E+03  0.48036719324E+03  0.46999998093E+01 0. -1.
</event>
<event>
 5   0  0.9678750E-04  0.1142979E+04  0.7818609E-02  0.9164285E-01
       -3   -1    0    0    0  501  0.00000000000E+00  0.00000000000E+00  0.93904562826E+03  0.93904563369E+03  0.10100000352E+00 0.  1.
        3   -1    0    0  501    0  0.00000000000E+00  0.00000000000E+00 -0.34780010142E+03  0.34780011608E+03  0.10100000352E+00 0. -1.
    10030    2    1    2    0    0  0.00000000000E+00  0.00000000000E+00  0.59124552684E+03  0.12868457498E+04  0.11429788759E+04 0.  0.
        3    1    3    3  502    0 -0.40255421446E+03  0.31420728732E+03  0.67672930589E+01  0.51070727569E+03  0.10100000352E+00 0.  1.
       -3    1    3    3    0  502  0.40255421446E+03 -0.31420728732E+03  0.58447823378E+03  0.77613847408E+03  0.10100000352E+00 0. -1.
</event>
<event>
 5   0  0.2579442E-03  0.1199413E+04  0.7818609E-02  0.9113371E-01
        2   -1    0    0  501    0  0.00000000000E+00  0.00000000000E+00  0.76869336817E+03  0.76869336818E+03  0.25500000920E-02 0. -1.
       -2   -1    0    0    0  501  0.00000000000E+00  0.00000000000E+00 -0.46786883920E+03  0.46786883921E+03  0.25500000920E-02 0.  1.
    10030    2    1    2    0    0  0.00000000000E+00  0.00000000000E+00  0.30082452897E+03  0.12365622074E+04  0.11994126460E+04 0.  0.
        4    1    3    3  502    0  0.36808294871E+03 -0.36000317121E+03 -0.16661611392E+03  0.54115606135E+03  0.12699999809E+01 0.  1.
       -4    1    3    3    0  502 -0.36808294871E+03  0.36000317121E+03  0.46744064289E+03  0.69540614603E+03  0.12699999809E+01 0. -1.
</event>
<event>
 5   0  0.1404833E-03  0.1208671E+04  0.7818609E-02  0.9105300E-01
       -1   -1    0    0    0  501  0.00000000000E+00  0.00000000000E+00  0.73290785758E+03  0.73290785760E+03  0.50400001928E-02 0.  1.
        1   -1    0    0  501    0  0.00000000000E+00  0.00000000000E+00 -0.49831843388E+03  0.49831843391E+03  0.50400001928E-02 0. -1.
    10030    2    1    2    0    0  0.00000000000E+00  0.00000000000E+00  0.23458942370E+03  0.12312262915E+04  0.12086711642E+04 0.  0.
        1    1    3    3  502    0 -0.84159383239E+02  0.58063721755E+03 -0.30320196664E+02  0.58748761225E+03  0.50400001928E-02 0.  1.
       -1    1    3    3    0  502  0.84159383239E+02 -0.58063721755E+03  0.26490962036E+03  0.64373867926E+03  0.50400001928E-02 0. -1.
</event>
<event>
 5   0  0.2499890E-03  0.1211283E+04  0.7818609E-02  0.9103038E-01
       -2   -1    0    0    0  501  0.00000000000E+00  0.00000000000E+00  0.29384999139E+03  0.29384999140E+03  0.25500000920E-02 0.  1.
        2   -1    0    0  501    0  0.00000000000E+00  0.00000000000E+00 -0.12482610809E+04  0.12482610809E+04  0.25500000920E-02 0. -1.
    10030    2    1    2    0    0  0.00000000000E+00  0.00000000000E+00 -0.95441108954E+03  0.15421110723E+04  0.12112828041E+04 0.  0.
        5    1    3    3  502    0 -0.47344377072E+03  0.11591673128E+02  0.33808942178E+01  0.47362104193E+03  0.46999998093E+01 0.  1.
       -5    1    3    3    0  502  0.47344377072E+03 -0.11591673128E+02 -0.95779198376E+03  0.10684900304E+04  0.46999998093E+01 0. -1.
</event>
<event>
 5   0  0.9678750E-04  0.1203307E+04  0.7818609E-02  0.9109967E-01
        3   -1    0    0  501    0  0.00000000000E+00  0.00000000000E+00  0.17268032470E+04  0.17268032500E+04  0.10100000352E+00 0.  1.
       -3   -1    0    0    0  501  0.00000000000E+00  0.00000000000E+00 -0.20962824680E+03  0.20962827113E+03  0.10100000352E+00 0. -1.
    10030    2    1    2    0    0  0.00000000000E+00  0.00000000000E+00  0.15171750002E+04  0.19364315211E+04  0.12033067168E+04 0.  0.
        1    1    3    3  502    0 -0.33688701339E+03 -0.44359122172E+03  0.39260684236E+03  0.68147352441E+03  0.50400001928E-02 0. -1.
       -1    1    3    3    0  502  0.33688701339E+03  0.44359122172E+03  0.11245681579E+04  0.12549579967E+04  0.50400001928E-02 0.  1.
</event>
<event>
 5   0  0.2580244E-03  0.1196259E+04  0.7818609E-02  0.9116137E-01
       -2   -1    0    0    0  501  0.00000000000E+00  0.00000000000E+00  0.72691272443E+03  0.72691272444E+03  0.25500000920E-02 0.  1.
        2   -1    0    0  501    0  0.00000000000E+00  0.00000000000E+00 -0.49216246794E+03  0.49216246795E+03  0.25500000920E-02 0. -1.
    10030    2    1    2    0    0  0.00000000000E+00  0.00000000000E+00  0.23475025649E+03  0.12190751924E+04  0.11962594375E+04 0.  0.
        1    1    3    3  502    0 -0.38309446773E+02  0.55688668870E+03 -0.10159215715E+03  0.56737233294E+03  0.50400001928E-02 0. -1.
       -1    1    3    3    0  502  0.38309446773E+02 -0.55688668870E+03  0.33634241364E+03  0.65170285944E+03  0.50400001928E-02 0.  1.
</event>
<event>
 5   0  0.2517023E-03  0.1202995E+04  0.7818609E-02  0.9110239E-01
       -2   -1    0    0    0  501  0.00000000000E+00  0.00000000000E+00  0.23231211912E+03  0.23231211914E+03  0.25500000920E-02 0.  1.
        2   -1    0    0  501    0  0.00000000000E+00  0.00000000000E+00 -0.15573842489E+04  0.15573842489E+04  0.25500000920E-02 0. -1.
    10030    2    1    2    0    0  0.00000000000E+00  0.00000000000E+00 -0.13250721298E+04  0.17896963681E+04  0.12029949878E+04 0.  0.
        3    1    3    3  502    0  0.39152402907E+03  0.83835570122E+02 -0.13303127438E+04  0.13892629249E+04  0.10100000352E+00 0. -1.
       -3    1    3    3    0  502 -0.39152402907E+03 -0.83835570122E+02  0.52406139450E+01  0.40043344315E+03  0.10100000352E+00 0.  1.
</event>
<event>
 5   0  0.1404833E-03  0.1179420E+04  0.7818609E-02  0.9131064E-01
        1   -1    0    0  501    0  0.00000000000E+00  0.00000000000E+00  0.48414953308E+03  0.48414953311E+03  0.50400001928E-02 0.  1.
       -1   -1    0    0    0  501  0.00000000000E+00  0.00000000000E+00 -0.71828574954E+03  0.71828574956E+03  0.50400001928E-02 0. -1.
    10030    2    1    2    0    0  0.00000000000E+00  0.00000000000E+00 -0.23413621646E+03  0.12024352827E+04  0.11794197053E+04 0.  0.
        1    1    3    3  502    0 -0.85033590164E+02 -0.55065298085E+03  0.79854701551E+02  0.56287315637E+03  0.50400001928E-02 0.  1.
       -1    1    3    3    0  502  0.85033590164E+02  0.55065298085E+03 -0.31399091801E+03  0.63956212630E+03  0.50400001928E-02 0. -1.
</event>
<event>
 5   0  0.1423024E-03  0.1193007E+04  0.7818609E-02  0.9119000E-01
       -1   -1    0    0    0  501  0.00000000000E+00  0.00000000000E+00  0.52823915170E+03  0.52823915173E+03  0.50400001928E-02 0. -1.
        1   -1    0    0  501    0  0.00000000000E+00  0.00000000000E+00 -0.67358973250E+03  0.67358973251E+03  0.50400001928E-02 0.  1.
    10030    2    1    2    0    0  0.00000000000E+00  0.00000000000E+00 -0.14535058079E+03  0.12018288842E+04  0.11930070728E+04 0.  0.
        2    1    3    3  502    0  0.22825636873E+02  0.37712891911E+03 -0.53768283044E+03  0.65715299397E+03  0.25500000920E-02 0.  1.
       -2    1    3    3    0  502 -0.22825636873E+02 -0.37712891911E+03  0.39233224964E+03  0.54467589027E+03  0.25500000920E-02 0. -1.
</event>
<event>
 5   0  0.2580244E-03  0.1082435E+04  0.7818609E-02  0.9222483E-01
        2   -1    0    0  501    0  0.00000000000E+00  0.00000000000E+00  0.14680052743E+04  0.14680052743E+04  0.25500000920E-02 0. -1.
       -2   -1    0    0    0  501  0.00000000000E+00  0.00000000000E+00 -0.19953362869E+03  0.19953362871E+03  0.25500000920E-02 0.  1.
    10030    2    1    2    0    0  0.00000000000E+00  0.00000000000E+00  0.12684716456E+04  0.16675389030E+04  0.10824350684E+04 0.  0.
        1    1    3    3  502    0  0.36613980951E+03  0.27109096929E+03  0.10843482742E+04  0.11761631917E+04  0.50400001928E-02 0. -1.
       -1    1    3    3    0  502 -0.36613980951E+03 -0.27109096929E+03  0.18412337141E+03  0.49137571131E+03  0.50400001928E-02 0.  1.
</event>
<event>
 5   0  0.2517023E-03  0.1198246E+04  0.7818609E-02  0.9114393E-01
       -2   -1    0    0    0  501  0.00000000000E+00  0.00000000000E+00  0.34546240550E+03  0.34546240551E+03  0.25500000920E-02 0. -1.
        2   -1    0    0  501    0  0.00000000000E+00  0.00000000000E+00 -0.10390381342E+04  0.10390381342E+04  0.25500000920E-02 0.  1.
    10030    2    1    2    0    0  0.00000000000E+00  0.00000000000E+00 -0.69357572868E+03  0.13845005397E+04  0.11982464075E+04 0.  0.
        3    1    3    3  502    0 -0.17605442799E+03 -0.34948947064E+03  0.17739257662E+03  0.42965822248E+03  0.10100000352E+00 0. -1.
       -3    1    3    3    0  502  0.17605442799E+03  0.34948947064E+03 -0.87096830529E+03  0.95484231721E+03  0.10100000352E+00 0.  1.
</event>
<event>
 5   0  0.1469851E-03  0.1200338E+04  0.7818609E-02  0.9112561E-01
        1   -1    0    0  501    0  0.00000000000E+00  0.00000000000E+00  0.38478334416E+03  0.38478334419E+03  0.50400001928E-02 0.  1.
       -1   -1    0    0    0  501  0.00000000000E+00  0.00000000000E+00 -0.93611892301E+03  0.93611892302E+03  0.50400001928E-02 0. -1.
    10030    2    1    2    0    0  0.00000000000E+00  0.00000000000E+00 -0.55133557884E+03  0.13209022672E+04  0.12003382353E+04 0.  0.
        5    1    3    3  502    0 -0.59226447957E+03 -0.95896256535E+02 -0.29152232403E+03  0.66706870800E+03  0.46999998093E+01 0.  1.
       -5    1    3    3    0  502  0.59226447957E+03  0.95896256535E+02 -0.25981325481E+03  0.65383355922E+03  0.46999998093E+01 0. -1.
</event>
<event>
 5   0  0.2517023E-03  0.1192289E+04  0.7818609E-02  0.9119633E-01
       -2   -1    0    0    0  501  0.00000000000E+00  0.00000000000E+00  0.24701540599E+03  0.24701540600E+03  0.25500000920E-02 0.  1.
        2   -1    0    0  501    0  0.00000000000E+00  0.00000000000E+00 -0.14387286429E+04  0.14387286429E+04  0.25500000920E-02 0. -1.
    10030    2    1    2    0    0  0.00000000000E+00  0.00000000000E+00 -0.11917132369E+04  0.16857440489E+04  0.11922887902E+04 0.  0.
        3    1    3    3  502    0  0.40416269278E+03 -0.86344583824E+02  0.11590789882E+02  0.41344555385E+03  0.10100000352E+00 0.  1.
       -3    1    3    3    0  502 -0.40416269278E+03  0.86344583824E+02 -0.12033040268E+04  0.12722984950E+04  0.10100000352E+00 0. -1.
</event>
<event>
 5   0  0.1423024E-03  0.1204802E+04  0.7818609E-02  0.9108664E-01
       -1   -1    0    0    0  501  0.00000000000E+00  0.00000000000E+00  0.60627226197E+03  0.60627226199E+03  0.50400001928E-02 0.  1.
        1   -1    0    0  501    0  0.00000000000E+00  0.00000000000E+00 -0.59855417430E+03  0.59855417432E+03  0.50400001928E-02 0. -1.
    10030    2    1    2    0    0  0.00000000000E+00  0.00000000000E+00  0.77180876711E+01  0.12048264363E+04  0.12048017151E+04 0.  0.
        2    1    3    3  502    0  0.45683953145E+03 -0.23138439475E+03  0.32111261414E+03  0.60444553650E+03  0.25500000920E-02 0.  1.
       -2    1    3    3    0  502 -0.45683953145E+03  0.23138439475E+03 -0.31339452647E+03  0.60038089981E+03  0.25500000920E-02 0. -1.
</event>
<event>
 5   0  0.1455076E-03  0.1199932E+04  0.7818609E-02  0.9112916E-01
        1   -1    0    0  501    0  0.00000000000E+00  0.00000000000E+00  0.94791554437E+03  0.94791554439E+03  0.50400001928E-02 0.  1.
       -1   -1    0    0    0  501  0.00000000000E+00  0.00000000000E+00 -0.37973743740E+03  0.37973743744E+03  0.50400001928E-02 0. -1.
    10030    2    1    2    0    0  0.00000000000E+00  0.00000000000E+00  0.56817810697E+03  0.13276529818E+04  0.11999316976E+04 0.  0.
        4    1    3    3  502    0 -0.18037037343E+03  0.27580473824E+03 -0.27062913045E+03  0.42643107813E+03  0.12699999809E+01 0. -1.
       -4    1    3    3    0  502  0.18037037343E+03 -0.27580473824E+03  0.83880723742E+03  0.90122190369E+03  0.12699999809E+01 0.  1.
</event>
<event>
 5   0  0.2517023E-03  0.1210965E+04  0.7818609E-02  0.9103313E-01
       -2   -1    0    0    0  501  0.00000000000E+00  0.00000000000E+00  0.68526950553E+03  0.68526950553E+03  0.25500000920E-02 0. -1.
        2   -1    0    0  501    0  0.00000000000E+00  0.00000000000E+00 -0.53498492890E+03  0.53498492890E+03  0.25500000920E-02 0.  1.
    10030    2    1    2    0    0  0.00000000000E+00  0.00000000000E+00  0.15028457663E+03  0.12202544344E+04  0.12109646695E+04 0.  0.
        3    1    3    3  502    0  0.19141271952E+02 -0.36058506333E+03  0.56489636028E+03  0.67044454226E+03  0.10100000352E+00 0. -1.
       -3    1    3    3    0  502 -0.19141271952E+02  0.36058506333E+03 -0.41461178365E+03  0.54980989217E+03  0.10100000352E+00 0.  1.
</event>
<event>
 5   0  0.1403154E-03  0.1202917E+04  0.7818609E-02  0.9110307E-01
        1   -1    0    0  501    0  0.00000000000E+00  0.00000000000E+00  0.24991665631E+04  0.24991665631E+04  0.50400001928E-02 0.  1.
       -1   -1    0    0    0  501  0.00000000000E+00  0.00000000000E+00 -0.14474925744E+03  0.14474925753E+03  0.50400001928E-02 0. -1.
    10030    2    1    2    0    0  0.00000000000E+00  0.00000000000E+00  0.23544173057E+04  0.26439158207E+04  0.12029172945E+04 0.  0.
        3    1    3    3  502    0 -0.25032680805E+03 -0.28341932608E+03  0.22052208389E+04  0.22374067542E+04  0.10100000352E+00 0.  1.
       -3    1    3    3    0  502  0.25032680805E+03  0.28341932608E+03  0.14919646682E+03  0.40650906649E+03  0.10100000352E+00 0. -1.
</event>
<event>
 5   0  0.1404833E-03  0.1194011E+04  0.7818609E-02  0.9118115E-01
       -1   -1    0    0    0  501  0.00000000000E+00  0.00000000000E+00  0.36762731586E+03  0.36762731590E+03  0.50400001928E-02 0. -1.
        1   -1    0    0  501    0  0.00000000000E+00  0.00000000000E+00 -0.96950257973E+03  0.96950257975E+03  0.50400001928E-02 0.  1.
    10030    2    1    2    0    0  0.00000000000E+00  0.00000000000E+00 -0.60187526387E+03  0.13371298956E+04  0.11940111074E+04 0.  0.
        1    1    3    3  502    0 -0.25790188387E+03 -0.19947332902E+03  0.25912042916E+03  0.41646895146E+03  0.50400001928E-02 0. -1.
       -1    1    3    3    0  502  0.25790188387E+03  0.19947332902E+03 -0.86099569303E+03  0.92066094418E+03  0.50400001928E-02 0.  1.
</event>
<event>
 5   0  0.1455076E-03  0.1184930E+04  0.7818609E-02  0.9126150E-01
        1   -1    0    0  501    0  0.00000000000E+00  0.00000000000E+00  0.22465642213E+04  0.22465642213E+04  0.50400001928E-02 0.  1.
       -1   -1    0    0    0  501  0.00000000000E+00  0.00000000000E+00 -0.15624521054E+03  0.15624521062E+03  0.50400001928E-02 0. -1.
    10030    2    1    2    0    0  0.00000000000E+00  0.00000000000E+00  0.20903190107E+04  0.24028094319E+04  0.11849302087E+04 0.  0.
        4    1    3    3  502    0 -0.81878276881E+02  0.55084533934E+03  0.14551509670E+04  0.15580759255E+04  0.12699999809E+01 0.  1.
       -4    1    3    3    0  502  0.81878276881E+02 -0.55084533934E+03  0.63516804376E+03  0.84473350639E+03  0.12699999809E+01 0. -1.
</event>
<event>
 5   0  0.2484507E-03  0.1196923E+04  0.7818609E-02  0.9115554E-01
        2   -1    0    0  501    0  0.00000000000E+00  0.00000000000E+00  0.15431608382E+04  0.15431608382E+04  0.25500000920E-02 0.  1.
       -2   -1    0    0    0  501  0.00000000000E+00  0.00000000000E+00 -0.23209269804E+03  0.23209269806E+03  0.25500000920E-02 0. -1.
    10030    2    1    2    0    0  0.00000000000E+00  0.00000000000E+00  0.13110681401E+04  0.17752535362E+04  0.11969233266E+04 0.  0.
        2    1    3    3  502    0  0.40909690244E+03  0.42844671968E+03  0.52942450024E+03  0.79449176751E+03  0.25500000920E-02 0.  1.
       -2    1    3    3    0  502 -0.40909690244E+03 -0.42844671968E+03  0.78164363991E+03  0.98076176873E+03  0.25500000920E-02 0. -1.
</event>
<event>
 5   0  0.2484507E-03  0.1192124E+04  0.7818609E-02  0.9119779E-01
       -2   -1    0    0    0  501  0.00000000000E+00  0.00000000000E+00  0.48881031425E+03  0.48881031426E+03  0.25500000920E-02 0. -1.
        2   -1    0    0  501    0  0.00000000000E+00  0.00000000000E+00 -0.72684566873E+03  0.72684566873E+03  0.25500000920E-02 0.  1.
    10030    2    1    2    0    0  0.00000000000E+00  0.00000000000E+00 -0.23803535448E+03  0.12156559830E+04  0.11921235838E+04 0.  0.
        2    1    3    3  502    0  0.42451582648E+03  0.35070405343E+03  0.11370350042E+03  0.56225928720E+03  0.25500000920E-02 0. -1.
       -2    1    3    3    0  502 -0.42451582648E+03 -0.35070405343E+03 -0.35173885490E+03  0.65339669580E+03  0.25500000920E-02 0.  1.
</event>
<event>
 5   0  0.2484507E-03  0.1167740E+04  0.7818609E-02  0.9141572E-01
       -2   -1    0    0    0  501  0.00000000000E+00  0.00000000000E+00  0.47214836163E+03  0.47214836164E+03  0.25500000920E-02 0.  1.
        2   -1    0    0  501    0  0.00000000000E+00  0.00000000000E+00 -0.72202749607E+03  0.72202749608E+03  0.25500000920E-02 0. -1.
    10030    2    1    2    0    0  0.00000000000E+00  0.00000000000E+00 -0.24987913444E+03  0.11941758577E+04  0.11677398671E+04 0.  0.
        2    1    3    3  502    0  0.24793145691E+03  0.52539205994E+03 -0.65333900029E+02  0.58461555100E+03  0.25500000920E-02 0. -1.
       -2    1    3    3    0  502 -0.24793145691E+03 -0.52539205994E+03 -0.18454523441E+03  0.60956030672E+03  0.25500000920E-02 0.  1.
</event>
<event>
 5   0  0.1423024E-03  0.1199450E+04  0.7818609E-02  0.9113338E-01
        1   -1    0    0  501    0  0.00000000000E+00  0.00000000000E+00  0.11734276285E+04  0.11734276286E+04  0.50400001928E-02 0. -1.
       -1   -1    0    0    0  501  0.00000000000E+00  0.00000000000E+00 -0.30651239291E+03  0.30651239295E+03  0.50400001928E-02 0.  1.
    10030    2    1    2    0    0  0.00000000000E+00  0.00000000000E+00  0.86691523564E+03  0.14799400215E+04  0.11994500579E+04 0.  0.
        2    1    3    3  502    0  0.16339267501E+03  0.92870238777E+02  0.11361538086E+04  0.11515934718E+04  0.25500000920E-02 0. -1.
       -2    1    3    3    0  502 -0.16339267501E+03 -0.92870238777E+02 -0.26923857299E+03  0.32834654968E+03  0.25500000920E-02 0.  1.
</event>
<event>
 5   0  0.1455076E-03  0.1204194E+04  0.7818609E-02  0.9109193E-01
        1   -1    0    0  501    0  0.00000000000E+00  0.00000000000E+00  0.11662781431E+04  0.11662781432E+04  0.50400001928E-02 0.  1.
       -1   -1    0    0    0  501  0.00000000000E+00  0.00000000000E+00 -0.31083579994E+03  0.31083579998E+03  0.50400001928E-02 0. -1.
    10030    2    1    2    0    0  0.00000000000E+00  0.00000000000E+00  0.85544234320E+03  0.14771139431E+04  0.12041943358E+04 0.  0.
        4    1    3    3  502    0  0.31211823367E+03  0.28301296619E+03 -0.99884494481E+02  0.43300422164E+03  0.12699999809E+01 0. -1.
       -4    1    3    3    0  502 -0.31211823367E+03 -0.28301296619E+03  0.95532683768E+03  0.10441097215E+04  0.12699999809E+01 0.  1.
</event>
<event>
 5   0  0.1403154E-03  0.1194838E+04  0.7818609E-02  0.9117387E-01
        1   -1    0    0  501    0  0.00000000000E+00  0.00000000000E+00  0.70516457191E+03  0.70516457193E+03  0.50400001928E-02 0.  1.
       -1   -1    0    0    0  501  0.00000000000E+00  0.00000000000E+00 -0.50613615113E+03  0.50613615116E+03  0.50400001928E-02 0. -1.
    10030    2    1    2    0    0  0.00000000000E+00  0.00000000000E+00  0.19902842078E+03  0.12113007231E+04  0.11948377001E+04 0.  0.
        3    1    3    3  502    0 -0.12936707626E+03  0.40206868104E+03 -0.32881673558E+03  0.53527144562E+03  0.10100000352E+00 0. -1.
       -3    1    3    3    0  502  0.12936707626E+03 -0.40206868104E+03  0.52784515636E+03  0.67602927747E+03  0.10100000352E+00 0.  1.
</event>
<event>
 5   0  0.2499890E-03  0.1197472E+04  0.7818609E-02  0.9115072E-01
        2   -1    0    0  501    0  0.00000000000E+00  0.00000000000E+00  0.13367245264E+04  0.13367245264E+04  0.25500000920E-02 0. -1.
       -2   -1    0    0    0  501  0.00000000000E+00  0.00000000000E+00 -0.26818155995E+03  0.26818155996E+03  0.25500000920E-02 0.  1.
    10030    2    1    2    0    0  0.00000000000E+00  0.00000000000E+00  0.10685429665E+04  0.16049060864E+04  0.11974721186E+04 0.  0.
        5    1    3    3  502    0  0.39522618283E+02  0.54938926034E+03  0.21974997059E+03  0.59304530713E+03  0.46999998093E+01 0.  1.
       -5    1    3    3    0  502 -0.39522618283E+02 -0.54938926034E+03  0.84879299587E+03  0.10118607792E+04  0.46999998093E+01 0. -1.
</event>
<event>
 5   0  0.1455076E-03  0.1187537E+04  0.7818609E-02  0.9123836E-01
       -1   -1    0    0    0  501  0.00000000000E+00  0.00000000000E+00  0.31107304582E+03  0.31107304587E+03  0.50400001928E-02 0. -1.
        1   -1    0    0  501    0  0.00000000000E+00  0.00000000000E+00 -0.11333702589E+04  0.11333702589E+04  0.50400001928E-02 0.  1.
    10030    2    1    2    0    0  0.00000000000E+00  0.00000000000E+00 -0.82229721307E+03  0.14444433048E+04  0.11875368432E+04 0.  0.
        4    1    3    3  502    0 -0.53864716803E+02 -0.47215783020E+02 -0.11280941726E+04  0.11303666720E+04  0.12699999809E+01 0.  1.
       -4    1    3    3    0  502  0.53864716803E+02  0.47215783020E+02  0.30579695957E+03  0.31407663279E+03  0.12699999809E+01 0. -1.
</event>
<event>
 5   0  0.2499890E-03  0.1168531E+04  0.7818609E-02  0.9140857E-01
       -2   -1    0    0    0  501  0.00000000000E+00  0.00000000000E+00  0.51190608772E+03  0.51190608773E+03  0.25500000920E-02 0.  1.
        2   -1    0    0  501    0  0.00000000000E+00  0.00000000000E+00 -0.66685261205E+03  0.66685261205E+03  0.25500000920E-02 0. -1.
    10030    2    1    2    0    0  0.00000000000E+00  0.00000000000E+00 -0.15494652433E+03  0.11787586998E+04  0.11685305503E+04 0.  0.
        5    1    3    3  502    0  0.56332322197E+03 -0.16824280517E+02  0.77913057083E+02  0.56895399049E+03  0.46999998093E+01 0.  1.
       -5    1    3    3    0  502 -0.56332322197E+03  0.16824280517E+02 -0.23285958141E+03  0.60980470930E+03  0.46999998093E+01 0. -1.
</event>
<event>
 5   0  0.1455076E-03  0.1193851E+04  0.7818609E-02  0.9118256E-01
       -1   -1    0    0    0  501  0.00000000000E+00  0.00000000000E+00  0.41415393365E+03  0.41415393368E+03  0.50400001928E-02 0.  1.
        1   -1    0    0  501    0  0.00000000000E+00  0.00000000000E+00 -0.86035682746E+03  0.86035682747E+03  0.50400001928E-02 0. -1.
    10030    2    1    2    0    0  0.00000000000E+00  0.00000000000E+00 -0.44620289381E+03  0.12745107612E+04  0.11938511875E+04 0.  0.
        4    1    3    3  502    0  0.12066879032E+03  0.22461645963E+03  0.35309066808E+03  0.43553202372E+03  0.12699999809E+01 0.  1.
       -4    1    3    3    0  502 -0.12066879032E+03 -0.22461645963E+03 -0.79929356189E+03  0.83897873744E+03  0.12699999809E+01 0. -1.
</event>
<event>
 5   0  0.1469851E-03  0.1189688E+04  0.7818609E-02  0.9121931E-01
        1   -1    0    0  501    0  0.00000000000E+00  0.00000000000E+00  0.19884618675E+04  0.19884618675E+04  0.50400001928E-02 0.  1.
       -1   -1    0    0    0  501  0.00000000000E+00  0.00000000000E+00 -0.17794633361E+03  0.17794633368E+03  0.50400001928E-02 0. -1.
    10030    2    1    2    0    0  0.00000000000E+00  0.00000000000E+00  0.18105155339E+04  0.21664082011E+04  0.11896881926E+04 0.  0.
        5    1    3    3  502    0  0.37344628113E+03 -0.40792433729E+03  0.13040210081E+04  0.14164594132E+04  0.46999998093E+01 0.  1.
       -5    1    3    3    0  502 -0.37344628113E+03  0.40792433729E+03  0.50649452577E+03  0.74994878790E+03  0.46999998093E+01 0. -1.
</event>
<event>
 5   0  0.1403154E-03  0.1209409E+04  0.7818609E-02  0.9104661E-01
        1   -1    0    0  501    0  0.00000000000E+00  0.00000000000E+00  0.43808297296E+03  0.43808297299E+03  0.50400001928E-02 0.  1.
       -1   -1    0    0    0  501  0.00000000000E+00  0.00000000000E+00 -0.83469907862E+03  0.83469907864E+03  0.50400001928E-02 0. -1.
    10030    2    1    2    0    0  0.00000000000E+00  0.00000000000E+00 -0.39661610567E+03  0.12727820516E+04  0.12094088703E+04 0.  0.
        3    1    3    3  502    0  0.24408773293E+03 -0.52211039490E+03 -0.57178001042E+01  0.57637729767E+03  0.10100000352E+00 0.  1.
       -3    1    3    3    0  502 -0.24408773293E+03  0.52211039490E+03 -0.39089830556E+03  0.69640475395E+03  0.10100000352E+00 0. -1.
</event>
<event>
 5   0  0.1404833E-03  0.1201053E+04  0.7818609E-02  0.9111935E-01
        1   -1    0    0  501    0  0.00000000000E+00  0.00000000000E+00  0.30822926779E+03  0.30822926783E+03  0.50400001928E-02 0. -1.
       -1   -1    0    0    0  501  0.00000000000E+00  0.00000000000E+00 -0.11700132240E+04  0.11700132240E+04  0.50400001928E-02 0.  1.
    10030    2    1    2    0    0  0.00000000000E+00  0.00000000000E+00 -0.86178395617E+03  0.14782424918E+04  0.12010534033E+04 0.  0.
        1    1    3    3  502    0 -0.80673024046E+02 -0.24650204722E+03 -0.10975214277E+04  0.11277520474E+04  0.50400001928E-02 0.  1.
       -1    1    3    3    0  502  0.80673024046E+02  0.24650204722E+03  0.23573747156E+03  0.35049044440E+03  0.50400001928E-02 0. -1.
</event>
<event>
 5   0  0.2579442E-03  0.1204629E+04  0.7818609E-02  0.9108814E-01
       -2   -1    0    0    0  501  0.00000000000E+00  0.00000000000E+00  0.62020215464E+03  0.62020215465E+03  0.25500000920E-02 0.  1.
        2   -1    0    0  501    0  0.00000000000E+00  0.00000000000E+00 -0.58494314182E+03  0.58494314183E+03  0.25500000920E-02 0. -1.
    10030    2    1    2    0    0  0.00000000000E+00  0.00000000000E+00  0.35259012818E+02  0.12051452965E+04  0.12046293985E+04 0.  0.
        4    1    3    3  502    0 -0.15701312034E+03  0.39657828116E+03 -0.40782186587E+03  0.59012519030E+03  0.12699999809E+01 0. -1.
       -4    1    3    3    0  502  0.15701312034E+03 -0.39657828116E+03  0.44308087869E+03  0.61502010618E+03  0.12699999809E+01 0.  1.
</event>
<event>
 5   0  0.2484507E-03  0.1199604E+04  0.7818609E-02  0.9113203E-01
       -2   -1    0    0    0  501  0.00000000000E+00  0.00000000000E+00  0.42172115213E+03  0.42172115213E+03  0.25500000920E-02 0.  1.
        2   -1    0    0  501    0  0.00000000000E+00  0.00000000000E+00 -0.85308148666E+03  0.85308148666E+03  0.25500000920E-02 0. -1.
    10030    2    1    2    0    0  0.00000000000E+00  0.00000000000E+00 -0.43136033453E+03  0.12748026388E+04  0.11996041137E+04 0.  0.
        2    1    3    3  502    0  0.13159332299E+03  0.44940371872E+03 -0.61398479452E+03  0.77217733259E+03  0.25500000920E-02 0. -1.
       -2    1    3    3    0  502 -0.13159332299E+03 -0.44940371872E+03  0.18262445998E+03  0.50262530621E+03  0.25500000920E-02 0.  1.
</event>
<event>
 5   0  0.1403154E-03  0.1197887E+04  0.7818609E-02  0.9114708E-01
        1   -1    0    0  501    0  0.00000000000E+00  0.00000000000E+00  0.68488220970E+03  0.68488220972E+03  0.50400001928E-02 0. -1.
       -1   -1    0    0    0  501  0.00000000000E+00  0.00000000000E+00 -0.52378804730E+03  0.52378804733E+03  0.50400001928E-02 0.  1.
    10030    2    1    2    0    0  0.00000000000E+00  0.00000000000E+00  0.16109416239E+03  0.12086702570E+04  0.11978866645E+04 0.  0.
        3    1    3    3  502    0 -0.44251005230E+03 -0.75349913559E+02  0.48065219739E+03  0.65766199595E+03  0.10100000352E+00 0. -1.
       -3    1    3    3    0  502  0.44251005230E+03  0.75349913559E+02 -0.31955803499E+03  0.55100826109E+03  0.10100000352E+00 0.  1.
</event>
<event>
 5   0  0.2517023E-03  0.1213269E+04  0.7818609E-02  0.9101321E-01
       -2   -1    0    0    0  501  0.00000000000E+00  0.00000000000E+00  0.22739866455E+03  0.22739866457E+03  0.25500000920E-02 0.  1.
        2   -1    0    0  501    0  0.00000000000E+00  0.00000000000E+00 -0.16183272892E+04  0.16183272892E+04  0.25500000920E-02 0. -1.
    10030    2    1    2    0    0  0.00000000000E+00  0.00000000000E+00 -0.13909286246E+04  0.18457259538E+04  0.12132690788E+04 0.  0.
        3    1    3    3  502    0 -0.15728663556E+03  0.34354807332E+03  0.26530205106E+02  0.37877199790E+03  0.10100000352E+00 0.  1.
       -3    1    3    3    0  502  0.15728663556E+03 -0.34354807332E+03 -0.14174588297E+04  0.14669539559E+04  0.10100000352E+00 0. -1.
</event>
<event>
 5   0  0.1404833E-03  0.1203176E+04  0.7818609E-02  0.9110082E-01
        1   -1    0    0  501    0  0.00000000000E+00  0.00000000000E+00  0.11653698437E+04  0.11653698437E+04  0.50400001928E-02 0. -1.
       -1   -1    0    0    0  501  0.00000000000E+00  0.00000000000E+00 -0.31055190541E+03  0.31055190545E+03  0.50400001928E-02 0.  1.
    10030    2    1    2    0    0  0.00000000000E+00  0.00000000000E+00  0.85481793826E+03  0.14759217491E+04  0.12031755075E+04 0.  0.
        1    1    3    3  502    0 -0.61316408154E+02  0.56842613055E+03  0.19778590044E+03  0.60496878452E+03  0.50400001928E-02 0.  1.
       -1    1    3    3    0  502  0.61316408154E+02 -0.56842613055E+03  0.65703203782E+03  0.87095296460E+03  0.50400001928E-02 0. -1.
</event>
<event>
 5   0  0.1455076E-03  0.1203711E+04  0.7818609E-02  0.9109614E-01
        1   -1    0    0  501    0  0.00000000000E+00  0.00000000000E+00  0.13230506931E+04  0.13230506931E+04  0.50400001928E-02 0.  1.
       -1   -1    0    0    0  501  0.00000000000E+00  0.00000000000E+00 -0.27378412607E+03  0.27378412612E+03  0.50400001928E-02 0. -1.
    10030    2    1    2    0    0  0.00000000000E+00  0.00000000000E+00  0.10492665670E+04  0.15968348192E+04  0.12037113903E+04 0.  0.
        4    1    3    3  502    0  0.35022640319E+03  0.28845306597E+03  0.58581007820E-01  0.45372383792E+03  0.12699999809E+01 0. -1.
       -4    1    3    3    0  502 -0.35022640319E+03 -0.28845306597E+03  0.10492079860E+04  0.11431109813E+04  0.12699999809E+01 0.  1.
</event>
<event>
 5   0  0.1469851E-03  0.1204627E+04  0.7818609E-02  0.9108816E-01
       -1   -1    0    0    0  501  0.00000000000E+00  0.00000000000E+00  0.69757279734E+03  0.69757279736E+03  0.50400001928E-02 0.  1.
        1   -1    0    0  501    0  0.00000000000E+00  0.00000000000E+00 -0.52006304104E+03  0.52006304106E+03  0.50400001928E-02 0. -1.
    10030    2    1    2    0    0  0.00000000000E+00  0.00000000000E+00  0.17750975630E+03  0.12176358384E+04  0.12046274617E+04 0.  0.
        5    1    3    3  502    0  0.17535376474E+03 -0.18248298384E+03 -0.46369145423E+03  0.52828102079E+03  0.46999998093E+01 0. -1.
       -5    1    3    3    0  502 -0.17535376474E+03  0.18248298384E+03  0.64120121053E+03  0.68935481763E+03  0.46999998093E+01 0.  1.
</event>
<event>
 5   0  0.2517023E-03  0.1195436E+04  0.7818609E-02  0.9116861E-01
        2   -1    0    0  501    0  0.00000000000E+00  0.00000000000E+00  0.30646516582E+04  0.30646516582E+04  0.25500000920E-02 0. -1.
       -2   -1    0    0    0  501  0.00000000000E+00  0.00000000000E+00 -0.11657665029E+03  0.11657665032E+03  0.25500000920E-02 0.  1.
    10030    2    1    2    0    0  0.00000000000E+00  0.00000000000E+00  0.29480750079E+04  0.31812283085E+04  0.11954360287E+04 0.  0.
        3    1    3    3  502    0  0.52950138085E+03 -0.24795556431E+03  0.11436572650E+04  0.12844475949E+04  0.10100000352E+00 0.  1.
       -3    1    3    3    0  502 -0.52950138085E+03  0.24795556431E+03  0.18044177429E+04  0.18967807136E+04  0.10100000352E+00 0. -1.
</event>
<event>
 5   0  0.1404833E-03  0.1197232E+04  0.7818609E-02  0.9115283E-01
       -1   -1    0    0    0  501  0.00000000000E+00  0.00000000000E+00  0.44111703315E+03  0.44111703318E+03  0.50400001928E-02 0.  1.
        1   -1    0    0  501    0  0.00000000000E+00  0.00000000000E+00 -0.81234889944E+03  0.81234889946E+03  0.50400001928E-02 0. -1.
    10030    2    1    2    0    0  0.00000000000E+00  0.00000000000E+00 -0.37123186630E+03  0.12534659326E+04  0.11972317009E+04 0.  0.
        1    1    3    3  502    0  0.57970704038E+03  0.14586478484E+03 -0.21879263829E+03  0.63655872213E+03  0.50400001928E-02 0. -1.
       -1    1    3    3    0  502 -0.57970704038E+03 -0.14586478484E+03 -0.15243922801E+03  0.61690721051E+03  0.50400001928E-02 0.  1.
</event>
<event>
 5   0  0.2580244E-03  0.1193375E+04  0.7818609E-02  0.9118676E-01
        2   -1    0    0  501    0  0.00000000000E+00  0.00000000000E+00  0.30304715872E+03  0.30304715873E+03  0.25500000920E-02 0.  1.
       -2   -1    0    0    0  501  0.00000000000E+00  0.00000000000E+00 -0.11748525453E+04  0.11748525453E+04  0.25500000920E-02 0. -1.
    10030    2    1    2    0    0  0.00000000000E+00  0.00000000000E+00 -0.87180538656E+03  0.14778997040E+04  0.11933745862E+04 0.  0.
        1    1    3    3  502    0 -0.35370321956E+03 -0.15262248837E+03 -0.10002151597E+04  0.10718348553E+04  0.50400001928E-02 0. -1.
       -1    1    3    3    0  502  0.35370321956E+03  0.15262248837E+03  0.12840977309E+03  0.40606484868E+03  0.50400001928E-02 0.  1.
</event>
<event>
 5   0  0.1455076E-03  0.1208052E+04  0.7818609E-02  0.9105838E-01
       -1   -1    0    0    0  501  0.00000000000E+00  0.00000000000E+00  0.26877412444E+03  0.26877412449E+03  0.50400001928E-02 0. -1.
        1   -1    0    0  501    0  0.00000000000E+00  0.00000000000E+00 -0.13574500588E+04  0.13574500588E+04  0.50400001928E-02 0.  1.
    10030    2    1    2    0    0  0.00000000000E+00  0.00000000000E+00 -0.10886759343E+04  0.16262241833E+04  0.12080520702E+04 0.  0.
        4    1    3    3  502    0  0.41020709716E+03 -0.32659335790E+03 -0.14068754437E+03  0.54288827766E+03  0.12699999809E+01 0. -1.
       -4    1    3    3    0  502 -0.41020709716E+03  0.32659335790E+03 -0.94798838996E+03  0.10833359056E+04  0.12699999809E+01 0.  1.
</event>
<event>
 5   0  0.1469851E-03  0.1187094E+04  0.7818609E-02  0.9124229E-01
        1   -1    0    0  501    0  0.00000000000E+00  0.00000000000E+00  0.14837472300E+04  0.14837472300E+04  0.50400001928E-02 0.  1.
       -1   -1    0    0    0  501  0.00000000000E+00  0.00000000000E+00 -0.23743784930E+03  0.23743784935E+03  0.50400001928E-02 0. -1.
    10030    2    1    2    0    0  0.00000000000E+00  0.00000000000E+00  0.12463093807E+04  0.17211850793E+04  0.11870935115E+04 0.  0.
        5    1    3    3  502    0 -0.39791586719E+03  0.25073764402E+03  0.11480746193E+04  0.12406868360E+04  0.46999998093E+01 0.  1.
       -5    1    3    3    0  502  0.39791586719E+03 -0.25073764402E+03  0.98234761325E+02  0.48049824331E+03  0.46999998093E+01 0. -1.
</event>
<event>
 5   0  0.1423024E-03  0.1194508E+04  0.7818609E-02  0.9117678E-01
        1   -1    0    0  501    0  0.00000000000E+00  0.00000000000E+00  0.75213382558E+03  0.75213382560E+03  0.50400001928E-02 0.  1.
       -1   -1    0    0    0  501  0.00000000000E+00  0.00000000000E+00 -0.47426685711E+03  0.47426685713E+03  0.50400001928E-02 0. -1.
    10030    2    1    2    0    0  0.00000000000E+00  0.00000000000E+00  0.27786696847E+03  0.12264006827E+04  0.11945076737E+04 0.  0.
        2    1    3    3  502    0  0.31020946808E+03  0.16938791227E+03  0.63323365000E+03  0.72519448040E+03  0.25500000920E-02 0.  1.
       -2    1    3    3    0  502 -0.31020946808E+03 -0.16938791227E+03 -0.35536668153E+03  0.50120620233E+03  0.25500000920E-02 0. -1.
</event>
<event>
 5   0  0.1423024E-03  0.1184734E+04  0.7818609E-02  0.9126325E-01
        1   -1    0    0  501    0  0.00000000000E+00  0.00000000000E+00  0.87182677621E+03  0.87182677623E+03  0.50400001928E-02 0.  1.
       -1   -1    0    0    0  501  0.00000000000E+00  0.00000000000E+00 -0.40248683029E+03  0.40248683032E+03  0.50400001928E-02 0. -1.
    10030    2    1    2    0    0  0.00000000000E+00  0.00000000000E+00  0.46933994592E+03  0.12743136065E+04  0.11847342246E+04 0.  0.
        2    1    3    3  502    0  0.11346835139E+03  0.39886389604E+02 -0.38921504129E+03  0.40737493690E+03  0.25500000920E-02 0. -1.
       -2    1    3    3    0  502 -0.11346835139E+03 -0.39886389604E+02  0.85855498722E+03  0.86693866964E+03  0.25500000920E-02 0.  1.
</event>
<event>
 5   0  0.1469851E-03  0.1220668E+04  0.7818609E-02  0.9094956E-01
       -1   -1    0    0    0  501  0.00000000000E+00  0.00000000000E+00  0.48821517145E+03  0.48821517148E+03  0.50400001928E-02 0. -1.
        1   -1    0    0  501    0  0.00000000000E+00  0.00000000000E+00 -0.76299856342E+03  0.76299856343E+03  0.50400001928E-02 0.  1.
    10030    2    1    2    0    0  0.00000000000E+00  0.00000000000E+00 -0.27478339197E+03  0.12512137349E+04  0.12206678082E+04 0.  0.
        5    1    3    3  502    0 -0.45490435764E+03  0.11416576183E+03  0.26291078511E+03  0.53769504991E+03  0.46999998093E+01 0. -1.
       -5    1    3    3    0  502  0.45490435764E+03 -0.11416576183E+03 -0.53769417708E+03  0.71351868500E+03  0.46999998093E+01 0.  1.
</event>
<event>
 5   0  0.2484507E-03  0.1220278E+04  0.7818609E-02  0.9095290E-01
        2   -1    0    0  501    0  0.00000000000E+00  0.00000000000E+00  0.80253678366E+03  0.80253678366E+03  0.25500000920E-02 0.  1.
       -2   -1    0    0    0  501  0.00000000000E+00  0.00000000000E+00 -0.46386613918E+03  0.46386613919E+03  0.25500000920E-02 0. -1.
    10030    2    1    2    0    0  0.00000000000E+00  0.00000000000E+00  0.33867064447E+03  0.12664029229E+04  0.12202780657E+04 0.  0.
        2    1    3    3  502    0  0.53433108320E+03  0.15529950094E+03  0.42907954672E+03  0.70266414373E+03  0.25500000920E-02 0. -1.
       -2    1    3    3    0  502 -0.53433108320E+03 -0.15529950094E+03 -0.90408902246E+02  0.56373877912E+03  0.25500000920E-02 0.  1.
</event>
<event>
 5   0  0.1455076E-03  0.1197203E+04  0.7818609E-02  0.9115309E-01
       -1   -1    0    0    0  501  0.00000000000E+00  0.00000000000E+00  0.36337208351E+03  0.36337208355E+03  0.50400001928E-02 0. -1.
        1   -1    0    0  501    0  0.00000000000E+00  0.00000000000E+00 -0.98610650454E+03  0.98610650456E+03  0.50400001928E-02 0.  1.
    10030    2    1    2    0    0  0.00000000000E+00  0.00000000000E+00 -0.62273442103E+03  0.13494785881E+04  0.11972026982E+04 0.  0.
        4    1    3    3  502    0 -0.73086520591E+02  0.34399881519E+03 -0.85738160354E+03  0.92670472715E+03  0.12699999809E+01 0.  1.
       -4    1    3    3    0  502  0.73086520591E+02 -0.34399881519E+03  0.23464718251E+03  0.42277386095E+03  0.12699999809E+01 0. -1.
</event>
<event>
 5   0  0.1404833E-03  0.1202380E+04  0.7818609E-02  0.9110776E-01
       -1   -1    0    0    0  501  0.00000000000E+00  0.00000000000E+00  0.20984280561E+03  0.20984280567E+03  0.50400001928E-02 0.  1.
        1   -1    0    0  501    0  0.00000000000E+00  0.00000000000E+00 -0.17223826616E+04  0.17223826616E+04  0.50400001928E-02 0. -1.
    10030    2    1    2    0    0  0.00000000000E+00  0.00000000000E+00 -0.15125398560E+04  0.19322254673E+04  0.12023803227E+04 0.  0.
        1    1    3    3  502    0  0.43818013200E+03 -0.19345901749E+03 -0.17241467118E+03  0.50907272407E+03  0.50400001928E-02 0.  1.
       -1    1    3    3    0  502 -0.43818013200E+03  0.19345901749E+03 -0.13401251848E+04  0.14231527432E+04  0.50400001928E-02 0. -1.
</event>
<event>
 5   0  0.1404833E-03  0.1190202E+04  0.7818609E-02  0.9121476E-01
       -1   -1    0    0    0  501  0.00000000000E+00  0.00000000000E+00  0.22472994726E+03  0.22472994731E+03  0.50400001928E-02 0.  1.
        1   -1    0    0  501    0  0.00000000000E+00  0.00000000000E+00 -0.15758710570E+04  0.15758710570E+04  0.50400001928E-02 0. -1.
    10030    2    1    2    0    0  0.00000000000E+00  0.00000000000E+00 -0.13511411097E+04  0.18006010043E+04  0.11902023686E+04 0.  0.
        1    1    3    3  502    0 -0.40443729475E+03  0.38428162659E+03 -0.36221083601E+03  0.66516056984E+03  0.50400001928E-02 0.  1.
       -1    1    3    3    0  502  0.40443729475E+03 -0.38428162659E+03 -0.98893027373E+03  0.11354404345E+04  0.50400001928E-02 0. -1.
</event>
<event>
 5   0  0.9678750E-04  0.1179295E+04  0.7818609E-02  0.9131175E-01
       -3   -1    0    0    0  501  0.00000000000E+00  0.00000000000E+00  0.33143051101E+03  0.33143052640E+03  0.10100000352E+00 0.  1.
        3   -1    0    0  501    0  0.00000000000E+00  0.00000000000E+00 -0.10490413508E+04  0.10490413557E+04  0.10100000352E+00 0. -1.
    10030    2    1    2    0    0  0.00000000000E+00  0.00000000000E+00 -0.71761083980E+03  0.13804718821E+04  0.11792952556E+04 0.  0.
        5    1    3    3  502    0  0.49736946735E+03  0.93665132367E+02 -0.71292152332E+03  0.87431615134E+03  0.46999998093E+01 0. -1.
       -5    1    3    3    0  502 -0.49736946735E+03 -0.93665132367E+02 -0.46893164807E+01  0.50615573074E+03  0.46999998093E+01 0.  1.
</event>
<event>
 5   0  0.2579442E-03  0.1202411E+04  0.7818609E-02  0.9110749E-01
       -2   -1    0    0    0  501  0.00000000000E+00  0.00000000000E+00  0.37900981752E+03  0.37900981753E+03  0.25500000920E-02 0.  1.
        2   -1    0    0  501    0  0.00000000000E+00  0.00000000000E+00 -0.95366390341E+03  0.95366390342E+03  0.25500000920E-02 0. -1.
    10030    2    1    2    0    0  0.00000000000E+00  0.00000000000E+00 -0.57465408589E+03  0.13326737209E+04  0.12024108815E+04 0.  0.
        4    1    3    3  502    0 -0.45733929501E+03 -0.31353663562E+03 -0.54483762799E+03  0.77737642517E+03  0.12699999809E+01 0.  1.
       -4    1    3    3    0  502  0.45733929501E+03  0.31353663562E+03 -0.29816457901E+02  0.55529729577E+03  0.12699999809E+01 0. -1.
</event>
<event>
 5   0  0.1404833E-03  0.1196089E+04  0.7818609E-02  0.9116287E-01
        1   -1    0    0  501    0  0.00000000000E+00  0.00000000000E+00  0.57378187512E+03  0.57378187514E+03  0.50400001928E-02 0.  1.
       -1   -1    0    0    0  501  0.00000000000E+00  0.00000000000E+00 -0.62333292148E+03  0.62333292150E+03  0.50400001928E-02 0. -1.
    10030    2    1    2    0    0  0.00000000000E+00  0.00000000000E+00 -0.49551046354E+02  0.11971147966E+04  0.11960888471E+04 0.  0.
        1    1    3    3  502    0  0.27267657363E+03  0.45433300581E+03 -0.30229686259E+03  0.61004457799E+03  0.50400001928E-02 0. -1.
       -1    1    3    3    0  502 -0.27267657363E+03 -0.45433300581E+03  0.25274581624E+03  0.58707021865E+03  0.50400001928E-02 0.  1.
</event>
<event>
 5   0  0.2579442E-03  0.1217908E+04  0.7818609E-02  0.9097325E-01
       -2   -1    0    0    0  501  0.00000000000E+00  0.00000000000E+00  0.86857758590E+03  0.86857758591E+03  0.25500000920E-02 0. -1.
        2   -1    0    0  501    0  0.00000000000E+00  0.00000000000E+00 -0.42693359941E+03  0.42693359942E+03  0.25500000920E-02 0.  1.
    10030    2    1    2    0    0  0.00000000000E+00  0.00000000000E+00  0.44164398649E+03  0.12955111853E+04  0.12179079688E+04 0.  0.
        4    1    3    3  502    0 -0.10897255408E+02  0.35005215135E+02 -0.42575717477E+03  0.42733464642E+03  0.12699999809E+01 0.  1.
       -4    1    3    3    0  502  0.10897255408E+02 -0.35005215135E+02  0.86740116126E+03  0.86817653891E+03  0.12699999809E+01 0. -1.
</event>
<event>
 5   0  0.2517023E-03  0.1195092E+04  0.7818609E-02  0.9117163E-01
        2   -1    0    0  501    0  0.00000000000E+00  0.00000000000E+00  0.16892994466E+04  0.16892994466E+04  0.25500000920E-02 0. -1.
       -2   -1    0    0    0  501  0.00000000000E+00  0.00000000000E+00 -0.21136653050E+03  0.21136653051E+03  0.25500000920E-02 0.  1.
    10030    2    1    2    0    0  0.00000000000E+00  0.00000000000E+00  0.14779329161E+04  0.19006659771E+04  0.11950922358E+04 0.  0.
        3    1    3    3  502    0  0.23920637872E+03  0.25874770172E+03  0.15064710759E+04  0.15471345053E+04  0.10100000352E+00 0. -1.
       -3    1    3    3    0  502 -0.23920637872E+03 -0.25874770172E+03 -0.28538159846E+02  0.35353147177E+03  0.10100000352E+00 0.  1.
</event>
<event>
 5   0  0.2580244E-03  0.1203538E+04  0.7818609E-02  0.9109765E-01
       -2   -1    0    0    0  501  0.00000000000E+00  0.00000000000E+00  0.16785823267E+03  0.16785823268E+03  0.25500000920E-02 0.  1.
        2   -1    0    0  501    0  0.00000000000E+00  0.00000000000E+00 -0.21573331870E+04  0.21573331870E+04  0.25500000920E-02 0. -1.
    10030    2    1    2    0    0  0.00000000000E+00  0.00000000000E+00 -0.19894749543E+04  0.23251914197E+04  0.12035383435E+04 0.  0.
        1    1    3    3  502    0 -0.15087217054E+03 -0.27160947566E+03  0.91158538806E+00  0.31070074047E+03  0.50400001928E-02 0.  1.
       -1    1    3    3    0  502  0.15087217054E+03  0.27160947566E+03 -0.19903865397E+04  0.20144906792E+04  0.50400001928E-02 0. -1.
</event>
<event>
 5   0  0.2579442E-03  0.1163189E+04  0.7818609E-02  0.9145702E-01
        2   -1    0    0  501    0  0.00000000000E+00  0.00000000000E+00  0.11938834854E+04  0.11938834854E+04  0.25500000920E-02 0.  1.
       -2   -1    0    0    0  501  0.00000000000E+00  0.00000000000E+00 -0.28332086726E+03  0.28332086727E+03  0.25500000920E-02 0. -1.
    10030    2    1    2    0    0  0.00000000000E+00  0.00000000000E+00  0.91056261813E+03  0.14772043527E+04  0.11631889004E+04 0.  0.
        4    1    3    3  502    0  0.23711346664E+03  0.71128276653E+02  0.11236336760E+04  0.11505808440E+04  0.12699999809E+01 0.  1.
       -4    1    3    3    0  502 -0.23711346664E+03 -0.71128276653E+02 -0.21307105788E+03  0.32662350866E+03  0.12699999809E+01 0. -1.
</event>
<event>
 5   0  0.1404833E-03  0.1205392E+04  0.7818609E-02  0.9108150E-01
       -1   -1    0    0    0  501  0.00000000000E+00  0.00000000000E+00  0.36533589448E+03  0.36533589451E+03  0.50400001928E-02 0. -1.
        1   -1    0    0  501    0  0.00000000000E+00  0.00000000000E+00 -0.99427023423E+03  0.99427023424E+03  0.50400001928E-02 0.  1.
    10030    2    1    2    0    0  0.00000000000E+00  0.00000000000E+00 -0.62893433975E+03  0.13596061288E+04  0.12053922273E+04 0.  0.
        1    1    3    3  502    0  0.30410210044E+03 -0.24074557797E+03 -0.83479463149E+03  0.92049910245E+03  0.50400001928E-02 0.  1.
       -1    1    3    3    0  502 -0.30410210044E+03  0.24074557797E+03  0.20586029175E+03  0.43910702631E+03  0.50400001928E-02 0. -1.
</event>
<event>
 5   0  0.2517023E-03  0.1200156E+04  0.7818609E-02  0.9112720E-01
        2   -1    0    0  501    0  0.00000000000E+00  0.00000000000E+00  0.56628217714E+03  0.56628217714E+03  0.25500000920E-02 0.  1.
       -2   -1    0    0    0  501  0.00000000000E+00  0.00000000000E+00 -0.63589049934E+03  0.63589049934E+03  0.25500000920E-02 0. -1.
    10030    2    1    2    0    0  0.00000000000E+00  0.00000000000E+00 -0.69608322200E+02  0.12021726765E+04  0.12001557505E+04 0.  0.
        3    1    3    3  502    0 -0.18671996315E+03 -0.56874572010E+03  0.71877335769E+01  0.59865491937E+03  0.10100000352E+00 0. -1.
       -3    1    3    3    0  502  0.18671996315E+03  0.56874572010E+03 -0.76796055777E+02  0.60351775712E+03  0.10100000352E+00 0.  1.
</event>
<event>
 5   0  0.1404833E-03  0.1201438E+04  0.7818609E-02  0.9111598E-01
       -1   -1    0    0    0  501  0.00000000000E+00  0.00000000000E+00  0.11626654057E+04  0.11626654057E+04  0.50400001928E-02 0.  1.
        1   -1    0    0  501    0  0.00000000000E+00  0.00000000000E+00 -0.31037611608E+03  0.31037611613E+03  0.50400001928E-02 0. -1.
    10030    2    1    2    0    0  0.00000000000E+00  0.00000000000E+00  0.85228928965E+03  0.14730415219E+04  0.12014384262E+04 0.  0.
        1    1    3    3  502    0 -0.46097565241E+03 -0.38346941652E+03  0.47062609523E+03  0.76225734962E+03  0.50400001928E-02 0. -1.
       -1    1    3    3    0  502  0.46097565241E+03  0.38346941652E+03  0.38166319442E+03  0.71078417225E+03  0.50400001928E-02 0.  1.
</event>
<event>
 5   0  0.2579442E-03  0.1189620E+04  0.7818609E-02  0.9121991E-01
        2   -1    0    0  501    0  0.00000000000E+00  0.00000000000E+00  0.41168967970E+03  0.41168967971E+03  0.25500000920E-02 0.  1.
       -2   -1    0    0    0  501  0.00000000000E+00  0.00000000000E+00 -0.85938240084E+03  0.85938240084E+03  0.25500000920E-02 0. -1.
    10030    2    1    2    0    0  0.00000000000E+00  0.00000000000E+00 -0.44769272114E+03  0.12710720806E+04  0.11896198811E+04 0.  0.
        4    1    3    3  502    0  0.66352321612E+02  0.41868942434E+03  0.22196753729E+03  0.47851297281E+03  0.12699999809E+01 0.  1.
       -4    1    3    3    0  502 -0.66352321612E+02 -0.41868942434E+03 -0.66966025843E+03  0.79255910774E+03  0.12699999809E+01 0. -1.
</event>
<event>
 5   0  0.2484507E-03  0.1207164E+04  0.7818609E-02  0.9106609E-01
        2   -1    0    0  501    0  0.00000000000E+00  0.00000000000E+00  0.56888431875E+03  0.56888431876E+03  0.25500000920E-02 0.  1.
       -2   -1    0    0    0  501  0.00000000000E+00  0.00000000000E+00 -0.64039589101E+03  0.64039589102E+03  0.25500000920E-02 0. -1.
    10030    2    1    2    0    0  0.00000000000E+00  0.00000000000E+00 -0.71511572257E+02  0.12092802098E+04  0.12071639163E+04 0.  0.
        2    1    3    3  502    0 -0.18621453167E+03 -0.18024155409E+03  0.51031297541E+03  0.57234797327E+03  0.25500000920E-02 0.  1.
       -2    1    3    3    0  502  0.18621453167E+03  0.18024155409E+03 -0.58182454767E+03  0.63693223651E+03  0.25500000920E-02 0. -1.
</event>
<event>
 5   0  0.2580244E-03  0.1158759E+04  0.7818609E-02  0.9149740E-01
       -2   -1    0    0    0  501  0.00000000000E+00  0.00000000000E+00  0.95518801442E+03  0.95518801442E+03  0.25500000920E-02 0.  1.
        2   -1    0    0  501    0  0.00000000000E+00  0.00000000000E+00 -0.35142904431E+03  0.35142904432E+03  0.25500000920E-02 0. -1.
    10030    2    1    2    0    0  0.00000000000E+00  0.00000000000E+00  0.60375897011E+03  0.13066170587E+04  0.11587593556E+04 0.  0.
        1    1    3    3  502    0  0.44716200616E+03 -0.24760110834E+03  0.60949042564E+03  0.79544877118E+03  0.50400001928E-02 0.  1.
       -1    1    3    3    0  502 -0.44716200616E+03  0.24760110834E+03 -0.57314555327E+01  0.51116828756E+03  0.50400001928E-02 0. -1.
</event>
<event>
 5   0  0.2517023E-03  0.1166400E+04  0.7818609E-02  0.9142786E-01
        2   -1    0    0  501    0  0.00000000000E+00  0.00000000000E+00  0.14379229947E+04  0.14379229947E+04  0.25500000920E-02 0. -1.
       -2   -1    0    0    0  501  0.00000000000E+00  0.00000000000E+00 -0.23653708799E+03  0.23653708800E+03  0.25500000920E-02 0.  1.
    10030    2    1    2    0    0  0.00000000000E+00  0.00000000000E+00  0.12013859067E+04  0.16744600827E+04  0.11663997907E+04 0.  0.
        3    1    3    3  502    0 -0.40799574231E+03 -0.38087017477E+03  0.35791652104E+03  0.66304363507E+03  0.10100000352E+00 0. -1.
       -3    1    3    3    0  502  0.40799574231E+03  0.38087017477E+03  0.84346938568E+03  0.10114164476E+04  0.10100000352E+00 0.  1.
</event>
<event>
 5   0  0.9678750E-04  0.1179854E+04  0.7818609E-02  0.9130675E-01
       -3   -1    0    0    0  501  0.00000000000E+00  0.00000000000E+00  0.73305273085E+03  0.73305273781E+03  0.10100000352E+00 0. -1.
        3   -1    0    0  501    0  0.00000000000E+00  0.00000000000E+00 -0.47474586044E+03  0.47474587118E+03  0.10100000352E+00 0.  1.
    10030    2    1    2    0    0  0.00000000000E+00  0.00000000000E+00  0.25830687041E+03  0.12077986090E+04  0.11798538217E+04 0.  0.
        5    1    3    3  502    0 -0.24304135938E+02 -0.18562384830E+03 -0.44351094097E+03  0.48142595364E+03  0.46999998093E+01 0.  1.
       -5    1    3    3    0  502  0.24304135938E+02  0.18562384830E+03  0.70181781138E+03  0.72637265535E+03  0.46999998093E+01 0. -1.
</event>
<event>
 5   0  0.2484507E-03  0.1005787E+04  0.7818609E-02  0.9302221E-01
       -2   -1    0    0    0  501  0.00000000000E+00  0.00000000000E+00  0.19075040587E+03  0.19075040588E+03  0.25500000920E-02 0.  1.
        2   -1    0    0  501    0  0.00000000000E+00  0.00000000000E+00 -0.13258250136E+04  0.13258250136E+04  0.25500000920E-02 0. -1.
    10030    2    1    2    0    0  0.00000000000E+00  0.00000000000E+00 -0.11350746077E+04  0.15165754195E+04  0.10057865767E+04 0.  0.
        2    1    3    3  502    0  0.42293312717E+03 -0.25685823056E+03 -0.70285018823E+03  0.85956207907E+03  0.25500000920E-02 0. -1.
       -2    1    3    3    0  502 -0.42293312717E+03  0.25685823056E+03 -0.43222441951E+03  0.65701334043E+03  0.25500000920E-02 0.  1.
</event>
<event>
 5   0  0.1423024E-03  0.1189363E+04  0.7818609E-02  0.9122219E-01
       -1   -1    0    0    0  501  0.00000000000E+00  0.00000000000E+00  0.21159830588E+03  0.21159830594E+03  0.50400001928E-02 0.  1.
        1   -1    0    0  501    0  0.00000000000E+00  0.00000000000E+00 -0.16713073140E+04  0.16713073140E+04  0.50400001928E-02 0. -1.
    10030    2    1    2    0    0  0.00000000000E+00  0.00000000000E+00 -0.14597090081E+04  0.18829056199E+04  0.11893625121E+04 0.  0.
        2    1    3    3  502    0 -0.87620141581E+02 -0.37056103442E+03 -0.14530016068E+04  0.15020673883E+04  0.25500000920E-02 0. -1.
       -2    1    3    3    0  502  0.87620141581E+02  0.37056103442E+03 -0.67074012616E+01  0.38083823165E+03  0.25500000920E-02 0.  1.
</event>
<event>
 5   0  0.1423024E-03  0.1200436E+04  0.7818609E-02  0.9112475E-01
        1   -1    0    0  501    0  0.00000000000E+00  0.00000000000E+00  0.56948765231E+03  0.56948765233E+03  0.50400001928E-02 0. -1.
       -1   -1    0    0    0  501  0.00000000000E+00  0.00000000000E+00 -0.63260665364E+03  0.63260665366E+03  0.50400001928E-02 0.  1.
    10030    2    1    2    0    0  0.00000000000E+00  0.00000000000E+00 -0.63119001327E+02  0.12020943060E+04  0.12004360508E+04 0.  0.
        2    1    3    3  502    0 -0.91856959985E+02 -0.41719697933E+03 -0.45377050633E+03  0.62321640951E+03  0.25500000920E-02 0.  1.
       -2    1    3    3    0  502  0.91856959985E+02  0.41719697933E+03  0.39065150501E+03  0.57887789648E+03  0.25500000920E-02 0. -1.
</event>
<event>
 5   0  0.1455076E-03  0.1290733E+04  0.7818609E-02  0.9036947E-01
       -1   -1    0    0    0  501  0.00000000000E+00  0.00000000000E+00  0.48467367269E+03  0.48467367271E+03  0.50400001928E-02 0. -1.
        1   -1    0    0  501    0  0.00000000000E+00  0.00000000000E+00 -0.85933617934E+03  0.85933617936E+03  0.50400001928E-02 0.  1.
    10030    2    1    2    0    0  0.00000000000E+00  0.00000000000E+00 -0.37466250665E+03  0.13440098521E+04  0.12907325395E+04 0.  0.
        4    1    3    3  502    0  0.50588348417E+03  0.27023831741E+03  0.12076909473E+03  0.58611742415E+03  0.12699999809E+01 0. -1.
       -4    1    3    3    0  502 -0.50588348417E+03 -0.27023831741E+03 -0.49543160138E+03  0.75789242792E+03  0.12699999809E+01 0.  1.
</event>
<event>
 5   0  0.1469851E-03  0.1207382E+04  0.7818609E-02  0.9106420E-01
        1   -1    0    0  501    0  0.00000000000E+00  0.00000000000E+00  0.17383572664E+04  0.17383572664E+04  0.50400001928E-02 0.  1.
       -1   -1    0    0    0  501  0.00000000000E+00  0.00000000000E+00 -0.20964772775E+03  0.20964772781E+03  0.50400001928E-02 0. -1.
    10030    2    1    2    0    0  0.00000000000E+00  0.00000000000E+00  0.15287095386E+04  0.19480049942E+04  0.12073817143E+04 0.  0.
        5    1    3    3  502    0  0.22675860350E+03 -0.22019632658E+03 -0.65439358167E+02  0.32281618004E+03  0.46999998093E+01 0. -1.
       -5    1    3    3    0  502 -0.22675860350E+03  0.22019632658E+03  0.15941488968E+04  0.16251888141E+04  0.46999998093E+01 0.  1.
</event>
<event>
 5   0  0.1469851E-03  0.1204636E+04  0.7818609E-02  0.9108808E-01
        1   -1    0    0  501    0  0.00000000000E+00  0.00000000000E+00  0.52853831183E+03  0.52853831185E+03  0.50400001928E-02 0. -1.
       -1   -1    0    0    0  501  0.00000000000E+00  0.00000000000E+00 -0.68639694887E+03  0.68639694888E+03  0.50400001928E-02 0.  1.
    10030    2    1    2    0    0  0.00000000000E+00  0.00000000000E+00 -0.15785863704E+03  0.12149352607E+04  0.12046361851E+04 0.  0.
        5    1    3    3  502    0  0.45149014675E+03  0.28528277056E+03 -0.35976171110E+03  0.64395666823E+03  0.46999998093E+01 0.  1.
       -5    1    3    3    0  502 -0.45149014675E+03 -0.28528277056E+03  0.20190307406E+03  0.57097859251E+03  0.46999998093E+01 0. -1.
</event>
<event>
 5   0  0.2517023E-03  0.1195178E+04  0.7818609E-02  0.9117088E-01
        2   -1    0    0  501    0  0.00000000000E+00  0.00000000000E+00  0.18709625723E+04  0.18709625723E+04  0.25500000920E-02 0. -1.
       -2   -1    0    0    0  501  0.00000000000E+00  0.00000000000E+00 -0.19087101017E+03  0.19087101018E+03  0.25500000920E-02 0.  1.
    10030    2    1    2    0    0  0.00000000000E+00  0.00000000000E+00  0.16800915621E+04  0.20618335825E+04  0.11951778381E+04 0.  0.
        3    1    3    3  502    0 -0.39230609173E+03  0.22198397728E+03  0.15168840390E+04  0.15824405688E+04  0.10100000352E+00 0. -1.
       -3    1    3    3    0  502  0.39230609173E+03 -0.22198397728E+03  0.16320752313E+03  0.47939301370E+03  0.10100000352E+00 0.  1.
</event>
<event>
 5   0  0.2517023E-03  0.1195779E+04  0.7818609E-02  0.9116560E-01
       -2   -1    0    0    0  501  0.00000000000E+00  0.00000000000E+00  0.27768101142E+03  0.27768101143E+03  0.25500000920E-02 0.  1.
        2   -1    0    0  501    0  0.00000000000E+00  0.00000000000E+00 -0.12873461763E+04  0.12873461763E+04  0.25500000920E-02 0. -1.
    10030    2    1    2    0    0  0.00000000000E+00  0.00000000000E+00 -0.10096651649E+04  0.15650271877E+04  0.11957785552E+04 0.  0.
        3    1    3    3  502    0 -0.40480069775E+03  0.42522369171E+03 -0.35680123928E+03  0.68701231972E+03  0.10100000352E+00 0. -1.
       -3    1    3    3    0  502  0.40480069775E+03 -0.42522369171E+03 -0.65286392557E+03  0.87801486799E+03  0.10100000352E+00 0.  1.
</event>
<event>
 5   0  0.1469851E-03  0.1192730E+04  0.7818609E-02  0.9119244E-01
       -1   -1    0    0    0  501  0.00000000000E+00  0.00000000000E+00  0.70663567959E+03  0.70663567961E+03  0.50400001928E-02 0. -1.
        1   -1    0    0  501    0  0.00000000000E+00  0.00000000000E+00 -0.50330234377E+03  0.50330234380E+03  0.50400001928E-02 0.  1.
    10030    2    1    2    0    0  0.00000000000E+00  0.00000000000E+00  0.20333333582E+03  0.12099380234E+04  0.11927303027E+04 0.  0.
        5    1    3    3  502    0  0.41210490558E+03  0.12033028940E+03 -0.31821241071E+03  0.53440720437E+03  0.46999998093E+01 0.  1.
       -5    1    3    3    0  502 -0.41210490558E+03 -0.12033028940E+03  0.52154574654E+03  0.67553081904E+03  0.46999998093E+01 0. -1.
</event>
<event>
 5   0  0.2580244E-03  0.1211014E+04  0.7818609E-02  0.9103270E-01
        2   -1    0    0  501    0  0.00000000000E+00  0.00000000000E+00  0.13805505491E+04  0.13805505491E+04  0.25500000920E-02 0. -1.
       -2   -1    0    0    0  501  0.00000000000E+00  0.00000000000E+00 -0.26557421055E+03  0.26557421056E+03  0.25500000920E-02 0.  1.
    10030    2    1    2    0    0  0.00000000000E+00  0.00000000000E+00  0.11149763385E+04  0.16461247596E+04  0.12110138268E+04 0.  0.
        1    1    3    3  502    0  0.23587699061E+03  0.56727235518E+02 -0.19662363643E+03  0.31227678168E+03  0.50400001928E-02 0.  1.
       -1    1    3    3    0  502 -0.23587699061E+03 -0.56727235518E+02  0.13115999750E+04  0.13338479780E+04  0.50400001928E-02 0. -1.
</event>
<event>
 5   0  0.1423024E-03  0.1199509E+04  0.7818609E-02  0.9113286E-01
        1   -1    0    0  501    0  0.00000000000E+00  0.00000000000E+00  0.15444420347E+04  0.15444420347E+04  0.50400001928E-02 0. -1.
       -1   -1    0    0    0  501  0.00000000000E+00  0.00000000000E+00 -0.23290334974E+03  0.23290334979E+03  0.50400001928E-02 0.  1.
    10030    2    1    2    0    0  0.00000000000E+00  0.00000000000E+00  0.13115386849E+04  0.17773453845E+04  0.11995094387E+04 0.  0.
        2    1    3    3  502    0  0.19837649652E+03 -0.54519746557E+03  0.88103185435E+03  0.10548984023E+04  0.25500000920E-02 0. -1.
       -2    1    3    3    0  502 -0.19837649652E+03  0.54519746557E+03  0.43050683059E+03  0.72244698216E+03  0.25500000920E-02 0.  1.
</event>
<event>
 5   0  0.2517023E-03  0.1220730E+04  0.7818609E-02  0.9094902E-01
       -2   -1    0    0    0  501  0.00000000000E+00  0.00000000000E+00  0.37883304356E+03  0.37883304357E+03  0.25500000920E-02 0.  1.
        2   -1    0    0  501    0  0.00000000000E+00  0.00000000000E+00 -0.98340322832E+03  0.98340322833E+03  0.25500000920E-02 0. -1.
    10030    2    1    2    0    0  0.00000000000E+00  0.00000000000E+00 -0.60457018476E+03  0.13622362719E+04  0.12207303356E+04 0.  0.
        3    1    3    3  502    0 -0.50693235322E+02 -0.19184746202E+03  0.34183358387E+03  0.39525366798E+03  0.10100000352E+00 0.  1.
       -3    1    3    3    0  502  0.50693235322E+02  0.19184746202E+03 -0.94640376863E+03  0.96698260391E+03  0.10100000352E+00 0. -1.
</event>
<event>
 5   0  0.2579442E-03  0.1118458E+04  0.7818609E-02  0.9187386E-01
        2   -1    0    0  501    0  0.00000000000E+00  0.00000000000E+00  0.67633661952E+03  0.67633661953E+03  0.25500000920E-02 0. -1.
       -2   -1    0    0    0  501  0.00000000000E+00  0.00000000000E+00 -0.46239853603E+03  0.46239853603E+03  0.25500000920E-02 0.  1.
    10030    2    1    2    0    0  0.00000000000E+00  0.00000000000E+00  0.21393808350E+03  0.11387351556E+04  0.11184579791E+04 0.  0.
        4    1    3    3  502    0 -0.42459109052E+03 -0.18386159383E+03  0.42675375446E+03  0.62944662973E+03  0.12699999809E+01 0. -1.
       -4    1    3    3    0  502  0.42459109052E+03  0.18386159383E+03 -0.21281567097E+03  0.50928852583E+03  0.12699999809E+01 0.  1.
</event>
<event>
 5   0  0.2499890E-03  0.1207002E+04  0.7818609E-02  0.9106750E-01
       -2   -1    0    0    0  501  0.00000000000E+00  0.00000000000E+00  0.65339792374E+03  0.65339792375E+03  0.25500000920E-02 0.  1.
        2   -1    0    0  501    0  0.00000000000E+00  0.00000000000E+00 -0.55741409308E+03  0.55741409308E+03  0.25500000920E-02 0. -1.
    10030    2    1    2    0    0  0.00000000000E+00  0.00000000000E+00  0.95983830669E+02  0.12108120168E+04  0.12070015925E+04 0.  0.
        5    1    3    3  502    0 -0.19367972527E+03 -0.41291763208E+03 -0.34844970708E+03  0.57397917665E+03  0.46999998093E+01 0. -1.
       -5    1    3    3    0  502  0.19367972527E+03  0.41291763208E+03  0.44443353775E+03  0.63683284018E+03  0.46999998093E+01 0.  1.
</event>
<event>
 5   0  0.1404833E-03  0.1194647E+04  0.7818609E-02  0.9117555E-01
       -1   -1    0    0    0  501  0.00000000000E+00  0.00000000000E+00  0.19200025134E+03  0.19200025140E+03  0.50400001928E-02 0. -1.
        1   -1    0    0  501    0  0.00000000000E+00  0.00000000000E+00 -0.18583066089E+04  0.18583066089E+04  0.50400001928E-02 0.  1.
    10030    2    1    2    0    0  0.00000000000E+00  0.00000000000E+00 -0.16663063576E+04  0.20503068603E+04  0.11946469538E+04 0.  0.
        1    1    3    3  502    0  0.45667913443E+03 -0.15421810154E+03 -0.14386162996E+04  0.15172197969E+04  0.50400001928E-02 0.  1.
       -1    1    3    3    0  502 -0.45667913443E+03  0.15421810154E+03 -0.22769005803E+03  0.53308706345E+03  0.50400001928E-02 0. -1.
</event>
<event>
 5   0  0.1403154E-03  0.1204153E+04  0.7818609E-02  0.9109229E-01
        1   -1    0    0  501    0  0.00000000000E+00  0.00000000000E+00  0.31623159175E+03  0.31623159179E+03  0.50400001928E-02 0. -1.
       -1   -1    0    0    0  501  0.00000000000E+00  0.00000000000E+00 -0.11462997692E+04  0.11462997692E+04  0.50400001928E-02 0.  1.
    10030    2    1    2    0    0  0.00000000000E+00  0.00000000000E+00 -0.83006817749E+03  0.14625313610E+04  0.12041531476E+04 0.  0.
        3    1    3    3  502    0  0.55999286706E+02  0.50362704951E+02 -0.11405557958E+04  0.11430397438E+04  0.10100000352E+00 0.  1.
       -3    1    3    3    0  502 -0.55999286706E+02 -0.50362704951E+02  0.31048761836E+03  0.31949161729E+03  0.10100000352E+00 0. -1.
</event>
<event>
 5   0  0.1455076E-03  0.1182332E+04  0.7818609E-02  0.9128464E-01
        1   -1    0    0  501    0  0.00000000000E+00  0.00000000000E+00  0.94178986488E+03  0.94178986489E+03  0.50400001928E-02 0.  1.
       -1   -1    0    0    0  501  0.00000000000E+00  0.00000000000E+00 -0.37107745522E+03  0.37107745525E+03  0.50400001928E-02 0. -1.
    10030    2    1    2    0    0  0.00000000000E+00  0.00000000000E+00  0.57071240966E+03  0.13128673201E+04  0.11823315718E+04 0.  0.
        4    1    3    3  502    0 -0.23650700480E+03 -0.23425863217E+03 -0.25711142647E+03  0.42061926796E+03  0.12699999809E+01 0. -1.
       -4    1    3    3    0  502  0.23650700480E+03  0.23425863217E+03  0.82782383613E+03  0.89224805218E+03  0.12699999809E+01 0.  1.
</event>
<event>
 5   0  0.1469851E-03  0.1159070E+04  0.7818609E-02  0.9149456E-01
        1   -1    0    0  501    0  0.00000000000E+00  0.00000000000E+00  0.46316251984E+03  0.46316251986E+03  0.50400001928E-02 0.  1.
       -1   -1    0    0    0  501  0.00000000000E+00  0.00000000000E+00 -0.72514735779E+03  0.72514735780E+03  0.50400001928E-02 0. -1.
    10030    2    1    2    0    0  0.00000000000E+00  0.00000000000E+00 -0.26198483795E+03  0.11883098777E+04  0.11590704509E+04 0.  0.
        5    1    3    3  502    0  0.21830641089E+03  0.75889110163E+02 -0.67583274465E+03  0.71427504144E+03  0.46999998093E+01 0. -1.
       -5    1    3    3    0  502 -0.21830641089E+03 -0.75889110163E+02  0.41384790670E+03  0.47403483623E+03  0.46999998093E+01 0.  1.
</event>
<event>
 5   0  0.2517023E-03  0.1228983E+04  0.7818609E-02  0.9087859E-01
        2   -1    0    0  501    0  0.00000000000E+00  0.00000000000E+00  0.11292948457E+04  0.11292948457E+04  0.25500000920E-02 0.  1.
       -2   -1    0    0    0  501  0.00000000000E+00  0.00000000000E+00 -0.33436789813E+03  0.33436789814E+03  0.25500000920E-02 0. -1.
    10030    2    1    2    0    0  0.00000000000E+00  0.00000000000E+00  0.79492694758E+03  0.14636627439E+04  0.12289832284E+04 0.  0.
        3    1    3    3  502    0 -0.28111593139E+03 -0.34746366963E+03  0.89970563053E+03  0.10046031059E+04  0.10100000352E+00 0.  1.
       -3    1    3    3    0  502  0.28111593139E+03  0.34746366963E+03 -0.10477868295E+03  0.45905963795E+03  0.10100000352E+00 0. -1.
</event>
<event>
 5   0  0.1423024E-03  0.1190713E+04  0.7818609E-02  0.9121025E-01
        1   -1    0    0  501    0  0.00000000000E+00  0.00000000000E+00  0.90366948440E+03  0.90366948442E+03  0.50400001928E-02 0. -1.
       -1   -1    0    0    0  501  0.00000000000E+00  0.00000000000E+00 -0.39223310923E+03  0.39223310927E+03  0.50400001928E-02 0.  1.
    10030    2    1    2    0    0  0.00000000000E+00  0.00000000000E+00  0.51143637517E+03  0.12959025937E+04  0.11907125457E+04 0.  0.
        2    1    3    3  502    0  0.14593761131E+03 -0.54651035550E+03  0.45780352461E+03  0.72770558759E+03  0.25500000920E-02 0.  1.
       -2    1    3    3    0  502 -0.14593761131E+03  0.54651035550E+03  0.53632850562E+02  0.56819700609E+03  0.25500000920E-02 0. -1.
</event>
<event>
 5   0  0.1455076E-03  0.1170136E+04  0.7818609E-02  0.9139405E-01
        1   -1    0    0  501    0  0.00000000000E+00  0.00000000000E+00  0.26218983412E+04  0.26218983412E+04  0.50400001928E-02 0.  1.
       -1   -1    0    0    0  501  0.00000000000E+00  0.00000000000E+00 -0.13055606971E+03  0.13055606980E+03  0.50400001928E-02 0. -1.
    10030    2    1    2    0    0  0.00000000000E+00  0.00000000000E+00  0.24913422715E+04  0.27524544110E+04  0.11701363044E+04 0.  0.
        4    1    3    3  502    0 -0.86833756955E+02  0.36029599417E+03  0.23105677753E+04  0.23401022119E+04  0.12699999809E+01 0.  1.
       -4    1    3    3    0  502  0.86833756955E+02 -0.36029599417E+03  0.18077449616E+03  0.41235219912E+03  0.12699999809E+01 0. -1.
</event>
<event>
 5   0  0.1403154E-03  0.1202352E+04  0.7818609E-02  0.9110801E-01
       -1   -1    0    0    0  501  0.00000000000E+00  0.00000000000E+00  0.46555518298E+03  0.46555518301E+03  0.50400001928E-02 0.  1.
        1   -1    0    0  501    0  0.00000000000E+00  0.00000000000E+00 -0.77630390112E+03  0.77630390113E+03  0.50400001928E-02 0. -1.
    10030    2    1    2    0    0  0.00000000000E+00  0.00000000000E+00 -0.31074871813E+03  0.12418590841E+04  0.12023515372E+04 0.  0.
        3    1    3    3  502    0 -0.23924607643E+03  0.52640502178E+03 -0.32531447604E+03  0.66345342758E+03  0.10100000352E+00 0. -1.
       -3    1    3    3    0  502  0.23924607643E+03 -0.52640502178E+03  0.14565757908E+02  0.57840565657E+03  0.10100000352E+00 0.  1.
</event>
<event>
 5   0  0.1455076E-03  0.1190985E+04  0.7818609E-02  0.9120784E-01
       -1   -1    0    0    0  501  0.00000000000E+00  0.00000000000E+00  0.85952815919E+03  0.85952815920E+03  0.50400001928E-02 0.  1.
        1   -1    0    0  501    0  0.00000000000E+00  0.00000000000E+00 -0.41256514473E+03  0.41256514476E+03  0.50400001928E-02 0. -1.
    10030    2    1    2    0    0  0.00000000000E+00  0.00000000000E+00  0.44696301446E+03  0.12720933040E+04  0.11909850703E+04 0.  0.
        4    1    3    3  502    0 -0.43614853200E+03  0.20402705414E+03 -0.15074631783E+03  0.50455787183E+03  0.12699999809E+01 0. -1.
       -4    1    3    3    0  502  0.43614853200E+03 -0.20402705414E+03  0.59770933229E+03  0.76753543214E+03  0.12699999809E+01 0.  1.
</event>
<event>
 5   0  0.2484507E-03  0.1185425E+04  0.7818609E-02  0.9125710E-01
       -2   -1    0    0    0  501  0.00000000000E+00  0.00000000000E+00  0.99723649321E+03  0.99723649322E+03  0.25500000920E-02 0. -1.
        2   -1    0    0  501    0  0.00000000000E+00  0.00000000000E+00 -0.35228184201E+03  0.35228184202E+03  0.25500000920E-02 0.  1.
    10030    2    1    2    0    0  0.00000000000E+00  0.00000000000E+00  0.64495465120E+03  0.13495183352E+04  0.11854253393E+04 0.  0.
        2    1    3    3  502    0  0.21245082847E+02 -0.28838259643E+03 -0.26653262378E+03  0.39326265398E+03  0.25500000920E-02 0.  1.
       -2    1    3    3    0  502 -0.21245082847E+02  0.28838259643E+03  0.91148727498E+03  0.95625568126E+03  0.25500000920E-02 0. -1.
</event>
<event>
 5   0  0.2499890E-03  0.1201032E+04  0.7818609E-02  0.9111953E-01
        2   -1    0    0  501    0  0.00000000000E+00  0.00000000000E+00  0.18707071624E+04  0.18707071624E+04  0.25500000920E-02 0. -1.
       -2   -1    0    0    0  501  0.00000000000E+00  0.00000000000E+00 -0.19277188444E+03  0.19277188445E+03  0.25500000920E-02 0.  1.
    10030    2    1    2    0    0  0.00000000000E+00  0.00000000000E+00  0.16779352780E+04  0.20634790469E+04  0.12010324641E+04 0.  0.
        5    1    3    3  502    0  0.32944157945E+03  0.50026503863E+03  0.76605932273E+03  0.97245351513E+03  0.46999998093E+01 0. -1.
       -5    1    3    3    0  502 -0.32944157945E+03 -0.50026503863E+03  0.91187595524E+03  0.10910255317E+04  0.46999998093E+01 0.  1.
</event>
<event>
 5   0  0.2517023E-03  0.1186853E+04  0.7818609E-02  0.9124442E-01
       -2   -1    0    0    0  501  0.00000000000E+00  0.00000000000E+00  0.22567405332E+03  0.22567405333E+03  0.25500000920E-02 0.  1.
        2   -1    0    0  501    0  0.00000000000E+00  0.00000000000E+00 -0.15604598292E+04  0.15604598292E+04  0.25500000920E-02 0. -1.
    10030    2    1    2    0    0  0.00000000000E+00  0.00000000000E+00 -0.13347857759E+04  0.17861338825E+04  0.11868534783E+04 0.  0.
        3    1    3    3  502    0 -0.69736810791E+02  0.11297319871E+03 -0.15378229161E+04  0.15435431636E+04  0.10100000352E+00 0. -1.
       -3    1    3    3    0  502  0.69736810791E+02 -0.11297319871E+03  0.20303714022E+03  0.24259071894E+03  0.10100000352E+00 0.  1.
</event>
<event>
 5   0  0.2499890E-03  0.1053853E+04  0.7818609E-02  0.9251375E-01
       -2   -1    0    0    0  501  0.00000000000E+00  0.00000000000E+00  0.34204015018E+03  0.34204015019E+03  0.25500000920E-02 0. -1.
        2   -1    0    0  501    0  0.00000000000E+00  0.00000000000E+00 -0.81175130720E+03  0.81175130721E+03  0.25500000920E-02 0.  1.
    10030    2    1    2    0    0  0.00000000000E+00  0.00000000000E+00 -0.46971115702E+03  0.11537914574E+04  0.10538530050E+04 0.  0.
        5    1    3    3  502    0 -0.20122775516E+03 -0.12964952077E+03  0.27904838908E+03  0.36768424107E+03  0.46999998093E+01 0. -1.
       -5    1    3    3    0  502  0.20122775516E+03  0.12964952077E+03 -0.74875954610E+03  0.78610721633E+03  0.46999998093E+01 0.  1.
</event>
<event>
 5   0  0.1455076E-03  0.1254239E+04  0.7818609E-02  0.9066663E-01
        1   -1    0    0  501    0  0.00000000000E+00  0.00000000000E+00  0.73475679266E+03  0.73475679268E+03  0.50400001928E-02 0.  1.
       -1   -1    0    0    0  501  0.00000000000E+00  0.00000000000E+00 -0.53525008125E+03  0.53525008127E+03  0.50400001928E-02 0. -1.
    10030    2    1    2    0    0  0.00000000000E+00  0.00000000000E+00  0.19950671141E+03  0.12700068739E+04  0.12542386264E+04 0.  0.
        4    1    3    3  502    0  0.17564132818E+03 -0.44226656442E+03  0.51333345176E+03  0.69997316790E+03  0.12699999809E+01 0.  1.
       -4    1    3    3    0  502 -0.17564132818E+03  0.44226656442E+03 -0.31382674035E+03  0.57003370605E+03  0.12699999809E+01 0. -1.
</event>
<event>
 5   0  0.1403154E-03  0.1178574E+04  0.7818609E-02  0.9131820E-01
        1   -1    0    0  501    0  0.00000000000E+00  0.00000000000E+00  0.49995449798E+03  0.49995449801E+03  0.50400001928E-02 0.  1.
       -1   -1    0    0    0  501  0.00000000000E+00  0.00000000000E+00 -0.69458141584E+03  0.69458141585E+03  0.50400001928E-02 0. -1.
    10030    2    1    2    0    0  0.00000000000E+00  0.00000000000E+00 -0.19462691785E+03  0.11945359139E+04  0.11785738892E+04 0.  0.
        3    1    3    3  502    0 -0.14139212850E+02 -0.26915678124E+03  0.43381989767E+03  0.51072987385E+03  0.10100000352E+00 0.  1.
       -3    1    3    3    0  502  0.14139212850E+02  0.26915678124E+03 -0.62844681552E+03  0.68380604002E+03  0.10100000352E+00 0. -1.
</event>
<event>
 5   0  0.1403154E-03  0.1184191E+04  0.7818609E-02  0.9126808E-01
       -1   -1    0    0    0  501  0.00000000000E+00  0.00000000000E+00  0.60402603696E+03  0.60402603698E+03  0.50400001928E-02 0. -1.
        1   -1    0    0  501    0  0.00000000000E+00  0.00000000000E+00 -0.58040073664E+03  0.58040073666E+03  0.50400001928E-02 0.  1.
    10030    2    1    2    0    0  0.00000000000E+00  0.00000000000E+00  0.23625300320E+02  0.11844267736E+04  0.11841911279E+04 0.  0.
        3    1    3    3  502    0 -0.34336186455E+03  0.10307049802E+03 -0.45950956778E+03  0.58281210580E+03  0.10100000352E+00 0.  1.
       -3    1    3    3    0  502  0.34336186455E+03 -0.10307049802E+03  0.48313486810E+03  0.60161466784E+03  0.10100000352E+00 0. -1.
</event>
<event>
 5   0  0.1469851E-03  0.1163689E+04  0.7818609E-02  0.9145247E-01
        1   -1    0    0  501    0  0.00000000000E+00  0.00000000000E+00  0.60838220948E+03  0.60838220950E+03  0.50400001928E-02 0.  1.
       -1   -1    0    0    0  501  0.00000000000E+00  0.00000000000E+00 -0.55646425198E+03  0.55646425200E+03  0.50400001928E-02 0. -1.
    10030    2    1    2    0    0  0.00000000000E+00  0.00000000000E+00  0.51917957496E+02  0.11648464615E+04  0.11636888779E+04 0.  0.
        5    1    3    3  502    0  0.29301941571E+03 -0.46669765054E+03  0.21283637837E+03  0.59075247689E+03  0.46999998093E+01 0.  1.
       -5    1    3    3    0  502 -0.29301941571E+03  0.46669765054E+03 -0.16091842087E+03  0.57409398461E+03  0.46999998093E+01 0. -1.
</event>
<event>
 5   0  0.2484507E-03  0.1200356E+04  0.7818609E-02  0.9112545E-01
       -2   -1    0    0    0  501  0.00000000000E+00  0.00000000000E+00  0.20986574141E+03  0.20986574142E+03  0.25500000920E-02 0. -1.
        2   -1    0    0  501    0  0.00000000000E+00  0.00000000000E+00 -0.17164014496E+04  0.17164014496E+04  0.25500000920E-02 0.  1.
    10030    2    1    2    0    0  0.00000000000E+00  0.00000000000E+00 -0.15065357082E+04  0.19262671910E+04  0.12003563851E+04 0.  0.
        2    1    3    3  502    0 -0.45538860037E+03  0.28755013373E+03 -0.32823727478E+03  0.63071670766E+03  0.25500000920E-02 0. -1.
       -2    1    3    3    0  502  0.45538860037E+03 -0.28755013373E+03 -0.11782984334E+04  0.12955504833E+04  0.25500000920E-02 0.  1.
</event>
<event>
 5   0  0.2517023E-03  0.1197615E+04  0.7818609E-02  0.9114946E-01
       -2   -1    0    0    0  501  0.00000000000E+00  0.00000000000E+00  0.60267921979E+03  0.60267921979E+03  0.25500000920E-02 0.  1.
        2   -1    0    0  501    0  0.00000000000E+00  0.00000000000E+00 -0.59496107728E+03  0.59496107728E+03  0.25500000920E-02 0. -1.
    10030    2    1    2    0    0  0.00000000000E+00  0.00000000000E+00  0.77181425108E+01  0.11976402971E+04  0.11976154272E+04 0.  0.
        3    1    3    3  502    0 -0.46302766565E+03 -0.22603140837E+03  0.30896514634E+03  0.60078639180E+03  0.10100000352E+00 0.  1.
       -3    1    3    3    0  502  0.46302766565E+03  0.22603140837E+03 -0.30124700383E+03  0.59685390527E+03  0.10100000352E+00 0. -1.
</event>
<event>
 5   0  0.2517023E-03  0.1195328E+04  0.7818609E-02  0.9116956E-01
       -2   -1    0    0    0  501  0.00000000000E+00  0.00000000000E+00  0.20025503953E+03  0.20025503955E+03  0.25500000920E-02 0.  1.
        2   -1    0    0  501    0  0.00000000000E+00  0.00000000000E+00 -0.17837358386E+04  0.17837358386E+04  0.25500000920E-02 0. -1.
    10030    2    1    2    0    0  0.00000000000E+00  0.00000000000E+00 -0.15834807991E+04  0.19839908782E+04  0.11953277222E+04 0.  0.
        3    1    3    3  502    0  0.18260682599E+03 -0.54331085512E+03 -0.51070074371E+03  0.76768951929E+03  0.10100000352E+00 0.  1.
       -3    1    3    3    0  502 -0.18260682599E+03  0.54331085512E+03 -0.10727800554E+04  0.12163013589E+04  0.10100000352E+00 0. -1.
</event>
<event>
 5   0  0.1423024E-03  0.1200003E+04  0.7818609E-02  0.9112854E-01
        1   -1    0    0  501    0  0.00000000000E+00  0.00000000000E+00  0.75684750767E+03  0.75684750769E+03  0.50400001928E-02 0. -1.
       -1   -1    0    0    0  501  0.00000000000E+00  0.00000000000E+00 -0.47565963181E+03  0.47565963183E+03  0.50400001928E-02 0.  1.
    10030    2    1    2    0    0  0.00000000000E+00  0.00000000000E+00  0.28118787587E+03  0.12325071395E+04  0.12000030114E+04 0.  0.
        2    1    3    3  502    0 -0.21799170521E+03 -0.13751485915E+03 -0.41590424175E+03  0.48929240577E+03  0.25500000920E-02 0.  1.
       -2    1    3    3    0  502  0.21799170521E+03  0.13751485915E+03  0.69709211762E+03  0.74321473376E+03  0.25500000920E-02 0. -1.
</event>
<event>
 5   0  0.2579442E-03  0.1208032E+04  0.7818609E-02  0.9105855E-01
       -2   -1    0    0    0  501  0.00000000000E+00  0.00000000000E+00  0.37628186847E+03  0.37628186848E+03  0.25500000920E-02 0. -1.
        2   -1    0    0  501    0  0.00000000000E+00  0.00000000000E+00 -0.96958037420E+03  0.96958037421E+03  0.25500000920E-02 0.  1.
    10030    2    1    2    0    0  0.00000000000E+00  0.00000000000E+00 -0.59329850573E+03  0.13458622427E+04  0.12080323089E+04 0.  0.
        4    1    3    3  502    0 -0.58371639672E+02  0.56468360740E+03 -0.52648530906E+03  0.77425010064E+03  0.12699999809E+01 0.  1.
       -4    1    3    3    0  502  0.58371639672E+02 -0.56468360740E+03 -0.66813196667E+02  0.57161214205E+03  0.12699999809E+01 0. -1.
</event>
<event>
 5   0  0.2517023E-03  0.1225224E+04  0.7818609E-02  0.9091060E-01
        2   -1    0    0  501    0  0.00000000000E+00  0.00000000000E+00  0.10452243716E+04  0.10452243716E+04  0.25500000920E-02 0. -1.
       -2   -1    0    0    0  501  0.00000000000E+00  0.00000000000E+00 -0.35905552133E+03  0.35905552134E+03  0.25500000920E-02 0.  1.
    10030    2    1    2    0    0  0.00000000000E+00  0.00000000000E+00  0.68616885026E+03  0.14042798929E+04  0.12252241944E+04 0.  0.
        3    1    3    3  502    0  0.30790513034E+03 -0.52888384161E+03  0.31128268914E+03  0.68660076462E+03  0.10100000352E+00 0.  1.
       -3    1    3    3    0  502 -0.30790513034E+03  0.52888384161E+03  0.37488616112E+03  0.71767912831E+03  0.10100000352E+00 0. -1.
</event>
<event>
 5   0  0.2517023E-03  0.1200212E+04  0.7818609E-02  0.9112671E-01
        2   -1    0    0  501    0  0.00000000000E+00  0.00000000000E+00  0.11211207909E+04  0.11211207909E+04  0.25500000920E-02 0.  1.
       -2   -1    0    0    0  501  0.00000000000E+00  0.00000000000E+00 -0.32122053100E+03  0.32122053101E+03  0.25500000920E-02 0. -1.
    10030    2    1    2    0    0  0.00000000000E+00  0.00000000000E+00  0.79990025989E+03  0.14423413219E+04  0.12002116743E+04 0.  0.
        3    1    3    3  502    0 -0.11493652307E+03  0.25847544514E+03 -0.23607198327E+03  0.36844260281E+03  0.10100000352E+00 0. -1.
       -3    1    3    3    0  502  0.11493652307E+03 -0.25847544514E+03  0.10359722432E+04  0.10738987191E+04  0.10100000352E+00 0.  1.
</event>
<event>
 5   0  0.2517023E-03  0.1226374E+04  0.7818609E-02  0.9090080E-01
       -2   -1    0    0    0  501  0.00000000000E+00  0.00000000000E+00  0.28660303430E+03  0.28660303431E+03  0.25500000920E-02 0.  1.
        2   -1    0    0  501    0  0.00000000000E+00  0.00000000000E+00 -0.13119132981E+04  0.13119132981E+04  0.25500000920E-02 0. -1.
    10030    2    1    2    0    0  0.00000000000E+00  0.00000000000E+00 -0.10253102638E+04  0.15985163324E+04  0.12263740571E+04 0.  0.
        3    1    3    3  502    0  0.10014474944E+03 -0.33499479330E+02  0.27466180421E+03  0.29426230280E+03  0.10100000352E+00 0.  1.
       -3    1    3    3    0  502 -0.10014474944E+03  0.33499479330E+02 -0.12999720680E+04  0.13042540296E+04  0.10100000352E+00 0. -1.
</event>
<event>
 5   0  0.2499890E-03  0.1217610E+04  0.7818609E-02  0.9097581E-01
        2   -1    0    0  501    0  0.00000000000E+00  0.00000000000E+00  0.82563177731E+03  0.82563177731E+03  0.25500000920E-02 0. -1.
       -2   -1    0    0    0  501  0.00000000000E+00  0.00000000000E+00 -0.44892110788E+03  0.44892110788E+03  0.25500000920E-02 0.  1.
    10030    2    1    2    0    0  0.00000000000E+00  0.00000000000E+00  0.37671066943E+03  0.12745528852E+04  0.12176100068E+04 0.  0.
        5    1    3    3  502    0  0.78667729627E+02 -0.31244731740E+03 -0.35233710841E+03  0.47746776414E+03  0.46999998093E+01 0.  1.
       -5    1    3    3    0  502 -0.78667729627E+02  0.31244731740E+03  0.72904777784E+03  0.79708512105E+03  0.46999998093E+01 0. -1.
</event>
<event>
 5   0  0.1403154E-03  0.1200996E+04  0.7818609E-02  0.9111985E-01
       -1   -1    0    0    0  501  0.00000000000E+00  0.00000000000E+00  0.48367626747E+03  0.48367626750E+03  0.50400001928E-02 0.  1.
        1   -1    0    0  501    0  0.00000000000E+00  0.00000000000E+00 -0.74553565492E+03  0.74553565493E+03  0.50400001928E-02 0. -1.
    10030    2    1    2    0    0  0.00000000000E+00  0.00000000000E+00 -0.26185938744E+03  0.12292119224E+04  0.12009960914E+04 0.  0.
        3    1    3    3  502    0 -0.12718928602E+03 -0.58555242103E+03 -0.17121350582E+03  0.62318763389E+03  0.10100000352E+00 0. -1.
       -3    1    3    3    0  502  0.12718928602E+03  0.58555242103E+03 -0.90645881626E+02  0.60602428855E+03  0.10100000352E+00 0.  1.
</event>
<event>
 5   0  0.9678750E-04  0.1202961E+04  0.7818609E-02  0.9110269E-01
       -3   -1    0    0    0  501  0.00000000000E+00  0.00000000000E+00  0.32307583333E+03  0.32307584912E+03  0.10100000352E+00 0.  1.
        3   -1    0    0  501    0  0.00000000000E+00  0.00000000000E+00 -0.11197947833E+04  0.11197947879E+04  0.10100000352E+00 0. -1.
    10030    2    1    2    0    0  0.00000000000E+00  0.00000000000E+00 -0.79671894999E+03  0.14428706370E+04  0.12029607599E+04 0.  0.
        5    1    3    3  502    0 -0.12622744271E+03  0.32540288994E+03  0.18916204231E+03  0.39701986893E+03  0.46999998093E+01 0.  1.
       -5    1    3    3    0  502  0.12622744271E+03 -0.32540288994E+03 -0.98588099230E+03  0.10458507681E+04  0.46999998093E+01 0. -1.
</event>
<event>
 5   0  0.1423024E-03  0.1195703E+04  0.7818609E-02  0.9116626E-01
        1   -1    0    0  501    0  0.00000000000E+00  0.00000000000E+00  0.34785504907E+03  0.34785504910E+03  0.50400001928E-02 0. -1.
       -1   -1    0    0    0  501  0.00000000000E+00  0.00000000000E+00 -0.10275151250E+04  0.10275151250E+04  0.50400001928E-02 0.  1.
    10030    2    1    2    0    0  0.00000000000E+00  0.00000000000E+00 -0.67966007597E+03  0.13753701742E+04  0.11957028465E+04 0.  0.
        2    1    3    3  502    0 -0.43513521342E+03  0.34014828448E+03 -0.76566474755E+02  0.55758939593E+03  0.25500000920E-02 0. -1.
       -2    1    3    3    0  502  0.43513521342E+03 -0.34014828448E+03 -0.60309360121E+03  0.81778077822E+03  0.25500000920E-02 0.  1.
</event>
<event>
 5   0  0.1455076E-03  0.1199266E+04  0.7818609E-02  0.9113499E-01
       -1   -1    0    0    0  501  0.00000000000E+00  0.00000000000E+00  0.41557545524E+03  0.41557545527E+03  0.50400001928E-02 0. -1.
        1   -1    0    0  501    0  0.00000000000E+00  0.00000000000E+00 -0.86520975762E+03  0.86520975763E+03  0.50400001928E-02 0.  1.
    10030    2    1    2    0    0  0.00000000000E+00  0.00000000000E+00 -0.44963430238E+03  0.12807852129E+04  0.11992663406E+04 0.  0.
        4    1    3    3  502    0 -0.42512134929E+03 -0.11731144346E+03 -0.65871985295E+03  0.79271911416E+03  0.12699999809E+01 0.  1.
       -4    1    3    3    0  502  0.42512134929E+03  0.11731144346E+03  0.20908555057E+03  0.48806609874E+03  0.12699999809E+01 0. -1.
</event>
<event>
 5   0  0.2517023E-03  0.1221828E+04  0.7818609E-02  0.9093962E-01
       -2   -1    0    0    0  501  0.00000000000E+00  0.00000000000E+00  0.32756419197E+03  0.32756419198E+03  0.25500000920E-02 0.  1.
        2   -1    0    0  501    0  0.00000000000E+00  0.00000000000E+00 -0.11393676248E+04  0.11393676248E+04  0.25500000920E-02 0. -1.
    10030    2    1    2    0    0  0.00000000000E+00  0.00000000000E+00 -0.81180343285E+03  0.14669318168E+04  0.12218281964E+04 0.  0.
        3    1    3    3  502    0 -0.21298805743E+03  0.49622697723E+03 -0.74888572177E+03  0.92327404383E+03  0.10100000352E+00 0. -1.
       -3    1    3    3    0  502  0.21298805743E+03 -0.49622697723E+03 -0.62917711073E+02  0.54365777297E+03  0.10100000352E+00 0.  1.
</event>
<event>
 5   0  0.2517023E-03  0.1202816E+04  0.7818609E-02  0.9110395E-01
       -2   -1    0    0    0  501  0.00000000000E+00  0.00000000000E+00  0.64171855002E+03  0.64171855002E+03  0.25500000920E-02 0. -1.
        2   -1    0    0  501    0  0.00000000000E+00  0.00000000000E+00 -0.56362939108E+03  0.56362939108E+03  0.25500000920E-02 0.  1.
    10030    2    1    2    0    0  0.00000000000E+00  0.00000000000E+00  0.78089158940E+02  0.12053479411E+04  0.12028157558E+04 0.  0.
        3    1    3    3  502    0 -0.29812104441E+03  0.52099243640E+03  0.17890422531E+01  0.60026034917E+03  0.10100000352E+00 0. -1.
       -3    1    3    3    0  502  0.29812104441E+03 -0.52099243640E+03  0.76300116687E+02  0.60508759194E+03  0.10100000352E+00 0.  1.
</event>
<event>
 5   0  0.2580244E-03  0.1181696E+04  0.7818609E-02  0.9129031E-01
        2   -1    0    0  501    0  0.00000000000E+00  0.00000000000E+00  0.93420846852E+03  0.93420846853E+03  0.25500000920E-02 0.  1.
       -2   -1    0    0    0  501  0.00000000000E+00  0.00000000000E+00 -0.37368649815E+03  0.37368649816E+03  0.25500000920E-02 0. -1.
    10030    2    1    2    0    0  0.00000000000E+00  0.00000000000E+00  0.56052197037E+03  0.13078949667E+04  0.11816955465E+04 0.  0.
        1    1    3    3  502    0 -0.28720383922E+03  0.50800146278E+03  0.38259950796E+03  0.69780650252E+03  0.50400001928E-02 0.  1.
       -1    1    3    3    0  502  0.28720383922E+03 -0.50800146278E+03  0.17792246242E+03  0.61008846416E+03  0.50400001928E-02 0. -1.
</event>
<event>
 5   0  0.1404833E-03  0.1223365E+04  0.7818609E-02  0.9092648E-01
       -1   -1    0    0    0  501  0.00000000000E+00  0.00000000000E+00  0.12521777041E+03  0.12521777051E+03  0.50400001928E-02 0. -1.
        1   -1    0    0  501    0  0.00000000000E+00  0.00000000000E+00 -0.29880373079E+04  0.29880373079E+04  0.50400001928E-02 0.  1.
    10030    2    1    2    0    0  0.00000000000E+00  0.00000000000E+00 -0.28628195375E+04  0.31132550784E+04  0.12233648185E+04 0.  0.
        1    1    3    3  502    0  0.12914464260E+03 -0.33743501815E+03 -0.17534969856E+03  0.40160708036E+03  0.50400001928E-02 0. -1.
       -1    1    3    3    0  502 -0.12914464260E+03  0.33743501815E+03 -0.26874698389E+04  0.27116479980E+04  0.50400001928E-02 0.  1.
</event>
<event>
 5   0  0.2484507E-03  0.1203298E+04  0.7818609E-02  0.9109975E-01
       -2   -1    0    0    0  501  0.00000000000E+00  0.00000000000E+00  0.79225207414E+03  0.79225207414E+03  0.25500000920E-02 0.  1.
        2   -1    0    0  501    0  0.00000000000E+00  0.00000000000E+00 -0.45690204338E+03  0.45690204339E+03  0.25500000920E-02 0. -1.
    10030    2    1    2    0    0  0.00000000000E+00  0.00000000000E+00  0.33535003076E+03  0.12491541175E+04  0.12032981203E+04 0.  0.
        2    1    3    3  502    0  0.45108041999E+03  0.49416922183E+02  0.57778180071E+03  0.73467502117E+03  0.25500000920E-02 0.  1.
       -2    1    3    3    0  502 -0.45108041999E+03 -0.49416922183E+02 -0.24243176995E+03  0.51447909636E+03  0.25500000920E-02 0. -1.
</event>
<event>
 5   0  0.2517023E-03  0.1184326E+04  0.7818609E-02  0.9126688E-01
        2   -1    0    0  501    0  0.00000000000E+00  0.00000000000E+00  0.84707721130E+03  0.84707721130E+03  0.25500000920E-02 0.  1.
       -2   -1    0    0    0  501  0.00000000000E+00  0.00000000000E+00 -0.41396114943E+03  0.41396114944E+03  0.25500000920E-02 0. -1.
    10030    2    1    2    0    0  0.00000000000E+00  0.00000000000E+00  0.43311606187E+03  0.12610383607E+04  0.11843260633E+04 0.  0.
        3    1    3    3  502    0 -0.47544419926E+03 -0.34480797396E+03  0.29706866999E+03  0.65817135338E+03  0.10100000352E+00 0.  1.
       -3    1    3    3    0  502  0.47544419926E+03  0.34480797396E+03  0.13604739188E+03  0.60286700735E+03  0.10100000352E+00 0. -1.
</event>
<event>
 5   0  0.1404833E-03  0.1212470E+04  0.7818609E-02  0.9102011E-01
       -1   -1    0    0    0  501  0.00000000000E+00  0.00000000000E+00  0.12949742361E+04  0.12949742361E+04  0.50400001928E-02 0. -1.
        1   -1    0    0  501    0  0.00000000000E+00  0.00000000000E+00 -0.28380538854E+03  0.28380538858E+03  0.50400001928E-02 0.  1.
    10030    2    1    2    0    0  0.00000000000E+00  0.00000000000E+00  0.10111688475E+04  0.15787796246E+04  0.12124696553E+04 0.  0.
        1    1    3    3  502    0 -0.19600971586E+03 -0.28644316539E+03 -0.14162389770E+03  0.37486907600E+03  0.50400001928E-02 0.  1.
       -1    1    3    3    0  502  0.19600971586E+03  0.28644316539E+03  0.11527927452E+04  0.12039105486E+04  0.50400001928E-02 0. -1.
</event>
<event>
 5   0  0.2579442E-03  0.1202629E+04  0.7818609E-02  0.9110558E-01
        2   -1    0    0  501    0  0.00000000000E+00  0.00000000000E+00  0.79261838070E+03  0.79261838070E+03  0.25500000920E-02 0.  1.
       -2   -1    0    0    0  501  0.00000000000E+00  0.00000000000E+00 -0.45618331660E+03  0.45618331660E+03  0.25500000920E-02 0. -1.
    10030    2    1    2    0    0  0.00000000000E+00  0.00000000000E+00  0.33643506410E+03  0.12488016973E+04  0.12026292558E+04 0.  0.
        4    1    3    3  502    0 -0.30446807998E+03  0.95272742336E+01 -0.37013295359E+03  0.47936582785E+03  0.12699999809E+01 0. -1.
       -4    1    3    3    0  502  0.30446807998E+03 -0.95272742336E+01  0.70656801769E+03  0.76943586946E+03  0.12699999809E+01 0.  1.
</event>
<event>
 5   0  0.1469851E-03  0.1205519E+04  0.7818609E-02  0.9108040E-01
       -1   -1    0    0    0  501  0.00000000000E+00  0.00000000000E+00  0.30223875692E+03  0.30223875696E+03  0.50400001928E-02 0. -1.
        1   -1    0    0  501    0  0.00000000000E+00  0.00000000000E+00 -0.12020925118E+04  0.12020925118E+04  0.50400001928E-02 0.  1.
    10030    2    1    2    0    0  0.00000000000E+00  0.00000000000E+00 -0.89985375485E+03  0.15043312687E+04  0.12055188866E+04 0.  0.
        5    1    3    3  502    0 -0.23192665041E+03  0.90129242206E+02  0.23513417232E+03  0.34237905962E+03  0.46999998093E+01 0. -1.
       -5    1    3    3    0  502  0.23192665041E+03 -0.90129242206E+02 -0.11349879272E+04  0.11619522091E+04  0.46999998093E+01 0.  1.
</event>
<event>
 5   0  0.2499890E-03  0.1195465E+04  0.7818609E-02  0.9116835E-01
        2   -1    0    0  501    0  0.00000000000E+00  0.00000000000E+00  0.22269240380E+04  0.22269240380E+04  0.25500000920E-02 0.  1.
       -2   -1    0    0    0  501  0.00000000000E+00  0.00000000000E+00 -0.16043846567E+03  0.16043846569E+03  0.25500000920E-02 0. -1.
    10030    2    1    2    0    0  0.00000000000E+00  0.00000000000E+00  0.20664855723E+04  0.23873625037E+04  0.11954652247E+04 0.  0.
        5    1    3    3  502    0 -0.27229498672E+01  0.19711084793E+03 -0.93615682014E+02  0.21827983587E+03  0.46999998093E+01 0. -1.
       -5    1    3    3    0  502  0.27229498672E+01 -0.19711084793E+03  0.21601012543E+04  0.21690826678E+04  0.46999998093E+01 0.  1.
</event>
<event>
 5   0  0.2579442E-03  0.1253576E+04  0.7818609E-02  0.9067212E-01
       -2   -1    0    0    0  501  0.00000000000E+00  0.00000000000E+00  0.19258400575E+03  0.19258400577E+03  0.25500000920E-02 0.  1.
        2   -1    0    0  501    0  0.00000000000E+00  0.00000000000E+00 -0.20399576799E+04  0.20399576799E+04  0.25500000920E-02 0. -1.
    10030    2    1    2    0    0  0.00000000000E+00  0.00000000000E+00 -0.18473736742E+04  0.22325416857E+04  0.12535760393E+04 0.  0.
        4    1    3    3  502    0  0.21809071332E+02  0.36227396961E+03 -0.18337856357E+04  0.18693553529E+04  0.12699999809E+01 0. -1.
       -4    1    3    3    0  502 -0.21809071332E+02 -0.36227396961E+03 -0.13588038448E+02  0.36318633281E+03  0.12699999809E+01 0.  1.
</event>
<event>
 5   0  0.2517023E-03  0.1203771E+04  0.7818609E-02  0.9109562E-01
       -2   -1    0    0    0  501  0.00000000000E+00  0.00000000000E+00  0.40097982304E+03  0.40097982304E+03  0.25500000920E-02 0.  1.
        2   -1    0    0  501    0  0.00000000000E+00  0.00000000000E+00 -0.90345221340E+03  0.90345221340E+03  0.25500000920E-02 0. -1.
    10030    2    1    2    0    0  0.00000000000E+00  0.00000000000E+00 -0.50247239036E+03  0.13044320364E+04  0.12037709228E+04 0.  0.
        3    1    3    3  502    0  0.44166972357E+03 -0.40319435964E+03 -0.32495640790E+03  0.68061333634E+03  0.10100000352E+00 0. -1.
       -3    1    3    3    0  502 -0.44166972357E+03  0.40319435964E+03 -0.17751598246E+03  0.62381870010E+03  0.10100000352E+00 0.  1.
</event>
<event>
 5   0  0.2517023E-03  0.1207479E+04  0.7818609E-02  0.9106335E-01
        2   -1    0    0  501    0  0.00000000000E+00  0.00000000000E+00  0.83647658704E+03  0.83647658705E+03  0.25500000920E-02 0.  1.
       -2   -1    0    0    0  501  0.00000000000E+00  0.00000000000E+00 -0.43575834357E+03  0.43575834358E+03  0.25500000920E-02 0. -1.
    10030    2    1    2    0    0  0.00000000000E+00  0.00000000000E+00  0.40071824347E+03  0.12722349306E+04  0.12074794442E+04 0.  0.
        3    1    3    3  502    0 -0.58649897376E+02  0.37772201554E+02 -0.43149758623E+03  0.43710036238E+03  0.10100000352E+00 0. -1.
       -3    1    3    3    0  502  0.58649897376E+02 -0.37772201554E+02  0.83221582970E+03  0.83513456825E+03  0.10100000352E+00 0.  1.
</event>
<event>
 5   0  0.2579442E-03  0.1169480E+04  0.7818609E-02  0.9139998E-01
        2   -1    0    0  501    0  0.00000000000E+00  0.00000000000E+00  0.17824395262E+04  0.17824395262E+04  0.25500000920E-02 0. -1.
       -2   -1    0    0    0  501  0.00000000000E+00  0.00000000000E+00 -0.19182755608E+03  0.19182755610E+03  0.25500000920E-02 0.  1.
    10030    2    1    2    0    0  0.00000000000E+00  0.00000000000E+00  0.15906119701E+04  0.19742670823E+04  0.11694802575E+04 0.  0.
        4    1    3    3  502    0  0.28760090963E+03 -0.26886787041E+03  0.15251588352E+04  0.15751556433E+04  0.12699999809E+01 0. -1.
       -4    1    3    3    0  502 -0.28760090963E+03  0.26886787041E+03  0.65453134830E+02  0.39911143897E+03  0.12699999809E+01 0.  1.
</event>
<event>
 5   0  0.2517023E-03  0.1197912E+04  0.7818609E-02  0.9114686E-01
        2   -1    0    0  501    0  0.00000000000E+00  0.00000000000E+00  0.78832103749E+03  0.78832103750E+03  0.25500000920E-02 0.  1.
       -2   -1    0    0    0  501  0.00000000000E+00  0.00000000000E+00 -0.45507916080E+03  0.45507916081E+03  0.25500000920E-02 0. -1.
    10030    2    1    2    0    0  0.00000000000E+00  0.00000000000E+00  0.33324187669E+03  0.12434001983E+04  0.11979123110E+04 0.  0.
        3    1    3    3  502    0 -0.32416426677E+03 -0.28193531014E+03 -0.26657377316E+03  0.50560021528E+03  0.10100000352E+00 0. -1.
       -3    1    3    3    0  502  0.32416426677E+03  0.28193531014E+03  0.59981564985E+03  0.73779998303E+03  0.10100000352E+00 0.  1.
</event>
<event>
 5   0  0.9678750E-04  0.1195138E+04  0.7818609E-02  0.9117123E-01
        3   -1    0    0  501    0  0.00000000000E+00  0.00000000000E+00  0.18898288264E+03  0.18898290963E+03  0.10100000352E+00 0.  1.
       -3   -1    0    0    0  501  0.00000000000E+00  0.00000000000E+00 -0.18895300846E+04  0.18895300873E+04  0.10100000352E+00 0. -1.
    10030    2    1    2    0    0  0.00000000000E+00  0.00000000000E+00 -0.17005472019E+04  0.20785129969E+04  0.11951382733E+04 0.  0.
        5    1    3    3  502    0  0.11085670764E+03  0.38905629335E+03 -0.16151251787E+04  0.16650241566E+04  0.46999998093E+01 0. -1.
       -5    1    3    3    0  502 -0.11085670764E+03 -0.38905629335E+03 -0.85422023194E+02  0.41348884032E+03  0.46999998093E+01 0.  1.
</event>
<event>
 5   0  0.1469851E-03  0.1205527E+04  0.7818609E-02  0.9108032E-01
       -1   -1    0    0    0  501  0.00000000000E+00  0.00000000000E+00  0.26318057937E+03  0.26318057942E+03  0.50400001928E-02 0.  1.
        1   -1    0    0  501    0  0.00000000000E+00  0.00000000000E+00 -0.13805124575E+04  0.13805124575E+04  0.50400001928E-02 0. -1.
    10030    2    1    2    0    0  0.00000000000E+00  0.00000000000E+00 -0.11173318781E+04  0.16436930369E+04  0.12055273841E+04 0.  0.
        5    1    3    3  502    0  0.65839817810E+01 -0.58535727557E+03 -0.36289849907E+03  0.68876984509E+03  0.46999998093E+01 0.  1.
       -5    1    3    3    0  502 -0.65839817810E+01  0.58535727557E+03 -0.75443337901E+03  0.95492319180E+03  0.46999998093E+01 0. -1.
</event>
<event>
 5   0  0.2580244E-03  0.1230826E+04  0.7818609E-02  0.9086294E-01
       -2   -1    0    0    0  501  0.00000000000E+00  0.00000000000E+00  0.21992482425E+03  0.21992482426E+03  0.25500000920E-02 0.  1.
        2   -1    0    0  501    0  0.00000000000E+00  0.00000000000E+00 -0.17221034268E+04  0.17221034268E+04  0.25500000920E-02 0. -1.
    10030    2    1    2    0    0  0.00000000000E+00  0.00000000000E+00 -0.15021786025E+04  0.19420282511E+04  0.12308262160E+04 0.  0.
        1    1    3    3  502    0  0.51571879625E+03  0.33573052329E+03 -0.76251436505E+03  0.97985152856E+03  0.50400001928E-02 0. -1.
       -1    1    3    3    0  502 -0.51571879625E+03 -0.33573052329E+03 -0.73966423750E+03  0.96217672251E+03  0.50400001928E-02 0.  1.
</event>
<event>
 5   0  0.1404833E-03  0.1208640E+04  0.7818609E-02  0.9105328E-01
        1   -1    0    0  501    0  0.00000000000E+00  0.00000000000E+00  0.48289954322E+03  0.48289954325E+03  0.50400001928E-02 0.  1.
       -1   -1    0    0    0  501  0.00000000000E+00  0.00000000000E+00 -0.75627032744E+03  0.75627032746E+03  0.50400001928E-02 0. -1.
    10030    2    1    2    0    0  0.00000000000E+00  0.00000000000E+00 -0.27337078422E+03  0.12391698707E+04  0.12086398896E+04 0.  0.
        1    1    3    3  502    0  0.14449802255E+02 -0.31536733410E+03 -0.66500489531E+03  0.73613644320E+03  0.50400001928E-02 0. -1.
       -1    1    3    3    0  502 -0.14449802255E+02  0.31536733410E+03  0.39163411109E+03  0.50303342751E+03  0.50400001928E-02 0.  1.
</event>
<event>
 5   0  0.2579442E-03  0.1194124E+04  0.7818609E-02  0.9118016E-01
        2   -1    0    0  501    0  0.00000000000E+00  0.00000000000E+00  0.45366328138E+03  0.45366328139E+03  0.25500000920E-02 0.  1.
       -2   -1    0    0    0  501  0.00000000000E+00  0.00000000000E+00 -0.78578747149E+03  0.78578747150E+03  0.25500000920E-02 0. -1.
    10030    2    1    2    0    0  0.00000000000E+00  0.00000000000E+00 -0.33212419011E+03  0.12394507529E+04  0.11941238174E+04 0.  0.
        4    1    3    3  502    0  0.33025066617E+03  0.23116701705E+02  0.34966995710E+03  0.48152941365E+03  0.12699999809E+01 0.  1.
       -4    1    3    3    0  502 -0.33025066617E+03 -0.23116701705E+02 -0.68179414721E+03  0.75792133924E+03  0.12699999809E+01 0. -1.
</event>
<event>
 5   0  0.2579442E-03  0.1179211E+04  0.7818609E-02  0.9131250E-01
        2   -1    0    0  501    0  0.00000000000E+00  0.00000000000E+00  0.61167453434E+03  0.61167453435E+03  0.25500000920E-02 0. -1.
       -2   -1    0    0    0  501  0.00000000000E+00  0.00000000000E+00 -0.56833318580E+03  0.56833318580E+03  0.25500000920E-02 0.  1.
    10030    2    1    2    0    0  0.00000000000E+00  0.00000000000E+00  0.43341348545E+02  0.11800077202E+04  0.11792114938E+04 0.  0.
        4    1    3    3  502    0  0.24415682355E+03  0.11496682536E+03 -0.50290022548E+03  0.57073651986E+03  0.12699999809E+01 0.  1.
       -4    1    3    3    0  502 -0.24415682355E+03 -0.11496682536E+03  0.54624157402E+03  0.60927120029E+03  0.12699999809E+01 0. -1.
</event>
<event>
 5   0  0.9678750E-04  0.1193201E+04  0.7818609E-02  0.9118829E-01
       -3   -1    0    0    0  501  0.00000000000E+00  0.00000000000E+00  0.50445341189E+03  0.50445342200E+03  0.10100000352E+00 0.  1.
        3   -1    0    0  501    0  0.00000000000E+00  0.00000000000E+00 -0.70557969909E+03  0.70557970631E+03  0.10100000352E+00 0. -1.
    10030    2    1    2    0    0  0.00000000000E+00  0.00000000000E+00 -0.20112628720E+03  0.12100331283E+04  0.11932009002E+04 0.  0.
        4    1    3    3  502    0  0.17329613646E+03  0.16111612141E+03  0.45483095983E+03  0.51270144373E+03  0.12699999809E+01 0.  1.
       -4    1    3    3    0  502 -0.17329613646E+03 -0.16111612141E+03 -0.65595724703E+03  0.69733168458E+03  0.12699999809E+01 0. -1.
</event>
<event>
 5   0  0.2579442E-03  0.1180386E+04  0.7818609E-02  0.9130200E-01
       -2   -1    0    0    0  501  0.00000000000E+00  0.00000000000E+00  0.16058753745E+03  0.16058753747E+03  0.25500000920E-02 0.  1.
        2   -1    0    0  501    0  0.00000000000E+00  0.00000000000E+00 -0.21690845078E+04  0.21690845078E+04  0.25500000920E-02 0. -1.
    10030    2    1    2    0    0  0.00000000000E+00  0.00000000000E+00 -0.20084969704E+04  0.23296720453E+04  0.11803862752E+04 0.  0.
        4    1    3    3  502    0  0.33263596192E+03 -0.44391667766E+03 -0.60648225416E+03  0.82190695178E+03  0.12699999809E+01 0.  1.
       -4    1    3    3    0  502 -0.33263596192E+03  0.44391667766E+03 -0.14020147162E+04  0.15077650935E+04  0.12699999809E+01 0. -1.
</event>
<event>
 5   0  0.2580244E-03  0.1243725E+04  0.7818609E-02  0.9075422E-01
       -2   -1    0    0    0  501  0.00000000000E+00  0.00000000000E+00  0.42989655330E+03  0.42989655331E+03  0.25500000920E-02 0. -1.
        2   -1    0    0  501    0  0.00000000000E+00  0.00000000000E+00 -0.89954898962E+03  0.89954898963E+03  0.25500000920E-02 0.  1.
    10030    2    1    2    0    0  0.00000000000E+00  0.00000000000E+00 -0.46965243632E+03  0.13294455429E+04  0.12437250664E+04 0.  0.
        1    1    3    3  502    0 -0.56770632432E+03 -0.14745700481E+03 -0.13998728202E+02  0.58671117542E+03  0.50400001928E-02 0. -1.
       -1    1    3    3    0  502  0.56770632432E+03  0.14745700481E+03 -0.45565370812E+03  0.74273436752E+03  0.50400001928E-02 0.  1.
</event>
<event>
 5   0  0.1455076E-03  0.1205449E+04  0.7818609E-02  0.9108100E-01
        1   -1    0    0  501    0  0.00000000000E+00  0.00000000000E+00  0.11753403396E+04  0.11753403396E+04  0.50400001928E-02 0. -1.
       -1   -1    0    0    0  501  0.00000000000E+00  0.00000000000E+00 -0.30908216867E+03  0.30908216871E+03  0.50400001928E-02 0.  1.
    10030    2    1    2    0    0  0.00000000000E+00  0.00000000000E+00  0.86625817097E+03  0.14844225084E+04  0.12054488643E+04 0.  0.
        4    1    3    3  502    0  0.11721531549E+03  0.12127285557E+02 -0.29475650308E+03  0.31744213685E+03  0.12699999809E+01 0.  1.
       -4    1    3    3    0  502 -0.11721531549E+03 -0.12127285557E+02  0.11610146740E+04  0.11669803715E+04  0.12699999809E+01 0. -1.
</event>
<event>
 5   0  0.9678750E-04  0.1203543E+04  0.7818609E-02  0.9109761E-01
        3   -1    0    0  501    0  0.00000000000E+00  0.00000000000E+00  0.95970625604E+03  0.95970626136E+03  0.10100000352E+00 0.  1.
       -3   -1    0    0    0  501  0.00000000000E+00  0.00000000000E+00 -0.37733307900E+03  0.37733309252E+03  0.10100000352E+00 0. -1.
    10030    2    1    2    0    0  0.00000000000E+00  0.00000000000E+00  0.58237317704E+03  0.13370393539E+04  0.12035429849E+04 0.  0.
        4    1    3    3  502    0  0.24982088550E+03  0.36855366166E+03  0.74091698319E+03  0.86440839031E+03  0.12699999809E+01 0.  1.
       -4    1    3    3    0  502 -0.24982088550E+03 -0.36855366166E+03 -0.15854380615E+03  0.47263096357E+03  0.12699999809E+01 0. -1.
</event>
<event>
 5   0  0.1469851E-03  0.1199870E+04  0.7818609E-02  0.9112970E-01
        1   -1    0    0  501    0  0.00000000000E+00  0.00000000000E+00  0.36724763062E+03  0.36724763065E+03  0.50400001928E-02 0.  1.
       -1   -1    0    0    0  501  0.00000000000E+00  0.00000000000E+00 -0.98005231557E+03  0.98005231558E+03  0.50400001928E-02 0. -1.
    10030    2    1    2    0    0  0.00000000000E+00  0.00000000000E+00 -0.61280468495E+03  0.13472999462E+04  0.11998698109E+04 0.  0.
        5    1    3    3  502    0  0.10889589901E+03 -0.34664264429E+03  0.22962089254E+03  0.42984565131E+03  0.46999998093E+01 0.  1.
       -5    1    3    3    0  502 -0.10889589901E+03  0.34664264429E+03 -0.84242557749E+03  0.91745429492E+03  0.46999998093E+01 0. -1.
</event>
<event>
 5   0  0.2579442E-03  0.1066984E+04  0.7818609E-02  0.9237982E-01
       -2   -1    0    0    0  501  0.00000000000E+00  0.00000000000E+00  0.31975206468E+03  0.31975206469E+03  0.25500000920E-02 0. -1.
        2   -1    0    0  501    0  0.00000000000E+00  0.00000000000E+00 -0.89010797926E+03  0.89010797926E+03  0.25500000920E-02 0.  1.
    10030    2    1    2    0    0  0.00000000000E+00  0.00000000000E+00 -0.57035591458E+03  0.12098600440E+04  0.10669842814E+04 0.  0.
        4    1    3    3  502    0  0.14641613274E+03 -0.12440364181E+03 -0.84951508938E+03  0.87097155522E+03  0.12699999809E+01 0.  1.
       -4    1    3    3    0  502 -0.14641613274E+03  0.12440364181E+03  0.27915917479E+03  0.33888848873E+03  0.12699999809E+01 0. -1.
</event>
<event>
 5   0  0.2580244E-03  0.1201976E+04  0.7818609E-02  0.9111129E-01
       -2   -1    0    0    0  501  0.00000000000E+00  0.00000000000E+00  0.29482615185E+03  0.29482615186E+03  0.25500000920E-02 0. -1.
        2   -1    0    0  501    0  0.00000000000E+00  0.00000000000E+00 -0.12250822545E+04  0.12250822545E+04  0.25500000920E-02 0.  1.
    10030    2    1    2    0    0  0.00000000000E+00  0.00000000000E+00 -0.93025610261E+03  0.15199084063E+04  0.12019755185E+04 0.  0.
        1    1    3    3  502    0 -0.29866257602E+03 -0.31662060589E+03  0.58901080248E+02  0.43922349627E+03  0.50400001928E-02 0. -1.
       -1    1    3    3    0  502  0.29866257602E+03  0.31662060589E+03 -0.98915718285E+03  0.10806849100E+04  0.50400001928E-02 0.  1.
</event>
<event>
 5   0  0.2484507E-03  0.1190980E+04  0.7818609E-02  0.9120788E-01
       -2   -1    0    0    0  501  0.00000000000E+00  0.00000000000E+00  0.25165548835E+03  0.25165548836E+03  0.25500000920E-02 0. -1.
        2   -1    0    0  501    0  0.00000000000E+00  0.00000000000E+00 -0.14091035067E+04  0.14091035067E+04  0.25500000920E-02 0.  1.
    10030    2    1    2    0    0  0.00000000000E+00  0.00000000000E+00 -0.11574480183E+04  0.16607589950E+04  0.11909804887E+04 0.  0.
        2    1    3    3  502    0 -0.25961244455E+03 -0.53527178609E+03 -0.54198556737E+03  0.80477503788E+03  0.25500000920E-02 0. -1.
       -2    1    3    3    0  502  0.25961244455E+03  0.53527178609E+03 -0.61546245094E+03  0.85598395714E+03  0.25500000920E-02 0.  1.
</event>
<event>
 5   0  0.2499890E-03  0.1017302E+04  0.7818609E-02  0.9289769E-01
       -2   -1    0    0    0  501  0.00000000000E+00  0.00000000000E+00  0.21000941760E+03  0.21000941761E+03  0.25500000920E-02 0.  1.
        2   -1    0    0  501    0  0.00000000000E+00  0.00000000000E+00 -0.12319720549E+04  0.12319720549E+04  0.25500000920E-02 0. -1.
    10030    2    1    2    0    0  0.00000000000E+00  0.00000000000E+00 -0.10219626373E+04  0.14419814725E+04  0.10173017915E+04 0.  0.
        5    1    3    3  502    0  0.24239319094E+03 -0.12846146346E+03  0.96125324672E+02  0.29072147264E+03  0.46999998093E+01 0.  1.
       -5    1    3    3    0  502 -0.24239319094E+03  0.12846146346E+03 -0.11180879620E+04  0.11512599999E+04  0.46999998093E+01 0. -1.
</event>
<event>
 5   0  0.2484507E-03  0.1206539E+04  0.7818609E-02  0.9107152E-01
       -2   -1    0    0    0  501  0.00000000000E+00  0.00000000000E+00  0.21410528200E+03  0.21410528201E+03  0.25500000920E-02 0.  1.
        2   -1    0    0  501    0  0.00000000000E+00  0.00000000000E+00 -0.16997904675E+04  0.16997904675E+04  0.25500000920E-02 0. -1.
    10030    2    1    2    0    0  0.00000000000E+00  0.00000000000E+00 -0.14856851855E+04  0.19138957495E+04  0.12065390460E+04 0.  0.
        2    1    3    3  502    0  0.33691640049E+03  0.46345788607E+03 -0.10422579746E+04  0.11893727585E+04  0.25500000920E-02 0. -1.
       -2    1    3    3    0  502 -0.33691640049E+03 -0.46345788607E+03 -0.44342721085E+03  0.72452299094E+03  0.25500000920E-02 0.  1.
</event>
<event>
 5   0  0.1403154E-03  0.1198790E+04  0.7818609E-02  0.9113916E-01
        1   -1    0    0  501    0  0.00000000000E+00  0.00000000000E+00  0.13201138218E+04  0.13201138218E+04  0.50400001928E-02 0. -1.
       -1   -1    0    0    0  501  0.00000000000E+00  0.00000000000E+00 -0.27215400929E+03  0.27215400934E+03  0.50400001928E-02 0.  1.
    10030    2    1    2    0    0  0.00000000000E+00  0.00000000000E+00  0.10479598125E+04  0.15922678311E+04  0.11987898387E+04 0.  0.
        3    1    3    3  502    0  0.48118330018E+03 -0.51504843529E+02  0.99373791685E+03  0.11053077286E+04  0.10100000352E+00 0. -1.
       -3    1    3    3    0  502 -0.48118330018E+03  0.51504843529E+02  0.54221895620E+02  0.48696010252E+03  0.10100000352E+00 0.  1.
</event>
<event>
 5   0  0.2580244E-03  0.1215677E+04  0.7818609E-02  0.9099244E-01
       -2   -1    0    0    0  501  0.00000000000E+00  0.00000000000E+00  0.49405922731E+03  0.49405922731E+03  0.25500000920E-02 0.  1.
        2   -1    0    0  501    0  0.00000000000E+00  0.00000000000E+00 -0.74782098365E+03  0.74782098365E+03  0.25500000920E-02 0. -1.
    10030    2    1    2    0    0  0.00000000000E+00  0.00000000000E+00 -0.25376175634E+03  0.12418802110E+04  0.12156773542E+04 0.  0.
        1    1    3    3  502    0 -0.19235281909E+03  0.37776088804E+03 -0.57189049235E+03  0.71187192023E+03  0.50400001928E-02 0. -1.
       -1    1    3    3    0  502  0.19235281909E+03 -0.37776088804E+03  0.31812873601E+03  0.53000829074E+03  0.50400001928E-02 0.  1.
</event>
<event>
 5   0  0.1423024E-03  0.1208099E+04  0.7818609E-02  0.9105797E-01
       -1   -1    0    0    0  501  0.00000000000E+00  0.00000000000E+00  0.56027094360E+03  0.56027094362E+03  0.50400001928E-02 0. -1.
        1   -1    0    0  501    0  0.00000000000E+00  0.00000000000E+00 -0.65124888591E+03  0.65124888593E+03  0.50400001928E-02 0.  1.
    10030    2    1    2    0    0  0.00000000000E+00  0.00000000000E+00 -0.90977942315E+02  0.12115198296E+04  0.12080990487E+04 0.  0.
        2    1    3    3  502    0 -0.18473574378E+02 -0.13651326229E+03  0.54430786621E+03  0.56146967590E+03  0.25500000920E-02 0. -1.
       -2    1    3    3    0  502  0.18473574378E+02  0.13651326229E+03 -0.63528580853E+03  0.65005015365E+03  0.25500000920E-02 0.  1.
</event>
<event>
 5   0  0.1455076E-03  0.1202741E+04  0.7818609E-02  0.9110461E-01
        1   -1    0    0  501    0  0.00000000000E+00  0.00000000000E+00  0.20685094161E+04  0.20685094161E+04  0.50400001928E-02 0. -1.
       -1   -1    0    0    0  501  0.00000000000E+00  0.00000000000E+00 -0.17483428474E+03  0.17483428482E+03  0.50400001928E-02 0.  1.
    10030    2    1    2    0    0  0.00000000000E+00  0.00000000000E+00  0.18936751314E+04  0.22433437009E+04  0.12027408105E+04 0.  0.
        4    1    3    3  502    0 -0.20680963511E+02  0.53635275411E+03  0.14526549692E+04  0.15486478139E+04  0.12699999809E+01 0. -1.
       -4    1    3    3    0  502  0.20680963511E+02 -0.53635275411E+03  0.44102016214E+03  0.69469588699E+03  0.12699999809E+01 0.  1.
</event>
<event>
 5   0  0.2517023E-03  0.1168767E+04  0.7818609E-02  0.9140643E-01
        2   -1    0    0  501    0  0.00000000000E+00  0.00000000000E+00  0.22288372251E+04  0.22288372251E+04  0.25500000920E-02 0. -1.
       -2   -1    0    0    0  501  0.00000000000E+00  0.00000000000E+00 -0.15322070957E+03  0.15322070959E+03  0.25500000920E-02 0.  1.
    10030    2    1    2    0    0  0.00000000000E+00  0.00000000000E+00  0.20756165155E+04  0.23820579347E+04  0.11687669078E+04 0.  0.
        3    1    3    3  502    0  0.46686934784E+03  0.35096212130E+03  0.99899806852E+03  0.11572115406E+04  0.10100000352E+00 0.  1.
       -3    1    3    3    0  502 -0.46686934784E+03 -0.35096212130E+03  0.10766184470E+04  0.12248463941E+04  0.10100000352E+00 0. -1.
</event>
<event>
 5   0  0.2499890E-03  0.1161626E+04  0.7818609E-02  0.9147125E-01
       -2   -1    0    0    0  501  0.00000000000E+00  0.00000000000E+00  0.42145069131E+03  0.42145069131E+03  0.25500000920E-02 0.  1.
        2   -1    0    0  501    0  0.00000000000E+00  0.00000000000E+00 -0.80043419665E+03  0.80043419666E+03  0.25500000920E-02 0. -1.
    10030    2    1    2    0    0  0.00000000000E+00  0.00000000000E+00 -0.37898350535E+03  0.12218848880E+04  0.11616256635E+04 0.  0.
        5    1    3    3  502    0 -0.29664795735E+03 -0.25749838519E+03 -0.63948775587E+03  0.75051456274E+03  0.46999998093E+01 0. -1.
       -5    1    3    3    0  502  0.29664795735E+03  0.25749838519E+03  0.26050425052E+03  0.47137032523E+03  0.46999998093E+01 0.  1.
</event>
<event>
 5   0  0.9678750E-04  0.1182203E+04  0.7818609E-02  0.9128579E-01
        3   -1    0    0  501    0  0.00000000000E+00  0.00000000000E+00  0.46342860642E+03  0.46342861743E+03  0.10100000352E+00 0. -1.
       -3   -1    0    0    0  501  0.00000000000E+00  0.00000000000E+00 -0.75394730994E+03  0.75394731671E+03  0.10100000352E+00 0.  1.
    10030    2    1    2    0    0  0.00000000000E+00  0.00000000000E+00 -0.29051870352E+03  0.12173759341E+04  0.11822026256E+04 0.  0.
        5    1    3    3  502    0  0.62503988261E+01  0.55407539484E+03  0.66629708033E+02  0.55812204637E+03  0.46999998093E+01 0.  1.
       -5    1    3    3    0  502 -0.62503988261E+01 -0.55407539484E+03 -0.35714841155E+03  0.65925388776E+03  0.46999998093E+01 0. -1.
</event>
<event>
 5   0  0.9678750E-04  0.1040400E+04  0.7818609E-02  0.9265312E-01
       -3   -1    0    0    0  501  0.00000000000E+00  0.00000000000E+00  0.74227103262E+03  0.74227103950E+03  0.10100000352E+00 0. -1.
        3   -1    0    0  501    0  0.00000000000E+00  0.00000000000E+00 -0.36456778667E+03  0.36456780066E+03  0.10100000352E+00 0.  1.
    10030    2    1    2    0    0  0.00000000000E+00  0.00000000000E+00  0.37770324595E+03  0.11068388402E+04  0.10404001519E+04 0.  0.
        4    1    3    3  502    0 -0.24632479789E+03 -0.32170121095E+03  0.53593533665E+03  0.67186001009E+03  0.12699999809E+01 0. -1.
       -4    1    3    3    0  502  0.24632479789E+03  0.32170121095E+03 -0.15823209070E+03  0.43497883007E+03  0.12699999809E+01 0.  1.
</event>
<event>
 5   0  0.2499890E-03  0.1217850E+04  0.7818609E-02  0.9097375E-01
        2   -1    0    0  501    0  0.00000000000E+00  0.00000000000E+00  0.12585337728E+04  0.12585337728E+04  0.25500000920E-02 0. -1.
       -2   -1    0    0    0  501  0.00000000000E+00  0.00000000000E+00 -0.29462018589E+03  0.29462018590E+03  0.25500000920E-02 0.  1.
    10030    2    1    2    0    0  0.00000000000E+00  0.00000000000E+00  0.96391358688E+03  0.15531539587E+04  0.12178496690E+04 0.  0.
        5    1    3    3  502    0  0.10267316600E+03  0.58491349203E+03  0.65354269842E+03  0.88306609086E+03  0.46999998093E+01 0. -1.
       -5    1    3    3    0  502 -0.10267316600E+03 -0.58491349203E+03  0.31037088846E+03  0.67008786781E+03  0.46999998093E+01 0.  1.
</event>
<event>
 5   0  0.2580244E-03  0.1176159E+04  0.7818609E-02  0.9133984E-01
        2   -1    0    0  501    0  0.00000000000E+00  0.00000000000E+00  0.37042879645E+03  0.37042879646E+03  0.25500000920E-02 0.  1.
       -2   -1    0    0    0  501  0.00000000000E+00  0.00000000000E+00 -0.93361371954E+03  0.93361371954E+03  0.25500000920E-02 0. -1.
    10030    2    1    2    0    0  0.00000000000E+00  0.00000000000E+00 -0.56318492309E+03  0.13040425160E+04  0.11761588438E+04 0.  0.
        1    1    3    3  502    0 -0.34819031129E+03 -0.41156078046E+03 -0.54212898638E+03  0.76454078164E+03  0.50400001928E-02 0. -1.
       -1    1    3    3    0  502  0.34819031129E+03  0.41156078046E+03 -0.21055936710E+02  0.53950173437E+03  0.50400001928E-02 0.  1.
</event>
<event>
 5   0  0.1455076E-03  0.1164031E+04  0.7818609E-02  0.9144936E-01
       -1   -1    0    0    0  501  0.00000000000E+00  0.00000000000E+00  0.14475472304E+03  0.14475472313E+03  0.50400001928E-02 0. -1.
        1   -1    0    0  501    0  0.00000000000E+00  0.00000000000E+00 -0.23401085907E+04  0.23401085907E+04  0.50400001928E-02 0.  1.
    10030    2    1    2    0    0  0.00000000000E+00  0.00000000000E+00 -0.21953538676E+04  0.24848633138E+04  0.11640305340E+04 0.  0.
        4    1    3    3  502    0  0.49971027741E+02 -0.25588008333E+03  0.13126340074E+02  0.26104718800E+03  0.12699999809E+01 0. -1.
       -4    1    3    3    0  502 -0.49971027741E+02  0.25588008333E+03 -0.22084802077E+04  0.22238161258E+04  0.12699999809E+01 0.  1.
</event>
<event>
 5   0  0.1469851E-03  0.1173928E+04  0.7818609E-02  0.9135988E-01
        1   -1    0    0  501    0  0.00000000000E+00  0.00000000000E+00  0.13251621974E+04  0.13251621974E+04  0.50400001928E-02 0.  1.
       -1   -1    0    0    0  501  0.00000000000E+00  0.00000000000E+00 -0.25998851952E+03  0.25998851957E+03  0.50400001928E-02 0. -1.
    10030    2    1    2    0    0  0.00000000000E+00  0.00000000000E+00  0.10651736779E+04  0.15851507170E+04  0.11739283758E+04 0.  0.
        5    1    3    3  502    0  0.45982190248E+03 -0.18296846450E+03  0.10645939763E+03  0.50623051503E+03  0.46999998093E+01 0. -1.
       -5    1    3    3    0  502 -0.45982190248E+03  0.18296846450E+03  0.95871428025E+03  0.10789202019E+04  0.46999998093E+01 0.  1.
</event>
<event>
 5   0  0.2499890E-03  0.1206604E+04  0.7818609E-02  0.9107096E-01
        2   -1    0    0  501    0  0.00000000000E+00  0.00000000000E+00  0.13504742672E+04  0.13504742672E+04  0.25500000920E-02 0.  1.
       -2   -1    0    0    0  501  0.00000000000E+00  0.00000000000E+00 -0.26951518305E+03  0.26951518306E+03  0.25500000920E-02 0. -1.
    10030    2    1    2    0    0  0.00000000000E+00  0.00000000000E+00  0.10809590841E+04  0.16199894502E+04  0.12066040267E+04 0.  0.
        5    1    3    3  502    0  0.23706183305E+03 -0.50374431571E+02  0.12822176461E+04  0.13049291468E+04  0.46999998093E+01 0.  1.
       -5    1    3    3    0  502 -0.23706183305E+03  0.50374431571E+02 -0.20125856200E+03  0.31506030347E+03  0.46999998093E+01 0. -1.
</event>
<event>
 5   0  0.2484507E-03  0.1206102E+04  0.7818609E-02  0.9107532E-01
        2   -1    0    0  501    0  0.00000000000E+00  0.00000000000E+00  0.17458527490E+04  0.17458527490E+04  0.25500000920E-02 0. -1.
       -2   -1    0    0    0  501  0.00000000000E+00  0.00000000000E+00 -0.20830538960E+03  0.20830538961E+03  0.25500000920E-02 0.  1.
    10030    2    1    2    0    0  0.00000000000E+00  0.00000000000E+00  0.15375473594E+04  0.19541581386E+04  0.12061020472E+04 0.  0.
        2    1    3    3  502    0 -0.46751943089E+03  0.28568172843E+03  0.36054718583E+03  0.65588317667E+03  0.25500000920E-02 0.  1.
       -2    1    3    3    0  502  0.46751943089E+03 -0.28568172843E+03  0.11770001736E+04  0.12982749620E+04  0.25500000920E-02 0. -1.
</event>
<event>
 5   0  0.2517023E-03  0.1198775E+04  0.7818609E-02  0.9113929E-01
        2   -1    0    0  501    0  0.00000000000E+00  0.00000000000E+00  0.17817605925E+04  0.17817605925E+04  0.25500000920E-02 0. -1.
       -2   -1    0    0    0  501  0.00000000000E+00  0.00000000000E+00 -0.20163514470E+03  0.20163514472E+03  0.25500000920E-02 0.  1.
    10030    2    1    2    0    0  0.00000000000E+00  0.00000000000E+00  0.15801254478E+04  0.19833957372E+04  0.11987752999E+04 0.  0.
        3    1    3    3  502    0 -0.48162632489E+03  0.18893305248E+02  0.13795559603E+04  0.14613334772E+04  0.10100000352E+00 0. -1.
       -3    1    3    3    0  502  0.48162632489E+03 -0.18893305248E+02  0.20056948750E+03  0.52206226001E+03  0.10100000352E+00 0.  1.
</event>
<event>
 5   0  0.1404833E-03  0.1153159E+04  0.7818609E-02  0.9154874E-01
        1   -1    0    0  501    0  0.00000000000E+00  0.00000000000E+00  0.54080587120E+03  0.54080587122E+03  0.50400001928E-02 0.  1.
       -1   -1    0    0    0  501  0.00000000000E+00  0.00000000000E+00 -0.61471969429E+03  0.61471969431E+03  0.50400001928E-02 0. -1.
    10030    2    1    2    0    0  0.00000000000E+00  0.00000000000E+00 -0.73913823090E+02  0.11555255655E+04  0.11531591735E+04 0.  0.
        1    1    3    3  502    0  0.24295675905E+02  0.30077466273E+03 -0.52927800828E+03  0.60925437026E+03  0.50400001928E-02 0. -1.
       -1    1    3    3    0  502 -0.24295675905E+02 -0.30077466273E+03  0.45536418519E+03  0.54627119527E+03  0.50400001928E-02 0.  1.
</event>
<event>
 5   0  0.2517023E-03  0.1194195E+04  0.7818609E-02  0.9117953E-01
        2   -1    0    0  501    0  0.00000000000E+00  0.00000000000E+00  0.11289070602E+04  0.11289070602E+04  0.25500000920E-02 0. -1.
       -2   -1    0    0    0  501  0.00000000000E+00  0.00000000000E+00 -0.31581442886E+03  0.31581442887E+03  0.25500000920E-02 0.  1.
    10030    2    1    2    0    0  0.00000000000E+00  0.00000000000E+00  0.81309263129E+03  0.14447214890E+04  0.11941945209E+04 0.  0.
        3    1    3    3  502    0  0.14425090421E+03  0.19673085909E+03  0.10658679908E+04  0.10934285246E+04  0.10100000352E+00 0. -1.
       -3    1    3    3    0  502 -0.14425090421E+03 -0.19673085909E+03 -0.25277535954E+03  0.35129296445E+03  0.10100000352E+00 0.  1.
</event>
<event>
 5   0  0.2499890E-03  0.1217308E+04  0.7818609E-02  0.9097840E-01
        2   -1    0    0  501    0  0.00000000000E+00  0.00000000000E+00  0.84163087122E+03  0.84163087123E+03  0.25500000920E-02 0. -1.
       -2   -1    0    0    0  501  0.00000000000E+00  0.00000000000E+00 -0.44016912602E+03  0.44016912603E+03  0.25500000920E-02 0.  1.
    10030    2    1    2    0    0  0.00000000000E+00  0.00000000000E+00  0.40146174520E+03  0.12817999973E+04  0.12173083833E+04 0.  0.
        5    1    3    3  502    0  0.16199453003E+03  0.23180295335E+03 -0.36676807602E+03  0.46315844862E+03  0.46999998093E+01 0.  1.
       -5    1    3    3    0  502 -0.16199453003E+03 -0.23180295335E+03  0.76822982122E+03  0.81864154864E+03  0.46999998093E+01 0. -1.
</event>
<event>
 5   0  0.1404833E-03  0.1203297E+04  0.7818609E-02  0.9109975E-01
        1   -1    0    0  501    0  0.00000000000E+00  0.00000000000E+00  0.10542456243E+04  0.10542456243E+04  0.50400001928E-02 0.  1.
       -1   -1    0    0    0  501  0.00000000000E+00  0.00000000000E+00 -0.34335565598E+03  0.34335565602E+03  0.50400001928E-02 0. -1.
    10030    2    1    2    0    0  0.00000000000E+00  0.00000000000E+00  0.71088996833E+03  0.13976012803E+04  0.12032974660E+04 0.  0.
        1    1    3    3  502    0 -0.63831503915E+02  0.33462097032E+01 -0.33940080631E+03  0.34536729052E+03  0.50400001928E-02 0. -1.
       -1    1    3    3    0  502  0.63831503915E+02 -0.33462097032E+01  0.10502907746E+04  0.10522339898E+04  0.50400001928E-02 0.  1.
</event>
<event>
 5   0  0.1423024E-03  0.1193250E+04  0.7818609E-02  0.9118786E-01
       -1   -1    0    0    0  501  0.00000000000E+00  0.00000000000E+00  0.26846250906E+03  0.26846250911E+03  0.50400001928E-02 0.  1.
        1   -1    0    0  501    0  0.00000000000E+00  0.00000000000E+00 -0.13259249987E+04  0.13259249987E+04  0.50400001928E-02 0. -1.
    10030    2    1    2    0    0  0.00000000000E+00  0.00000000000E+00 -0.10574624896E+04  0.15943875078E+04  0.11932496001E+04 0.  0.
        2    1    3    3  502    0 -0.19250066397E+03 -0.18718557889E+03  0.18316947439E+03  0.32503231059E+03  0.25500000920E-02 0.  1.
       -2    1    3    3    0  502  0.19250066397E+03  0.18718557889E+03 -0.12406319640E+04  0.12693551972E+04  0.25500000920E-02 0. -1.
</event>
<event>
 5   0  0.2579442E-03  0.1201378E+04  0.7818609E-02  0.9111651E-01
       -2   -1    0    0    0  501  0.00000000000E+00  0.00000000000E+00  0.50828341046E+03  0.50828341046E+03  0.25500000920E-02 0. -1.
        2   -1    0    0  501    0  0.00000000000E+00  0.00000000000E+00 -0.70989382166E+03  0.70989382166E+03  0.25500000920E-02 0.  1.
    10030    2    1    2    0    0  0.00000000000E+00  0.00000000000E+00 -0.20161041120E+03  0.12181772321E+04  0.12013779634E+04 0.  0.
        4    1    3    3  502    0  0.26562556686E+03  0.14389672267E+03 -0.62725928958E+03  0.69621766556E+03  0.12699999809E+01 0.  1.
       -4    1    3    3    0  502 -0.26562556686E+03 -0.14389672267E+03  0.42564887838E+03  0.52195956657E+03  0.12699999809E+01 0. -1.
</event>
<event>
 5   0  0.2579442E-03  0.1198649E+04  0.7818609E-02  0.9114040E-01
        2   -1    0    0  501    0  0.00000000000E+00  0.00000000000E+00  0.23660584906E+04  0.23660584906E+04  0.25500000920E-02 0. -1.
       -2   -1    0    0    0  501  0.00000000000E+00  0.00000000000E+00 -0.15180933424E+03  0.15180933426E+03  0.25500000920E-02 0.  1.
    10030    2    1    2    0    0  0.00000000000E+00  0.00000000000E+00  0.22142491564E+04  0.25178678248E+04  0.11986488464E+04 0.  0.
        4    1    3    3  502    0 -0.40303374799E+03  0.31057836436E+03  0.17723614768E+04  0.18439528030E+04  0.12699999809E+01 0. -1.
       -4    1    3    3    0  502  0.40303374799E+03 -0.31057836436E+03  0.44188767959E+03  0.67391502187E+03  0.12699999809E+01 0.  1.
</event>
<event>
 5   0  0.2484507E-03  0.1201927E+04  0.7818609E-02  0.9111171E-01
        2   -1    0    0  501    0  0.00000000000E+00  0.00000000000E+00  0.44475331998E+03  0.44475331999E+03  0.25500000920E-02 0.  1.
       -2   -1    0    0    0  501  0.00000000000E+00  0.00000000000E+00 -0.81203928929E+03  0.81203928929E+03  0.25500000920E-02 0. -1.
    10030    2    1    2    0    0  0.00000000000E+00  0.00000000000E+00 -0.36728596931E+03  0.12567926093E+04  0.12019270691E+04 0.  0.
        2    1    3    3  502    0  0.43241382101E+03 -0.20183921032E+03 -0.56560717104E+03  0.74002179114E+03  0.25500000920E-02 0. -1.
       -2    1    3    3    0  502 -0.43241382101E+03  0.20183921032E+03  0.19832120173E+03  0.51677081814E+03  0.25500000920E-02 0.  1.
</event>
<event>
 5   0  0.2580244E-03  0.1208514E+04  0.7818609E-02  0.9105437E-01
       -2   -1    0    0    0  501  0.00000000000E+00  0.00000000000E+00  0.64329970992E+03  0.64329970993E+03  0.25500000920E-02 0.  1.
        2   -1    0    0  501    0  0.00000000000E+00  0.00000000000E+00 -0.56758351759E+03  0.56758351760E+03  0.25500000920E-02 0. -1.
    10030    2    1    2    0    0  0.00000000000E+00  0.00000000000E+00  0.75716192333E+02  0.12108832275E+04  0.12085136528E+04 0.  0.
        1    1    3    3  502    0 -0.44518457614E+02 -0.12972638203E+03 -0.55178152426E+03  0.56857161186E+03  0.50400001928E-02 0. -1.
       -1    1    3    3    0  502  0.44518457614E+02  0.12972638203E+03  0.62749771660E+03  0.64231161567E+03  0.50400001928E-02 0.  1.
</event>
<event>
 5   0  0.2579442E-03  0.1209296E+04  0.7818609E-02  0.9104759E-01
        2   -1    0    0  501    0  0.00000000000E+00  0.00000000000E+00  0.55957161650E+03  0.55957161650E+03  0.25500000920E-02 0. -1.
       -2   -1    0    0    0  501  0.00000000000E+00  0.00000000000E+00 -0.65335518167E+03  0.65335518167E+03  0.25500000920E-02 0.  1.
    10030    2    1    2    0    0  0.00000000000E+00  0.00000000000E+00 -0.93783565170E+02  0.12129267982E+04  0.12092956878E+04 0.  0.
        4    1    3    3  502    0 -0.29117143471E+03  0.47110959022E+03  0.19647302715E+03  0.58764641893E+03  0.12699999809E+01 0. -1.
       -4    1    3    3    0  502  0.29117143471E+03 -0.47110959022E+03 -0.29025659232E+03  0.62528037925E+03  0.12699999809E+01 0.  1.
</event>
<event>
 5   0  0.2517023E-03  0.1202787E+04  0.7818609E-02  0.9110421E-01
       -2   -1    0    0    0  501  0.00000000000E+00  0.00000000000E+00  0.32869736662E+03  0.32869736663E+03  0.25500000920E-02 0. -1.
        2   -1    0    0  501    0  0.00000000000E+00  0.00000000000E+00 -0.11003253125E+04  0.11003253125E+04  0.25500000920E-02 0.  1.
    10030    2    1    2    0    0  0.00000000000E+00  0.00000000000E+00 -0.77162794584E+03  0.14290226791E+04  0.12027868184E+04 0.  0.
        3    1    3    3  502    0  0.45903090445E+03  0.37628442324E+03 -0.50084865079E+03  0.77662649943E+03  0.10100000352E+00 0.  1.
       -3    1    3    3    0  502 -0.45903090445E+03 -0.37628442324E+03 -0.27077929505E+03  0.65239617967E+03  0.10100000352E+00 0. -1.
</event>
<event>
 5   0  0.1404833E-03  0.1178919E+04  0.7818609E-02  0.9131511E-01
       -1   -1    0    0    0  501  0.00000000000E+00  0.00000000000E+00  0.40675782571E+03  0.40675782574E+03  0.50400001928E-02 0.  1.
        1   -1    0    0  501    0  0.00000000000E+00  0.00000000000E+00 -0.85422475233E+03  0.85422475235E+03  0.50400001928E-02 0. -1.
    10030    2    1    2    0    0  0.00000000000E+00  0.00000000000E+00 -0.44746692662E+03  0.12609825781E+04  0.11789191710E+04 0.  0.
        1    1    3    3  502    0 -0.53296190219E+03 -0.24977716052E+03 -0.25798741162E+03  0.64264649978E+03  0.50400001928E-02 0. -1.
       -1    1    3    3    0  502  0.53296190219E+03  0.24977716052E+03 -0.18947951501E+03  0.61833607830E+03  0.50400001928E-02 0.  1.
</event>
<event>
 5   0  0.1403154E-03  0.1188631E+04  0.7818609E-02  0.9122866E-01
        1   -1    0    0  501    0  0.00000000000E+00  0.00000000000E+00  0.55472028346E+03  0.55472028348E+03  0.50400001928E-02 0. -1.
       -1   -1    0    0    0  501  0.00000000000E+00  0.00000000000E+00 -0.63673722530E+03  0.63673722532E+03  0.50400001928E-02 0.  1.
    10030    2    1    2    0    0  0.00000000000E+00  0.00000000000E+00 -0.82016941842E+02  0.11914575088E+04  0.11886312366E+04 0.  0.
        3    1    3    3  502    0 -0.74160627859E+02 -0.58325988222E+03  0.45910772621E+02  0.58974545202E+03  0.10100000352E+00 0. -1.
       -3    1    3    3    0  502  0.74160627859E+02  0.58325988222E+03 -0.12792771446E+03  0.60171205677E+03  0.10100000352E+00 0.  1.
</event>
<event>
 5   0  0.1455076E-03  0.1185187E+04  0.7818609E-02  0.9125922E-01
       -1   -1    0    0    0  501  0.00000000000E+00  0.00000000000E+00  0.10153608211E+04  0.10153608211E+04  0.50400001928E-02 0.  1.
        1   -1    0    0  501    0  0.00000000000E+00  0.00000000000E+00 -0.34585425476E+03  0.34585425479E+03  0.50400001928E-02 0. -1.
    10030    2    1    2    0    0  0.00000000000E+00  0.00000000000E+00  0.66950656637E+03  0.13612150759E+04  0.11851866691E+04 0.  0.
        4    1    3    3  502    0 -0.37722533757E+03  0.47081130728E+02  0.85685766616E+03  0.93740186747E+03  0.12699999809E+01 0.  1.
       -4    1    3    3    0  502  0.37722533757E+03 -0.47081130728E+02 -0.18735109979E+03  0.42381320846E+03  0.12699999809E+01 0. -1.
</event>
<event>
 5   0  0.1404833E-03  0.1206366E+04  0.7818609E-02  0.9107302E-01
        1   -1    0    0  501    0  0.00000000000E+00  0.00000000000E+00  0.24363262440E+03  0.24363262445E+03  0.50400001928E-02 0. -1.
       -1   -1    0    0    0  501  0.00000000000E+00  0.00000000000E+00 -0.14933546213E+04  0.14933546213E+04  0.50400001928E-02 0.  1.
    10030    2    1    2    0    0  0.00000000000E+00  0.00000000000E+00 -0.12497219969E+04  0.17369872458E+04  0.12063662886E+04 0.  0.
        1    1    3    3  502    0 -0.30664254111E+03 -0.51837352487E+03 -0.67237925960E+03  0.90268190858E+03  0.50400001928E-02 0. -1.
       -1    1    3    3    0  502  0.30664254111E+03  0.51837352487E+03 -0.57734273731E+03  0.83430533719E+03  0.50400001928E-02 0.  1.
</event>
<event>
 5   0  0.2580244E-03  0.1200505E+04  0.7818609E-02  0.9112415E-01
        2   -1    0    0  501    0  0.00000000000E+00  0.00000000000E+00  0.69014423180E+03  0.69014423181E+03  0.25500000920E-02 0.  1.
       -2   -1    0    0    0  501  0.00000000000E+00  0.00000000000E+00 -0.52206915402E+03  0.52206915402E+03  0.25500000920E-02 0. -1.
    10030    2    1    2    0    0  0.00000000000E+00  0.00000000000E+00  0.16807507778E+03  0.12122133858E+04  0.12005049192E+04 0.  0.
        1    1    3    3  502    0 -0.17771193702E+03 -0.56172251112E+03  0.20000230517E+03  0.62218536961E+03  0.50400001928E-02 0.  1.
       -1    1    3    3    0  502  0.17771193702E+03  0.56172251112E+03 -0.31927227390E+02  0.59002801622E+03  0.50400001928E-02 0. -1.
</event>
<event>
 5   0  0.2579442E-03  0.1187219E+04  0.7818609E-02  0.9124118E-01
        2   -1    0    0  501    0  0.00000000000E+00  0.00000000000E+00  0.18745796312E+04  0.18745796312E+04  0.25500000920E-02 0. -1.
       -2   -1    0    0    0  501  0.00000000000E+00  0.00000000000E+00 -0.18797400981E+03  0.18797400983E+03  0.25500000920E-02 0.  1.
    10030    2    1    2    0    0  0.00000000000E+00  0.00000000000E+00  0.16866056214E+04  0.20625536411E+04  0.11872190194E+04 0.  0.
        4    1    3    3  502    0  0.31180674417E+03 -0.48988240581E+03  0.10572263948E+04  0.12062078925E+04  0.12699999809E+01 0. -1.
       -4    1    3    3    0  502 -0.31180674417E+03  0.48988240581E+03  0.62937922663E+03  0.85634574855E+03  0.12699999809E+01 0.  1.
</event>
<event>
 5   0  0.2484507E-03  0.1211239E+04  0.7818609E-02  0.9103075E-01
       -2   -1    0    0    0  501  0.00000000000E+00  0.00000000000E+00  0.42910613311E+03  0.42910613312E+03  0.25500000920E-02 0.  1.
        2   -1    0    0  501    0  0.00000000000E+00  0.00000000000E+00 -0.85474227657E+03  0.85474227658E+03  0.25500000920E-02 0. -1.
    10030    2    1    2    0    0  0.00000000000E+00  0.00000000000E+00 -0.42563614346E+03  0.12838484097E+04  0.12112392879E+04 0.  0.
        2    1    3    3  502    0 -0.66378288276E+02 -0.66225977442E+02 -0.84700183488E+03  0.85217607661E+03  0.25500000920E-02 0. -1.
       -2    1    3    3    0  502  0.66378288276E+02  0.66225977442E+02  0.42136569142E+03  0.43167233309E+03  0.25500000920E-02 0.  1.
</event>
<event>
 5   0  0.1469851E-03  0.1205566E+04  0.7818609E-02  0.9107999E-01
       -1   -1    0    0    0  501  0.00000000000E+00  0.00000000000E+00  0.32652601888E+03  0.32652601891E+03  0.50400001928E-02 0. -1.
        1   -1    0    0  501    0  0.00000000000E+00  0.00000000000E+00 -0.11127659929E+04  0.11127659929E+04  0.50400001928E-02 0.  1.
    10030    2    1    2    0    0  0.00000000000E+00  0.00000000000E+00 -0.78623997402E+03  0.14392920118E+04  0.12055655099E+04 0.  0.
        5    1    3    3  502    0 -0.37965404014E+02  0.39571099978E+02 -0.11097597610E+04  0.11111237830E+04  0.46999998093E+01 0.  1.
       -5    1    3    3    0  502  0.37965404014E+02 -0.39571099978E+02  0.32351978701E+03  0.32816822887E+03  0.46999998093E+01 0. -1.
</event>
<event>
 5   0  0.1403154E-03  0.1197058E+04  0.7818609E-02  0.9115436E-01
       -1   -1    0    0    0  501  0.00000000000E+00  0.00000000000E+00  0.90114920120E+03  0.90114920121E+03  0.50400001928E-02 0. -1.
        1   -1    0    0  501    0  0.00000000000E+00  0.00000000000E+00 -0.39753317622E+03  0.39753317626E+03  0.50400001928E-02 0.  1.
    10030    2    1    2    0    0  0.00000000000E+00  0.00000000000E+00  0.50361602497E+03  0.12986823775E+04  0.11970575663E+04 0.  0.
        3    1    3    3  502    0  0.43959751199E+03 -0.17016082834E+03  0.65195067762E+03  0.80451250847E+03  0.10100000352E+00 0. -1.
       -3    1    3    3    0  502 -0.43959751199E+03  0.17016082834E+03 -0.14833465264E+03  0.49416986899E+03  0.10100000352E+00 0.  1.
</event>
<event>
 5   0  0.2580244E-03  0.1214833E+04  0.7818609E-02  0.9099972E-01
       -2   -1    0    0    0  501  0.00000000000E+00  0.00000000000E+00  0.21347929234E+03  0.21347929235E+03  0.25500000920E-02 0.  1.
        2   -1    0    0  501    0  0.00000000000E+00  0.00000000000E+00 -0.17282919605E+04  0.17282919605E+04  0.25500000920E-02 0. -1.
    10030    2    1    2    0    0  0.00000000000E+00  0.00000000000E+00 -0.15148126681E+04  0.19417712528E+04  0.12148325723E+04 0.  0.
        1    1    3    3  502    0 -0.28172865869E+03  0.53785309738E+03 -0.78497805896E+03  0.99239485315E+03  0.50400001928E-02 0.  1.
       -1    1    3    3    0  502  0.28172865869E+03 -0.53785309738E+03 -0.72983460919E+03  0.94937639969E+03  0.50400001928E-02 0. -1.
</event>
<event>
 5   0  0.1455076E-03  0.1180527E+04  0.7818609E-02  0.9130074E-01
        1   -1    0    0  501    0  0.00000000000E+00  0.00000000000E+00  0.53592051584E+03  0.53592051587E+03  0.50400001928E-02 0. -1.
       -1   -1    0    0    0  501  0.00000000000E+00  0.00000000000E+00 -0.65011718306E+03  0.65011718308E+03  0.50400001928E-02 0.  1.
    10030    2    1    2    0    0  0.00000000000E+00  0.00000000000E+00 -0.11419666722E+03  0.11860376989E+04  0.11805272316E+04 0.  0.
        4    1    3    3  502    0 -0.41609113214E+03 -0.27717454449E+03  0.25813684611E+03  0.56266668871E+03  0.12699999809E+01 0. -1.
       -4    1    3    3    0  502  0.41609113214E+03  0.27717454449E+03 -0.37233351333E+03  0.62337101024E+03  0.12699999809E+01 0.  1.
</event>
<event>
 5   0  0.1403154E-03  0.1195950E+04  0.7818609E-02  0.9116409E-01
        1   -1    0    0  501    0  0.00000000000E+00  0.00000000000E+00  0.54078758630E+03  0.54078758632E+03  0.50400001928E-02 0. -1.
       -1   -1    0    0    0  501  0.00000000000E+00  0.00000000000E+00 -0.66120950668E+03  0.66120950670E+03  0.50400001928E-02 0.  1.
    10030    2    1    2    0    0  0.00000000000E+00  0.00000000000E+00 -0.12042192038E+03  0.12019970930E+04  0.11959496531E+04 0.  0.
        3    1    3    3  502    0  0.27719326316E+03  0.43302692646E+03 -0.36708332837E+03  0.63174251428E+03  0.10100000352E+00 0. -1.
       -3    1    3    3    0  502 -0.27719326316E+03 -0.43302692646E+03  0.24666140800E+03  0.57025457874E+03  0.10100000352E+00 0.  1.
</event>
<event>
 5   0  0.1404833E-03  0.1200373E+04  0.7818609E-02  0.9112530E-01
       -1   -1    0    0    0  501  0.00000000000E+00  0.00000000000E+00  0.69813639944E+03  0.69813639946E+03  0.50400001928E-02 0. -1.
        1   -1    0    0  501    0  0.00000000000E+00  0.00000000000E+00 -0.51597947381E+03  0.51597947383E+03  0.50400001928E-02 0.  1.
    10030    2    1    2    0    0  0.00000000000E+00  0.00000000000E+00  0.18215692563E+03  0.12141158733E+04  0.12003733620E+04 0.  0.
        1    1    3    3  502    0  0.69745347498E+02  0.22191825092E+03 -0.46852953731E+03  0.52309850979E+03  0.50400001928E-02 0.  1.
       -1    1    3    3    0  502 -0.69745347498E+02 -0.22191825092E+03  0.65068646294E+03  0.69101736350E+03  0.50400001928E-02 0. -1.
</event>
<event>
 5   0  0.9678750E-04  0.1231743E+04  0.7818609E-02  0.9085517E-01
        3   -1    0    0  501    0  0.00000000000E+00  0.00000000000E+00  0.13719886669E+04  0.13719886706E+04  0.10100000352E+00 0. -1.
       -3   -1    0    0    0  501  0.00000000000E+00  0.00000000000E+00 -0.27645819912E+03  0.27645821757E+03  0.10100000352E+00 0.  1.
    10030    2    1    2    0    0  0.00000000000E+00  0.00000000000E+00  0.10955304678E+04  0.16484468882E+04  0.12317427237E+04 0.  0.
        5    1    3    3  502    0 -0.49705146383E+03  0.20583520232E+03  0.94891553383E+03  0.10908212817E+04  0.46999998093E+01 0. -1.
       -5    1    3    3    0  502  0.49705146383E+03 -0.20583520232E+03  0.14661493398E+03  0.55762560654E+03  0.46999998093E+01 0.  1.
</event>
<event>
 5   0  0.1469851E-03  0.1213556E+04  0.7818609E-02  0.9101073E-01
        1   -1    0    0  501    0  0.00000000000E+00  0.00000000000E+00  0.90791047827E+03  0.90791047828E+03  0.50400001928E-02 0.  1.
       -1   -1    0    0    0  501  0.00000000000E+00  0.00000000000E+00 -0.40552435775E+03  0.40552435778E+03  0.50400001928E-02 0. -1.
    10030    2    1    2    0    0  0.00000000000E+00  0.00000000000E+00  0.50238612053E+03  0.13134348361E+04  0.12135564488E+04 0.  0.
        5    1    3    3  502    0 -0.35583894671E+03  0.43131528390E+02  0.78105272172E+03  0.85938764759E+03  0.46999998093E+01 0.  1.
       -5    1    3    3    0  502  0.35583894671E+03 -0.43131528390E+02 -0.27866660119E+03  0.45404718847E+03  0.46999998093E+01 0. -1.
</event>
<event>
 5   0  0.1403154E-03  0.1187994E+04  0.7818609E-02  0.9123430E-01
       -1   -1    0    0    0  501  0.00000000000E+00  0.00000000000E+00  0.47542640759E+03  0.47542640762E+03  0.50400001928E-02 0. -1.
        1   -1    0    0  501    0  0.00000000000E+00  0.00000000000E+00 -0.74213936745E+03  0.74213936746E+03  0.50400001928E-02 0.  1.
    10030    2    1    2    0    0  0.00000000000E+00  0.00000000000E+00 -0.26671295986E+03  0.12175657751E+04  0.11879943660E+04 0.  0.
        3    1    3    3  502    0  0.15362199125E+03 -0.53943489194E+03 -0.33378226722E+03  0.65268700841E+03  0.10100000352E+00 0.  1.
       -3    1    3    3    0  502 -0.15362199125E+03  0.53943489194E+03  0.67069307367E+02  0.56487876667E+03  0.10100000352E+00 0. -1.
</event>
<event>
 5   0  0.2579442E-03  0.1200985E+04  0.7818609E-02  0.9111995E-01
        2   -1    0    0  501    0  0.00000000000E+00  0.00000000000E+00  0.79462148903E+03  0.79462148903E+03  0.25500000920E-02 0. -1.
       -2   -1    0    0    0  501  0.00000000000E+00  0.00000000000E+00 -0.45378978000E+03  0.45378978000E+03  0.25500000920E-02 0.  1.
    10030    2    1    2    0    0  0.00000000000E+00  0.00000000000E+00  0.34083170903E+03  0.12484112690E+04  0.12009847804E+04 0.  0.
        4    1    3    3  502    0 -0.49979043709E+03 -0.90180742970E+02  0.50348503610E+03  0.71513763842E+03  0.12699999809E+01 0. -1.
       -4    1    3    3    0  502  0.49979043709E+03  0.90180742970E+02 -0.16265332707E+03  0.53327363062E+03  0.12699999809E+01 0.  1.
</event>
<event>
 5   0  0.2580244E-03  0.1203679E+04  0.7818609E-02  0.9109643E-01
       -2   -1    0    0    0  501  0.00000000000E+00  0.00000000000E+00  0.82372886163E+03  0.82372886163E+03  0.25500000920E-02 0.  1.
        2   -1    0    0  501    0  0.00000000000E+00  0.00000000000E+00 -0.43972074795E+03  0.43972074795E+03  0.25500000920E-02 0. -1.
    10030    2    1    2    0    0  0.00000000000E+00  0.00000000000E+00  0.38400811368E+03  0.12634496096E+04  0.12036788129E+04 0.  0.
        1    1    3    3  502    0  0.21289372052E+03  0.35103473290E+03 -0.26991833195E+03  0.49132985446E+03  0.50400001928E-02 0. -1.
       -1    1    3    3    0  502 -0.21289372052E+03 -0.35103473290E+03  0.65392644563E+03  0.77211975513E+03  0.50400001928E-02 0.  1.
</event>
<event>
 5   0  0.1455076E-03  0.1196570E+04  0.7818609E-02  0.9115864E-01
       -1   -1    0    0    0  501  0.00000000000E+00  0.00000000000E+00  0.23376141839E+03  0.23376141845E+03  0.50400001928E-02 0.  1.
        1   -1    0    0  501    0  0.00000000000E+00  0.00000000000E+00 -0.15312409502E+04  0.15312409502E+04  0.50400001928E-02 0. -1.
    10030    2    1    2    0    0  0.00000000000E+00  0.00000000000E+00 -0.12974795318E+04  0.17650023687E+04  0.11965701926E+04 0.  0.
        4    1    3    3  502    0 -0.15559448656E+03  0.57714205559E+03 -0.68608062371E+03  0.90995100511E+03  0.12699999809E+01 0.  1.
       -4    1    3    3    0  502  0.15559448656E+03 -0.57714205559E+03 -0.61139890812E+03  0.85505136356E+03  0.12699999809E+01 0. -1.
</event>
<event>
 5   0  0.2499890E-03  0.1176396E+04  0.7818609E-02  0.9133772E-01
        2   -1    0    0  501    0  0.00000000000E+00  0.00000000000E+00  0.12228720095E+04  0.12228720095E+04  0.25500000920E-02 0. -1.
       -2   -1    0    0    0  501  0.00000000000E+00  0.00000000000E+00 -0.28292152143E+03  0.28292152145E+03  0.25500000920E-02 0.  1.
    10030    2    1    2    0    0  0.00000000000E+00  0.00000000000E+00  0.93995048810E+03  0.15057935310E+04  0.11763958678E+04 0.  0.
        5    1    3    3  502    0  0.26985614856E+03 -0.40826037259E+02  0.11368884991E+04  0.11691991514E+04  0.46999998093E+01 0. -1.
       -5    1    3    3    0  502 -0.26985614856E+03  0.40826037259E+02 -0.19693801096E+03  0.33659437963E+03  0.46999998093E+01 0.  1.
</event>
<event>
 5   0  0.1455076E-03  0.1198027E+04  0.7818609E-02  0.9114585E-01
       -1   -1    0    0    0  501  0.00000000000E+00  0.00000000000E+00  0.84929217994E+03  0.84929217996E+03  0.50400001928E-02 0. -1.
        1   -1    0    0  501    0  0.00000000000E+00  0.00000000000E+00 -0.42248989253E+03  0.42248989256E+03  0.50400001928E-02 0.  1.
    10030    2    1    2    0    0  0.00000000000E+00  0.00000000000E+00  0.42680228741E+03  0.12717820725E+04  0.11980273150E+04 0.  0.
        4    1    3    3  502    0 -0.53313216836E+03  0.21947015665E+03  0.38594584264E+03  0.69379598222E+03  0.12699999809E+01 0. -1.
       -4    1    3    3    0  502  0.53313216836E+03 -0.21947015665E+03  0.40856444770E+02  0.57798609030E+03  0.12699999809E+01 0.  1.
</event>
<event>
 5   0  0.1404833E-03  0.1286159E+04  0.7818609E-02  0.9040614E-01
       -1   -1    0    0    0  501  0.00000000000E+00  0.00000000000E+00  0.71313782886E+03  0.71313782888E+03  0.50400001928E-02 0. -1.
        1   -1    0    0  501    0  0.00000000000E+00  0.00000000000E+00 -0.57990333293E+03  0.57990333295E+03  0.50400001928E-02 0.  1.
    10030    2    1    2    0    0  0.00000000000E+00  0.00000000000E+00  0.13323449593E+03  0.12930411618E+04  0.12861586276E+04 0.  0.
        1    1    3    3  502    0  0.26991206565E+03  0.18175129394E+03 -0.49102648372E+03  0.58906117150E+03  0.50400001928E-02 0.  1.
       -1    1    3    3    0  502 -0.26991206565E+03 -0.18175129394E+03  0.62426097965E+03  0.70397999032E+03  0.50400001928E-02 0. -1.
</event>
<event>
 5   0  0.1404833E-03  0.1194877E+04  0.7818609E-02  0.9117352E-01
       -1   -1    0    0    0  501  0.00000000000E+00  0.00000000000E+00  0.28950224431E+03  0.28950224435E+03  0.50400001928E-02 0.  1.
        1   -1    0    0  501    0  0.00000000000E+00  0.00000000000E+00 -0.12329196235E+04  0.12329196235E+04  0.50400001928E-02 0. -1.
    10030    2    1    2    0    0  0.00000000000E+00  0.00000000000E+00 -0.94341737923E+03  0.15224218679E+04  0.11948773964E+04 0.  0.
        1    1    3    3  502    0  0.22720211756E+03 -0.27835077489E+02  0.23141541824E+03  0.32549760304E+03  0.50400001928E-02 0.  1.
       -1    1    3    3    0  502 -0.22720211756E+03  0.27835077489E+02 -0.11748327975E+04  0.11969242649E+04  0.50400001928E-02 0. -1.
</event>
<event>
 5   0  0.1403154E-03  0.1162305E+04  0.7818609E-02  0.9146506E-01
        1   -1    0    0  501    0  0.00000000000E+00  0.00000000000E+00  0.38740615047E+03  0.38740615051E+03  0.50400001928E-02 0.  1.
       -1   -1    0    0    0  501  0.00000000000E+00  0.00000000000E+00 -0.87179441075E+03  0.87179441077E+03  0.50400001928E-02 0. -1.
    10030    2    1    2    0    0  0.00000000000E+00  0.00000000000E+00 -0.48438826028E+03  0.12592005613E+04  0.11623054963E+04 0.  0.
        3    1    3    3  502    0 -0.42895695853E+02  0.20613554753E+03  0.34463215405E+03  0.40386041708E+03  0.10100000352E+00 0.  1.
       -3    1    3    3    0  502  0.42895695853E+02 -0.20613554753E+03 -0.82902041433E+03  0.85534014419E+03  0.10100000352E+00 0. -1.
</event>
<event>
 5   0  0.2499890E-03  0.1204152E+04  0.7818609E-02  0.9109230E-01
        2   -1    0    0  501    0  0.00000000000E+00  0.00000000000E+00  0.13191640542E+04  0.13191640542E+04  0.25500000920E-02 0.  1.
       -2   -1    0    0    0  501  0.00000000000E+00  0.00000000000E+00 -0.27479177411E+03  0.27479177413E+03  0.25500000920E-02 0. -1.
    10030    2    1    2    0    0  0.00000000000E+00  0.00000000000E+00  0.10443722801E+04  0.15939558283E+04  0.12041518689E+04 0.  0.
        5    1    3    3  502    0  0.46036002925E+03 -0.24286045043E+02  0.95946417211E+01  0.46112396995E+03  0.46999998093E+01 0. -1.
       -5    1    3    3    0  502 -0.46036002925E+03  0.24286045043E+02  0.10347776384E+04  0.11328318584E+04  0.46999998093E+01 0.  1.
</event>
<event>
 5   0  0.2580244E-03  0.1187005E+04  0.7818609E-02  0.9124307E-01
       -2   -1    0    0    0  501  0.00000000000E+00  0.00000000000E+00  0.52180644620E+03  0.52180644621E+03  0.25500000920E-02 0. -1.
        2   -1    0    0  501    0  0.00000000000E+00  0.00000000000E+00 -0.67505011471E+03  0.67505011472E+03  0.25500000920E-02 0.  1.
    10030    2    1    2    0    0  0.00000000000E+00  0.00000000000E+00 -0.15324366851E+03  0.11968565609E+04  0.11870054783E+04 0.  0.
        1    1    3    3  502    0  0.13493164345E+03  0.14039984928E+03  0.48867963146E+03  0.52604795249E+03  0.50400001928E-02 0. -1.
       -1    1    3    3    0  502 -0.13493164345E+03 -0.14039984928E+03 -0.64192329998E+03  0.67080860844E+03  0.50400001928E-02 0.  1.
</event>
<event>
 5   0  0.1455076E-03  0.1184517E+04  0.7818609E-02  0.9126517E-01
        1   -1    0    0  501    0  0.00000000000E+00  0.00000000000E+00  0.79803791211E+03  0.79803791213E+03  0.50400001928E-02 0.  1.
       -1   -1    0    0    0  501  0.00000000000E+00  0.00000000000E+00 -0.43954089605E+03  0.43954089608E+03  0.50400001928E-02 0. -1.
    10030    2    1    2    0    0  0.00000000000E+00  0.00000000000E+00  0.35849701606E+03  0.12375788082E+04  0.11845172840E+04 0.  0.
        4    1    3    3  502    0 -0.32649013778E+03 -0.14715759528E+03  0.67209715165E+03  0.76155588243E+03  0.12699999809E+01 0.  1.
       -4    1    3    3    0  502  0.32649013778E+03  0.14715759528E+03 -0.31360013558E+03  0.47602292577E+03  0.12699999809E+01 0. -1.
</event>
<event>
 5   0  0.1403154E-03  0.1196150E+04  0.7818609E-02  0.9116234E-01
       -1   -1    0    0    0  501  0.00000000000E+00  0.00000000000E+00  0.54664105000E+03  0.54664105002E+03  0.50400001928E-02 0.  1.
        1   -1    0    0  501    0  0.00000000000E+00  0.00000000000E+00 -0.65434787944E+03  0.65434787946E+03  0.50400001928E-02 0. -1.
    10030    2    1    2    0    0  0.00000000000E+00  0.00000000000E+00 -0.10770682944E+03  0.12009889295E+04  0.11961495089E+04 0.  0.
        3    1    3    3  502    0 -0.45773890409E+03  0.91237162839E+02 -0.42932397233E+03  0.63416733408E+03  0.10100000352E+00 0. -1.
       -3    1    3    3    0  502  0.45773890409E+03 -0.91237162839E+02  0.32161714289E+03  0.56682159540E+03  0.10100000352E+00 0.  1.
</event>
<event>
 5   0  0.2499890E-03  0.1203467E+04  0.7818609E-02  0.9109827E-01
        2   -1    0    0  501    0  0.00000000000E+00  0.00000000000E+00  0.86885398784E+03  0.86885398784E+03  0.25500000920E-02 0. -1.
       -2   -1    0    0    0  501  0.00000000000E+00  0.00000000000E+00 -0.41673657890E+03  0.41673657891E+03  0.25500000920E-02 0.  1.
    10030    2    1    2    0    0  0.00000000000E+00  0.00000000000E+00  0.45211740894E+03  0.12855905668E+04  0.12034670556E+04 0.  0.
        5    1    3    3  502    0  0.54867103097E+03 -0.14319162366E+03  0.44108387150E+03  0.71841548773E+03  0.46999998093E+01 0. -1.
       -5    1    3    3    0  502 -0.54867103097E+03  0.14319162366E+03  0.11033537437E+02  0.56717507902E+03  0.46999998093E+01 0.  1.
</event>
<event>
 5   0  0.1403154E-03  0.1203860E+04  0.7818609E-02  0.9109484E-01
        1   -1    0    0  501    0  0.00000000000E+00  0.00000000000E+00  0.10216907993E+04  0.10216907993E+04  0.50400001928E-02 0.  1.
       -1   -1    0    0    0  501  0.00000000000E+00  0.00000000000E+00 -0.35462766126E+03  0.35462766130E+03  0.50400001928E-02 0. -1.
    10030    2    1    2    0    0  0.00000000000E+00  0.00000000000E+00  0.66706313800E+03  0.13763184606E+04  0.12038601558E+04 0.  0.
        3    1    3    3  502    0 -0.41005603950E+03  0.36269261672E+03  0.61963751526E+03  0.82682679581E+03  0.10100000352E+00 0.  1.
       -3    1    3    3    0  502  0.41005603950E+03 -0.36269261672E+03  0.47425622743E+02  0.54949166476E+03  0.10100000352E+00 0. -1.
</event>
<event>
 5   0  0.1404833E-03  0.1208881E+04  0.7818609E-02  0.9105118E-01
        1   -1    0    0  501    0  0.00000000000E+00  0.00000000000E+00  0.10314121878E+04  0.10314121878E+04  0.50400001928E-02 0. -1.
       -1   -1    0    0    0  501  0.00000000000E+00  0.00000000000E+00 -0.35422135161E+03  0.35422135165E+03  0.50400001928E-02 0.  1.
    10030    2    1    2    0    0  0.00000000000E+00  0.00000000000E+00  0.67719083621E+03  0.13856335395E+04  0.12088808366E+04 0.  0.
        1    1    3    3  502    0 -0.60139256060E+03 -0.24791814466E+02  0.27518417290E+03  0.66182624234E+03  0.50400001928E-02 0. -1.
       -1    1    3    3    0  502  0.60139256060E+03  0.24791814466E+02  0.40200666331E+03  0.72380729714E+03  0.50400001928E-02 0.  1.
</event>
<event>
 5   0  0.2579442E-03  0.1179834E+04  0.7818609E-02  0.9130694E-01
        2   -1    0    0  501    0  0.00000000000E+00  0.00000000000E+00  0.15776914469E+04  0.15776914469E+04  0.25500000920E-02 0.  1.
       -2   -1    0    0    0  501  0.00000000000E+00  0.00000000000E+00 -0.22057659484E+03  0.22057659486E+03  0.25500000920E-02 0. -1.
    10030    2    1    2    0    0  0.00000000000E+00  0.00000000000E+00  0.13571148521E+04  0.17982680418E+04  0.11798335596E+04 0.  0.
        4    1    3    3  502    0  0.29573685092E+03  0.20624229604E+03 -0.33091726511E+02  0.36206745909E+03  0.12699999809E+01 0. -1.
       -4    1    3    3    0  502 -0.29573685092E+03 -0.20624229604E+03  0.13902065786E+04  0.14362005827E+04  0.12699999809E+01 0.  1.
</event>
<event>
 5   0  0.2484507E-03  0.1203753E+04  0.7818609E-02  0.9109578E-01
        2   -1    0    0  501    0  0.00000000000E+00  0.00000000000E+00  0.32381641092E+03  0.32381641093E+03  0.25500000920E-02 0. -1.
       -2   -1    0    0    0  501  0.00000000000E+00  0.00000000000E+00 -0.11187060851E+04  0.11187060851E+04  0.25500000920E-02 0.  1.
    10030    2    1    2    0    0  0.00000000000E+00  0.00000000000E+00 -0.79488967415E+03  0.14425224960E+04  0.12037531131E+04 0.  0.
        2    1    3    3  502    0 -0.36665069434E+03  0.28137557149E+03  0.64583145059E+02  0.46666468318E+03  0.25500000920E-02 0. -1.
       -2    1    3    3    0  502  0.36665069434E+03 -0.28137557149E+03 -0.85947281921E+03  0.97585781283E+03  0.25500000920E-02 0.  1.
</event>
<event>
 5   0  0.1423024E-03  0.1200328E+04  0.7818609E-02  0.9112570E-01
        1   -1    0    0  501    0  0.00000000000E+00  0.00000000000E+00  0.19625689774E+04  0.19625689774E+04  0.50400001928E-02 0. -1.
       -1   -1    0    0    0  501  0.00000000000E+00  0.00000000000E+00 -0.18353331575E+03  0.18353331582E+03  0.50400001928E-02 0.  1.
    10030    2    1    2    0    0  0.00000000000E+00  0.00000000000E+00  0.17790356616E+04  0.21461022932E+04  0.12003279417E+04 0.  0.
        2    1    3    3  502    0 -0.16985721149E+03  0.33247394197E+03  0.17296668580E+04  0.17695021430E+04  0.25500000920E-02 0. -1.
       -2    1    3    3    0  502  0.16985721149E+03 -0.33247394197E+03  0.49368803667E+02  0.37660015025E+03  0.25500000920E-02 0.  1.
</event>
<event>
 5   0  0.2484507E-03  0.1200507E+04  0.7818609E-02  0.9112413E-01
        2   -1    0    0  501    0  0.00000000000E+00  0.00000000000E+00  0.75516798347E+03  0.75516798348E+03  0.25500000920E-02 0.  1.
       -2   -1    0    0    0  501  0.00000000000E+00  0.00000000000E+00 -0.47711827113E+03  0.47711827113E+03  0.25500000920E-02 0. -1.
    10030    2    1    2    0    0  0.00000000000E+00  0.00000000000E+00  0.27804971235E+03  0.12322862546E+04  0.12005072973E+04 0.  0.
        2    1    3    3  502    0 -0.34371325652E+03 -0.16258318852E+02  0.64387897927E+03  0.73005703585E+03  0.25500000920E-02 0.  1.
       -2    1    3    3    0  502  0.34371325652E+03  0.16258318852E+02 -0.36582926692E+03  0.50222921877E+03  0.25500000920E-02 0. -1.
</event>
<event>
 5   0  0.1423024E-03  0.1178351E+04  0.7818609E-02  0.9132020E-01
        1   -1    0    0  501    0  0.00000000000E+00  0.00000000000E+00  0.14554662775E+04  0.14554662775E+04  0.50400001928E-02 0. -1.
       -1   -1    0    0    0  501  0.00000000000E+00  0.00000000000E+00 -0.23849928920E+03  0.23849928925E+03  0.50400001928E-02 0.  1.
    10030    2    1    2    0    0  0.00000000000E+00  0.00000000000E+00  0.12169669883E+04  0.16939655668E+04  0.11783508352E+04 0.  0.
        2    1    3    3  502    0  0.42405110809E+03 -0.25268873536E+02  0.11953758327E+04  0.12686139049E+04  0.25500000920E-02 0. -1.
       -2    1    3    3    0  502 -0.42405110809E+03  0.25268873536E+02  0.21591155574E+02  0.42535166186E+03  0.25500000920E-02 0.  1.
</event>
<event>
 5   0  0.9678750E-04  0.1211527E+04  0.7818609E-02  0.9102827E-01
       -3   -1    0    0    0  501  0.00000000000E+00  0.00000000000E+00  0.14765467807E+04  0.14765467842E+04  0.10100000352E+00 0. -1.
        3   -1    0    0  501    0  0.00000000000E+00  0.00000000000E+00 -0.24851853225E+03  0.24851855278E+03  0.10100000352E+00 0.  1.
    10030    2    1    2    0    0  0.00000000000E+00  0.00000000000E+00  0.12280282485E+04  0.17250653370E+04  0.12115267383E+04 0.  0.
        4    1    3    3  502    0 -0.95531889891E+02  0.25480170599E+03 -0.15658817397E+03  0.31396133598E+03  0.12699999809E+01 0.  1.
       -4    1    3    3    0  502  0.95531889891E+02 -0.25480170599E+03  0.13846164225E+04  0.14111040010E+04  0.12699999809E+01 0. -1.
</event>
<event>
 5   0  0.1404833E-03  0.1187900E+04  0.7818609E-02  0.9123514E-01
        1   -1    0    0  501    0  0.00000000000E+00  0.00000000000E+00  0.48057464675E+03  0.48057464677E+03  0.50400001928E-02 0.  1.
       -1   -1    0    0    0  501  0.00000000000E+00  0.00000000000E+00 -0.73407225026E+03  0.73407225028E+03  0.50400001928E-02 0. -1.
    10030    2    1    2    0    0  0.00000000000E+00  0.00000000000E+00 -0.25349760352E+03  0.12146468971E+04  0.11878998483E+04 0.  0.
        1    1    3    3  502    0  0.54157661478E+03 -0.17465471775E+03  0.47280376569E+02  0.57100344495E+03  0.50400001928E-02 0.  1.
       -1    1    3    3    0  502 -0.54157661478E+03  0.17465471775E+03 -0.30077798009E+03  0.64364345211E+03  0.50400001928E-02 0. -1.
</event>
<event>
 5   0  0.2484507E-03  0.1197845E+04  0.7818609E-02  0.9114745E-01
        2   -1    0    0  501    0  0.00000000000E+00  0.00000000000E+00  0.73215736352E+03  0.73215736352E+03  0.25500000920E-02 0.  1.
       -2   -1    0    0    0  501  0.00000000000E+00  0.00000000000E+00 -0.48993281375E+03  0.48993281376E+03  0.25500000920E-02 0. -1.
    10030    2    1    2    0    0  0.00000000000E+00  0.00000000000E+00  0.24222454977E+03  0.12220901773E+04  0.11978445930E+04 0.  0.
        2    1    3    3  502    0  0.35934240548E+03 -0.12596716192E+02  0.60978777730E+03  0.70790308305E+03  0.25500000920E-02 0.  1.
       -2    1    3    3    0  502 -0.35934240548E+03  0.12596716192E+02 -0.36756322754E+03  0.51418709423E+03  0.25500000920E-02 0. -1.
</event>
<event>
 5   0  0.2579442E-03  0.1187921E+04  0.7818609E-02  0.9123495E-01
        2   -1    0    0  501    0  0.00000000000E+00  0.00000000000E+00  0.14708119673E+04  0.14708119673E+04  0.25500000920E-02 0. -1.
       -2   -1    0    0    0  501  0.00000000000E+00  0.00000000000E+00 -0.23986011845E+03  0.23986011846E+03  0.25500000920E-02 0.  1.
    10030    2    1    2    0    0  0.00000000000E+00  0.00000000000E+00  0.12309518489E+04  0.17106720858E+04  0.11879210962E+04 0.  0.
        4    1    3    3  502    0 -0.18943688151E+03  0.56106980030E+03  0.54945497265E+03  0.80782921014E+03  0.12699999809E+01 0. -1.
       -4    1    3    3    0  502  0.18943688151E+03 -0.56106980030E+03  0.68149687620E+03  0.90284287562E+03  0.12699999809E+01 0.  1.
</event>
<event>
 5   0  0.2580244E-03  0.1160966E+04  0.7818609E-02  0.9147726E-01
       -2   -1    0    0    0  501  0.00000000000E+00  0.00000000000E+00  0.49972083792E+03  0.49972083793E+03  0.25500000920E-02 0.  1.
        2   -1    0    0  501    0  0.00000000000E+00  0.00000000000E+00 -0.67429731961E+03  0.67429731961E+03  0.25500000920E-02 0. -1.
    10030    2    1    2    0    0  0.00000000000E+00  0.00000000000E+00 -0.17457648168E+03  0.11740181575E+04  0.11609658420E+04 0.  0.
        1    1    3    3  502    0  0.36209563473E+03  0.75128638942E+02 -0.53975899234E+03  0.65429147245E+03  0.50400001928E-02 0. -1.
       -1    1    3    3    0  502 -0.36209563473E+03 -0.75128638942E+02  0.36518251066E+03  0.51972668509E+03  0.50400001928E-02 0.  1.
</event>
<event>
 5   0  0.2580244E-03  0.1206526E+04  0.7818609E-02  0.9107164E-01
       -2   -1    0    0    0  501  0.00000000000E+00  0.00000000000E+00  0.29275899469E+03  0.29275899470E+03  0.25500000920E-02 0. -1.
        2   -1    0    0  501    0  0.00000000000E+00  0.00000000000E+00 -0.12430913900E+04  0.12430913900E+04  0.25500000920E-02 0.  1.
    10030    2    1    2    0    0  0.00000000000E+00  0.00000000000E+00 -0.95033239535E+03  0.15358503847E+04  0.12065258980E+04 0.  0.
        1    1    3    3  502    0  0.12560792750E+03 -0.58855155343E+03 -0.52850736803E+03  0.80093090874E+03  0.50400001928E-02 0. -1.
       -1    1    3    3    0  502 -0.12560792750E+03  0.58855155343E+03 -0.42182502733E+03  0.73491947600E+03  0.50400001928E-02 0.  1.
</event>
<event>
 5   0  0.1423024E-03  0.1194529E+04  0.7818609E-02  0.9117659E-01
        1   -1    0    0  501    0  0.00000000000E+00  0.00000000000E+00  0.61948282090E+03  0.61948282092E+03  0.50400001928E-02 0. -1.
       -1   -1    0    0    0  501  0.00000000000E+00  0.00000000000E+00 -0.57584275244E+03  0.57584275246E+03  0.50400001928E-02 0.  1.
    10030    2    1    2    0    0  0.00000000000E+00  0.00000000000E+00  0.43640068461E+02  0.11953255734E+04  0.11945286814E+04 0.  0.
        2    1    3    3  502    0 -0.35698288861E+03 -0.26085811840E+03  0.42363610823E+03  0.61233266523E+03  0.25500000920E-02 0. -1.
       -2    1    3    3    0  502  0.35698288861E+03  0.26085811840E+03 -0.37999603977E+03  0.58299290815E+03  0.25500000920E-02 0.  1.
</event>
<event>
 5   0  0.9678750E-04  0.1199615E+04  0.7818609E-02  0.9113193E-01
       -4   -1    0    0    0  501  0.00000000000E+00  0.00000000000E+00  0.47617544925E+03  0.47617714285E+03  0.12699999809E+01 0. -1.
        4   -1    0    0  501    0  0.00000000000E+00  0.00000000000E+00 -0.75553576369E+03  0.75553683108E+03  0.12699999809E+01 0.  1.
    10030    2    1    2    0    0  0.00000000000E+00  0.00000000000E+00 -0.27936031444E+03  0.12317139739E+04  0.11996154085E+04 0.  0.
        4    1    3    3  502    0 -0.28760329556E+03  0.10680310320E+03 -0.66887883037E+03  0.73588250495E+03  0.12699999809E+01 0.  1.
       -4    1    3    3    0  502  0.28760329556E+03 -0.10680310320E+03  0.38951851593E+03  0.49583146897E+03  0.12699999809E+01 0. -1.
</event>
<event>
 5   0  0.2580244E-03  0.1203295E+04  0.7818609E-02  0.9109978E-01
       -2   -1    0    0    0  501  0.00000000000E+00  0.00000000000E+00  0.32992219085E+03  0.32992219086E+03  0.25500000920E-02 0. -1.
        2   -1    0    0  501    0  0.00000000000E+00  0.00000000000E+00 -0.10971661616E+04  0.10971661616E+04  0.25500000920E-02 0.  1.
    10030    2    1    2    0    0  0.00000000000E+00  0.00000000000E+00 -0.76724397074E+03  0.14270883525E+04  0.12032945837E+04 0.  0.
        1    1    3    3  502    0  0.56897389425E+03 -0.19507182117E+03 -0.36705399450E+03  0.70463674518E+03  0.50400001928E-02 0. -1.
       -1    1    3    3    0  502 -0.56897389425E+03  0.19507182117E+03 -0.40018997624E+03  0.72245160728E+03  0.50400001928E-02 0.  1.
</event>
<event>
 5   0  0.2499890E-03  0.1159204E+04  0.7818609E-02  0.9149334E-01
        2   -1    0    0  501    0  0.00000000000E+00  0.00000000000E+00  0.19139415556E+04  0.19139415557E+04  0.25500000920E-02 0. -1.
       -2   -1    0    0    0  501  0.00000000000E+00  0.00000000000E+00 -0.17552172348E+03  0.17552172350E+03  0.25500000920E-02 0.  1.
    10030    2    1    2    0    0  0.00000000000E+00  0.00000000000E+00  0.17384198322E+04  0.20894632792E+04  0.11592037276E+04 0.  0.
        5    1    3    3  502    0  0.28719750673E+03  0.44324216866E+03  0.43898173348E+03  0.68678459526E+03  0.46999998093E+01 0.  1.
       -5    1    3    3    0  502 -0.28719750673E+03 -0.44324216866E+03  0.12994380987E+04  0.14026786839E+04  0.46999998093E+01 0. -1.
</event>
<event>
 5   0  0.2579442E-03  0.1220206E+04  0.7818609E-02  0.9095351E-01
        2   -1    0    0  501    0  0.00000000000E+00  0.00000000000E+00  0.20839775188E+04  0.20839775188E+04  0.25500000920E-02 0. -1.
       -2   -1    0    0    0  501  0.00000000000E+00  0.00000000000E+00 -0.17861321791E+03  0.17861321793E+03  0.25500000920E-02 0.  1.
    10030    2    1    2    0    0  0.00000000000E+00  0.00000000000E+00  0.19053643009E+04  0.22625907367E+04  0.12202064263E+04 0.  0.
        4    1    3    3  502    0  0.42929415679E+03 -0.25676944566E+03  0.16003511944E+04  0.16767079590E+04  0.12699999809E+01 0. -1.
       -4    1    3    3    0  502 -0.42929415679E+03  0.25676944566E+03  0.30501310648E+03  0.58588277778E+03  0.12699999809E+01 0.  1.
</event>
<event>
 5   0  0.1404833E-03  0.1203129E+04  0.7818609E-02  0.9110122E-01
       -1   -1    0    0    0  501  0.00000000000E+00  0.00000000000E+00  0.69595615139E+03  0.69595615141E+03  0.50400001928E-02 0.  1.
        1   -1    0    0  501    0  0.00000000000E+00  0.00000000000E+00 -0.51997493793E+03  0.51997493796E+03  0.50400001928E-02 0. -1.
    10030    2    1    2    0    0  0.00000000000E+00  0.00000000000E+00  0.17598121346E+03  0.12159310894E+04  0.12031288487E+04 0.  0.
        1    1    3    3  502    0 -0.19783808407E+03  0.12921739483E+03  0.64708848565E+03  0.68888355397E+03  0.50400001928E-02 0.  1.
       -1    1    3    3    0  502  0.19783808407E+03 -0.12921739483E+03 -0.47110727219E+03  0.52704753540E+03  0.50400001928E-02 0. -1.
</event>
<event>
 5   0  0.2517023E-03  0.1174518E+04  0.7818609E-02  0.9135458E-01
        2   -1    0    0  501    0  0.00000000000E+00  0.00000000000E+00  0.15090865816E+04  0.15090865816E+04  0.25500000920E-02 0.  1.
       -2   -1    0    0    0  501  0.00000000000E+00  0.00000000000E+00 -0.22853088463E+03  0.22853088464E+03  0.25500000920E-02 0. -1.
    10030    2    1    2    0    0  0.00000000000E+00  0.00000000000E+00  0.12805556969E+04  0.17376174662E+04  0.11745175886E+04 0.  0.
        3    1    3    3  502    0 -0.54319260993E+03 -0.13053537335E+03  0.37244290839E+03  0.67142492163E+03  0.10100000352E+00 0.  1.
       -3    1    3    3    0  502  0.54319260993E+03  0.13053537335E+03  0.90811278855E+03  0.10661925446E+04  0.10100000352E+00 0. -1.
</event>
<event>
 5   0  0.2580244E-03  0.1200987E+04  0.7818609E-02  0.9111993E-01
        2   -1    0    0  501    0  0.00000000000E+00  0.00000000000E+00  0.74247806594E+03  0.74247806594E+03  0.25500000920E-02 0. -1.
       -2   -1    0    0    0  501  0.00000000000E+00  0.00000000000E+00 -0.48566079742E+03  0.48566079742E+03  0.25500000920E-02 0.  1.
    10030    2    1    2    0    0  0.00000000000E+00  0.00000000000E+00  0.25681726852E+03  0.12281388634E+04  0.12009870767E+04 0.  0.
        1    1    3    3  502    0 -0.32910377904E+03  0.70325120973E+01  0.64199173680E+03  0.72146527550E+03  0.50400001928E-02 0. -1.
       -1    1    3    3    0  502  0.32910377904E+03 -0.70325120973E+01 -0.38517446827E+03  0.50667358787E+03  0.50400001928E-02 0.  1.
</event>
<event>
 5   0  0.1455076E-03  0.1208634E+04  0.7818609E-02  0.9105333E-01
       -1   -1    0    0    0  501  0.00000000000E+00  0.00000000000E+00  0.53520885507E+03  0.53520885509E+03  0.50400001928E-02 0. -1.
        1   -1    0    0  501    0  0.00000000000E+00  0.00000000000E+00 -0.68234832995E+03  0.68234832997E+03  0.50400001928E-02 0.  1.
    10030    2    1    2    0    0  0.00000000000E+00  0.00000000000E+00 -0.14713947488E+03  0.12175571851E+04  0.12086337219E+04 0.  0.
        4    1    3    3  502    0  0.32969987687E+03  0.19656443307E+03  0.39662859901E+03  0.55195601601E+03  0.12699999809E+01 0. -1.
       -4    1    3    3    0  502 -0.32969987687E+03 -0.19656443307E+03 -0.54376807389E+03  0.66560116905E+03  0.12699999809E+01 0.  1.
</event>
<event>
 5   0  0.2517023E-03  0.1178950E+04  0.7818609E-02  0.9131484E-01
       -2   -1    0    0    0  501  0.00000000000E+00  0.00000000000E+00  0.27010828326E+03  0.27010828327E+03  0.25500000920E-02 0.  1.
        2   -1    0    0  501    0  0.00000000000E+00  0.00000000000E+00 -0.12864498291E+04  0.12864498291E+04  0.25500000920E-02 0. -1.
    10030    2    1    2    0    0  0.00000000000E+00  0.00000000000E+00 -0.10163415458E+04  0.15565581123E+04  0.11789499647E+04 0.  0.
        3    1    3    3  502    0  0.19374075526E+03  0.47270959984E+03 -0.89645984680E+03  0.10318091457E+04  0.10100000352E+00 0. -1.
       -3    1    3    3    0  502 -0.19374075526E+03 -0.47270959984E+03 -0.11988169901E+03  0.52474896664E+03  0.10100000352E+00 0.  1.
</event>
<event>
 5   0  0.2580244E-03  0.1195068E+04  0.7818609E-02  0.9117184E-01
        2   -1    0    0  501    0  0.00000000000E+00  0.00000000000E+00  0.46036667019E+03  0.46036667019E+03  0.25500000920E-02 0.  1.
       -2   -1    0    0    0  501  0.00000000000E+00  0.00000000000E+00 -0.77557078367E+03  0.77557078368E+03  0.25500000920E-02 0. -1.
    10030    2    1    2    0    0  0.00000000000E+00  0.00000000000E+00 -0.31520411348E+03  0.12359374539E+04  0.11950680971E+04 0.  0.
        1    1    3    3  502    0 -0.79876658602E+02  0.45203421026E+03 -0.55321737205E+03  0.71886345616E+03  0.50400001928E-02 0. -1.
       -1    1    3    3    0  502  0.79876658602E+02 -0.45203421026E+03  0.23801325856E+03  0.51707399772E+03  0.50400001928E-02 0.  1.
</event>
<event>
 5   0  0.1423024E-03  0.1192576E+04  0.7818609E-02  0.9119379E-01
       -1   -1    0    0    0  501  0.00000000000E+00  0.00000000000E+00  0.10331245036E+04  0.10331245036E+04  0.50400001928E-02 0. -1.
        1   -1    0    0  501    0  0.00000000000E+00  0.00000000000E+00 -0.34415954422E+03  0.34415954425E+03  0.50400001928E-02 0.  1.
    10030    2    1    2    0    0  0.00000000000E+00  0.00000000000E+00  0.68896495939E+03  0.13772840479E+04  0.11925764685E+04 0.  0.
        2    1    3    3  502    0 -0.45649602162E+03  0.17854738446E+03  0.73661840088E+03  0.88480192968E+03  0.25500000920E-02 0. -1.
       -2    1    3    3    0  502  0.45649602162E+03 -0.17854738446E+03 -0.47653441482E+02  0.49248211820E+03  0.25500000920E-02 0.  1.
</event>
<event>
 5   0  0.2499890E-03  0.1210378E+04  0.7818609E-02  0.9103821E-01
       -2   -1    0    0    0  501  0.00000000000E+00  0.00000000000E+00  0.11284035273E+04  0.11284035273E+04  0.25500000920E-02 0.  1.
        2   -1    0    0  501    0  0.00000000000E+00  0.00000000000E+00 -0.32457698284E+03  0.32457698285E+03  0.25500000920E-02 0. -1.
    10030    2    1    2    0    0  0.00000000000E+00  0.00000000000E+00  0.80382654449E+03  0.14529805102E+04  0.12103781431E+04 0.  0.
        5    1    3    3  502    0  0.14199218959E+03 -0.38840021936E+03  0.93230353496E+03  0.10199159199E+04  0.46999998093E+01 0.  1.
       -5    1    3    3    0  502 -0.14199218959E+03  0.38840021936E+03 -0.12847699047E+03  0.43306459031E+03  0.46999998093E+01 0. -1.
</event>
<event>
 5   0  0.1404833E-03  0.1205275E+04  0.7818609E-02  0.9108252E-01
        1   -1    0    0  501    0  0.00000000000E+00  0.00000000000E+00  0.47073906278E+03  0.47073906281E+03  0.50400001928E-02 0.  1.
       -1   -1    0    0    0  501  0.00000000000E+00  0.00000000000E+00 -0.77149286663E+03  0.77149286665E+03  0.50400001928E-02 0. -1.
    10030    2    1    2    0    0  0.00000000000E+00  0.00000000000E+00 -0.30075380385E+03  0.12422319295E+04  0.12052747886E+04 0.  0.
        1    1    3    3  502    0 -0.34429856121E+03 -0.42339448296E+03 -0.41388705855E+03  0.68491377903E+03  0.50400001928E-02 0. -1.
       -1    1    3    3    0  502  0.34429856121E+03  0.42339448296E+03  0.11313325470E+03  0.55731815042E+03  0.50400001928E-02 0.  1.
</event>
<event>
 5   0  0.2580244E-03  0.1200513E+04  0.7818609E-02  0.9112408E-01
        2   -1    0    0  501    0  0.00000000000E+00  0.00000000000E+00  0.19184833005E+04  0.19184833005E+04  0.25500000920E-02 0. -1.
       -2   -1    0    0    0  501  0.00000000000E+00  0.00000000000E+00 -0.18780868031E+03  0.18780868033E+03  0.25500000920E-02 0.  1.
    10030    2    1    2    0    0  0.00000000000E+00  0.00000000000E+00  0.17306746202E+04  0.21062919808E+04  0.12005129185E+04 0.  0.
        1    1    3    3  502    0  0.13161916899E+03 -0.13527401714E+03  0.18650678299E+04  0.18745934694E+04  0.50400001928E-02 0. -1.
       -1    1    3    3    0  502 -0.13161916899E+03  0.13527401714E+03 -0.13439320971E+03  0.23169851144E+03  0.50400001928E-02 0.  1.
</event>
<event>
 5   0  0.2484507E-03  0.1154784E+04  0.7818609E-02  0.9153381E-01
        2   -1    0    0  501    0  0.00000000000E+00  0.00000000000E+00  0.16049543764E+04  0.16049543764E+04  0.25500000920E-02 0.  1.
       -2   -1    0    0    0  501  0.00000000000E+00  0.00000000000E+00 -0.20772036185E+03  0.20772036186E+03  0.25500000920E-02 0. -1.
    10030    2    1    2    0    0  0.00000000000E+00  0.00000000000E+00  0.13972340145E+04  0.18126747382E+04  0.11547843155E+04 0.  0.
        2    1    3    3  502    0 -0.16794179824E+03  0.52988447714E+03  0.45342222545E+03  0.71733794076E+03  0.25500000920E-02 0. -1.
       -2    1    3    3    0  502  0.16794179824E+03 -0.52988447714E+03  0.94381178908E+03  0.10953367975E+04  0.25500000920E-02 0.  1.
</event>
<event>
 5   0  0.1469851E-03  0.1201215E+04  0.7818609E-02  0.9111794E-01
        1   -1    0    0  501    0  0.00000000000E+00  0.00000000000E+00  0.46158832154E+03  0.46158832157E+03  0.50400001928E-02 0.  1.
       -1   -1    0    0    0  501  0.00000000000E+00  0.00000000000E+00 -0.78149600748E+03  0.78149600750E+03  0.50400001928E-02 0. -1.
    10030    2    1    2    0    0  0.00000000000E+00  0.00000000000E+00 -0.31990768594E+03  0.12430843291E+04  0.12012151022E+04 0.  0.
        5    1    3    3  502    0  0.29708622094E+03 -0.22621294167E+00  0.38020423589E+03  0.48253251168E+03  0.46999998093E+01 0.  1.
       -5    1    3    3    0  502 -0.29708622094E+03  0.22621294167E+00 -0.70011192183E+03  0.76055181738E+03  0.46999998093E+01 0. -1.
</event>
<event>
 5   0  0.1403154E-03  0.1213456E+04  0.7818609E-02  0.9101159E-01
       -1   -1    0    0    0  501  0.00000000000E+00  0.00000000000E+00  0.28680239399E+03  0.28680239404E+03  0.50400001928E-02 0. -1.
        1   -1    0    0  501    0  0.00000000000E+00  0.00000000000E+00 -0.12835277748E+04  0.12835277748E+04  0.50400001928E-02 0.  1.
    10030    2    1    2    0    0  0.00000000000E+00  0.00000000000E+00 -0.99672538077E+03  0.15703301688E+04  0.12134559549E+04 0.  0.
        3    1    3    3  502    0  0.16047287403E+03  0.31898884567E+03 -0.11331479938E+04  0.11880782015E+04  0.10100000352E+00 0.  1.
       -3    1    3    3    0  502 -0.16047287403E+03 -0.31898884567E+03  0.13642261299E+03  0.38225196729E+03  0.10100000352E+00 0. -1.
</event>
<event>
 5   0  0.2517023E-03  0.1199501E+04  0.7818609E-02  0.9113293E-01
       -2   -1    0    0    0  501  0.00000000000E+00  0.00000000000E+00  0.34407651867E+03  0.34407651868E+03  0.25500000920E-02 0.  1.
        2   -1    0    0  501    0  0.00000000000E+00  0.00000000000E+00 -0.10454094550E+04  0.10454094550E+04  0.25500000920E-02 0. -1.
    10030    2    1    2    0    0  0.00000000000E+00  0.00000000000E+00 -0.70133293634E+03  0.13894859737E+04  0.11995013062E+04 0.  0.
        3    1    3    3  502    0 -0.84941364727E+02  0.13383393028E+03 -0.10207049061E+04  0.10329400137E+04  0.10100000352E+00 0. -1.
       -3    1    3    3    0  502  0.84941364727E+02 -0.13383393028E+03  0.31937196975E+03  0.35654596001E+03  0.10100000352E+00 0.  1.
</event>
<event>
 5   0  0.2499890E-03  0.1208716E+04  0.7818609E-02  0.9105262E-01
        2   -1    0    0  501    0  0.00000000000E+00  0.00000000000E+00  0.57040352141E+03  0.57040352141E+03  0.25500000920E-02 0.  1.
       -2   -1    0    0    0  501  0.00000000000E+00  0.00000000000E+00 -0.64033350064E+03  0.64033350064E+03  0.25500000920E-02 0. -1.
    10030    2    1    2    0    0  0.00000000000E+00  0.00000000000E+00 -0.69929979232E+02  0.12107370221E+04  0.12087158204E+04 0.  0.
        5    1    3    3  502    0 -0.29778456997E+02 -0.31027882951E+02 -0.63878051909E+03  0.64024380324E+03  0.46999998093E+01 0. -1.
       -5    1    3    3    0  502  0.29778456997E+02  0.31027882951E+02  0.56885053986E+03  0.57049321882E+03  0.46999998093E+01 0.  1.
</event>
<event>
 5   0  0.1469851E-03  0.1165361E+04  0.7818609E-02  0.9143728E-01
        1   -1    0    0  501    0  0.00000000000E+00  0.00000000000E+00  0.20928058884E+04  0.20928058885E+04  0.50400001928E-02 0.  1.
       -1   -1    0    0    0  501  0.00000000000E+00  0.00000000000E+00 -0.16223045250E+03  0.16223045258E+03  0.50400001928E-02 0. -1.
    10030    2    1    2    0    0  0.00000000000E+00  0.00000000000E+00  0.19305754359E+04  0.22550363410E+04  0.11653614828E+04 0.  0.
        5    1    3    3  502    0 -0.71123097483E+02  0.87643757944E+02 -0.14083648544E+03  0.18054619612E+03  0.46999998093E+01 0. -1.
       -5    1    3    3    0  502  0.71123097483E+02 -0.87643757944E+02  0.20714119214E+04  0.20744901449E+04  0.46999998093E+01 0.  1.
</event>
<event>
 5   0  0.2580244E-03  0.1208769E+04  0.7818609E-02  0.9105216E-01
       -2   -1    0    0    0  501  0.00000000000E+00  0.00000000000E+00  0.62209788808E+03  0.62209788808E+03  0.25500000920E-02 0.  1.
        2   -1    0    0  501    0  0.00000000000E+00  0.00000000000E+00 -0.58717503896E+03  0.58717503897E+03  0.25500000920E-02 0. -1.
    10030    2    1    2    0    0  0.00000000000E+00  0.00000000000E+00  0.34922849115E+02  0.12092729270E+04  0.12087685497E+04 0.  0.
        1    1    3    3  502    0 -0.35241582839E+03  0.70193844136E+02 -0.46870046269E+03  0.59059649136E+03  0.50400001928E-02 0. -1.
       -1    1    3    3    0  502  0.35241582839E+03 -0.70193844136E+02  0.50362331181E+03  0.61867643569E+03  0.50400001928E-02 0.  1.
</event>
<event>
 5   0  0.1404833E-03  0.1085890E+04  0.7818609E-02  0.9219054E-01
       -1   -1    0    0    0  501  0.00000000000E+00  0.00000000000E+00  0.14770654767E+03  0.14770654776E+03  0.50400001928E-02 0. -1.
        1   -1    0    0  501    0  0.00000000000E+00  0.00000000000E+00 -0.19957772784E+04  0.19957772784E+04  0.50400001928E-02 0.  1.
    10030    2    1    2    0    0  0.00000000000E+00  0.00000000000E+00 -0.18480707307E+04  0.21434838261E+04  0.10858901819E+04 0.  0.
        1    1    3    3  502    0 -0.18964200041E+03  0.19547241294E+03  0.31202425998E+01  0.27236609275E+03  0.50400001928E-02 0. -1.
       -1    1    3    3    0  502  0.18964200041E+03 -0.19547241294E+03 -0.18511909733E+04  0.18711177334E+04  0.50400001928E-02 0.  1.
</event>
<event>
 5   0  0.2517023E-03  0.1178911E+04  0.7818609E-02  0.9131518E-01
       -2   -1    0    0    0  501  0.00000000000E+00  0.00000000000E+00  0.71808274401E+03  0.71808274401E+03  0.25500000920E-02 0.  1.
        2   -1    0    0  501    0  0.00000000000E+00  0.00000000000E+00 -0.48386898372E+03  0.48386898373E+03  0.25500000920E-02 0. -1.
    10030    2    1    2    0    0  0.00000000000E+00  0.00000000000E+00  0.23421376028E+03  0.12019517277E+04  0.11789113072E+04 0.  0.
        3    1    3    3  502    0  0.45449683019E+03 -0.94600414313E+02 -0.25322948119E+03  0.52881167478E+03  0.10100000352E+00 0. -1.
       -3    1    3    3    0  502 -0.45449683019E+03  0.94600414313E+02  0.48744324147E+03  0.67314005296E+03  0.10100000352E+00 0.  1.
</event>
<event>
 5   0  0.2579442E-03  0.1207671E+04  0.7818609E-02  0.9106168E-01
        2   -1    0    0  501    0  0.00000000000E+00  0.00000000000E+00  0.24928563154E+04  0.24928563154E+04  0.25500000920E-02 0. -1.
       -2   -1    0    0    0  501  0.00000000000E+00  0.00000000000E+00 -0.14626490181E+03  0.14626490183E+03  0.25500000920E-02 0.  1.
    10030    2    1    2    0    0  0.00000000000E+00  0.00000000000E+00  0.23465914136E+04  0.26391212172E+04  0.12076711212E+04 0.  0.
        4    1    3    3  502    0  0.24899230907E+03 -0.75016800920E+02 -0.17623667345E+02  0.26064707354E+03  0.12699999809E+01 0.  1.
       -4    1    3    3    0  502 -0.24899230907E+03  0.75016800920E+02  0.23642150809E+04  0.23784741437E+04  0.12699999809E+01 0. -1.
</event>
<event>
 5   0  0.2484507E-03  0.1209299E+04  0.7818609E-02  0.9104756E-01
        2   -1    0    0  501    0  0.00000000000E+00  0.00000000000E+00  0.17440401921E+04  0.17440401921E+04  0.25500000920E-02 0. -1.
       -2   -1    0    0    0  501  0.00000000000E+00  0.00000000000E+00 -0.20962881488E+03  0.20962881489E+03  0.25500000920E-02 0.  1.
    10030    2    1    2    0    0  0.00000000000E+00  0.00000000000E+00  0.15344113772E+04  0.19536690070E+04  0.12092991005E+04 0.  0.
        2    1    3    3  502    0  0.21202518700E+03 -0.45688665581E+03  0.13076291649E+04  0.14012830296E+04  0.25500000920E-02 0. -1.
       -2    1    3    3    0  502 -0.21202518700E+03  0.45688665581E+03  0.22678221232E+03  0.55238597738E+03  0.25500000920E-02 0.  1.
</event>
<event>
 5   0  0.2484507E-03  0.1186056E+04  0.7818609E-02  0.9125150E-01
        2   -1    0    0  501    0  0.00000000000E+00  0.00000000000E+00  0.43377102885E+03  0.43377102886E+03  0.25500000920E-02 0. -1.
       -2   -1    0    0    0  501  0.00000000000E+00  0.00000000000E+00 -0.81075487528E+03  0.81075487529E+03  0.25500000920E-02 0.  1.
    10030    2    1    2    0    0  0.00000000000E+00  0.00000000000E+00 -0.37698384643E+03  0.12445259042E+04  0.11860556082E+04 0.  0.
        2    1    3    3  502    0 -0.80935772933E+02  0.24202698099E+03 -0.75018926354E+03  0.79240872660E+03  0.25500000920E-02 0.  1.
       -2    1    3    3    0  502  0.80935772933E+02 -0.24202698099E+03  0.37320541710E+03  0.45211717755E+03  0.25500000920E-02 0. -1.
</event>
<event>
 5   0  0.2580244E-03  0.1202238E+04  0.7818609E-02  0.9110900E-01
       -2   -1    0    0    0  501  0.00000000000E+00  0.00000000000E+00  0.67441521858E+03  0.67441521858E+03  0.25500000920E-02 0.  1.
        2   -1    0    0  501    0  0.00000000000E+00  0.00000000000E+00 -0.53578892905E+03  0.53578892906E+03  0.25500000920E-02 0. -1.
    10030    2    1    2    0    0  0.00000000000E+00  0.00000000000E+00  0.13862628953E+03  0.12102041476E+04  0.12022382588E+04 0.  0.
        1    1    3    3  502    0  0.25720680914E+03  0.52402359117E+03 -0.75123256347E+02  0.58855719385E+03  0.50400001928E-02 0.  1.
       -1    1    3    3    0  502 -0.25720680914E+03 -0.52402359117E+03  0.21374954588E+03  0.62164695379E+03  0.50400001928E-02 0. -1.
</event>
<event>
 5   0  0.1469851E-03  0.1186402E+04  0.7818609E-02  0.9124843E-01
       -1   -1    0    0    0  501  0.00000000000E+00  0.00000000000E+00  0.52427425755E+03  0.52427425758E+03  0.50400001928E-02 0. -1.
        1   -1    0    0  501    0  0.00000000000E+00  0.00000000000E+00 -0.67118969730E+03  0.67118969732E+03  0.50400001928E-02 0.  1.
    10030    2    1    2    0    0  0.00000000000E+00  0.00000000000E+00 -0.14691543975E+03  0.11954639549E+04  0.11864020908E+04 0.  0.
        5    1    3    3  502    0 -0.51886065043E+03  0.15674027764E+03  0.16938411099E+03  0.56788815470E+03  0.46999998093E+01 0. -1.
       -5    1    3    3    0  502  0.51886065043E+03 -0.15674027764E+03 -0.31629955074E+03  0.62757580020E+03  0.46999998093E+01 0.  1.
</event>
<event>
 5   0  0.1404833E-03  0.1207171E+04  0.7818609E-02  0.9106602E-01
       -1   -1    0    0    0  501  0.00000000000E+00  0.00000000000E+00  0.30440542772E+03  0.30440542776E+03  0.50400001928E-02 0.  1.
        1   -1    0    0  501    0  0.00000000000E+00  0.00000000000E+00 -0.11968107989E+04  0.11968107990E+04  0.50400001928E-02 0. -1.
    10030    2    1    2    0    0  0.00000000000E+00  0.00000000000E+00 -0.89240537123E+03  0.15012162267E+04  0.12071714098E+04 0.  0.
        1    1    3    3  502    0  0.43041310170E+02 -0.56782158300E+03 -0.69504893397E+03  0.89853598989E+03  0.50400001928E-02 0. -1.
       -1    1    3    3    0  502 -0.43041310170E+02  0.56782158300E+03 -0.19735643727E+03  0.60268023682E+03  0.50400001928E-02 0.  1.
</event>
<event>
 5   0  0.2580244E-03  0.1193203E+04  0.7818609E-02  0.9118827E-01
        2   -1    0    0  501    0  0.00000000000E+00  0.00000000000E+00  0.92293993792E+03  0.92293993792E+03  0.25500000920E-02 0.  1.
       -2   -1    0    0    0  501  0.00000000000E+00  0.00000000000E+00 -0.38565172231E+03  0.38565172232E+03  0.25500000920E-02 0. -1.
    10030    2    1    2    0    0  0.00000000000E+00  0.00000000000E+00  0.53728821561E+03  0.13085916602E+04  0.11932030450E+04 0.  0.
        1    1    3    3  502    0  0.20684961307E+03 -0.40728698957E+02  0.88072709292E+03  0.90560797345E+03  0.50400001928E-02 0.  1.
       -1    1    3    3    0  502 -0.20684961307E+03  0.40728698957E+02 -0.34343887731E+03  0.40298368679E+03  0.50400001928E-02 0. -1.
</event>
<event>
 5   0  0.1423024E-03  0.1202252E+04  0.7818609E-02  0.9110888E-01
       -1   -1    0    0    0  501  0.00000000000E+00  0.00000000000E+00  0.46042740691E+03  0.46042740694E+03  0.50400001928E-02 0.  1.
        1   -1    0    0  501    0  0.00000000000E+00  0.00000000000E+00 -0.78481930841E+03  0.78481930843E+03  0.50400001928E-02 0. -1.
    10030    2    1    2    0    0  0.00000000000E+00  0.00000000000E+00 -0.32439190150E+03  0.12452467154E+04  0.12022517525E+04 0.  0.
        2    1    3    3  502    0  0.35728511870E+03 -0.24105743649E+03  0.27182538744E+03  0.50955901031E+03  0.25500000920E-02 0.  1.
       -2    1    3    3    0  502 -0.35728511870E+03  0.24105743649E+03 -0.59621728894E+03  0.73568770505E+03  0.25500000920E-02 0. -1.
</event>
<event>
 5   0  0.1403154E-03  0.1224668E+04  0.7818609E-02  0.9091535E-01
        1   -1    0    0  501    0  0.00000000000E+00  0.00000000000E+00  0.46833987751E+03  0.46833987753E+03  0.50400001928E-02 0.  1.
       -1   -1    0    0    0  501  0.00000000000E+00  0.00000000000E+00 -0.80059966326E+03  0.80059966328E+03  0.50400001928E-02 0. -1.
    10030    2    1    2    0    0  0.00000000000E+00  0.00000000000E+00 -0.33225978576E+03  0.12689395408E+04  0.12246677072E+04 0.  0.
        3    1    3    3  502    0 -0.13438444593E+03  0.26449701451E+03 -0.72115718955E+03  0.77979840487E+03  0.10100000352E+00 0. -1.
       -3    1    3    3    0  502  0.13438444593E+03 -0.26449701451E+03  0.38889740380E+03  0.48914113594E+03  0.10100000352E+00 0.  1.
</event>
<event>
 5   0  0.1455076E-03  0.1172408E+04  0.7818609E-02  0.9137356E-01
        1   -1    0    0  501    0  0.00000000000E+00  0.00000000000E+00  0.34877607834E+03  0.34877607837E+03  0.50400001928E-02 0. -1.
       -1   -1    0    0    0  501  0.00000000000E+00  0.00000000000E+00 -0.98526028703E+03  0.98526028704E+03  0.50400001928E-02 0.  1.
    10030    2    1    2    0    0  0.00000000000E+00  0.00000000000E+00 -0.63648420869E+03  0.13340363654E+04  0.11724081526E+04 0.  0.
        4    1    3    3  502    0 -0.36682009392E+03  0.62810618224E+02  0.19711108117E+03  0.42113720601E+03  0.12699999809E+01 0. -1.
       -4    1    3    3    0  502  0.36682009392E+03 -0.62810618224E+02 -0.83359528986E+03  0.91289915940E+03  0.12699999809E+01 0.  1.
</event>
<event>
 5   0  0.2580244E-03  0.1076947E+04  0.7818609E-02  0.9227957E-01
       -2   -1    0    0    0  501  0.00000000000E+00  0.00000000000E+00  0.97484038176E+03  0.97484038176E+03  0.25500000920E-02 0.  1.
        2   -1    0    0  501    0  0.00000000000E+00  0.00000000000E+00 -0.29743723939E+03  0.29743723940E+03  0.25500000920E-02 0. -1.
    10030    2    1    2    0    0  0.00000000000E+00  0.00000000000E+00  0.67740314237E+03  0.12722776212E+04  0.10769472262E+04 0.  0.
        1    1    3    3  502    0 -0.16075897791E+02  0.23383702747E+03 -0.23400985862E+03  0.33120809752E+03  0.50400001928E-02 0. -1.
       -1    1    3    3    0  502  0.16075897791E+02 -0.23383702747E+03  0.91141300100E+03  0.94106952364E+03  0.50400001928E-02 0.  1.
</event>
<event>
 5   0  0.1423024E-03  0.1198846E+04  0.7818609E-02  0.9113867E-01
        1   -1    0    0  501    0  0.00000000000E+00  0.00000000000E+00  0.93222742893E+03  0.93222742894E+03  0.50400001928E-02 0.  1.
       -1   -1    0    0    0  501  0.00000000000E+00  0.00000000000E+00 -0.38542935320E+03  0.38542935323E+03  0.50400001928E-02 0. -1.
    10030    2    1    2    0    0  0.00000000000E+00  0.00000000000E+00  0.54679807573E+03  0.13176567822E+04  0.11988458032E+04 0.  0.
        2    1    3    3  502    0  0.23376728462E+03  0.31136937539E+03  0.77431797589E+03  0.86669853991E+03  0.25500000920E-02 0.  1.
       -2    1    3    3    0  502 -0.23376728462E+03 -0.31136937539E+03 -0.22751990015E+03  0.45095824226E+03  0.25500000920E-02 0. -1.
</event>
<event>
 5   0  0.1403154E-03  0.1199517E+04  0.7818609E-02  0.9113280E-01
        1   -1    0    0  501    0  0.00000000000E+00  0.00000000000E+00  0.57931924768E+03  0.57931924770E+03  0.50400001928E-02 0.  1.
       -1   -1    0    0    0  501  0.00000000000E+00  0.00000000000E+00 -0.62091856924E+03  0.62091856926E+03  0.50400001928E-02 0. -1.
    10030    2    1    2    0    0  0.00000000000E+00  0.00000000000E+00 -0.41599321563E+02  0.12002378170E+04  0.11995167001E+04 0.  0.
        3    1    3    3  502    0  0.22886021913E+03 -0.14669016423E+03 -0.55573780288E+03  0.61865945393E+03  0.10100000352E+00 0. -1.
       -3    1    3    3    0  502 -0.22886021913E+03  0.14669016423E+03  0.51413848131E+03  0.58157836304E+03  0.10100000352E+00 0.  1.
</event>
<event>
 5   0  0.1469851E-03  0.1203284E+04  0.7818609E-02  0.9109987E-01
       -1   -1    0    0    0  501  0.00000000000E+00  0.00000000000E+00  0.37551966396E+03  0.37551966399E+03  0.50400001928E-02 0. -1.
        1   -1    0    0  501    0  0.00000000000E+00  0.00000000000E+00 -0.96392643623E+03  0.96392643624E+03  0.50400001928E-02 0.  1.
    10030    2    1    2    0    0  0.00000000000E+00  0.00000000000E+00 -0.58840677227E+03  0.13394461002E+04  0.12032843911E+04 0.  0.
        5    1    3    3  502    0 -0.16522818971E+03 -0.45460042073E+03 -0.69244245701E+03  0.84466593602E+03  0.46999998093E+01 0.  1.
       -5    1    3    3    0  502  0.16522818971E+03  0.45460042073E+03  0.10403568474E+03  0.49478016421E+03  0.46999998093E+01 0. -1.
</event>
<event>
 5   0  0.2580244E-03  0.1205701E+04  0.7818609E-02  0.9107881E-01
        2   -1    0    0  501    0  0.00000000000E+00  0.00000000000E+00  0.23079502658E+04  0.23079502658E+04  0.25500000920E-02 0.  1.
       -2   -1    0    0    0  501  0.00000000000E+00  0.00000000000E+00 -0.15746810905E+03  0.15746810907E+03  0.25500000920E-02 0. -1.
    10030    2    1    2    0    0  0.00000000000E+00  0.00000000000E+00  0.21504821568E+04  0.24654183749E+04  0.12057007326E+04 0.  0.
        1    1    3    3  502    0  0.55444410441E+03 -0.22715785075E+03  0.12111797686E+04  0.13512828667E+04  0.50400001928E-02 0.  1.
       -1    1    3    3    0  502 -0.55444410441E+03  0.22715785075E+03  0.93930238822E+03  0.11141355082E+04  0.50400001928E-02 0. -1.
</event>
<event>
 5   0  0.9678750E-04  0.1203050E+04  0.7818609E-02  0.9110191E-01
       -3   -1    0    0    0  501  0.00000000000E+00  0.00000000000E+00  0.14952534191E+04  0.14952534225E+04  0.10100000352E+00 0.  1.
        3   -1    0    0  501    0  0.00000000000E+00  0.00000000000E+00 -0.24198730927E+03  0.24198733034E+03  0.10100000352E+00 0. -1.
    10030    2    1    2    0    0  0.00000000000E+00  0.00000000000E+00  0.12532661098E+04  0.17372407528E+04  0.12030500785E+04 0.  0.
        1    1    3    3  502    0 -0.11669087329E+03 -0.42364364165E+03  0.33451710006E+02  0.44069230984E+03  0.50400001928E-02 0. -1.
       -1    1    3    3    0  502  0.11669087329E+03  0.42364364165E+03  0.12198143998E+04  0.12965484430E+04  0.50400001928E-02 0.  1.
</event>
<event>
 5   0  0.1469851E-03  0.1206120E+04  0.7818609E-02  0.9107517E-01
       -1   -1    0    0    0  501  0.00000000000E+00  0.00000000000E+00  0.49254446773E+03  0.49254446776E+03  0.50400001928E-02 0. -1.
        1   -1    0    0  501    0  0.00000000000E+00  0.00000000000E+00 -0.73837258912E+03  0.73837258914E+03  0.50400001928E-02 0.  1.
    10030    2    1    2    0    0  0.00000000000E+00  0.00000000000E+00 -0.24582812139E+03  0.12309170569E+04  0.12061199508E+04 0.  0.
        5    1    3    3  502    0 -0.26356239517E+03 -0.48265765004E+03  0.12963202063E+03  0.56502220669E+03  0.46999998093E+01 0. -1.
       -5    1    3    3    0  502  0.26356239517E+03  0.48265765004E+03 -0.37546014202E+03  0.66589485021E+03  0.46999998093E+01 0.  1.
</event>
<event>
 5   0  0.2484507E-03  0.1201451E+04  0.7818609E-02  0.9111588E-01
       -2   -1    0    0    0  501  0.00000000000E+00  0.00000000000E+00  0.62511496375E+03  0.62511496375E+03  0.25500000920E-02 0.  1.
        2   -1    0    0  501    0  0.00000000000E+00  0.00000000000E+00 -0.57728718407E+03  0.57728718408E+03  0.25500000920E-02 0. -1.
    10030    2    1    2    0    0  0.00000000000E+00  0.00000000000E+00  0.47827779676E+02  0.12024021478E+04  0.12014505519E+04 0.  0.
        2    1    3    3  502    0  0.59483010639E+02  0.54420595130E+03 -0.22361277859E+03  0.59135524073E+03  0.25500000920E-02 0.  1.
       -2    1    3    3    0  502 -0.59483010639E+02 -0.54420595130E+03  0.27144055827E+03  0.61104690709E+03  0.25500000920E-02 0. -1.
</event>
<event>
 5   0  0.1423024E-03  0.1212333E+04  0.7818609E-02  0.9102130E-01
       -1   -1    0    0    0  501  0.00000000000E+00  0.00000000000E+00  0.49414621687E+03  0.49414621690E+03  0.50400001928E-02 0.  1.
        1   -1    0    0  501    0  0.00000000000E+00  0.00000000000E+00 -0.74358073177E+03  0.74358073179E+03  0.50400001928E-02 0. -1.
    10030    2    1    2    0    0  0.00000000000E+00  0.00000000000E+00 -0.24943451490E+03  0.12377269487E+04  0.12123326368E+04 0.  0.
        2    1    3    3  502    0  0.23792878409E+03 -0.23219924542E+03  0.39276374166E+03  0.51457745058E+03  0.25500000920E-02 0.  1.
       -2    1    3    3    0  502 -0.23792878409E+03  0.23219924542E+03 -0.64219825656E+03  0.72314949811E+03  0.25500000920E-02 0. -1.
</event>
<event>
 5   0  0.2499890E-03  0.1187007E+04  0.7818609E-02  0.9124306E-01
        2   -1    0    0  501    0  0.00000000000E+00  0.00000000000E+00  0.22901794695E+04  0.22901794695E+04  0.25500000920E-02 0. -1.
       -2   -1    0    0    0  501  0.00000000000E+00  0.00000000000E+00 -0.15380740287E+03  0.15380740289E+03  0.25500000920E-02 0.  1.
    10030    2    1    2    0    0  0.00000000000E+00  0.00000000000E+00  0.21363720667E+04  0.24439868724E+04  0.11870072558E+04 0.  0.
        5    1    3    3  502    0  0.38765408803E+03  0.54875846774E+02  0.19865265197E+04  0.20247460962E+04  0.46999998093E+01 0. -1.
       -5    1    3    3    0  502 -0.38765408803E+03 -0.54875846774E+02  0.14984554697E+03  0.41924077624E+03  0.46999998093E+01 0.  1.
</event>
<event>
 5   0  0.2579442E-03  0.1193314E+04  0.7818609E-02  0.9118729E-01
        2   -1    0    0  501    0  0.00000000000E+00  0.00000000000E+00  0.75377817216E+03  0.75377817217E+03  0.25500000920E-02 0.  1.
       -2   -1    0    0    0  501  0.00000000000E+00  0.00000000000E+00 -0.47228714740E+03  0.47228714741E+03  0.25500000920E-02 0. -1.
    10030    2    1    2    0    0  0.00000000000E+00  0.00000000000E+00  0.28149102476E+03  0.12260653196E+04  0.11933142800E+04 0.  0.
        4    1    3    3  502    0 -0.97854471139E+02 -0.25151822211E+03  0.68747897430E+03  0.73855661027E+03  0.12699999809E+01 0.  1.
       -4    1    3    3    0  502  0.97854471139E+02  0.25151822211E+03 -0.40598794954E+03  0.48750870930E+03  0.12699999809E+01 0. -1.
</event>
<event>
 5   0  0.2579442E-03  0.1175955E+04  0.7818609E-02  0.9134168E-01
       -2   -1    0    0    0  501  0.00000000000E+00  0.00000000000E+00  0.39496848541E+03  0.39496848541E+03  0.25500000920E-02 0.  1.
        2   -1    0    0  501    0  0.00000000000E+00  0.00000000000E+00 -0.87530381932E+03  0.87530381932E+03  0.25500000920E-02 0. -1.
    10030    2    1    2    0    0  0.00000000000E+00  0.00000000000E+00 -0.48033533391E+03  0.12702723047E+04  0.11759548015E+04 0.  0.
        4    1    3    3  502    0 -0.17366732513E+03  0.22793720810E+02 -0.84646580580E+03  0.86439913628E+03  0.12699999809E+01 0. -1.
       -4    1    3    3    0  502  0.17366732513E+03 -0.22793720810E+02  0.36613047188E+03  0.40587316845E+03  0.12699999809E+01 0.  1.
</event>
<event>
 5   0  0.1469851E-03  0.1190180E+04  0.7818609E-02  0.9121495E-01
        1   -1    0    0  501    0  0.00000000000E+00  0.00000000000E+00  0.31933112235E+03  0.31933112239E+03  0.50400001928E-02 0. -1.
       -1   -1    0    0    0  501  0.00000000000E+00  0.00000000000E+00 -0.11089813950E+04  0.11089813950E+04  0.50400001928E-02 0.  1.
    10030    2    1    2    0    0  0.00000000000E+00  0.00000000000E+00 -0.78965027262E+03  0.14283125174E+04  0.11901802780E+04 0.  0.
        5    1    3    3  502    0  0.50473119050E+03  0.14089562005E+03 -0.73320756585E+03  0.90123280845E+03  0.46999998093E+01 0.  1.
       -5    1    3    3    0  502 -0.50473119050E+03 -0.14089562005E+03 -0.56442706776E+02  0.52707970893E+03  0.46999998093E+01 0. -1.
</event>
<event>
 5   0  0.1469851E-03  0.1203628E+04  0.7818609E-02  0.9109686E-01
        1   -1    0    0  501    0  0.00000000000E+00  0.00000000000E+00  0.10935057699E+04  0.10935057699E+04  0.50400001928E-02 0.  1.
       -1   -1    0    0    0  501  0.00000000000E+00  0.00000000000E+00 -0.33121030421E+03  0.33121030424E+03  0.50400001928E-02 0. -1.
    10030    2    1    2    0    0  0.00000000000E+00  0.00000000000E+00  0.76229546565E+03  0.14247160741E+04  0.12036284788E+04 0.  0.
        5    1    3    3  502    0 -0.27134215513E+03  0.17894797397E+03 -0.21834989106E+03  0.39159635783E+03  0.46999998093E+01 0. -1.
       -5    1    3    3    0  502  0.27134215513E+03 -0.17894797397E+03  0.98064535671E+03  0.10331197163E+04  0.46999998093E+01 0.  1.
</event>
<event>
 5   0  0.1469851E-03  0.1201616E+04  0.7818609E-02  0.9111443E-01
       -1   -1    0    0    0  501  0.00000000000E+00  0.00000000000E+00  0.22386406279E+03  0.22386406285E+03  0.50400001928E-02 0.  1.
        1   -1    0    0  501    0  0.00000000000E+00  0.00000000000E+00 -0.16124529222E+04  0.16124529222E+04  0.50400001928E-02 0. -1.
    10030    2    1    2    0    0  0.00000000000E+00  0.00000000000E+00 -0.13885888594E+04  0.18363169850E+04  0.12016160157E+04 0.  0.
        5    1    3    3  502    0  0.47258791036E+03 -0.27249906537E+03 -0.10789445510E+04  0.12090237830E+04  0.46999998093E+01 0. -1.
       -5    1    3    3    0  502 -0.47258791036E+03  0.27249906537E+03 -0.30964430838E+03  0.62729320206E+03  0.46999998093E+01 0.  1.
</event>
<event>
 5   0  0.2579442E-03  0.1199218E+04  0.7818609E-02  0.9113541E-01
        2   -1    0    0  501    0  0.00000000000E+00  0.00000000000E+00  0.17563041463E+04  0.17563041463E+04  0.25500000920E-02 0.  1.
       -2   -1    0    0    0  501  0.00000000000E+00  0.00000000000E+00 -0.20470897446E+03  0.20470897447E+03  0.25500000920E-02 0. -1.
    10030    2    1    2    0    0  0.00000000000E+00  0.00000000000E+00  0.15515951718E+04  0.19610131208E+04  0.11992184466E+04 0.  0.
        4    1    3    3  502    0  0.24273686347E+02 -0.17393694461E+03 -0.16170618601E+03  0.23873369273E+03  0.12699999809E+01 0. -1.
       -4    1    3    3    0  502 -0.24273686347E+02  0.17393694461E+03  0.17133013578E+04  0.17222794280E+04  0.12699999809E+01 0.  1.
</event>
<event>
 5   0  0.2499890E-03  0.1179781E+04  0.7818609E-02  0.9130740E-01
        2   -1    0    0  501    0  0.00000000000E+00  0.00000000000E+00  0.26788348404E+04  0.26788348404E+04  0.25500000920E-02 0. -1.
       -2   -1    0    0    0  501  0.00000000000E+00  0.00000000000E+00 -0.12989641028E+03  0.12989641030E+03  0.25500000920E-02 0.  1.
    10030    2    1    2    0    0  0.00000000000E+00  0.00000000000E+00  0.25489384302E+04  0.28087312507E+04  0.11797813857E+04 0.  0.
        5    1    3    3  502    0  0.26693099143E+03  0.10577995303E+03  0.25011934660E+04  0.25176243558E+04  0.46999998093E+01 0. -1.
       -5    1    3    3    0  502 -0.26693099143E+03 -0.10577995303E+03  0.47744964123E+02  0.29110689488E+03  0.46999998093E+01 0.  1.
</event>
<event>
 5   0  0.1403154E-03  0.1196644E+04  0.7818609E-02  0.9115799E-01
        1   -1    0    0  501    0  0.00000000000E+00  0.00000000000E+00  0.10266161562E+04  0.10266161562E+04  0.50400001928E-02 0. -1.
       -1   -1    0    0    0  501  0.00000000000E+00  0.00000000000E+00 -0.34870778378E+03  0.34870778381E+03  0.50400001928E-02 0.  1.
    10030    2    1    2    0    0  0.00000000000E+00  0.00000000000E+00  0.67790837238E+03  0.13753239400E+04  0.11966437141E+04 0.  0.
        3    1    3    3  502    0 -0.52420675647E+03  0.27650915855E+03  0.43330328211E+03  0.73416740786E+03  0.10100000352E+00 0.  1.
       -3    1    3    3    0  502  0.52420675647E+03 -0.27650915855E+03  0.24460509027E+03  0.64115653212E+03  0.10100000352E+00 0. -1.
</event>
<event>
 5   0  0.2579442E-03  0.1198875E+04  0.7818609E-02  0.9113842E-01
       -2   -1    0    0    0  501  0.00000000000E+00  0.00000000000E+00  0.28904312305E+03  0.28904312306E+03  0.25500000920E-02 0.  1.
        2   -1    0    0  501    0  0.00000000000E+00  0.00000000000E+00 -0.12431549135E+04  0.12431549135E+04  0.25500000920E-02 0. -1.
    10030    2    1    2    0    0  0.00000000000E+00  0.00000000000E+00 -0.95411179043E+03  0.15321980365E+04  0.11988751038E+04 0.  0.
        4    1    3    3  502    0  0.37402847486E+03  0.18245291445E+03 -0.10284444932E+04  0.11094530430E+04  0.12699999809E+01 0. -1.
       -4    1    3    3    0  502 -0.37402847486E+03 -0.18245291445E+03  0.74332702791E+02  0.42274499359E+03  0.12699999809E+01 0.  1.
</event>
<event>
 5   0  0.2580244E-03  0.1194358E+04  0.7818609E-02  0.9117809E-01
       -2   -1    0    0    0  501  0.00000000000E+00  0.00000000000E+00  0.46938077387E+03  0.46938077388E+03  0.25500000920E-02 0. -1.
        2   -1    0    0  501    0  0.00000000000E+00  0.00000000000E+00 -0.75977266911E+03  0.75977266911E+03  0.25500000920E-02 0.  1.
    10030    2    1    2    0    0  0.00000000000E+00  0.00000000000E+00 -0.29039189523E+03  0.12291534430E+04  0.11943578750E+04 0.  0.
        1    1    3    3  502    0 -0.48052736347E+03  0.31834329439E+03  0.15473095058E+02  0.57661808576E+03  0.50400001928E-02 0. -1.
       -1    1    3    3    0  502  0.48052736347E+03 -0.31834329439E+03 -0.30586499029E+03  0.65253535723E+03  0.50400001928E-02 0.  1.
</event>
<event>
 5   0  0.1404833E-03  0.1203581E+04  0.7818609E-02  0.9109728E-01
        1   -1    0    0  501    0  0.00000000000E+00  0.00000000000E+00  0.62692724045E+03  0.62692724047E+03  0.50400001928E-02 0. -1.
       -1   -1    0    0    0  501  0.00000000000E+00  0.00000000000E+00 -0.57766119621E+03  0.57766119623E+03  0.50400001928E-02 0.  1.
    10030    2    1    2    0    0  0.00000000000E+00  0.00000000000E+00  0.49266044246E+02  0.12045884367E+04  0.12035805576E+04 0.  0.
        1    1    3    3  502    0  0.37050756563E+03 -0.47415568758E+03  0.31854838830E+02  0.60258958093E+03  0.50400001928E-02 0. -1.
       -1    1    3    3    0  502 -0.37050756563E+03  0.47415568758E+03  0.17411205416E+02  0.60199885578E+03  0.50400001928E-02 0.  1.
</event>
<event>
 5   0  0.2517023E-03  0.1203299E+04  0.7818609E-02  0.9109974E-01
       -2   -1    0    0    0  501  0.00000000000E+00  0.00000000000E+00  0.25923514054E+04  0.25923514054E+04  0.25500000920E-02 0.  1.
        2   -1    0    0  501    0  0.00000000000E+00  0.00000000000E+00 -0.13963459479E+03  0.13963459481E+03  0.25500000920E-02 0. -1.
    10030    2    1    2    0    0  0.00000000000E+00  0.00000000000E+00  0.24527168106E+04  0.27319860002E+04  0.12032986962E+04 0.  0.
        3    1    3    3  502    0 -0.31314426011E+02  0.18076113688E+03 -0.74584253109E+02  0.19803535769E+03  0.10100000352E+00 0. -1.
       -3    1    3    3    0  502  0.31314426011E+02 -0.18076113688E+03  0.25273010637E+04  0.25339506425E+04  0.10100000352E+00 0.  1.
</event>
<event>
 5   0  0.1403154E-03  0.1187682E+04  0.7818609E-02  0.9123708E-01
        1   -1    0    0  501    0  0.00000000000E+00  0.00000000000E+00  0.37107574265E+03  0.37107574268E+03  0.50400001928E-02 0.  1.
       -1   -1    0    0    0  501  0.00000000000E+00  0.00000000000E+00 -0.95033656819E+03  0.95033656820E+03  0.50400001928E-02 0. -1.
    10030    2    1    2    0    0  0.00000000000E+00  0.00000000000E+00 -0.57926082554E+03  0.13214123109E+04  0.11876815193E+04 0.  0.
        3    1    3    3  502    0 -0.19491832370E+03  0.43849826359E+03 -0.67883780296E+03  0.83132102885E+03  0.10100000352E+00 0. -1.
       -3    1    3    3    0  502  0.19491832370E+03 -0.43849826359E+03  0.99576977415E+02  0.49009128203E+03  0.10100000352E+00 0.  1.
</event>
<event>
 5   0  0.1469851E-03  0.1206243E+04  0.7818609E-02  0.9107409E-01
       -1   -1    0    0    0  501  0.00000000000E+00  0.00000000000E+00  0.23606021332E+03  0.23606021337E+03  0.50400001928E-02 0. -1.
        1   -1    0    0  501    0  0.00000000000E+00  0.00000000000E+00 -0.15409441924E+04  0.15409441924E+04  0.50400001928E-02 0.  1.
    10030    2    1    2    0    0  0.00000000000E+00  0.00000000000E+00 -0.13048839791E+04  0.17770044058E+04  0.12062431178E+04 0.  0.
        5    1    3    3  502    0 -0.11866513137E+03 -0.21904916835E+03 -0.14615740516E+04  0.14826613740E+04  0.46999998093E+01 0.  1.
       -5    1    3    3    0  502  0.11866513137E+03  0.21904916835E+03  0.15669007252E+03  0.29434303182E+03  0.46999998093E+01 0. -1.
</event>
<event>
 5   0  0.1404833E-03  0.1211040E+04  0.7818609E-02  0.9103248E-01
        1   -1    0    0  501    0  0.00000000000E+00  0.00000000000E+00  0.10058906941E+04  0.10058906941E+04  0.50400001928E-02 0. -1.
       -1   -1    0    0    0  501  0.00000000000E+00  0.00000000000E+00 -0.36450745158E+03  0.36450745161E+03  0.50400001928E-02 0.  1.
    10030    2    1    2    0    0  0.00000000000E+00  0.00000000000E+00  0.64138324256E+03  0.13703981458E+04  0.12110403024E+04 0.  0.
        1    1    3    3  502    0  0.14019206362E+03  0.14665864081E+03  0.96628397797E+03  0.98735368421E+03  0.50400001928E-02 0. -1.
       -1    1    3    3    0  502 -0.14019206362E+03 -0.14665864081E+03 -0.32490073541E+03  0.38304446155E+03  0.50400001928E-02 0.  1.
</event>
<event>
 5   0  0.1404833E-03  0.1194538E+04  0.7818609E-02  0.9117651E-01
       -1   -1    0    0    0  501  0.00000000000E+00  0.00000000000E+00  0.38194626251E+03  0.38194626254E+03  0.50400001928E-02 0.  1.
        1   -1    0    0  501    0  0.00000000000E+00  0.00000000000E+00 -0.93398027199E+03  0.93398027200E+03  0.50400001928E-02 0. -1.
    10030    2    1    2    0    0  0.00000000000E+00  0.00000000000E+00 -0.55203400948E+03  0.13159265345E+04  0.11945380265E+04 0.  0.
        1    1    3    3  502    0  0.41815387995E+03  0.24808572394E+03  0.10612130011E+03  0.49765542708E+03  0.50400001928E-02 0.  1.
       -1    1    3    3    0  502 -0.41815387995E+03 -0.24808572394E+03 -0.65815530959E+03  0.81827110746E+03  0.50400001928E-02 0. -1.
</event>
<event>
 5   0  0.2517023E-03  0.1194025E+04  0.7818609E-02  0.9118103E-01
       -2   -1    0    0    0  501  0.00000000000E+00  0.00000000000E+00  0.35240976526E+03  0.35240976527E+03  0.25500000920E-02 0.  1.
        2   -1    0    0  501    0  0.00000000000E+00  0.00000000000E+00 -0.10113901144E+04  0.10113901144E+04  0.25500000920E-02 0. -1.
    10030    2    1    2    0    0  0.00000000000E+00  0.00000000000E+00 -0.65898034918E+03  0.13637998797E+04  0.11940247113E+04 0.  0.
        3    1    3    3  502    0 -0.56108927144E+03 -0.20121340550E+03 -0.36764226653E+03  0.70033481380E+03  0.10100000352E+00 0.  1.
       -3    1    3    3    0  502  0.56108927144E+03  0.20121340550E+03 -0.29133808265E+03  0.66346506591E+03  0.10100000352E+00 0. -1.
</event>
<event>
 5   0  0.1404833E-03  0.1196283E+04  0.7818609E-02  0.9116116E-01
        1   -1    0    0  501    0  0.00000000000E+00  0.00000000000E+00  0.19246015958E+04  0.19246015958E+04  0.50400001928E-02 0.  1.
       -1   -1    0    0    0  501  0.00000000000E+00  0.00000000000E+00 -0.18589466739E+03  0.18589466745E+03  0.50400001928E-02 0. -1.
    10030    2    1    2    0    0  0.00000000000E+00  0.00000000000E+00  0.17387069284E+04  0.21104962632E+04  0.11962828655E+04 0.  0.
        1    1    3    3  502    0  0.11448789718E+03  0.55172867956E+03  0.12233457860E+04  0.13468804426E+04  0.50400001928E-02 0.  1.
       -1    1    3    3    0  502 -0.11448789718E+03 -0.55172867956E+03  0.51536114237E+03  0.76361582064E+03  0.50400001928E-02 0. -1.
</event>
<event>
 5   0  0.1423024E-03  0.1203154E+04  0.7818609E-02  0.9110101E-01
       -1   -1    0    0    0  501  0.00000000000E+00  0.00000000000E+00  0.40881507891E+03  0.40881507894E+03  0.50400001928E-02 0. -1.
        1   -1    0    0  501    0  0.00000000000E+00  0.00000000000E+00 -0.88522827214E+03  0.88522827215E+03  0.50400001928E-02 0.  1.
    10030    2    1    2    0    0  0.00000000000E+00  0.00000000000E+00 -0.47641319323E+03  0.12940433511E+04  0.12031536327E+04 0.  0.
        2    1    3    3  502    0  0.18169981898E+03 -0.40839846643E+03  0.19481201777E+03  0.48760214712E+03  0.25500000920E-02 0. -1.
       -2    1    3    3    0  502 -0.18169981898E+03  0.40839846643E+03 -0.67122521100E+03  0.80644120398E+03  0.25500000920E-02 0.  1.
</event>
<event>
 5   0  0.1469851E-03  0.1206970E+04  0.7818609E-02  0.9106777E-01
       -1   -1    0    0    0  501  0.00000000000E+00  0.00000000000E+00  0.74238911551E+03  0.74238911552E+03  0.50400001928E-02 0. -1.
        1   -1    0    0  501    0  0.00000000000E+00  0.00000000000E+00 -0.49057072802E+03  0.49057072804E+03  0.50400001928E-02 0.  1.
    10030    2    1    2    0    0  0.00000000000E+00  0.00000000000E+00  0.25181838749E+03  0.12329598436E+04  0.12069703706E+04 0.  0.
        5    1    3    3  502    0  0.16708951732E+03  0.56466332061E+03 -0.88739477133E+01  0.58895195847E+03  0.46999998093E+01 0. -1.
       -5    1    3    3    0  502 -0.16708951732E+03 -0.56466332061E+03  0.26069233520E+03  0.64400788510E+03  0.46999998093E+01 0.  1.
</event>
<event>
 5   0  0.2579442E-03  0.1189675E+04  0.7818609E-02  0.9121942E-01
        2   -1    0    0  501    0  0.00000000000E+00  0.00000000000E+00  0.37646105888E+03  0.37646105889E+03  0.25500000920E-02 0.  1.
       -2   -1    0    0    0  501  0.00000000000E+00  0.00000000000E+00 -0.93988873185E+03  0.93988873186E+03  0.25500000920E-02 0. -1.
    10030    2    1    2    0    0  0.00000000000E+00  0.00000000000E+00 -0.56342767297E+03  0.13163497907E+04  0.11896747576E+04 0.  0.
        4    1    3    3  502    0 -0.23279251546E+03  0.10080390978E+03  0.31360472882E+03  0.40336499888E+03  0.12699999809E+01 0.  1.
       -4    1    3    3    0  502  0.23279251546E+03 -0.10080390978E+03 -0.87703240179E+03  0.91298479187E+03  0.12699999809E+01 0. -1.
</event>
<event>
 5   0  0.2517023E-03  0.1216894E+04  0.7818609E-02  0.9098196E-01
       -2   -1    0    0    0  501  0.00000000000E+00  0.00000000000E+00  0.63364583169E+03  0.63364583169E+03  0.25500000920E-02 0.  1.
        2   -1    0    0  501    0  0.00000000000E+00  0.00000000000E+00 -0.58425057539E+03  0.58425057540E+03  0.25500000920E-02 0. -1.
    10030    2    1    2    0    0  0.00000000000E+00  0.00000000000E+00  0.49395256297E+02  0.12178964071E+04  0.12168943122E+04 0.  0.
        3    1    3    3  502    0 -0.37388358846E+03 -0.42888374383E+03 -0.19106684325E+03  0.60019726110E+03  0.10100000352E+00 0. -1.
       -3    1    3    3    0  502  0.37388358846E+03  0.42888374383E+03  0.24046209955E+03  0.61769914599E+03  0.10100000352E+00 0.  1.
</event>
<event>
 5   0  0.1455076E-03  0.1186269E+04  0.7818609E-02  0.9124961E-01
        1   -1    0    0  501    0  0.00000000000E+00  0.00000000000E+00  0.50142653630E+03  0.50142653633E+03  0.50400001928E-02 0.  1.
       -1   -1    0    0    0  501  0.00000000000E+00  0.00000000000E+00 -0.70161504073E+03  0.70161504075E+03  0.50400001928E-02 0. -1.
    10030    2    1    2    0    0  0.00000000000E+00  0.00000000000E+00 -0.20018850443E+03  0.12030415771E+04  0.11862687718E+04 0.  0.
        4    1    3    3  502    0 -0.36948726862E+03 -0.26577825946E+03 -0.48579772421E+03  0.66570261125E+03  0.12699999809E+01 0. -1.
       -4    1    3    3    0  502  0.36948726862E+03  0.26577825946E+03  0.28560921978E+03  0.53733896583E+03  0.12699999809E+01 0.  1.
</event>
<event>
 5   0  0.1423024E-03  0.1166258E+04  0.7818609E-02  0.9142915E-01
       -1   -1    0    0    0  501  0.00000000000E+00  0.00000000000E+00  0.63934541721E+03  0.63934541723E+03  0.50400001928E-02 0.  1.
        1   -1    0    0  501    0  0.00000000000E+00  0.00000000000E+00 -0.53185521250E+03  0.53185521252E+03  0.50400001928E-02 0. -1.
    10030    2    1    2    0    0  0.00000000000E+00  0.00000000000E+00  0.10749020471E+03  0.11712006298E+04  0.11662575921E+04 0.  0.
        2    1    3    3  502    0 -0.74604185696E+02  0.47870961966E+03  0.37963632811E+03  0.61550989116E+03  0.25500000920E-02 0.  1.
       -2    1    3    3    0  502  0.74604185696E+02 -0.47870961966E+03 -0.27214612340E+03  0.55569073860E+03  0.25500000920E-02 0. -1.
</event>
<event>
 5   0  0.1455076E-03  0.1200395E+04  0.7818609E-02  0.9112511E-01
       -1   -1    0    0    0  501  0.00000000000E+00  0.00000000000E+00  0.43047878337E+03  0.43047878340E+03  0.50400001928E-02 0. -1.
        1   -1    0    0  501    0  0.00000000000E+00  0.00000000000E+00 -0.83682839711E+03  0.83682839713E+03  0.50400001928E-02 0.  1.
    10030    2    1    2    0    0  0.00000000000E+00  0.00000000000E+00 -0.40634961374E+03  0.12673071805E+04  0.12003947189E+04 0.  0.
        4    1    3    3  502    0  0.30431663245E+03 -0.50902758406E+03 -0.30060992230E+03  0.66489520408E+03  0.12699999809E+01 0.  1.
       -4    1    3    3    0  502 -0.30431663245E+03  0.50902758406E+03 -0.10573969144E+03  0.60241197645E+03  0.12699999809E+01 0. -1.
</event>
<event>
 5   0  0.1404833E-03  0.1217498E+04  0.7818609E-02  0.9097677E-01
        1   -1    0    0  501    0  0.00000000000E+00  0.00000000000E+00  0.10325557277E+04  0.10325557277E+04  0.50400001928E-02 0.  1.
       -1   -1    0    0    0  501  0.00000000000E+00  0.00000000000E+00 -0.35889142396E+03  0.35889142399E+03  0.50400001928E-02 0. -1.
    10030    2    1    2    0    0  0.00000000000E+00  0.00000000000E+00  0.67366430377E+03  0.13914471517E+04  0.12174980829E+04 0.  0.
        1    1    3    3  502    0  0.45392348630E+03 -0.10016311501E+03  0.78605036019E+03  0.91321101056E+03  0.50400001928E-02 0.  1.
       -1    1    3    3    0  502 -0.45392348630E+03  0.10016311501E+03 -0.11238605642E+03  0.47823614117E+03  0.50400001928E-02 0. -1.
</event>
<event>
 5   0  0.9678750E-04  0.1198514E+04  0.7818609E-02  0.9114159E-01
       -3   -1    0    0    0  501  0.00000000000E+00  0.00000000000E+00  0.45470145695E+03  0.45470146817E+03  0.10100000352E+00 0. -1.
        3   -1    0    0  501    0  0.00000000000E+00  0.00000000000E+00 -0.78976806631E+03  0.78976807276E+03  0.10100000352E+00 0.  1.
    10030    2    1    2    0    0  0.00000000000E+00  0.00000000000E+00 -0.33506660935E+03  0.12444695409E+04  0.11985135817E+04 0.  0.
        4    1    3    3  502    0  0.10095792211E+03  0.43792095025E+03 -0.57914191213E+03  0.73305813411E+03  0.12699999809E+01 0.  1.
       -4    1    3    3    0  502 -0.10095792211E+03 -0.43792095025E+03  0.24407530278E+03  0.51141140682E+03  0.12699999809E+01 0. -1.
</event>
<event>
 5   0  0.1455076E-03  0.1198901E+04  0.7818609E-02  0.9113819E-01
        1   -1    0    0  501    0  0.00000000000E+00  0.00000000000E+00  0.57923713559E+03  0.57923713562E+03  0.50400001928E-02 0. -1.
       -1   -1    0    0    0  501  0.00000000000E+00  0.00000000000E+00 -0.62036919945E+03  0.62036919947E+03  0.50400001928E-02 0.  1.
    10030    2    1    2    0    0  0.00000000000E+00  0.00000000000E+00 -0.41132063860E+02  0.11996063351E+04  0.11989009603E+04 0.  0.
        4    1    3    3  502    0  0.42691185239E+03 -0.41202687875E+03 -0.10616978170E+03  0.60273834619E+03  0.12699999809E+01 0. -1.
       -4    1    3    3    0  502 -0.42691185239E+03  0.41202687875E+03  0.65037717842E+02  0.59686798890E+03  0.12699999809E+01 0.  1.
</event>
<event>
 5   0  0.2579442E-03  0.1204084E+04  0.7818609E-02  0.9109289E-01
        2   -1    0    0  501    0  0.00000000000E+00  0.00000000000E+00  0.17150376618E+04  0.17150376618E+04  0.25500000920E-02 0. -1.
       -2   -1    0    0    0  501  0.00000000000E+00  0.00000000000E+00 -0.21133914554E+03  0.21133914556E+03  0.25500000920E-02 0.  1.
    10030    2    1    2    0    0  0.00000000000E+00  0.00000000000E+00  0.15036985162E+04  0.19263768073E+04  0.12040840403E+04 0.  0.
        4    1    3    3  502    0  0.81392423637E+02  0.95845817573E+02 -0.19009440253E+03  0.22792244766E+03  0.12699999809E+01 0.  1.
       -4    1    3    3    0  502 -0.81392423637E+02 -0.95845817573E+02  0.16937929187E+04  0.16984543597E+04  0.12699999809E+01 0. -1.
</event>
<event>
 5   0  0.9678750E-04  0.1214836E+04  0.7818609E-02  0.9099969E-01
       -3   -1    0    0    0  501  0.00000000000E+00  0.00000000000E+00  0.50731015573E+03  0.50731016578E+03  0.10100000352E+00 0. -1.
        3   -1    0    0  501    0  0.00000000000E+00  0.00000000000E+00 -0.72727975178E+03  0.72727975880E+03  0.10100000352E+00 0.  1.
    10030    2    1    2    0    0  0.00000000000E+00  0.00000000000E+00 -0.21996959606E+03  0.12345899246E+04  0.12148356509E+04 0.  0.
        5    1    3    3  502    0  0.74598307979E+01  0.12124985032E+03 -0.71478993207E+03  0.72505442021E+03  0.46999998093E+01 0.  1.
       -5    1    3    3    0  502 -0.74598307979E+01 -0.12124985032E+03  0.49482033601E+03  0.50953550437E+03  0.46999998093E+01 0. -1.
</event>
<event>
 5   0  0.2579442E-03  0.1163153E+04  0.7818609E-02  0.9145735E-01
       -2   -1    0    0    0  501  0.00000000000E+00  0.00000000000E+00  0.71432136283E+03  0.71432136283E+03  0.25500000920E-02 0. -1.
        2   -1    0    0  501    0  0.00000000000E+00  0.00000000000E+00 -0.47349976686E+03  0.47349976686E+03  0.25500000920E-02 0.  1.
    10030    2    1    2    0    0  0.00000000000E+00  0.00000000000E+00  0.24082159597E+03  0.11878211297E+04  0.11631526104E+04 0.  0.
        4    1    3    3  502    0  0.44175348767E+03 -0.23911581740E+03  0.41972566537E+03  0.65459435154E+03  0.12699999809E+01 0. -1.
       -4    1    3    3    0  502 -0.44175348767E+03  0.23911581740E+03 -0.17890406940E+03  0.53322677816E+03  0.12699999809E+01 0.  1.
</event>
<event>
 5   0  0.1404833E-03  0.1200074E+04  0.7818609E-02  0.9112792E-01
       -1   -1    0    0    0  501  0.00000000000E+00  0.00000000000E+00  0.27542249608E+03  0.27542249613E+03  0.50400001928E-02 0. -1.
        1   -1    0    0  501    0  0.00000000000E+00  0.00000000000E+00 -0.13072445095E+04  0.13072445095E+04  0.50400001928E-02 0.  1.
    10030    2    1    2    0    0  0.00000000000E+00  0.00000000000E+00 -0.10318220134E+04  0.15826670056E+04  0.12000742408E+04 0.  0.
        1    1    3    3  502    0 -0.41125234806E+03 -0.77484799274E+02 -0.10830169100E+04  0.11610590060E+04  0.50400001928E-02 0.  1.
       -1    1    3    3    0  502  0.41125234806E+03  0.77484799274E+02  0.51194896627E+02  0.42160799965E+03  0.50400001928E-02 0. -1.
</event>
<event>
 5   0  0.1455076E-03  0.1185453E+04  0.7818609E-02  0.9125686E-01
       -1   -1    0    0    0  501  0.00000000000E+00  0.00000000000E+00  0.44126204229E+03  0.44126204232E+03  0.50400001928E-02 0. -1.
        1   -1    0    0  501    0  0.00000000000E+00  0.00000000000E+00 -0.79618154766E+03  0.79618154767E+03  0.50400001928E-02 0.  1.
    10030    2    1    2    0    0  0.00000000000E+00  0.00000000000E+00 -0.35491950537E+03  0.12374435900E+04  0.11854529865E+04 0.  0.
        4    1    3    3  502    0 -0.40376576984E+03 -0.16662911453E+03 -0.59569493521E+03  0.73867863611E+03  0.12699999809E+01 0.  1.
       -4    1    3    3    0  502  0.40376576984E+03  0.16662911453E+03  0.24077542984E+03  0.49876495388E+03  0.12699999809E+01 0. -1.
</event>
<event>
 5   0  0.2579442E-03  0.1181219E+04  0.7818609E-02  0.9129456E-01
       -2   -1    0    0    0  501  0.00000000000E+00  0.00000000000E+00  0.40079242040E+03  0.40079242041E+03  0.25500000920E-02 0. -1.
        2   -1    0    0  501    0  0.00000000000E+00  0.00000000000E+00 -0.87032465126E+03  0.87032465126E+03  0.25500000920E-02 0.  1.
    10030    2    1    2    0    0  0.00000000000E+00  0.00000000000E+00 -0.46953223085E+03  0.12711170717E+04  0.11812189018E+04 0.  0.
        4    1    3    3  502    0  0.15606720355E+03  0.19036046472E+03 -0.81248971382E+03  0.84896126326E+03  0.12699999809E+01 0.  1.
       -4    1    3    3    0  502 -0.15606720355E+03 -0.19036046472E+03  0.34295748297E+03  0.42215580841E+03  0.12699999809E+01 0. -1.
</event>
<event>
 5   0  0.2579442E-03  0.1197835E+04  0.7818609E-02  0.9114753E-01
       -2   -1    0    0    0  501  0.00000000000E+00  0.00000000000E+00  0.49855708623E+03  0.49855708624E+03  0.25500000920E-02 0. -1.
        2   -1    0    0  501    0  0.00000000000E+00  0.00000000000E+00 -0.71948090734E+03  0.71948090735E+03  0.25500000920E-02 0.  1.
    10030    2    1    2    0    0  0.00000000000E+00  0.00000000000E+00 -0.22092382111E+03  0.12180379936E+04  0.11978352220E+04 0.  0.
        4    1    3    3  502    0 -0.49485953354E+03 -0.33242384521E+03 -0.16895709089E+03  0.61962866482E+03  0.12699999809E+01 0.  1.
       -4    1    3    3    0  502  0.49485953354E+03  0.33242384521E+03 -0.51966730218E+02  0.59840932877E+03  0.12699999809E+01 0. -1.
</event>
<event>
 5   0  0.2499890E-03  0.1196132E+04  0.7818609E-02  0.9116249E-01
        2   -1    0    0  501    0  0.00000000000E+00  0.00000000000E+00  0.77711025476E+03  0.77711025476E+03  0.25500000920E-02 0.  1.
       -2   -1    0    0    0  501  0.00000000000E+00  0.00000000000E+00 -0.46027283136E+03  0.46027283136E+03  0.25500000920E-02 0. -1.
    10030    2    1    2    0    0  0.00000000000E+00  0.00000000000E+00  0.31683742340E+03  0.12373830861E+04  0.11961316604E+04 0.  0.
        5    1    3    3  502    0 -0.36541266877E+03  0.19401986230E+03  0.60515740697E+03  0.73308096597E+03  0.46999998093E+01 0.  1.
       -5    1    3    3    0  502  0.36541266877E+03 -0.19401986230E+03 -0.28831998357E+03  0.50430212015E+03  0.46999998093E+01 0. -1.
</event>
<event>
 5   0  0.2580244E-03  0.1213053E+04  0.7818609E-02  0.9101508E-01
       -2   -1    0    0    0  501  0.00000000000E+00  0.00000000000E+00  0.30007611376E+03  0.30007611377E+03  0.25500000920E-02 0. -1.
        2   -1    0    0  501    0  0.00000000000E+00  0.00000000000E+00 -0.12259363398E+04  0.12259363398E+04  0.25500000920E-02 0.  1.
    10030    2    1    2    0    0  0.00000000000E+00  0.00000000000E+00 -0.92586022600E+03  0.15260124535E+04  0.12130526989E+04 0.  0.
        1    1    3    3  502    0 -0.24934111926E+03 -0.10855208226E+02 -0.11583461441E+04  0.11849281070E+04  0.50400001928E-02 0.  1.
       -1    1    3    3    0  502  0.24934111926E+03  0.10855208226E+02  0.23248591808E+03  0.34108434650E+03  0.50400001928E-02 0. -1.
</event>
<event>
 5   0  0.1469851E-03  0.1191932E+04  0.7818609E-02  0.9119948E-01
        1   -1    0    0  501    0  0.00000000000E+00  0.00000000000E+00  0.13415151152E+04  0.13415151152E+04  0.50400001928E-02 0.  1.
       -1   -1    0    0    0  501  0.00000000000E+00  0.00000000000E+00 -0.26475695559E+03  0.26475695563E+03  0.50400001928E-02 0. -1.
    10030    2    1    2    0    0  0.00000000000E+00  0.00000000000E+00  0.10767581596E+04  0.16062720709E+04  0.11919319743E+04 0.  0.
        5    1    3    3  502    0  0.25087408037E+03 -0.53232465659E+03  0.66512724613E+03  0.88810116977E+03  0.46999998093E+01 0. -1.
       -5    1    3    3    0  502 -0.25087408037E+03  0.53232465659E+03  0.41163091350E+03  0.71817090109E+03  0.46999998093E+01 0.  1.
</event>
<event>
 5   0  0.2499890E-03  0.1199369E+04  0.7818609E-02  0.9113409E-01
       -2   -1    0    0    0  501  0.00000000000E+00  0.00000000000E+00  0.20091484557E+03  0.20091484559E+03  0.25500000920E-02 0. -1.
        2   -1    0    0  501    0  0.00000000000E+00  0.00000000000E+00 -0.17899206251E+04  0.17899206251E+04  0.25500000920E-02 0.  1.
    10030    2    1    2    0    0  0.00000000000E+00  0.00000000000E+00 -0.15890057796E+04  0.19908354707E+04  0.11993692109E+04 0.  0.
        5    1    3    3  502    0 -0.22053533281E+03 -0.43818459107E+02  0.12826480801E+03  0.25890121929E+03  0.46999998093E+01 0. -1.
       -5    1    3    3    0  502  0.22053533281E+03  0.43818459107E+02 -0.17172705876E+04  0.17319342514E+04  0.46999998093E+01 0.  1.
</event>
<event>
 5   0  0.1423024E-03  0.1189159E+04  0.7818609E-02  0.9122399E-01
       -1   -1    0    0    0  501  0.00000000000E+00  0.00000000000E+00  0.92653973548E+03  0.92653973550E+03  0.50400001928E-02 0. -1.
        1   -1    0    0  501    0  0.00000000000E+00  0.00000000000E+00 -0.38155361111E+03  0.38155361114E+03  0.50400001928E-02 0.  1.
    10030    2    1    2    0    0  0.00000000000E+00  0.00000000000E+00  0.54498612437E+03  0.13080933466E+04  0.11891586638E+04 0.  0.
        2    1    3    3  502    0 -0.89427446282E+02  0.35609770079E+03  0.78694512116E+03  0.86838094427E+03  0.25500000920E-02 0. -1.
       -2    1    3    3    0  502  0.89427446282E+02 -0.35609770079E+03 -0.24195899678E+03  0.43971240236E+03  0.25500000920E-02 0.  1.
</event>
<event>
 5   0  0.2499890E-03  0.1218959E+04  0.7818609E-02  0.9096421E-01
       -2   -1    0    0    0  501  0.00000000000E+00  0.00000000000E+00  0.28408119034E+03  0.28408119035E+03  0.25500000920E-02 0. -1.
        2   -1    0    0  501    0  0.00000000000E+00  0.00000000000E+00 -0.13076034354E+04  0.13076034354E+04  0.25500000920E-02 0.  1.
    10030    2    1    2    0    0  0.00000000000E+00  0.00000000000E+00 -0.10235222451E+04  0.15916846258E+04  0.12189594586E+04 0.  0.
        5    1    3    3  502    0  0.57227903255E+03 -0.16349030318E+03 -0.68306682609E+03  0.90599930973E+03  0.46999998093E+01 0. -1.
       -5    1    3    3    0  502 -0.57227903255E+03  0.16349030318E+03 -0.34045541900E+03  0.68568531606E+03  0.46999998093E+01 0.  1.
</event>
<event>
 5   0  0.1403154E-03  0.1190600E+04  0.7818609E-02  0.9121124E-01
        1   -1    0    0  501    0  0.00000000000E+00  0.00000000000E+00  0.10106644541E+04  0.10106644541E+04  0.50400001928E-02 0.  1.
       -1   -1    0    0    0  501  0.00000000000E+00  0.00000000000E+00 -0.35064283778E+03  0.35064283782E+03  0.50400001928E-02 0. -1.
    10030    2    1    2    0    0  0.00000000000E+00  0.00000000000E+00  0.66002161636E+03  0.13613072920E+04  0.11906002726E+04 0.  0.
        3    1    3    3  502    0  0.18740972529E+03  0.50954199055E+03  0.50813688953E+02  0.54528660946E+03  0.10100000352E+00 0. -1.
       -3    1    3    3    0  502 -0.18740972529E+03 -0.50954199055E+03  0.60920792740E+03  0.81602068251E+03  0.10100000352E+00 0.  1.
</event>
<event>
 5   0  0.1455076E-03  0.1191807E+04  0.7818609E-02  0.9120058E-01
       -1   -1    0    0    0  501  0.00000000000E+00  0.00000000000E+00  0.69020895686E+03  0.69020895688E+03  0.50400001928E-02 0. -1.
        1   -1    0    0  501    0  0.00000000000E+00  0.00000000000E+00 -0.51448329050E+03  0.51448329053E+03  0.50400001928E-02 0.  1.
    10030    2    1    2    0    0  0.00000000000E+00  0.00000000000E+00  0.17572566636E+03  0.12046922474E+04  0.11918069899E+04 0.  0.
        4    1    3    3  502    0  0.48429832098E+03 -0.28522157346E+02  0.43764011696E+03  0.65336732551E+03  0.12699999809E+01 0. -1.
       -4    1    3    3    0  502 -0.48429832098E+03  0.28522157346E+02 -0.26191445060E+03  0.55132492189E+03  0.12699999809E+01 0.  1.
</event>
<event>
 5   0  0.1403154E-03  0.1204422E+04  0.7818609E-02  0.9108995E-01
        1   -1    0    0  501    0  0.00000000000E+00  0.00000000000E+00  0.11435740604E+04  0.11435740604E+04  0.50400001928E-02 0. -1.
       -1   -1    0    0    0  501  0.00000000000E+00  0.00000000000E+00 -0.31712669884E+03  0.31712669888E+03  0.50400001928E-02 0.  1.
    10030    2    1    2    0    0  0.00000000000E+00  0.00000000000E+00  0.82644736158E+03  0.14607007593E+04  0.12044216317E+04 0.  0.
        3    1    3    3  502    0 -0.14252826308E+03  0.19542120821E+03 -0.25562757555E+03  0.35192218171E+03  0.10100000352E+00 0.  1.
       -3    1    3    3    0  502  0.14252826308E+03 -0.19542120821E+03  0.10820749371E+04  0.11087785776E+04  0.10100000352E+00 0. -1.
</event>
<event>
 5   0  0.1403154E-03  0.1204230E+04  0.7818609E-02  0.9109162E-01
       -1   -1    0    0    0  501  0.00000000000E+00  0.00000000000E+00  0.38619553500E+03  0.38619553503E+03  0.50400001928E-02 0.  1.
        1   -1    0    0  501    0  0.00000000000E+00  0.00000000000E+00 -0.93875397975E+03  0.93875397976E+03  0.50400001928E-02 0. -1.
    10030    2    1    2    0    0  0.00000000000E+00  0.00000000000E+00 -0.55255844475E+03  0.13249495148E+04  0.12042302030E+04 0.  0.
        3    1    3    3  502    0 -0.34905693799E+03 -0.20881370776E+03  0.21218377162E+03  0.45876559772E+03  0.10100000352E+00 0.  1.
       -3    1    3    3    0  502  0.34905693799E+03  0.20881370776E+03 -0.76474221637E+03  0.86618391708E+03  0.10100000352E+00 0. -1.
</event>
<event>
 5   0  0.2484507E-03  0.1234748E+04  0.7818609E-02  0.9082974E-01
        2   -1    0    0  501    0  0.00000000000E+00  0.00000000000E+00  0.50049542310E+03  0.50049542311E+03  0.25500000920E-02 0. -1.
       -2   -1    0    0    0  501  0.00000000000E+00  0.00000000000E+00 -0.76154679946E+03  0.76154679946E+03  0.25500000920E-02 0.  1.
    10030    2    1    2    0    0  0.00000000000E+00  0.00000000000E+00 -0.26105137635E+03  0.12620422226E+04  0.12347480514E+04 0.  0.
        2    1    3    3  502    0 -0.55696117762E+03  0.26204912567E+03 -0.81772348959E+02  0.62093656255E+03  0.25500000920E-02 0. -1.
       -2    1    3    3    0  502  0.55696117762E+03 -0.26204912567E+03 -0.17927902739E+03  0.64110566002E+03  0.25500000920E-02 0.  1.
</event>
<event>
 5   0  0.1469851E-03  0.1203573E+04  0.7818609E-02  0.9109734E-01
        1   -1    0    0  501    0  0.00000000000E+00  0.00000000000E+00  0.83387567146E+03  0.83387567148E+03  0.50400001928E-02 0. -1.
       -1   -1    0    0    0  501  0.00000000000E+00  0.00000000000E+00 -0.43429410185E+03  0.43429410188E+03  0.50400001928E-02 0.  1.
    10030    2    1    2    0    0  0.00000000000E+00  0.00000000000E+00  0.39958156961E+03  0.12681697734E+04  0.12035734889E+04 0.  0.
        5    1    3    3  502    0 -0.47743904105E+03  0.12727144959E+03  0.56170645734E+03  0.74811917100E+03  0.46999998093E+01 0. -1.
       -5    1    3    3    0  502  0.47743904105E+03 -0.12727144959E+03 -0.16212488773E+03  0.52005060236E+03  0.46999998093E+01 0.  1.
</event>
<event>
 5   0  0.1423024E-03  0.1199778E+04  0.7818609E-02  0.9113051E-01
        1   -1    0    0  501    0  0.00000000000E+00  0.00000000000E+00  0.68819786012E+03  0.68819786014E+03  0.50400001928E-02 0.  1.
       -1   -1    0    0    0  501  0.00000000000E+00  0.00000000000E+00 -0.52291160209E+03  0.52291160212E+03  0.50400001928E-02 0. -1.
    10030    2    1    2    0    0  0.00000000000E+00  0.00000000000E+00  0.16528625803E+03  0.12111094623E+04  0.11997777221E+04 0.  0.
        2    1    3    3  502    0  0.58625774284E+03  0.18471213365E+02 -0.44351770689E+02  0.58822309232E+03  0.25500000920E-02 0. -1.
       -2    1    3    3    0  502 -0.58625774284E+03 -0.18471213365E+02  0.20963802872E+03  0.62288636994E+03  0.25500000920E-02 0.  1.
</event>
<event>
 5   0  0.1403154E-03  0.1206006E+04  0.7818609E-02  0.9107616E-01
        1   -1    0    0  501    0  0.00000000000E+00  0.00000000000E+00  0.73864396281E+03  0.73864396283E+03  0.50400001928E-02 0.  1.
       -1   -1    0    0    0  501  0.00000000000E+00  0.00000000000E+00 -0.49227038041E+03  0.49227038043E+03  0.50400001928E-02 0. -1.
    10030    2    1    2    0    0  0.00000000000E+00  0.00000000000E+00  0.24637358241E+03  0.12309143433E+04  0.12060058782E+04 0.  0.
        3    1    3    3  502    0  0.48923697808E+03 -0.21597532266E+03 -0.16116075596E+03  0.55854360634E+03  0.10100000352E+00 0. -1.
       -3    1    3    3    0  502 -0.48923697808E+03  0.21597532266E+03  0.40753433837E+03  0.67237073692E+03  0.10100000352E+00 0.  1.
</event>
<event>
 5   0  0.2580244E-03  0.1213807E+04  0.7818609E-02  0.9100856E-01
        2   -1    0    0  501    0  0.00000000000E+00  0.00000000000E+00  0.59502397029E+03  0.59502397030E+03  0.25500000920E-02 0. -1.
       -2   -1    0    0    0  501  0.00000000000E+00  0.00000000000E+00 -0.61902055793E+03  0.61902055794E+03  0.25500000920E-02 0.  1.
    10030    2    1    2    0    0  0.00000000000E+00  0.00000000000E+00 -0.23996587639E+02  0.12140445282E+04  0.12138073489E+04 0.  0.
        1    1    3    3  502    0  0.60223124890E+03 -0.67524789571E+02 -0.45019827864E+02  0.60767496187E+03  0.50400001928E-02 0. -1.
       -1    1    3    3    0  502 -0.60223124890E+03  0.67524789571E+02  0.21023240225E+02  0.60636956636E+03  0.50400001928E-02 0.  1.
</event>
<event>
 5   0  0.2484507E-03  0.1204504E+04  0.7818609E-02  0.9108923E-01
       -2   -1    0    0    0  501  0.00000000000E+00  0.00000000000E+00  0.40214046084E+03  0.40214046085E+03  0.25500000920E-02 0. -1.
        2   -1    0    0  501    0  0.00000000000E+00  0.00000000000E+00 -0.90194221810E+03  0.90194221810E+03  0.25500000920E-02 0.  1.
    10030    2    1    2    0    0  0.00000000000E+00  0.00000000000E+00 -0.49980175726E+03  0.13040826790E+04  0.12045039796E+04 0.  0.
        2    1    3    3  502    0 -0.45665301693E+02 -0.23348911461E+03  0.34910637273E+03  0.42246626600E+03  0.25500000920E-02 0. -1.
       -2    1    3    3    0  502  0.45665301693E+02  0.23348911461E+03 -0.84890812999E+03  0.88161641295E+03  0.25500000920E-02 0.  1.
</event>
<event>
 5   0  0.1403154E-03  0.1189779E+04  0.7818609E-02  0.9121851E-01
        1   -1    0    0  501    0  0.00000000000E+00  0.00000000000E+00  0.95375073647E+03  0.95375073648E+03  0.50400001928E-02 0. -1.
       -1   -1    0    0    0  501  0.00000000000E+00  0.00000000000E+00 -0.37105429265E+03  0.37105429269E+03  0.50400001928E-02 0.  1.
    10030    2    1    2    0    0  0.00000000000E+00  0.00000000000E+00  0.58269644382E+03  0.13248050292E+04  0.11897786431E+04 0.  0.
        3    1    3    3  502    0 -0.27584950541E+03 -0.11367707826E+03 -0.28172304546E+03  0.41034535735E+03  0.10100000352E+00 0.  1.
       -3    1    3    3    0  502  0.27584950541E+03  0.11367707826E+03  0.86441948927E+03  0.91445967182E+03  0.10100000352E+00 0. -1.
</event>
<event>
 5   0  0.2580244E-03  0.1190238E+04  0.7818609E-02  0.9121444E-01
       -2   -1    0    0    0  501  0.00000000000E+00  0.00000000000E+00  0.54150011972E+03  0.54150011973E+03  0.25500000920E-02 0. -1.
        2   -1    0    0  501    0  0.00000000000E+00  0.00000000000E+00 -0.65404712903E+03  0.65404712903E+03  0.25500000920E-02 0.  1.
    10030    2    1    2    0    0  0.00000000000E+00  0.00000000000E+00 -0.11254700931E+03  0.11955472488E+04  0.11902379572E+04 0.  0.
        1    1    3    3  502    0  0.45587642578E+03  0.36855665641E+03 -0.15924554252E+03  0.60746725624E+03  0.50400001928E-02 0.  1.
       -1    1    3    3    0  502 -0.45587642578E+03 -0.36855665641E+03  0.46698533209E+02  0.58807999252E+03  0.50400001928E-02 0. -1.
</event>
<event>
 5   0  0.1404833E-03  0.1210120E+04  0.7818609E-02  0.9104044E-01
       -1   -1    0    0    0  501  0.00000000000E+00  0.00000000000E+00  0.34466908767E+03  0.34466908771E+03  0.50400001928E-02 0.  1.
        1   -1    0    0  501    0  0.00000000000E+00  0.00000000000E+00 -0.10621712605E+04  0.10621712605E+04  0.50400001928E-02 0. -1.
    10030    2    1    2    0    0  0.00000000000E+00  0.00000000000E+00 -0.71750217285E+03  0.14068403482E+04  0.12101199930E+04 0.  0.
        1    1    3    3  502    0  0.25657805115E+03  0.78099613509E+02 -0.98929078485E+03  0.10250015137E+04  0.50400001928E-02 0. -1.
       -1    1    3    3    0  502 -0.25657805115E+03 -0.78099613509E+02  0.27178861200E+03  0.38183883459E+03  0.50400001928E-02 0.  1.
</event>
<event>
 5   0  0.1403154E-03  0.1212439E+04  0.7818609E-02  0.9102038E-01
        1   -1    0    0  501    0  0.00000000000E+00  0.00000000000E+00  0.50797538521E+03  0.50797538524E+03  0.50400001928E-02 0.  1.
       -1   -1    0    0    0  501  0.00000000000E+00  0.00000000000E+00 -0.72346475602E+03  0.72346475603E+03  0.50400001928E-02 0. -1.
    10030    2    1    2    0    0  0.00000000000E+00  0.00000000000E+00 -0.21548937081E+03  0.12314401413E+04  0.12124393398E+04 0.  0.
        3    1    3    3  502    0 -0.11085224141E+03 -0.48528231658E+03 -0.45916576669E+03  0.67721514876E+03  0.10100000352E+00 0. -1.
       -3    1    3    3    0  502  0.11085224141E+03  0.48528231658E+03  0.24367639589E+03  0.55422499251E+03  0.10100000352E+00 0.  1.
</event>
<event>
 5   0  0.2579442E-03  0.1197135E+04  0.7818609E-02  0.9115368E-01
        2   -1    0    0  501    0  0.00000000000E+00  0.00000000000E+00  0.68252909815E+03  0.68252909816E+03  0.25500000920E-02 0. -1.
       -2   -1    0    0    0  501  0.00000000000E+00  0.00000000000E+00 -0.52493443280E+03  0.52493443280E+03  0.25500000920E-02 0.  1.
    10030    2    1    2    0    0  0.00000000000E+00  0.00000000000E+00  0.15759466536E+03  0.12074635310E+04  0.11971349548E+04 0.  0.
        4    1    3    3  502    0  0.42576616864E+03  0.21367834303E+03 -0.28674660035E+03  0.55602202326E+03  0.12699999809E+01 0. -1.
       -4    1    3    3    0  502 -0.42576616864E+03 -0.21367834303E+03  0.44434126571E+03  0.65144150770E+03  0.12699999809E+01 0.  1.
</event>
<event>
 5   0  0.9678750E-04  0.1282634E+04  0.7818609E-02  0.9043451E-01
        4   -1    0    0  501    0  0.00000000000E+00  0.00000000000E+00  0.39940999928E+03  0.39941201838E+03  0.12699999809E+01 0.  1.
       -4   -1    0    0    0  501  0.00000000000E+00  0.00000000000E+00 -0.10297325177E+04  0.10297333009E+04  0.12699999809E+01 0. -1.
    10030    2    1    2    0    0  0.00000000000E+00  0.00000000000E+00 -0.63032251842E+03  0.14291453192E+04  0.12826339565E+04 0.  0.
        2    1    3    3  502    0 -0.26015283963E+03  0.23300874346E+03 -0.91448164780E+03  0.97890206796E+03  0.25500000920E-02 0. -1.
       -2    1    3    3    0  502  0.26015283963E+03 -0.23300874346E+03  0.28415912938E+03  0.45024325127E+03  0.25500000920E-02 0.  1.
</event>
<event>
 5   0  0.9678750E-04  0.1206772E+04  0.7818609E-02  0.9106949E-01
       -3   -1    0    0    0  501  0.00000000000E+00  0.00000000000E+00  0.11665144717E+04  0.11665144761E+04  0.10100000352E+00 0. -1.
        3   -1    0    0  501    0  0.00000000000E+00  0.00000000000E+00 -0.31210480836E+03  0.31210482470E+03  0.10100000352E+00 0.  1.
    10030    2    1    2    0    0  0.00000000000E+00  0.00000000000E+00  0.85440966334E+03  0.14786193008E+04  0.12067722088E+04 0.  0.
        1    1    3    3  502    0 -0.12586003942E+03  0.17020242048E+03  0.11195247823E+04  0.11393618177E+04  0.50400001928E-02 0. -1.
       -1    1    3    3    0  502  0.12586003942E+03 -0.17020242048E+03 -0.26511511898E+03  0.33925748304E+03  0.50400001928E-02 0.  1.
</event>
<event>
 5   0  0.2580244E-03  0.1205813E+04  0.7818609E-02  0.9107783E-01
        2   -1    0    0  501    0  0.00000000000E+00  0.00000000000E+00  0.53545072875E+03  0.53545072875E+03  0.25500000920E-02 0. -1.
       -2   -1    0    0    0  501  0.00000000000E+00  0.00000000000E+00 -0.67886074007E+03  0.67886074007E+03  0.25500000920E-02 0.  1.
    10030    2    1    2    0    0  0.00000000000E+00  0.00000000000E+00 -0.14341001132E+03  0.12143114688E+04  0.12058133819E+04 0.  0.
        1    1    3    3  502    0  0.16250101813E+03 -0.54328054871E+03  0.13452138318E+03  0.58280042730E+03  0.50400001928E-02 0. -1.
       -1    1    3    3    0  502 -0.16250101813E+03  0.54328054871E+03 -0.27793139450E+03  0.63151104153E+03  0.50400001928E-02 0.  1.
</event>
<event>
 5   0  0.2499890E-03  0.1196361E+04  0.7818609E-02  0.9116048E-01
       -2   -1    0    0    0  501  0.00000000000E+00  0.00000000000E+00  0.15292996768E+03  0.15292996770E+03  0.25500000920E-02 0.  1.
        2   -1    0    0  501    0  0.00000000000E+00  0.00000000000E+00 -0.23397628118E+04  0.23397628118E+04  0.25500000920E-02 0. -1.
    10030    2    1    2    0    0  0.00000000000E+00  0.00000000000E+00 -0.21868328441E+04  0.24926927795E+04  0.11963609007E+04 0.  0.
        5    1    3    3  502    0  0.91251170693E+02  0.56603256687E+03 -0.14487119115E+04  0.15580461917E+04  0.46999998093E+01 0. -1.
       -5    1    3    3    0  502 -0.91251170693E+02 -0.56603256687E+03 -0.73812093255E+03  0.93464658774E+03  0.46999998093E+01 0.  1.
</event>
<event>
 5   0  0.2579442E-03  0.1197880E+04  0.7818609E-02  0.9114715E-01
       -2   -1    0    0    0  501  0.00000000000E+00  0.00000000000E+00  0.29947670032E+03  0.29947670033E+03  0.25500000920E-02 0. -1.
        2   -1    0    0  501    0  0.00000000000E+00  0.00000000000E+00 -0.11978523001E+04  0.11978523001E+04  0.25500000920E-02 0.  1.
    10030    2    1    2    0    0  0.00000000000E+00  0.00000000000E+00 -0.89837559975E+03  0.14973290004E+04  0.11978795504E+04 0.  0.
        4    1    3    3  502    0 -0.41050091663E+03  0.19981755199E+03  0.35394949353E+02  0.45792190598E+03  0.12699999809E+01 0. -1.
       -4    1    3    3    0  502  0.41050091663E+03 -0.19981755199E+03 -0.93377054910E+03  0.10394070944E+04  0.12699999809E+01 0.  1.
</event>
<event>
 5   0  0.1403154E-03  0.1193096E+04  0.7818609E-02  0.9118922E-01
        1   -1    0    0  501    0  0.00000000000E+00  0.00000000000E+00  0.18739969768E+04  0.18739969768E+04  0.50400001928E-02 0.  1.
       -1   -1    0    0    0  501  0.00000000000E+00  0.00000000000E+00 -0.18989851658E+03  0.18989851664E+03  0.50400001928E-02 0. -1.
    10030    2    1    2    0    0  0.00000000000E+00  0.00000000000E+00  0.16840984602E+04  0.20638954934E+04  0.11930955469E+04 0.  0.
        3    1    3    3  502    0  0.14503854469E+03 -0.31367035552E+03  0.89313878546E+00  0.34558078546E+03  0.10100000352E+00 0. -1.
       -3    1    3    3    0  502 -0.14503854469E+03  0.31367035552E+03  0.16832053214E+04  0.17183147080E+04  0.10100000352E+00 0.  1.
</event>
<event>
 5   0  0.1403154E-03  0.1210894E+04  0.7818609E-02  0.9103374E-01
       -1   -1    0    0    0  501  0.00000000000E+00  0.00000000000E+00  0.32633601868E+03  0.32633601872E+03  0.50400001928E-02 0. -1.
        1   -1    0    0  501    0  0.00000000000E+00  0.00000000000E+00 -0.11232780203E+04  0.11232780203E+04  0.50400001928E-02 0.  1.
    10030    2    1    2    0    0  0.00000000000E+00  0.00000000000E+00 -0.79694200165E+03  0.14496140391E+04  0.12108940120E+04 0.  0.
        3    1    3    3  502    0  0.38573944569E+03 -0.28649709374E+03  0.42511215348E+02  0.48237197090E+03  0.10100000352E+00 0. -1.
       -3    1    3    3    0  502 -0.38573944569E+03  0.28649709374E+03 -0.83945321700E+03  0.96724206816E+03  0.10100000352E+00 0.  1.
</event>
<event>
 5   0  0.2517023E-03  0.1166408E+04  0.7818609E-02  0.9142779E-01
        2   -1    0    0  501    0  0.00000000000E+00  0.00000000000E+00  0.62782822261E+03  0.62782822262E+03  0.25500000920E-02 0. -1.
       -2   -1    0    0    0  501  0.00000000000E+00  0.00000000000E+00 -0.54175130500E+03  0.54175130501E+03  0.25500000920E-02 0.  1.
    10030    2    1    2    0    0  0.00000000000E+00  0.00000000000E+00  0.86076917611E+02  0.11695795276E+04  0.11664077485E+04 0.  0.
        3    1    3    3  502    0  0.39857520270E+03  0.28767842856E+03 -0.27167114382E+03  0.56162824987E+03  0.10100000352E+00 0.  1.
       -3    1    3    3    0  502 -0.39857520270E+03 -0.28767842856E+03  0.35774806143E+03  0.60795127775E+03  0.10100000352E+00 0. -1.
</event>
<event>
 5   0  0.2579442E-03  0.1182454E+04  0.7818609E-02  0.9128355E-01
       -2   -1    0    0    0  501  0.00000000000E+00  0.00000000000E+00  0.66017027071E+03  0.66017027071E+03  0.25500000920E-02 0. -1.
        2   -1    0    0  501    0  0.00000000000E+00  0.00000000000E+00 -0.52948379087E+03  0.52948379087E+03  0.25500000920E-02 0.  1.
    10030    2    1    2    0    0  0.00000000000E+00  0.00000000000E+00  0.13068647984E+03  0.11896540616E+04  0.11824541557E+04 0.  0.
        4    1    3    3  502    0 -0.22507123716E+03 -0.50620497771E+03  0.27311291838E+03  0.61765105063E+03  0.12699999809E+01 0. -1.
       -4    1    3    3    0  502  0.22507123716E+03  0.50620497771E+03 -0.14242643854E+03  0.57200301096E+03  0.12699999809E+01 0.  1.
</event>
<event>
 5   0  0.1423024E-03  0.1209228E+04  0.7818609E-02  0.9104817E-01
        1   -1    0    0  501    0  0.00000000000E+00  0.00000000000E+00  0.57061229973E+03  0.57061229975E+03  0.50400001928E-02 0.  1.
       -1   -1    0    0    0  501  0.00000000000E+00  0.00000000000E+00 -0.64064231262E+03  0.64064231264E+03  0.50400001928E-02 0. -1.
    10030    2    1    2    0    0  0.00000000000E+00  0.00000000000E+00 -0.70030012889E+02  0.12112546124E+04  0.12092284868E+04 0.  0.
        2    1    3    3  502    0 -0.19933558486E+03 -0.15362461486E+03  0.51565441856E+03  0.57378974988E+03  0.25500000920E-02 0.  1.
       -2    1    3    3    0  502  0.19933558486E+03  0.15362461486E+03 -0.58568443145E+03  0.63746486251E+03  0.25500000920E-02 0. -1.
</event>
<event>
 5   0  0.1404833E-03  0.1183493E+04  0.7818609E-02  0.9127429E-01
       -1   -1    0    0    0  501  0.00000000000E+00  0.00000000000E+00  0.38875709840E+03  0.38875709843E+03  0.50400001928E-02 0.  1.
        1   -1    0    0  501    0  0.00000000000E+00  0.00000000000E+00 -0.90072740803E+03  0.90072740804E+03  0.50400001928E-02 0. -1.
    10030    2    1    2    0    0  0.00000000000E+00  0.00000000000E+00 -0.51197030963E+03  0.12894845065E+04  0.11834934282E+04 0.  0.
        1    1    3    3  502    0  0.57910795498E+03 -0.10157408824E+02 -0.38806444756E+03  0.69718233768E+03  0.50400001928E-02 0. -1.
       -1    1    3    3    0  502 -0.57910795498E+03  0.10157408824E+02 -0.12390586207E+03  0.59230216879E+03  0.50400001928E-02 0.  1.
</event>
<event>
 5   0  0.1423024E-03  0.1209295E+04  0.7818609E-02  0.9104759E-01
       -1   -1    0    0    0  501  0.00000000000E+00  0.00000000000E+00  0.36997126840E+03  0.36997126844E+03  0.50400001928E-02 0. -1.
        1   -1    0    0  501    0  0.00000000000E+00  0.00000000000E+00 -0.98818128055E+03  0.98818128056E+03  0.50400001928E-02 0.  1.
    10030    2    1    2    0    0  0.00000000000E+00  0.00000000000E+00 -0.61821001215E+03  0.13581525490E+04  0.12092951365E+04 0.  0.
        2    1    3    3  502    0 -0.53767675798E+03 -0.26505067899E+03 -0.39789712825E+03  0.71949307375E+03  0.25500000920E-02 0. -1.
       -2    1    3    3    0  502  0.53767675798E+03  0.26505067899E+03 -0.22031288390E+03  0.63865947525E+03  0.25500000920E-02 0.  1.
</event>
<event>
 5   0  0.9678750E-04  0.1215270E+04  0.7818609E-02  0.9099595E-01
        3   -1    0    0  501    0  0.00000000000E+00  0.00000000000E+00  0.39477669362E+03  0.39477670654E+03  0.10100000352E+00 0.  1.
       -3   -1    0    0    0  501  0.00000000000E+00  0.00000000000E+00 -0.93526301563E+03  0.93526302108E+03  0.10100000352E+00 0. -1.
    10030    2    1    2    0    0  0.00000000000E+00  0.00000000000E+00 -0.54048632201E+03  0.13300397276E+04  0.12152696050E+04 0.  0.
        3    1    3    3  502    0  0.44066138676E+03 -0.41591296110E+03 -0.31984429007E+03  0.68517620295E+03  0.10100000352E+00 0. -1.
       -3    1    3    3    0  502 -0.44066138676E+03  0.41591296110E+03 -0.22064203194E+03  0.64486352467E+03  0.10100000352E+00 0.  1.
</event>
<event>
 5   0  0.2579442E-03  0.1196979E+04  0.7818609E-02  0.9115505E-01
        2   -1    0    0  501    0  0.00000000000E+00  0.00000000000E+00  0.57489051048E+03  0.57489051049E+03  0.25500000920E-02 0.  1.
       -2   -1    0    0    0  501  0.00000000000E+00  0.00000000000E+00 -0.62305674528E+03  0.62305674529E+03  0.25500000920E-02 0. -1.
    10030    2    1    2    0    0  0.00000000000E+00  0.00000000000E+00 -0.48166234799E+02  0.11979472558E+04  0.11969785468E+04 0.  0.
        4    1    3    3  502    0 -0.50303865135E+03 -0.13852113070E+03 -0.31749577242E+03  0.61077096101E+03  0.12699999809E+01 0. -1.
       -4    1    3    3    0  502  0.50303865135E+03  0.13852113070E+03  0.26932953762E+03  0.58717629477E+03  0.12699999809E+01 0.  1.
</event>
<event>
 5   0  0.2579442E-03  0.1199624E+04  0.7818609E-02  0.9113186E-01
        2   -1    0    0  501    0  0.00000000000E+00  0.00000000000E+00  0.49164528230E+03  0.49164528231E+03  0.25500000920E-02 0. -1.
       -2   -1    0    0    0  501  0.00000000000E+00  0.00000000000E+00 -0.73177612012E+03  0.73177612012E+03  0.25500000920E-02 0.  1.
    10030    2    1    2    0    0  0.00000000000E+00  0.00000000000E+00 -0.24013083781E+03  0.12234214024E+04  0.11996237363E+04 0.  0.
        4    1    3    3  502    0 -0.39681921009E+03  0.43119936770E+03  0.10435083494E+02  0.58609630955E+03  0.12699999809E+01 0. -1.
       -4    1    3    3    0  502  0.39681921009E+03 -0.43119936770E+03 -0.25056592131E+03  0.63732509288E+03  0.12699999809E+01 0.  1.
</event>
<event>
 5   0  0.2499890E-03  0.1191300E+04  0.7818609E-02  0.9120506E-01
        2   -1    0    0  501    0  0.00000000000E+00  0.00000000000E+00  0.72110054331E+03  0.72110054331E+03  0.25500000920E-02 0. -1.
       -2   -1    0    0    0  501  0.00000000000E+00  0.00000000000E+00 -0.49202428463E+03  0.49202428464E+03  0.25500000920E-02 0.  1.
    10030    2    1    2    0    0  0.00000000000E+00  0.00000000000E+00  0.22907625868E+03  0.12131248279E+04  0.11913000948E+04 0.  0.
        5    1    3    3  502    0 -0.14415145137E+03 -0.19039313891E+03  0.67019734684E+03  0.71148841311E+03  0.46999998093E+01 0. -1.
       -5    1    3    3    0  502  0.14415145137E+03  0.19039313891E+03 -0.44112108816E+03  0.50163641484E+03  0.46999998093E+01 0.  1.
</event>
<event>
 5   0  0.1403154E-03  0.1246690E+04  0.7818609E-02  0.9072942E-01
        1   -1    0    0  501    0  0.00000000000E+00  0.00000000000E+00  0.14198249787E+04  0.14198249787E+04  0.50400001928E-02 0.  1.
       -1   -1    0    0    0  501  0.00000000000E+00  0.00000000000E+00 -0.27366699231E+03  0.27366699236E+03  0.50400001928E-02 0. -1.
    10030    2    1    2    0    0  0.00000000000E+00  0.00000000000E+00  0.11461579864E+04  0.16934919711E+04  0.12466903891E+04 0.  0.
        3    1    3    3  502    0  0.17646057493E+03  0.13226642405E+03 -0.21890613953E+03  0.31072922225E+03  0.10100000352E+00 0. -1.
       -3    1    3    3    0  502 -0.17646057493E+03 -0.13226642405E+03  0.13650641259E+04  0.13827627488E+04  0.10100000352E+00 0.  1.
</event>
<event>
 5   0  0.1423024E-03  0.1198764E+04  0.7818609E-02  0.9113939E-01
        1   -1    0    0  501    0  0.00000000000E+00  0.00000000000E+00  0.13687118584E+04  0.13687118584E+04  0.50400001928E-02 0.  1.
       -1   -1    0    0    0  501  0.00000000000E+00  0.00000000000E+00 -0.26247930430E+03  0.26247930435E+03  0.50400001928E-02 0. -1.
    10030    2    1    2    0    0  0.00000000000E+00  0.00000000000E+00  0.11062325541E+04  0.16311911628E+04  0.11987635904E+04 0.  0.
        2    1    3    3  502    0  0.17626834172E+03 -0.14957321571E+03  0.13056072933E+04  0.13259159398E+04  0.25500000920E-02 0.  1.
       -2    1    3    3    0  502 -0.17626834172E+03  0.14957321571E+03 -0.19937473915E+03  0.30527522298E+03  0.25500000920E-02 0. -1.
</event>
<event>
 5   0  0.2580244E-03  0.1184544E+04  0.7818609E-02  0.9126494E-01
       -2   -1    0    0    0  501  0.00000000000E+00  0.00000000000E+00  0.52156190625E+03  0.52156190625E+03  0.25500000920E-02 0.  1.
        2   -1    0    0  501    0  0.00000000000E+00  0.00000000000E+00 -0.67256842387E+03  0.67256842387E+03  0.25500000920E-02 0. -1.
    10030    2    1    2    0    0  0.00000000000E+00  0.00000000000E+00 -0.15100651762E+03  0.11941303301E+04  0.11845439109E+04 0.  0.
        1    1    3    3  502    0 -0.17340353729E+03  0.49771839432E+03  0.19685666343E+03  0.56262326005E+03  0.50400001928E-02 0.  1.
       -1    1    3    3    0  502  0.17340353729E+03 -0.49771839432E+03 -0.34786318105E+03  0.63150707007E+03  0.50400001928E-02 0. -1.
</event>
<event>
 5   0  0.1455076E-03  0.1185697E+04  0.7818609E-02  0.9125469E-01
       -1   -1    0    0    0  501  0.00000000000E+00  0.00000000000E+00  0.36407602206E+03  0.36407602209E+03  0.50400001928E-02 0.  1.
        1   -1    0    0  501    0  0.00000000000E+00  0.00000000000E+00 -0.96537384222E+03  0.96537384223E+03  0.50400001928E-02 0. -1.
    10030    2    1    2    0    0  0.00000000000E+00  0.00000000000E+00 -0.60129782016E+03  0.13294498643E+04  0.11856972098E+04 0.  0.
        4    1    3    3  502    0 -0.32075899991E+03 -0.10231507005E+03  0.24648023836E+03  0.41726350234E+03  0.12699999809E+01 0.  1.
       -4    1    3    3    0  502  0.32075899991E+03  0.10231507005E+03 -0.84777805852E+03  0.91218636199E+03  0.12699999809E+01 0. -1.
</event>
<event>
 5   0  0.2579442E-03  0.1209142E+04  0.7818609E-02  0.9104892E-01
       -2   -1    0    0    0  501  0.00000000000E+00  0.00000000000E+00  0.57454030436E+03  0.57454030436E+03  0.25500000920E-02 0. -1.
        2   -1    0    0  501    0  0.00000000000E+00  0.00000000000E+00 -0.63617164773E+03  0.63617164773E+03  0.25500000920E-02 0.  1.
    10030    2    1    2    0    0  0.00000000000E+00  0.00000000000E+00 -0.61631343372E+02  0.12107119521E+04  0.12091422615E+04 0.  0.
        4    1    3    3  502    0 -0.10646341303E+02  0.13740629606E+03 -0.62023153407E+03  0.63536021557E+03  0.12699999809E+01 0.  1.
       -4    1    3    3    0  502  0.10646341303E+02 -0.13740629606E+03  0.55860019070E+03  0.57535173653E+03  0.12699999809E+01 0. -1.
</event>
<event>
 5   0  0.9678750E-04  0.1213004E+04  0.7818609E-02  0.9101550E-01
        3   -1    0    0  501    0  0.00000000000E+00  0.00000000000E+00  0.40277960472E+03  0.40277961738E+03  0.10100000352E+00 0.  1.
       -3   -1    0    0    0  501  0.00000000000E+00  0.00000000000E+00 -0.91326487715E+03  0.91326488274E+03  0.10100000352E+00 0. -1.
    10030    2    1    2    0    0  0.00000000000E+00  0.00000000000E+00 -0.51048527243E+03  0.13160445001E+04  0.12130036739E+04 0.  0.
        4    1    3    3  502    0  0.21380610984E+03 -0.14553695558E+02  0.36033252933E+03  0.41924456735E+03  0.12699999809E+01 0.  1.
       -4    1    3    3    0  502 -0.21380610984E+03  0.14553695558E+02 -0.87081780176E+03  0.89679993277E+03  0.12699999809E+01 0. -1.
</event>
<event>
 5   0  0.2484507E-03  0.1202542E+04  0.7818609E-02  0.9110634E-01
        2   -1    0    0  501    0  0.00000000000E+00  0.00000000000E+00  0.45792211687E+03  0.45792211688E+03  0.25500000920E-02 0. -1.
       -2   -1    0    0    0  501  0.00000000000E+00  0.00000000000E+00 -0.78949472486E+03  0.78949472487E+03  0.25500000920E-02 0.  1.
    10030    2    1    2    0    0  0.00000000000E+00  0.00000000000E+00 -0.33157260799E+03  0.12474168417E+04  0.12025424661E+04 0.  0.
        2    1    3    3  502    0 -0.37234014470E+03 -0.26316532279E+03 -0.57237447997E+03  0.73178256047E+03  0.25500000920E-02 0.  1.
       -2    1    3    3    0  502  0.37234014470E+03  0.26316532279E+03  0.24080187198E+03  0.51563428128E+03  0.25500000920E-02 0. -1.
</event>
<event>
 5   0  0.1455076E-03  0.1179782E+04  0.7818609E-02  0.9130739E-01
        1   -1    0    0  501    0  0.00000000000E+00  0.00000000000E+00  0.13133306560E+04  0.13133306561E+04  0.50400001928E-02 0. -1.
       -1   -1    0    0    0  501  0.00000000000E+00  0.00000000000E+00 -0.26495356429E+03  0.26495356433E+03  0.50400001928E-02 0.  1.
    10030    2    1    2    0    0  0.00000000000E+00  0.00000000000E+00  0.10483770918E+04  0.15782842204E+04  0.11797824180E+04 0.  0.
        4    1    3    3  502    0 -0.71858585748E+02  0.17194905135E+03 -0.22453558128E+03  0.29180125560E+03  0.12699999809E+01 0.  1.
       -4    1    3    3    0  502  0.71858585748E+02 -0.17194905135E+03  0.12729126730E+04  0.12864829648E+04  0.12699999809E+01 0. -1.
</event>
<event>
 5   0  0.2579442E-03  0.1196462E+04  0.7818609E-02  0.9115959E-01
        2   -1    0    0  501    0  0.00000000000E+00  0.00000000000E+00  0.17081406723E+04  0.17081406723E+04  0.25500000920E-02 0.  1.
       -2   -1    0    0    0  501  0.00000000000E+00  0.00000000000E+00 -0.20951470248E+03  0.20951470250E+03  0.25500000920E-02 0. -1.
    10030    2    1    2    0    0  0.00000000000E+00  0.00000000000E+00  0.14986259698E+04  0.19176553748E+04  0.11964624269E+04 0.  0.
        4    1    3    3  502    0  0.12015474592E+03 -0.13536531753E+03 -0.16457302926E+03  0.24463611143E+03  0.12699999809E+01 0. -1.
       -4    1    3    3    0  502 -0.12015474592E+03  0.13536531753E+03  0.16631989991E+04  0.16730192634E+04  0.12699999809E+01 0.  1.
</event>
<event>
 5   0  0.1403154E-03  0.1217004E+04  0.7818609E-02  0.9098102E-01
        1   -1    0    0  501    0  0.00000000000E+00  0.00000000000E+00  0.12699052173E+04  0.12699052173E+04  0.50400001928E-02 0.  1.
       -1   -1    0    0    0  501  0.00000000000E+00  0.00000000000E+00 -0.29157676841E+03  0.29157676846E+03  0.50400001928E-02 0. -1.
    10030    2    1    2    0    0  0.00000000000E+00  0.00000000000E+00  0.97832844890E+03  0.15614819858E+04  0.12170042884E+04 0.  0.
        3    1    3    3  502    0  0.45188222855E+03  0.19282589211E+03  0.28522039717E+02  0.49213096844E+03  0.10100000352E+00 0. -1.
       -3    1    3    3    0  502 -0.45188222855E+03 -0.19282589211E+03  0.94980640918E+03  0.10693510173E+04  0.10100000352E+00 0.  1.
</event>
<event>
 5   0  0.2499890E-03  0.1274865E+04  0.7818609E-02  0.9049738E-01
        2   -1    0    0  501    0  0.00000000000E+00  0.00000000000E+00  0.15702340129E+04  0.15702340129E+04  0.25500000920E-02 0. -1.
       -2   -1    0    0    0  501  0.00000000000E+00  0.00000000000E+00 -0.25876405912E+03  0.25876405913E+03  0.25500000920E-02 0.  1.
    10030    2    1    2    0    0  0.00000000000E+00  0.00000000000E+00  0.13114699538E+04  0.18289980720E+04  0.12748648979E+04 0.  0.
        5    1    3    3  502    0 -0.34751712230E+03  0.32748228044E+03  0.49966342630E+02  0.48013698013E+03  0.46999998093E+01 0.  1.
       -5    1    3    3    0  502  0.34751712230E+03 -0.32748228044E+03  0.12615036112E+04  0.13488610919E+04  0.46999998093E+01 0. -1.
</event>
<event>
 5   0  0.2499890E-03  0.1186779E+04  0.7818609E-02  0.9124508E-01
       -2   -1    0    0    0  501  0.00000000000E+00  0.00000000000E+00  0.69484521383E+03  0.69484521384E+03  0.25500000920E-02 0. -1.
        2   -1    0    0  501    0  0.00000000000E+00  0.00000000000E+00 -0.50674748554E+03  0.50674748555E+03  0.25500000920E-02 0.  1.
    10030    2    1    2    0    0  0.00000000000E+00  0.00000000000E+00  0.18809772829E+03  0.12015926994E+04  0.11867789431E+04 0.  0.
        5    1    3    3  502    0 -0.34536337189E+03 -0.14820374116E+03 -0.37086551895E+03  0.52801849464E+03  0.46999998093E+01 0.  1.
       -5    1    3    3    0  502  0.34536337189E+03  0.14820374116E+03  0.55896324724E+03  0.67357420475E+03  0.46999998093E+01 0. -1.
</event>
<event>
 5   0  0.2580244E-03  0.1200474E+04  0.7818609E-02  0.9112442E-01
        2   -1    0    0  501    0  0.00000000000E+00  0.00000000000E+00  0.11394437000E+04  0.11394437000E+04  0.25500000920E-02 0. -1.
       -2   -1    0    0    0  501  0.00000000000E+00  0.00000000000E+00 -0.31619321787E+03  0.31619321788E+03  0.25500000920E-02 0.  1.
    10030    2    1    2    0    0  0.00000000000E+00  0.00000000000E+00  0.82325048213E+03  0.14556369179E+04  0.12004738566E+04 0.  0.
        1    1    3    3  502    0 -0.46023948940E+03  0.38379475141E+03  0.45302232696E+03  0.75123100812E+03  0.50400001928E-02 0. -1.
       -1    1    3    3    0  502  0.46023948940E+03 -0.38379475141E+03  0.37022815518E+03  0.70440590977E+03  0.50400001928E-02 0.  1.
</event>
<event>
 5   0  0.1423024E-03  0.1129018E+04  0.7818609E-02  0.9177361E-01
        1   -1    0    0  501    0  0.00000000000E+00  0.00000000000E+00  0.75814727317E+03  0.75814727318E+03  0.50400001928E-02 0. -1.
       -1   -1    0    0    0  501  0.00000000000E+00  0.00000000000E+00 -0.42032803361E+03  0.42032803364E+03  0.50400001928E-02 0.  1.
    10030    2    1    2    0    0  0.00000000000E+00  0.00000000000E+00  0.33781923956E+03  0.11784753068E+04  0.11290182506E+04 0.  0.
        2    1    3    3  502    0 -0.30406582605E+03 -0.37600063843E+03 -0.13511926950E+03  0.50208537488E+03  0.25500000920E-02 0.  1.
       -2    1    3    3    0  502  0.30406582605E+03  0.37600063843E+03  0.47293850906E+03  0.67638993194E+03  0.25500000920E-02 0. -1.
</event>
<event>
 5   0  0.1403154E-03  0.1208781E+04  0.7818609E-02  0.9105205E-01
       -1   -1    0    0    0  501  0.00000000000E+00  0.00000000000E+00  0.25558622490E+03  0.25558622495E+03  0.50400001928E-02 0.  1.
        1   -1    0    0  501    0  0.00000000000E+00  0.00000000000E+00 -0.14292166687E+04  0.14292166687E+04  0.50400001928E-02 0. -1.
    10030    2    1    2    0    0  0.00000000000E+00  0.00000000000E+00 -0.11736304438E+04  0.16848028937E+04  0.12087813582E+04 0.  0.
        3    1    3    3  502    0 -0.44915342635E+03 -0.20983550609E+02 -0.11497269182E+04  0.12345246480E+04  0.10100000352E+00 0. -1.
       -3    1    3    3    0  502  0.44915342635E+03  0.20983550609E+02 -0.23903525581E+02  0.45027824568E+03  0.10100000352E+00 0.  1.
</event>
<event>
 5   0  0.1404833E-03  0.1197024E+04  0.7818609E-02  0.9115466E-01
        1   -1    0    0  501    0  0.00000000000E+00  0.00000000000E+00  0.64001765992E+03  0.64001765994E+03  0.50400001928E-02 0.  1.
       -1   -1    0    0    0  501  0.00000000000E+00  0.00000000000E+00 -0.55969777401E+03  0.55969777403E+03  0.50400001928E-02 0. -1.
    10030    2    1    2    0    0  0.00000000000E+00  0.00000000000E+00  0.80319885913E+02  0.11997154340E+04  0.11970237418E+04 0.  0.
        1    1    3    3  502    0  0.59548325729E+03 -0.23068459455E+02  0.95818556977E+02  0.60358401190E+03  0.50400001928E-02 0.  1.
       -1    1    3    3    0  502 -0.59548325729E+03  0.23068459455E+02 -0.15498671064E+02  0.59613142206E+03  0.50400001928E-02 0. -1.
</event>
<event>
 5   0  0.2579442E-03  0.1182263E+04  0.7818609E-02  0.9128525E-01
       -2   -1    0    0    0  501  0.00000000000E+00  0.00000000000E+00  0.62472882491E+03  0.62472882491E+03  0.25500000920E-02 0.  1.
        2   -1    0    0  501    0  0.00000000000E+00  0.00000000000E+00 -0.55934141292E+03  0.55934141293E+03  0.25500000920E-02 0. -1.
    10030    2    1    2    0    0  0.00000000000E+00  0.00000000000E+00  0.65387411986E+02  0.11840702378E+04  0.11822634285E+04 0.  0.
        4    1    3    3  502    0 -0.15038613962E+03 -0.35754562198E+03  0.47944741986E+03  0.61670601108E+03  0.12699999809E+01 0.  1.
       -4    1    3    3    0  502  0.15038613962E+03  0.35754562198E+03 -0.41406000788E+03  0.56736422676E+03  0.12699999809E+01 0. -1.
</event>
<event>
 5   0  0.1469851E-03  0.1234641E+04  0.7818609E-02  0.9083065E-01
        1   -1    0    0  501    0  0.00000000000E+00  0.00000000000E+00  0.73768013395E+03  0.73768013397E+03  0.50400001928E-02 0. -1.
       -1   -1    0    0    0  501  0.00000000000E+00  0.00000000000E+00 -0.51659832058E+03  0.51659832060E+03  0.50400001928E-02 0.  1.
    10030    2    1    2    0    0  0.00000000000E+00  0.00000000000E+00  0.22108181337E+03  0.12542784546E+04  0.12346405442E+04 0.  0.
        5    1    3    3  502    0  0.25687571219E+03  0.42819588978E+03 -0.25817184054E+03  0.56214912682E+03  0.46999998093E+01 0.  1.
       -5    1    3    3    0  502 -0.25687571219E+03 -0.42819588978E+03  0.47925365392E+03  0.69212932775E+03  0.46999998093E+01 0. -1.
</event>
<event>
 5   0  0.1455076E-03  0.1196997E+04  0.7818609E-02  0.9115489E-01
        1   -1    0    0  501    0  0.00000000000E+00  0.00000000000E+00  0.11442859178E+04  0.11442859178E+04  0.50400001928E-02 0. -1.
       -1   -1    0    0    0  501  0.00000000000E+00  0.00000000000E+00 -0.31303385422E+03  0.31303385426E+03  0.50400001928E-02 0.  1.
    10030    2    1    2    0    0  0.00000000000E+00  0.00000000000E+00  0.83125206357E+03  0.14573197721E+04  0.11969966269E+04 0.  0.
        4    1    3    3  502    0  0.21707627790E+03  0.16326779659E+03 -0.23366902920E+03  0.35830337975E+03  0.12699999809E+01 0.  1.
       -4    1    3    3    0  502 -0.21707627790E+03 -0.16326779659E+03  0.10649210928E+04  0.10990163923E+04  0.12699999809E+01 0. -1.
</event>
<event>
 5   0  0.1423024E-03  0.1198035E+04  0.7818609E-02  0.9114578E-01
        1   -1    0    0  501    0  0.00000000000E+00  0.00000000000E+00  0.43301788681E+03  0.43301788684E+03  0.50400001928E-02 0.  1.
       -1   -1    0    0    0  501  0.00000000000E+00  0.00000000000E+00 -0.82865409899E+03  0.82865409900E+03  0.50400001928E-02 0. -1.
    10030    2    1    2    0    0  0.00000000000E+00  0.00000000000E+00 -0.39563621217E+03  0.12616719858E+04  0.11980351362E+04 0.  0.
        2    1    3    3  502    0 -0.26485421381E+03 -0.20993288414E+03  0.32302549105E+03  0.46750939915E+03  0.25500000920E-02 0.  1.
       -2    1    3    3    0  502  0.26485421381E+03  0.20993288414E+03 -0.71866170323E+03  0.79416258669E+03  0.25500000920E-02 0. -1.
</event>
<event>
 5   0  0.2517023E-03  0.1197715E+04  0.7818609E-02  0.9114859E-01
       -2   -1    0    0    0  501  0.00000000000E+00  0.00000000000E+00  0.45796958738E+03  0.45796958739E+03  0.25500000920E-02 0.  1.
        2   -1    0    0  501    0  0.00000000000E+00  0.00000000000E+00 -0.78308745768E+03  0.78308745768E+03  0.25500000920E-02 0. -1.
    10030    2    1    2    0    0  0.00000000000E+00  0.00000000000E+00 -0.32511787029E+03  0.12410570451E+04  0.11977148908E+04 0.  0.
        3    1    3    3  502    0  0.19807387175E+03  0.55849666261E+03 -0.72951497364E+02  0.59705419519E+03  0.10100000352E+00 0.  1.
       -3    1    3    3    0  502 -0.19807387175E+03 -0.55849666261E+03 -0.25216637293E+03  0.64400284988E+03  0.10100000352E+00 0. -1.
</event>
<event>
 5   0  0.2579442E-03  0.1197794E+04  0.7818609E-02  0.9114790E-01
       -2   -1    0    0    0  501  0.00000000000E+00  0.00000000000E+00  0.34219146782E+03  0.34219146783E+03  0.25500000920E-02 0. -1.
        2   -1    0    0  501    0  0.00000000000E+00  0.00000000000E+00 -0.10481773809E+04  0.10481773809E+04  0.25500000920E-02 0.  1.
    10030    2    1    2    0    0  0.00000000000E+00  0.00000000000E+00 -0.70598591312E+03  0.13903688488E+04  0.11977935657E+04 0.  0.
        4    1    3    3  502    0 -0.54214354298E+02 -0.56816830132E+03 -0.14237920157E+03  0.58824133209E+03  0.12699999809E+01 0.  1.
       -4    1    3    3    0  502  0.54214354298E+02  0.56816830132E+03 -0.56360671155E+03  0.80212751669E+03  0.12699999809E+01 0. -1.
</event>
<event>
 5   0  0.2580244E-03  0.1193757E+04  0.7818609E-02  0.9118338E-01
        2   -1    0    0  501    0  0.00000000000E+00  0.00000000000E+00  0.15726221213E+04  0.15726221213E+04  0.25500000920E-02 0. -1.
       -2   -1    0    0    0  501  0.00000000000E+00  0.00000000000E+00 -0.22654144383E+03  0.22654144385E+03  0.25500000920E-02 0.  1.
    10030    2    1    2    0    0  0.00000000000E+00  0.00000000000E+00  0.13460806775E+04  0.17991635652E+04  0.11937572383E+04 0.  0.
        1    1    3    3  502    0  0.34783527091E+03  0.33677010996E+03  0.14691854555E+03  0.50595310228E+03  0.50400001928E-02 0.  1.
       -1    1    3    3    0  502 -0.34783527091E+03 -0.33677010996E+03  0.11991621320E+04  0.12932104629E+04  0.50400001928E-02 0. -1.
</event>
<event>
 5   0  0.2517023E-03  0.1198331E+04  0.7818609E-02  0.9114318E-01
        2   -1    0    0  501    0  0.00000000000E+00  0.00000000000E+00  0.18949621606E+04  0.18949621606E+04  0.25500000920E-02 0.  1.
       -2   -1    0    0    0  501  0.00000000000E+00  0.00000000000E+00 -0.18944942146E+03  0.18944942148E+03  0.25500000920E-02 0. -1.
    10030    2    1    2    0    0  0.00000000000E+00  0.00000000000E+00  0.17055127392E+04  0.20844115821E+04  0.11983313148E+04 0.  0.
        3    1    3    3  502    0 -0.97460252773E+02 -0.36777653191E+03  0.16578720120E+04  0.17009696342E+04  0.10100000352E+00 0.  1.
       -3    1    3    3    0  502  0.97460252773E+02  0.36777653191E+03  0.47640727186E+02  0.38344194787E+03  0.10100000352E+00 0. -1.
</event>
<event>
 5   0  0.1469851E-03  0.1247651E+04  0.7818609E-02  0.9072141E-01
       -1   -1    0    0    0  501  0.00000000000E+00  0.00000000000E+00  0.27971762503E+03  0.27971762507E+03  0.50400001928E-02 0. -1.
        1   -1    0    0  501    0  0.00000000000E+00  0.00000000000E+00 -0.13912538664E+04  0.13912538664E+04  0.50400001928E-02 0.  1.
    10030    2    1    2    0    0  0.00000000000E+00  0.00000000000E+00 -0.11115362414E+04  0.16709714915E+04  0.12476509566E+04 0.  0.
        5    1    3    3  502    0 -0.35090592871E+03  0.14929251307E+03 -0.12169412666E+04  0.12753004986E+04  0.46999998093E+01 0.  1.
       -5    1    3    3    0  502  0.35090592871E+03 -0.14929251307E+03  0.10540502527E+03  0.39567099289E+03  0.46999998093E+01 0. -1.
</event>
<event>
 5   0  0.1455076E-03  0.1193855E+04  0.7818609E-02  0.9118252E-01
        1   -1    0    0  501    0  0.00000000000E+00  0.00000000000E+00  0.81611752509E+03  0.81611752511E+03  0.50400001928E-02 0.  1.
       -1   -1    0    0    0  501  0.00000000000E+00  0.00000000000E+00 -0.43660704611E+03  0.43660704614E+03  0.50400001928E-02 0. -1.
    10030    2    1    2    0    0  0.00000000000E+00  0.00000000000E+00  0.37951047899E+03  0.12527245712E+04  0.11938553714E+04 0.  0.
        4    1    3    3  502    0  0.27130799305E+03  0.19654339191E+03  0.70816513437E+03  0.78341355773E+03  0.12699999809E+01 0.  1.
       -4    1    3    3    0  502 -0.27130799305E+03 -0.19654339191E+03 -0.32865465539E+03  0.46931101351E+03  0.12699999809E+01 0. -1.
</event>
<event>
 5   0  0.1469851E-03  0.1174962E+04  0.7818609E-02  0.9135059E-01
        1   -1    0    0  501    0  0.00000000000E+00  0.00000000000E+00  0.31515592692E+03  0.31515592696E+03  0.50400001928E-02 0.  1.
       -1   -1    0    0    0  501  0.00000000000E+00  0.00000000000E+00 -0.10951216760E+04  0.10951216760E+04  0.50400001928E-02 0. -1.
    10030    2    1    2    0    0  0.00000000000E+00  0.00000000000E+00 -0.77996574909E+03  0.14102776030E+04  0.11749622750E+04 0.  0.
        5    1    3    3  502    0 -0.20064922373E+03  0.48710314859E+03 -0.77952035533E+02  0.53256755270E+03  0.46999998093E+01 0.  1.
       -5    1    3    3    0  502  0.20064922373E+03 -0.48710314859E+03 -0.70201371356E+03  0.87771005029E+03  0.46999998093E+01 0. -1.
</event>
<event>
 5   0  0.1404833E-03  0.1199200E+04  0.7818609E-02  0.9113557E-01
       -1   -1    0    0    0  501  0.00000000000E+00  0.00000000000E+00  0.38202451215E+03  0.38202451218E+03  0.50400001928E-02 0. -1.
        1   -1    0    0  501    0  0.00000000000E+00  0.00000000000E+00 -0.94109262228E+03  0.94109262229E+03  0.50400001928E-02 0.  1.
    10030    2    1    2    0    0  0.00000000000E+00  0.00000000000E+00 -0.55906811013E+03  0.13231171345E+04  0.11992004836E+04 0.  0.
        1    1    3    3  502    0  0.37963589543E+03 -0.29477986724E+03  0.11597935853E+03  0.49443886868E+03  0.50400001928E-02 0. -1.
       -1    1    3    3    0  502 -0.37963589543E+03  0.29477986724E+03 -0.67504746866E+03  0.82867826580E+03  0.50400001928E-02 0.  1.
</event>
<event>
 5   0  0.2579442E-03  0.1234446E+04  0.7818609E-02  0.9083229E-01
        2   -1    0    0  501    0  0.00000000000E+00  0.00000000000E+00  0.51071794727E+03  0.51071794728E+03  0.25500000920E-02 0.  1.
       -2   -1    0    0    0  501  0.00000000000E+00  0.00000000000E+00 -0.74593830511E+03  0.74593830511E+03  0.25500000920E-02 0. -1.
    10030    2    1    2    0    0  0.00000000000E+00  0.00000000000E+00 -0.23522035783E+03  0.12566562524E+04  0.12344457541E+04 0.  0.
        4    1    3    3  502    0  0.45146422269E+03  0.16563033859E+03  0.27627406236E+03  0.55460104928E+03  0.12699999809E+01 0.  1.
       -4    1    3    3    0  502 -0.45146422269E+03 -0.16563033859E+03 -0.51149442019E+03  0.70205520311E+03  0.12699999809E+01 0. -1.
</event>
<event>
 5   0  0.2580244E-03  0.1200590E+04  0.7818609E-02  0.9112340E-01
        2   -1    0    0  501    0  0.00000000000E+00  0.00000000000E+00  0.24421869216E+03  0.24421869218E+03  0.25500000920E-02 0. -1.
       -2   -1    0    0    0  501  0.00000000000E+00  0.00000000000E+00 -0.14755380404E+04  0.14755380404E+04  0.25500000920E-02 0.  1.
    10030    2    1    2    0    0  0.00000000000E+00  0.00000000000E+00 -0.12313193483E+04  0.17197567326E+04  0.12005898059E+04 0.  0.
        1    1    3    3  502    0 -0.11048716967E+03 -0.39838378589E+02  0.22759983175E+03  0.25611754042E+03  0.50400001928E-02 0. -1.
       -1    1    3    3    0  502  0.11048716967E+03  0.39838378589E+02 -0.14589191800E+04  0.14636391922E+04  0.50400001928E-02 0.  1.
</event>
<event>
 5   0  0.2484507E-03  0.1197378E+04  0.7818609E-02  0.9115154E-01
       -2   -1    0    0    0  501  0.00000000000E+00  0.00000000000E+00  0.30933538205E+03  0.30933538207E+03  0.25500000920E-02 0. -1.
        2   -1    0    0  501    0  0.00000000000E+00  0.00000000000E+00 -0.11587059656E+04  0.11587059656E+04  0.25500000920E-02 0.  1.
    10030    2    1    2    0    0  0.00000000000E+00  0.00000000000E+00 -0.84937058358E+03  0.14680413477E+04  0.11973783906E+04 0.  0.
        2    1    3    3  502    0  0.38350933488E+03 -0.32619299764E+02  0.13754126228E+03  0.40873099650E+03  0.25500000920E-02 0. -1.
       -2    1    3    3    0  502 -0.38350933488E+03  0.32619299764E+02 -0.98691184586E+03  0.10593103512E+04  0.25500000920E-02 0.  1.
</event>
<event>
 5   0  0.1403154E-03  0.1201759E+04  0.7818609E-02  0.9111319E-01
        1   -1    0    0  501    0  0.00000000000E+00  0.00000000000E+00  0.10977690465E+04  0.10977690465E+04  0.50400001928E-02 0. -1.
       -1   -1    0    0    0  501  0.00000000000E+00  0.00000000000E+00 -0.32889979854E+03  0.32889979858E+03  0.50400001928E-02 0.  1.
    10030    2    1    2    0    0  0.00000000000E+00  0.00000000000E+00  0.76886924798E+03  0.14266688451E+04  0.12017587416E+04 0.  0.
        3    1    3    3  502    0  0.58233373411E+03 -0.50816395427E+02  0.54961983881E+03  0.80235706598E+03  0.10100000352E+00 0. -1.
       -3    1    3    3    0  502 -0.58233373411E+03  0.50816395427E+02  0.21924940917E+03  0.62431177912E+03  0.10100000352E+00 0.  1.
</event>
<event>
 5   0  0.2517023E-03  0.1221876E+04  0.7818609E-02  0.9093921E-01
       -2   -1    0    0    0  501  0.00000000000E+00  0.00000000000E+00  0.51134895356E+03  0.51134895356E+03  0.25500000920E-02 0.  1.
        2   -1    0    0  501    0  0.00000000000E+00  0.00000000000E+00 -0.72992321930E+03  0.72992321930E+03  0.25500000920E-02 0. -1.
    10030    2    1    2    0    0  0.00000000000E+00  0.00000000000E+00 -0.21857426574E+03  0.12412721729E+04  0.12218763839E+04 0.  0.
        3    1    3    3  502    0  0.39691434408E+03  0.42730779604E+03 -0.29414410403E+03  0.65318734926E+03  0.10100000352E+00 0. -1.
       -3    1    3    3    0  502 -0.39691434408E+03 -0.42730779604E+03  0.75569838295E+02  0.58808482361E+03  0.10100000352E+00 0.  1.
</event>
<event>
 5   0  0.2499890E-03  0.1187645E+04  0.7818609E-02  0.9123740E-01
       -2   -1    0    0    0  501  0.00000000000E+00  0.00000000000E+00  0.25858045658E+03  0.25858045659E+03  0.25500000920E-02 0. -1.
        2   -1    0    0  501    0  0.00000000000E+00  0.00000000000E+00 -0.13636960438E+04  0.13636960438E+04  0.25500000920E-02 0.  1.
    10030    2    1    2    0    0  0.00000000000E+00  0.00000000000E+00 -0.11051155872E+04  0.16222765004E+04  0.11876449733E+04 0.  0.
        5    1    3    3  502    0  0.21422486944E+03  0.50623092239E+03 -0.24577560085E+03  0.60215428043E+03  0.46999998093E+01 0. -1.
       -5    1    3    3    0  502 -0.21422486944E+03 -0.50623092239E+03 -0.85933998633E+03  0.10201222199E+04  0.46999998093E+01 0.  1.
</event>
<event>
 5   0  0.2580244E-03  0.1209832E+04  0.7818609E-02  0.9104294E-01
        2   -1    0    0  501    0  0.00000000000E+00  0.00000000000E+00  0.83202456250E+03  0.83202456250E+03  0.25500000920E-02 0.  1.
       -2   -1    0    0    0  501  0.00000000000E+00  0.00000000000E+00 -0.43979881203E+03  0.43979881204E+03  0.25500000920E-02 0. -1.
    10030    2    1    2    0    0  0.00000000000E+00  0.00000000000E+00  0.39222575047E+03  0.12718233745E+04  0.12098320779E+04 0.  0.
        1    1    3    3  502    0  0.51255163532E+03  0.12231008004E+03 -0.11618576004E+03  0.53959991235E+03  0.50400001928E-02 0. -1.
       -1    1    3    3    0  502 -0.51255163532E+03 -0.12231008004E+03  0.50841151051E+03  0.73222346219E+03  0.50400001928E-02 0.  1.
</event>
<event>
 5   0  0.1403154E-03  0.1212388E+04  0.7818609E-02  0.9102082E-01
        1   -1    0    0  501    0  0.00000000000E+00  0.00000000000E+00  0.13250679783E+04  0.13250679783E+04  0.50400001928E-02 0.  1.
       -1   -1    0    0    0  501  0.00000000000E+00  0.00000000000E+00 -0.27732246104E+03  0.27732246108E+03  0.50400001928E-02 0. -1.
    10030    2    1    2    0    0  0.00000000000E+00  0.00000000000E+00  0.10477455172E+04  0.16023904394E+04  0.12123879129E+04 0.  0.
        3    1    3    3  502    0  0.35893796807E+03 -0.93004870136E+02  0.11577078063E+04  0.12156371769E+04  0.10100000352E+00 0.  1.
       -3    1    3    3    0  502 -0.35893796807E+03  0.93004870136E+02 -0.10996228912E+03  0.38675326246E+03  0.10100000352E+00 0. -1.
</event>
<event>
 5   0  0.1455076E-03  0.1178089E+04  0.7818609E-02  0.9132254E-01
        1   -1    0    0  501    0  0.00000000000E+00  0.00000000000E+00  0.52831830603E+03  0.52831830605E+03  0.50400001928E-02 0.  1.
       -1   -1    0    0    0  501  0.00000000000E+00  0.00000000000E+00 -0.65675057025E+03  0.65675057027E+03  0.50400001928E-02 0. -1.
    10030    2    1    2    0    0  0.00000000000E+00  0.00000000000E+00 -0.12843226422E+03  0.11850688763E+04  0.11780888740E+04 0.  0.
        4    1    3    3  502    0 -0.51077835741E+03 -0.28362624256E+03 -0.13971653885E+03  0.60071682180E+03  0.12699999809E+01 0. -1.
       -4    1    3    3    0  502  0.51077835741E+03  0.28362624256E+03  0.11284274632E+02  0.58435205452E+03  0.12699999809E+01 0.  1.
</event>
<event>
 5   0  0.1403154E-03  0.1331108E+04  0.7818609E-02  0.9005253E-01
       -1   -1    0    0    0  501  0.00000000000E+00  0.00000000000E+00  0.28090828030E+03  0.28090828034E+03  0.50400001928E-02 0.  1.
        1   -1    0    0  501    0  0.00000000000E+00  0.00000000000E+00 -0.15768926580E+04  0.15768926580E+04  0.50400001928E-02 0. -1.
    10030    2    1    2    0    0  0.00000000000E+00  0.00000000000E+00 -0.12959843777E+04  0.18578009383E+04  0.13311081170E+04 0.  0.
        3    1    3    3  502    0  0.58364170698E+03 -0.30313932500E+03 -0.50544753132E+03  0.82946266318E+03  0.10100000352E+00 0.  1.
       -3    1    3    3    0  502 -0.58364170698E+03  0.30313932500E+03 -0.79053684634E+03  0.10283382751E+04  0.10100000352E+00 0. -1.
</event>
<event>
 5   0  0.2579442E-03  0.1201596E+04  0.7818609E-02  0.9111460E-01
        2   -1    0    0  501    0  0.00000000000E+00  0.00000000000E+00  0.81483487798E+03  0.81483487799E+03  0.25500000920E-02 0. -1.
       -2   -1    0    0    0  501  0.00000000000E+00  0.00000000000E+00 -0.44298360044E+03  0.44298360045E+03  0.25500000920E-02 0.  1.
    10030    2    1    2    0    0  0.00000000000E+00  0.00000000000E+00  0.37185127754E+03  0.12578184784E+04  0.12015964181E+04 0.  0.
        4    1    3    3  502    0  0.36191772909E+03  0.27777505193E+03 -0.22327861550E+03  0.50793540450E+03  0.12699999809E+01 0.  1.
       -4    1    3    3    0  502 -0.36191772909E+03 -0.27777505193E+03  0.59512989304E+03  0.74988307394E+03  0.12699999809E+01 0. -1.
</event>
<event>
 5   0  0.2499890E-03  0.1203703E+04  0.7818609E-02  0.9109622E-01
       -2   -1    0    0    0  501  0.00000000000E+00  0.00000000000E+00  0.62467691183E+03  0.62467691183E+03  0.25500000920E-02 0. -1.
        2   -1    0    0  501    0  0.00000000000E+00  0.00000000000E+00 -0.57985983573E+03  0.57985983574E+03  0.25500000920E-02 0.  1.
    10030    2    1    2    0    0  0.00000000000E+00  0.00000000000E+00  0.44817076095E+02  0.12045367476E+04  0.12037027066E+04 0.  0.
        5    1    3    3  502    0  0.41152612006E+02  0.41149095075E+03 -0.41514106533E+03  0.58598851025E+03  0.46999998093E+01 0.  1.
       -5    1    3    3    0  502 -0.41152612006E+02 -0.41149095075E+03  0.45995814143E+03  0.61854823732E+03  0.46999998093E+01 0. -1.
</event>
<event>
 5   0  0.2484507E-03  0.1191415E+04  0.7818609E-02  0.9120404E-01
        2   -1    0    0  501    0  0.00000000000E+00  0.00000000000E+00  0.11447147151E+04  0.11447147151E+04  0.25500000920E-02 0.  1.
       -2   -1    0    0    0  501  0.00000000000E+00  0.00000000000E+00 -0.31000503021E+03  0.31000503022E+03  0.25500000920E-02 0. -1.
    10030    2    1    2    0    0  0.00000000000E+00  0.00000000000E+00  0.83470968491E+03  0.14547197453E+04  0.11914148226E+04 0.  0.
        2    1    3    3  502    0  0.34449817567E+03  0.45487650568E+03  0.20843970216E+03  0.60748558658E+03  0.25500000920E-02 0. -1.
       -2    1    3    3    0  502 -0.34449817567E+03 -0.45487650568E+03  0.62626998275E+03  0.84723415876E+03  0.25500000920E-02 0.  1.
</event>
<event>
 5   0  0.2517023E-03  0.1206417E+04  0.7818609E-02  0.9107258E-01
        2   -1    0    0  501    0  0.00000000000E+00  0.00000000000E+00  0.10943754598E+04  0.10943754598E+04  0.25500000920E-02 0.  1.
       -2   -1    0    0    0  501  0.00000000000E+00  0.00000000000E+00 -0.33248246375E+03  0.33248246376E+03  0.25500000920E-02 0. -1.
    10030    2    1    2    0    0  0.00000000000E+00  0.00000000000E+00  0.76189299609E+03  0.14268579236E+04  0.12064172564E+04 0.  0.
        3    1    3    3  502    0 -0.21334860497E+03 -0.52641928265E+02  0.10453506092E+04  0.10681978778E+04  0.10100000352E+00 0.  1.
       -3    1    3    3    0  502  0.21334860497E+03  0.52641928265E+02 -0.28345761306E+03  0.35866004581E+03  0.10100000352E+00 0. -1.
</event>
<event>
 5   0  0.2484507E-03  0.1197419E+04  0.7818609E-02  0.9115119E-01
       -2   -1    0    0    0  501  0.00000000000E+00  0.00000000000E+00  0.21529805677E+03  0.21529805678E+03  0.25500000920E-02 0. -1.
        2   -1    0    0  501    0  0.00000000000E+00  0.00000000000E+00 -0.16649149162E+04  0.16649149162E+04  0.25500000920E-02 0.  1.
    10030    2    1    2    0    0  0.00000000000E+00  0.00000000000E+00 -0.14496168595E+04  0.18802129730E+04  0.11974188009E+04 0.  0.
        2    1    3    3  502    0 -0.34177304223E+03 -0.16830627816E+03  0.41836020761E+00  0.38096717797E+03  0.25500000920E-02 0. -1.
       -2    1    3    3    0  502  0.34177304223E+03  0.16830627816E+03 -0.14500352197E+04  0.14992457950E+04  0.25500000920E-02 0.  1.
</event>
<event>
 5   0  0.2517023E-03  0.1189413E+04  0.7818609E-02  0.9122174E-01
       -2   -1    0    0    0  501  0.00000000000E+00  0.00000000000E+00  0.52744528339E+03  0.52744528339E+03  0.25500000920E-02 0.  1.
        2   -1    0    0  501    0  0.00000000000E+00  0.00000000000E+00 -0.67054466881E+03  0.67054466882E+03  0.25500000920E-02 0. -1.
    10030    2    1    2    0    0  0.00000000000E+00  0.00000000000E+00 -0.14309938543E+03  0.11979899522E+04  0.11894126666E+04 0.  0.
        3    1    3    3  502    0 -0.56564058864E+02  0.39512390678E+03 -0.51558395741E+03  0.65203467837E+03  0.10100000352E+00 0. -1.
       -3    1    3    3    0  502  0.56564058864E+02 -0.39512390678E+03  0.37248457198E+03  0.54595527384E+03  0.10100000352E+00 0.  1.
</event>
<event>
 5   0  0.2517023E-03  0.1196259E+04  0.7818609E-02  0.9116137E-01
       -2   -1    0    0    0  501  0.00000000000E+00  0.00000000000E+00  0.93284753891E+03  0.93284753892E+03  0.25500000920E-02 0. -1.
        2   -1    0    0  501    0  0.00000000000E+00  0.00000000000E+00 -0.38351281436E+03  0.38351281437E+03  0.25500000920E-02 0.  1.
    10030    2    1    2    0    0  0.00000000000E+00  0.00000000000E+00  0.54933472455E+03  0.13163603533E+04  0.11962591442E+04 0.  0.
        3    1    3    3  502    0  0.55646416519E+01 -0.28050146889E+03 -0.30661634689E+03  0.41560273540E+03  0.10100000352E+00 0.  1.
       -3    1    3    3    0  502 -0.55646416519E+01  0.28050146889E+03  0.85595107144E+03  0.90075761789E+03  0.10100000352E+00 0. -1.
</event>
<event>
 5   0  0.2579442E-03  0.1205409E+04  0.7818609E-02  0.9108135E-01
       -2   -1    0    0    0  501  0.00000000000E+00  0.00000000000E+00  0.72229699967E+03  0.72229699968E+03  0.25500000920E-02 0.  1.
        2   -1    0    0  501    0  0.00000000000E+00  0.00000000000E+00 -0.50291311073E+03  0.50291311074E+03  0.25500000920E-02 0. -1.
    10030    2    1    2    0    0  0.00000000000E+00  0.00000000000E+00  0.21938388894E+03  0.12252101104E+04  0.12054088617E+04 0.  0.
        4    1    3    3  502    0 -0.37512814403E+03 -0.27002593643E+03 -0.28346418263E+03  0.54220723577E+03  0.12699999809E+01 0. -1.
       -4    1    3    3    0  502  0.37512814403E+03  0.27002593643E+03  0.50284807157E+03  0.68300287464E+03  0.12699999809E+01 0.  1.
</event>
<event>
 5   0  0.1403154E-03  0.1193855E+04  0.7818609E-02  0.9118252E-01
        1   -1    0    0  501    0  0.00000000000E+00  0.00000000000E+00  0.91514446404E+03  0.91514446405E+03  0.50400001928E-02 0.  1.
       -1   -1    0    0    0  501  0.00000000000E+00  0.00000000000E+00 -0.38936210926E+03  0.38936210930E+03  0.50400001928E-02 0. -1.
    10030    2    1    2    0    0  0.00000000000E+00  0.00000000000E+00  0.52578235477E+03  0.13045065733E+04  0.11938552321E+04 0.  0.
        3    1    3    3  502    0  0.33780468138E+03 -0.35175282911E+03 -0.11322158289E+03  0.50066075598E+03  0.10100000352E+00 0. -1.
       -3    1    3    3    0  502 -0.33780468138E+03  0.35175282911E+03  0.63900393766E+03  0.80384581736E+03  0.10100000352E+00 0.  1.
</event>
<event>
 5   0  0.1423024E-03  0.1163450E+04  0.7818609E-02  0.9145464E-01
       -1   -1    0    0    0  501  0.00000000000E+00  0.00000000000E+00  0.66371588357E+03  0.66371588359E+03  0.50400001928E-02 0.  1.
        1   -1    0    0  501    0  0.00000000000E+00  0.00000000000E+00 -0.50986301554E+03  0.50986301557E+03  0.50400001928E-02 0. -1.
    10030    2    1    2    0    0  0.00000000000E+00  0.00000000000E+00  0.15385286802E+03  0.11735788992E+04  0.11634503546E+04 0.  0.
        2    1    3    3  502    0  0.18095810167E+03 -0.42241186403E+02  0.63297308379E+03  0.65968558965E+03  0.25500000920E-02 0.  1.
       -2    1    3    3    0  502 -0.18095810167E+03  0.42241186403E+02 -0.47912021577E+03  0.51389330950E+03  0.25500000920E-02 0. -1.
</event>
<event>
 5   0  0.1423024E-03  0.1213633E+04  0.7818609E-02  0.9101006E-01
       -1   -1    0    0    0  501  0.00000000000E+00  0.00000000000E+00  0.77582663201E+03  0.77582663203E+03  0.50400001928E-02 0.  1.
        1   -1    0    0  501    0  0.00000000000E+00  0.00000000000E+00 -0.47462480283E+03  0.47462480286E+03  0.50400001928E-02 0. -1.
    10030    2    1    2    0    0  0.00000000000E+00  0.00000000000E+00  0.30120182919E+03  0.12504514349E+04  0.12136334904E+04 0.  0.
        2    1    3    3  502    0 -0.52222122976E+03 -0.12814086450E+03  0.44036469293E+03  0.69502241457E+03  0.25500000920E-02 0.  1.
       -2    1    3    3    0  502  0.52222122976E+03  0.12814086450E+03 -0.13916286375E+03  0.55542902032E+03  0.25500000920E-02 0. -1.
</event>
<event>
 5   0  0.1403154E-03  0.1187000E+04  0.7818609E-02  0.9124312E-01
        1   -1    0    0  501    0  0.00000000000E+00  0.00000000000E+00  0.50306012835E+03  0.50306012838E+03  0.50400001928E-02 0.  1.
       -1   -1    0    0    0  501  0.00000000000E+00  0.00000000000E+00 -0.70019870595E+03  0.70019870597E+03  0.50400001928E-02 0. -1.
    10030    2    1    2    0    0  0.00000000000E+00  0.00000000000E+00 -0.19713857760E+03  0.12032588343E+04  0.11869996646E+04 0.  0.
        3    1    3    3  502    0  0.29376850543E+03 -0.24185381245E+03 -0.56027363993E+03  0.67727377270E+03  0.10100000352E+00 0. -1.
       -3    1    3    3    0  502 -0.29376850543E+03  0.24185381245E+03  0.36313506233E+03  0.52598506165E+03  0.10100000352E+00 0.  1.
</event>
<event>
 5   0  0.2580244E-03  0.1227977E+04  0.7818609E-02  0.9088714E-01
       -2   -1    0    0    0  501  0.00000000000E+00  0.00000000000E+00  0.44160106074E+03  0.44160106075E+03  0.25500000920E-02 0.  1.
        2   -1    0    0  501    0  0.00000000000E+00  0.00000000000E+00 -0.85367109374E+03  0.85367109374E+03  0.25500000920E-02 0. -1.
    10030    2    1    2    0    0  0.00000000000E+00  0.00000000000E+00 -0.41207003299E+03  0.12952721545E+04  0.12279772971E+04 0.  0.
        1    1    3    3  502    0  0.37861606463E+03  0.13549150808E+03  0.28336780535E+03  0.49194042962E+03  0.50400001928E-02 0.  1.
       -1    1    3    3    0  502 -0.37861606463E+03 -0.13549150808E+03 -0.69543783835E+03  0.80333172487E+03  0.50400001928E-02 0. -1.
</event>
<event>
 5   0  0.1403154E-03  0.1196936E+04  0.7818609E-02  0.9115543E-01
       -1   -1    0    0    0  501  0.00000000000E+00  0.00000000000E+00  0.69347837956E+03  0.69347837957E+03  0.50400001928E-02 0.  1.
        1   -1    0    0  501    0  0.00000000000E+00  0.00000000000E+00 -0.51647429403E+03  0.51647429405E+03  0.50400001928E-02 0. -1.
    10030    2    1    2    0    0  0.00000000000E+00  0.00000000000E+00  0.17700408553E+03  0.12099526736E+04  0.11969356817E+04 0.  0.
        3    1    3    3  502    0  0.91076586429E+02 -0.52125740910E+03 -0.19410859044E+03  0.56363320185E+03  0.10100000352E+00 0. -1.
       -3    1    3    3    0  502 -0.91076586429E+02  0.52125740910E+03  0.37111267597E+03  0.64631947178E+03  0.10100000352E+00 0.  1.
</event>
<event>
 5   0  0.2517023E-03  0.1202732E+04  0.7818609E-02  0.9110469E-01
        2   -1    0    0  501    0  0.00000000000E+00  0.00000000000E+00  0.51037831028E+03  0.51037831029E+03  0.25500000920E-02 0. -1.
       -2   -1    0    0    0  501  0.00000000000E+00  0.00000000000E+00 -0.70857451176E+03  0.70857451176E+03  0.25500000920E-02 0.  1.
    10030    2    1    2    0    0  0.00000000000E+00  0.00000000000E+00 -0.19819620147E+03  0.12189528221E+04  0.12027319935E+04 0.  0.
        3    1    3    3  502    0 -0.56149669308E+03  0.16534374118E+03 -0.23888566155E+03  0.63220523454E+03  0.10100000352E+00 0.  1.
       -3    1    3    3    0  502  0.56149669308E+03 -0.16534374118E+03  0.40689460076E+02  0.58674758751E+03  0.10100000352E+00 0. -1.
</event>
<event>
 5   0  0.1404833E-03  0.1204903E+04  0.7818609E-02  0.9108576E-01
        1   -1    0    0  501    0  0.00000000000E+00  0.00000000000E+00  0.12251020910E+04  0.12251020910E+04  0.50400001928E-02 0.  1.
       -1   -1    0    0    0  501  0.00000000000E+00  0.00000000000E+00 -0.29625929742E+03  0.29625929746E+03  0.50400001928E-02 0. -1.
    10030    2    1    2    0    0  0.00000000000E+00  0.00000000000E+00  0.92884279360E+03  0.15213613885E+04  0.12049031244E+04 0.  0.
        1    1    3    3  502    0 -0.97652666811E+02  0.54576288085E+03  0.76202674953E+03  0.94237886886E+03  0.50400001928E-02 0.  1.
       -1    1    3    3    0  502  0.97652666811E+02 -0.54576288085E+03  0.16681604407E+03  0.57898251962E+03  0.50400001928E-02 0. -1.
</event>
<event>
 5   0  0.2579442E-03  0.1193990E+04  0.7818609E-02  0.9118133E-01
        2   -1    0    0  501    0  0.00000000000E+00  0.00000000000E+00  0.61778239861E+03  0.61778239862E+03  0.25500000920E-02 0.  1.
       -2   -1    0    0    0  501  0.00000000000E+00  0.00000000000E+00 -0.57690696184E+03  0.57690696184E+03  0.25500000920E-02 0. -1.
    10030    2    1    2    0    0  0.00000000000E+00  0.00000000000E+00  0.40875436777E+02  0.11946893605E+04  0.11939898939E+04 0.  0.
        4    1    3    3  502    0  0.13849910847E+02  0.79530192315E+02  0.61229457861E+03  0.61759463681E+03  0.12699999809E+01 0.  1.
       -4    1    3    3    0  502 -0.13849910847E+02 -0.79530192315E+02 -0.57141914183E+03  0.57709472365E+03  0.12699999809E+01 0. -1.
</event>
<event>
 5   0  0.2579442E-03  0.1206240E+04  0.7818609E-02  0.9107412E-01
        2   -1    0    0  501    0  0.00000000000E+00  0.00000000000E+00  0.18471523732E+04  0.18471523732E+04  0.25500000920E-02 0.  1.
       -2   -1    0    0    0  501  0.00000000000E+00  0.00000000000E+00 -0.19692686532E+03  0.19692686534E+03  0.25500000920E-02 0. -1.
    10030    2    1    2    0    0  0.00000000000E+00  0.00000000000E+00  0.16502255078E+04  0.20440792385E+04  0.12062403187E+04 0.  0.
        4    1    3    3  502    0  0.35784684929E+02  0.11892999456E+03 -0.17502016470E+03  0.21461257706E+03  0.12699999809E+01 0. -1.
       -4    1    3    3    0  502 -0.35784684929E+02 -0.11892999456E+03  0.18252456725E+04  0.18294666614E+04  0.12699999809E+01 0.  1.
</event>
<event>
 5   0  0.1469851E-03  0.1197897E+04  0.7818609E-02  0.9114699E-01
        1   -1    0    0  501    0  0.00000000000E+00  0.00000000000E+00  0.31473919838E+03  0.31473919842E+03  0.50400001928E-02 0.  1.
       -1   -1    0    0    0  501  0.00000000000E+00  0.00000000000E+00 -0.11397992198E+04  0.11397992199E+04  0.50400001928E-02 0. -1.
    10030    2    1    2    0    0  0.00000000000E+00  0.00000000000E+00 -0.82506002146E+03  0.14545384183E+04  0.11978973125E+04 0.  0.
        5    1    3    3  502    0  0.30370266859E+03 -0.15209225515E+03 -0.10115224149E+04  0.10670365742E+04  0.46999998093E+01 0. -1.
       -5    1    3    3    0  502 -0.30370266859E+03  0.15209225515E+03  0.18646239341E+03  0.38750184404E+03  0.46999998093E+01 0.  1.
</event>
<event>
 5   0  0.1403154E-03  0.1201074E+04  0.7818609E-02  0.9111917E-01
       -1   -1    0    0    0  501  0.00000000000E+00  0.00000000000E+00  0.11231827971E+04  0.11231827971E+04  0.50400001928E-02 0.  1.
        1   -1    0    0  501    0  0.00000000000E+00  0.00000000000E+00 -0.32109152294E+03  0.32109152298E+03  0.50400001928E-02 0. -1.
    10030    2    1    2    0    0  0.00000000000E+00  0.00000000000E+00  0.80209127412E+03  0.14442743201E+04  0.12010736445E+04 0.  0.
        3    1    3    3  502    0  0.12148462493E+03  0.42453240581E+03 -0.88379762586E+02  0.45033017922E+03  0.10100000352E+00 0. -1.
       -3    1    3    3    0  502 -0.12148462493E+03 -0.42453240581E+03  0.89047103671E+03  0.99394414084E+03  0.10100000352E+00 0.  1.
</event>
<event>
 5   0  0.1423024E-03  0.1190315E+04  0.7818609E-02  0.9121376E-01
        1   -1    0    0  501    0  0.00000000000E+00  0.00000000000E+00  0.42272783146E+03  0.42272783149E+03  0.50400001928E-02 0. -1.
       -1   -1    0    0    0  501  0.00000000000E+00  0.00000000000E+00 -0.83792109957E+03  0.83792109958E+03  0.50400001928E-02 0.  1.
    10030    2    1    2    0    0  0.00000000000E+00  0.00000000000E+00 -0.41519326810E+03  0.12606489311E+04  0.11903152009E+04 0.  0.
        2    1    3    3  502    0  0.55472624981E+03  0.16790573585E+03 -0.35086361467E+03  0.67750927998E+03  0.25500000920E-02 0.  1.
       -2    1    3    3    0  502 -0.55472624981E+03 -0.16790573585E+03 -0.64329653428E+02  0.58313965109E+03  0.25500000920E-02 0. -1.
</event>
<event>
 5   0  0.2579442E-03  0.1205746E+04  0.7818609E-02  0.9107842E-01
        2   -1    0    0  501    0  0.00000000000E+00  0.00000000000E+00  0.76601183460E+03  0.76601183460E+03  0.25500000920E-02 0.  1.
       -2   -1    0    0    0  501  0.00000000000E+00  0.00000000000E+00 -0.47447774820E+03  0.47447774820E+03  0.25500000920E-02 0. -1.
    10030    2    1    2    0    0  0.00000000000E+00  0.00000000000E+00  0.29153408640E+03  0.12404895828E+04  0.12057455293E+04 0.  0.
        4    1    3    3  502    0  0.18912942533E+03 -0.69864269387E+02  0.73029628692E+03  0.75761813287E+03  0.12699999809E+01 0.  1.
       -4    1    3    3    0  502 -0.18912942533E+03  0.69864269387E+02 -0.43876220052E+03  0.48287144994E+03  0.12699999809E+01 0. -1.
</event>
<event>
 5   0  0.1403154E-03  0.1222037E+04  0.7818609E-02  0.9093784E-01
        1   -1    0    0  501    0  0.00000000000E+00  0.00000000000E+00  0.15375270145E+04  0.15375270145E+04  0.50400001928E-02 0.  1.
       -1   -1    0    0    0  501  0.00000000000E+00  0.00000000000E+00 -0.24282068483E+03  0.24282068489E+03  0.50400001928E-02 0. -1.
    10030    2    1    2    0    0  0.00000000000E+00  0.00000000000E+00  0.12947063297E+04  0.17803476994E+04  0.12220365996E+04 0.  0.
        3    1    3    3  502    0  0.23978543043E+03 -0.37737428472E+02 -0.16956246660E+03  0.29609560353E+03  0.10100000352E+00 0. -1.
       -3    1    3    3    0  502 -0.23978543043E+03  0.37737428472E+02  0.14642687963E+04  0.14842520959E+04  0.10100000352E+00 0.  1.
</event>
<event>
 5   0  0.2484507E-03  0.1187627E+04  0.7818609E-02  0.9123756E-01
       -2   -1    0    0    0  501  0.00000000000E+00  0.00000000000E+00  0.52410849147E+03  0.52410849148E+03  0.25500000920E-02 0. -1.
        2   -1    0    0  501    0  0.00000000000E+00  0.00000000000E+00 -0.67278875278E+03  0.67278875279E+03  0.25500000920E-02 0.  1.
    10030    2    1    2    0    0  0.00000000000E+00  0.00000000000E+00 -0.14868026131E+03  0.11968972443E+04  0.11876267062E+04 0.  0.
        2    1    3    3  502    0 -0.23606391881E+03 -0.53430342258E+03 -0.18198200058E+03  0.61182004681E+03  0.25500000920E-02 0.  1.
       -2    1    3    3    0  502  0.23606391881E+03  0.53430342258E+03  0.33301739270E+02  0.58507719746E+03  0.25500000920E-02 0. -1.
</event>
<event>
 5   0  0.2579442E-03  0.1199824E+04  0.7818609E-02  0.9113011E-01
        2   -1    0    0  501    0  0.00000000000E+00  0.00000000000E+00  0.65519960959E+03  0.65519960960E+03  0.25500000920E-02 0.  1.
       -2   -1    0    0    0  501  0.00000000000E+00  0.00000000000E+00 -0.54928936508E+03  0.54928936509E+03  0.25500000920E-02 0. -1.
    10030    2    1    2    0    0  0.00000000000E+00  0.00000000000E+00  0.10591024451E+03  0.12044889747E+04  0.11998236163E+04 0.  0.
        4    1    3    3  502    0  0.90171141421E+02  0.54600875542E+03 -0.17954024206E+03  0.58180126088E+03  0.12699999809E+01 0. -1.
       -4    1    3    3    0  502 -0.90171141421E+02 -0.54600875542E+03  0.28545048657E+03  0.62268771380E+03  0.12699999809E+01 0.  1.
</event>
<event>
 5   0  0.1469851E-03  0.1201118E+04  0.7818609E-02  0.9111879E-01
       -1   -1    0    0    0  501  0.00000000000E+00  0.00000000000E+00  0.46840723066E+03  0.46840723068E+03  0.50400001928E-02 0.  1.
        1   -1    0    0  501    0  0.00000000000E+00  0.00000000000E+00 -0.76999421192E+03  0.76999421194E+03  0.50400001928E-02 0. -1.
    10030    2    1    2    0    0  0.00000000000E+00  0.00000000000E+00 -0.30158698127E+03  0.12384014426E+04  0.12011175737E+04 0.  0.
        5    1    3    3  502    0  0.10022823166E+03 -0.26127025131E+03 -0.69864497631E+03  0.75261858571E+03  0.46999998093E+01 0. -1.
       -5    1    3    3    0  502 -0.10022823166E+03  0.26127025131E+03  0.39705799504E+03  0.48578285691E+03  0.46999998093E+01 0.  1.
</event>
<event>
 5   0  0.9678750E-04  0.1236215E+04  0.7818609E-02  0.9081735E-01
        4   -1    0    0  501    0  0.00000000000E+00  0.00000000000E+00  0.36306662061E+03  0.36306884182E+03  0.12699999809E+01 0. -1.
       -4   -1    0    0    0  501  0.00000000000E+00  0.00000000000E+00 -0.10522997197E+04  0.10523004861E+04  0.12699999809E+01 0.  1.
    10030    2    1    2    0    0  0.00000000000E+00  0.00000000000E+00 -0.68923309912E+03  0.14153693279E+04  0.12362152197E+04 0.  0.
        3    1    3    3  502    0 -0.55785853753E+03  0.23427951559E+03 -0.48927576857E+03  0.77812841307E+03  0.10100000352E+00 0.  1.
       -3    1    3    3    0  502  0.55785853753E+03 -0.23427951559E+03 -0.19995733055E+03  0.63724091485E+03  0.10100000352E+00 0. -1.
</event>
<event>
 5   0  0.2484507E-03  0.1185297E+04  0.7818609E-02  0.9125825E-01
        2   -1    0    0  501    0  0.00000000000E+00  0.00000000000E+00  0.12377611167E+04  0.12377611167E+04  0.25500000920E-02 0. -1.
       -2   -1    0    0    0  501  0.00000000000E+00  0.00000000000E+00 -0.28376399731E+03  0.28376399732E+03  0.25500000920E-02 0.  1.
    10030    2    1    2    0    0  0.00000000000E+00  0.00000000000E+00  0.95399711943E+03  0.15215251141E+04  0.11852966586E+04 0.  0.
        2    1    3    3  502    0 -0.11723038772E+02  0.29487259850E+03  0.11367389417E+04  0.11744201550E+04  0.25500000920E-02 0. -1.
       -2    1    3    3    0  502  0.11723038772E+02 -0.29487259850E+03 -0.18274182224E+03  0.34710495904E+03  0.25500000920E-02 0.  1.
</event>
<event>
 5   0  0.2517023E-03  0.1199423E+04  0.7818609E-02  0.9113362E-01
       -2   -1    0    0    0  501  0.00000000000E+00  0.00000000000E+00  0.54354526041E+03  0.54354526042E+03  0.25500000920E-02 0.  1.
        2   -1    0    0  501    0  0.00000000000E+00  0.00000000000E+00 -0.66168177842E+03  0.66168177842E+03  0.25500000920E-02 0. -1.
    10030    2    1    2    0    0  0.00000000000E+00  0.00000000000E+00 -0.11813651800E+03  0.12052270388E+04  0.11994231856E+04 0.  0.
        3    1    3    3  502    0  0.40425952363E+03 -0.57101789382E+02 -0.50047466616E+03  0.64588023539E+03  0.10100000352E+00 0. -1.
       -3    1    3    3    0  502 -0.40425952363E+03  0.57101789382E+02  0.38233814816E+03  0.55934680345E+03  0.10100000352E+00 0.  1.
</event>
<event>
 5   0  0.2499890E-03  0.1204340E+04  0.7818609E-02  0.9109067E-01
        2   -1    0    0  501    0  0.00000000000E+00  0.00000000000E+00  0.16226668502E+04  0.16226668502E+04  0.25500000920E-02 0. -1.
       -2   -1    0    0    0  501  0.00000000000E+00  0.00000000000E+00 -0.22346449623E+03  0.22346449625E+03  0.25500000920E-02 0.  1.
    10030    2    1    2    0    0  0.00000000000E+00  0.00000000000E+00  0.13992023539E+04  0.18461313464E+04  0.12043395372E+04 0.  0.
        5    1    3    3  502    0 -0.49545712468E+03 -0.32508868317E+03  0.53574630672E+03  0.79887834461E+03  0.46999998093E+01 0.  1.
       -5    1    3    3    0  502  0.49545712468E+03  0.32508868317E+03  0.86345604723E+03  0.10472530018E+04  0.46999998093E+01 0. -1.
</event>
<event>
 5   0  0.1423024E-03  0.1187826E+04  0.7818609E-02  0.9123580E-01
        1   -1    0    0  501    0  0.00000000000E+00  0.00000000000E+00  0.24691462441E+03  0.24691462446E+03  0.50400001928E-02 0.  1.
       -1   -1    0    0    0  501  0.00000000000E+00  0.00000000000E+00 -0.14285611484E+04  0.14285611484E+04  0.50400001928E-02 0. -1.
    10030    2    1    2    0    0  0.00000000000E+00  0.00000000000E+00 -0.11816465240E+04  0.16754757729E+04  0.11878259796E+04 0.  0.
        2    1    3    3  502    0  0.45727173205E+03  0.24924645201E+03 -0.99353522592E+03  0.11217546416E+04  0.25500000920E-02 0. -1.
       -2    1    3    3    0  502 -0.45727173205E+03 -0.24924645201E+03 -0.18811129808E+03  0.55372113130E+03  0.25500000920E-02 0.  1.
</event>
<event>
 5   0  0.2484507E-03  0.1204476E+04  0.7818609E-02  0.9108948E-01
        2   -1    0    0  501    0  0.00000000000E+00  0.00000000000E+00  0.75322091491E+03  0.75322091492E+03  0.25500000920E-02 0. -1.
       -2   -1    0    0    0  501  0.00000000000E+00  0.00000000000E+00 -0.48151919960E+03  0.48151919960E+03  0.25500000920E-02 0.  1.
    10030    2    1    2    0    0  0.00000000000E+00  0.00000000000E+00  0.27170171532E+03  0.12347401145E+04  0.12044755408E+04 0.  0.
        2    1    3    3  502    0  0.11637725293E+03  0.59058339532E+03  0.11645670995E+03  0.61310241977E+03  0.25500000920E-02 0. -1.
       -2    1    3    3    0  502 -0.11637725293E+03 -0.59058339532E+03  0.15524500537E+03  0.62163769475E+03  0.25500000920E-02 0.  1.
</event>
<event>
 5   0  0.1423024E-03  0.1202967E+04  0.7818609E-02  0.9110264E-01
        1   -1    0    0  501    0  0.00000000000E+00  0.00000000000E+00  0.61167730280E+03  0.61167730282E+03  0.50400001928E-02 0.  1.
       -1   -1    0    0    0  501  0.00000000000E+00  0.00000000000E+00 -0.59145913764E+03  0.59145913766E+03  0.50400001928E-02 0. -1.
    10030    2    1    2    0    0  0.00000000000E+00  0.00000000000E+00  0.20218165158E+02  0.12031364405E+04  0.12029665499E+04 0.  0.
        2    1    3    3  502    0  0.22780003308E+02 -0.51082169826E+03  0.32689407746E+03  0.60689164918E+03  0.25500000920E-02 0.  1.
       -2    1    3    3    0  502 -0.22780003308E+02  0.51082169826E+03 -0.30667591230E+03  0.59624479130E+03  0.25500000920E-02 0. -1.
</event>
<event>
 5   0  0.2499890E-03  0.1197261E+04  0.7818609E-02  0.9115257E-01
        2   -1    0    0  501    0  0.00000000000E+00  0.00000000000E+00  0.84486738918E+03  0.84486738918E+03  0.25500000920E-02 0. -1.
       -2   -1    0    0    0  501  0.00000000000E+00  0.00000000000E+00 -0.42415960329E+03  0.42415960330E+03  0.25500000920E-02 0.  1.
    10030    2    1    2    0    0  0.00000000000E+00  0.00000000000E+00  0.42070778589E+03  0.12690269925E+04  0.11972612357E+04 0.  0.
        5    1    3    3  502    0  0.41459007090E+03 -0.41986063822E+02  0.66586836884E+03  0.78552563998E+03  0.46999998093E+01 0. -1.
       -5    1    3    3    0  502 -0.41459007090E+03  0.41986063822E+02 -0.24516058294E+03  0.48350135251E+03  0.46999998093E+01 0.  1.
</event>
<event>
 5   0  0.1404833E-03  0.1244566E+04  0.7818609E-02  0.9074718E-01
       -1   -1    0    0    0  501  0.00000000000E+00  0.00000000000E+00  0.32069924219E+03  0.32069924223E+03  0.50400001928E-02 0.  1.
        1   -1    0    0  501    0  0.00000000000E+00  0.00000000000E+00 -0.12074736077E+04  0.12074736077E+04  0.50400001928E-02 0. -1.
    10030    2    1    2    0    0  0.00000000000E+00  0.00000000000E+00 -0.88677436553E+03  0.15281728500E+04  0.12445655804E+04 0.  0.
        1    1    3    3  502    0  0.10394411413E+03 -0.23181867187E+03  0.25411973743E+03  0.35933426843E+03  0.50400001928E-02 0.  1.
       -1    1    3    3    0  502 -0.10394411413E+03  0.23181867187E+03 -0.11408941030E+04  0.11688385815E+04  0.50400001928E-02 0. -1.
</event>
<event>
 5   0  0.1423024E-03  0.1177204E+04  0.7818609E-02  0.9133047E-01
       -1   -1    0    0    0  501  0.00000000000E+00  0.00000000000E+00  0.10183247804E+04  0.10183247804E+04  0.50400001928E-02 0. -1.
        1   -1    0    0  501    0  0.00000000000E+00  0.00000000000E+00 -0.34021770576E+03  0.34021770580E+03  0.50400001928E-02 0.  1.
    10030    2    1    2    0    0  0.00000000000E+00  0.00000000000E+00  0.67810707468E+03  0.13585424862E+04  0.11772036707E+04 0.  0.
        2    1    3    3  502    0  0.29306794337E+03 -0.38407853426E+03 -0.48963772976E+02  0.48559508953E+03  0.25500000920E-02 0.  1.
       -2    1    3    3    0  502 -0.29306794337E+03  0.38407853426E+03  0.72707084765E+03  0.87294739671E+03  0.25500000920E-02 0. -1.
</event>
<event>
 5   0  0.1404833E-03  0.1211111E+04  0.7818609E-02  0.9103187E-01
        1   -1    0    0  501    0  0.00000000000E+00  0.00000000000E+00  0.56431816386E+03  0.56431816389E+03  0.50400001928E-02 0. -1.
       -1   -1    0    0    0  501  0.00000000000E+00  0.00000000000E+00 -0.64980586188E+03  0.64980586190E+03  0.50400001928E-02 0.  1.
    10030    2    1    2    0    0  0.00000000000E+00  0.00000000000E+00 -0.85487698015E+02  0.12141240258E+04  0.12111106487E+04 0.  0.
        1    1    3    3  502    0  0.20551663593E+03 -0.18992855436E+03 -0.58109705249E+03  0.64496800528E+03  0.50400001928E-02 0.  1.
       -1    1    3    3    0  502 -0.20551663593E+03  0.18992855436E+03  0.49560935447E+03  0.56915602050E+03  0.50400001928E-02 0. -1.
</event>
<event>
 5   0  0.2499890E-03  0.1200405E+04  0.7818609E-02  0.9112502E-01
       -2   -1    0    0    0  501  0.00000000000E+00  0.00000000000E+00  0.36661098786E+03  0.36661098787E+03  0.25500000920E-02 0. -1.
        2   -1    0    0  501    0  0.00000000000E+00  0.00000000000E+00 -0.98262984594E+03  0.98262984595E+03  0.25500000920E-02 0.  1.
    10030    2    1    2    0    0  0.00000000000E+00  0.00000000000E+00 -0.61601885808E+03  0.13492408338E+04  0.12004047626E+04 0.  0.
        5    1    3    3  502    0  0.10485749770E+03 -0.34225088848E+03  0.23348004774E+03  0.42739418361E+03  0.46999998093E+01 0. -1.
       -5    1    3    3    0  502 -0.10485749770E+03  0.34225088848E+03 -0.84949890583E+03  0.92184665020E+03  0.46999998093E+01 0.  1.
</event>
<event>
 5   0  0.1469851E-03  0.1160447E+04  0.7818609E-02  0.9148200E-01
        1   -1    0    0  501    0  0.00000000000E+00  0.00000000000E+00  0.53506219604E+03  0.53506219607E+03  0.50400001928E-02 0. -1.
       -1   -1    0    0    0  501  0.00000000000E+00  0.00000000000E+00 -0.62919632719E+03  0.62919632721E+03  0.50400001928E-02 0.  1.
    10030    2    1    2    0    0  0.00000000000E+00  0.00000000000E+00 -0.94134131143E+02  0.11642585233E+04  0.11604467564E+04 0.  0.
        5    1    3    3  502    0 -0.30391757345E+03  0.44232401352E+03  0.17415813936E+03  0.56424247615E+03  0.46999998093E+01 0. -1.
       -5    1    3    3    0  502  0.30391757345E+03 -0.44232401352E+03 -0.26829227051E+03  0.60001604712E+03  0.46999998093E+01 0.  1.
</event>
<event>
 5   0  0.1403154E-03  0.1217969E+04  0.7818609E-02  0.9097272E-01
        1   -1    0    0  501    0  0.00000000000E+00  0.00000000000E+00  0.11010240992E+04  0.11010240992E+04  0.50400001928E-02 0. -1.
       -1   -1    0    0    0  501  0.00000000000E+00  0.00000000000E+00 -0.33683387639E+03  0.33683387643E+03  0.50400001928E-02 0.  1.
    10030    2    1    2    0    0  0.00000000000E+00  0.00000000000E+00  0.76419022277E+03  0.14378579756E+04  0.12179691545E+04 0.  0.
        3    1    3    3  502    0 -0.55154248269E+03  0.12999434927E+03  0.11874118171E+03  0.57896210540E+03  0.10100000352E+00 0.  1.
       -3    1    3    3    0  502  0.55154248269E+03 -0.12999434927E+03  0.64544904106E+03  0.85889587020E+03  0.10100000352E+00 0. -1.
</event>
<event>
 5   0  0.2580244E-03  0.1201338E+04  0.7818609E-02  0.9111686E-01
        2   -1    0    0  501    0  0.00000000000E+00  0.00000000000E+00  0.14962423432E+04  0.14962423432E+04  0.25500000920E-02 0.  1.
       -2   -1    0    0    0  501  0.00000000000E+00  0.00000000000E+00 -0.24113959019E+03  0.24113959021E+03  0.25500000920E-02 0. -1.
    10030    2    1    2    0    0  0.00000000000E+00  0.00000000000E+00  0.12551027530E+04  0.17373819334E+04  0.12013380298E+04 0.  0.
        1    1    3    3  502    0 -0.28038370504E+03 -0.40537461887E+03  0.11240438519E+04  0.12273622875E+04  0.50400001928E-02 0. -1.
       -1    1    3    3    0  502  0.28038370504E+03  0.40537461887E+03  0.13105890112E+03  0.51001964596E+03  0.50400001928E-02 0.  1.
</event>
<event>
 5   0  0.1404833E-03  0.1203161E+04  0.7818609E-02  0.9110094E-01
        1   -1    0    0  501    0  0.00000000000E+00  0.00000000000E+00  0.57153279983E+03  0.57153279985E+03  0.50400001928E-02 0. -1.
       -1   -1    0    0    0  501  0.00000000000E+00  0.00000000000E+00 -0.63320827187E+03  0.63320827189E+03  0.50400001928E-02 0.  1.
    10030    2    1    2    0    0  0.00000000000E+00  0.00000000000E+00 -0.61675472043E+02  0.12047410717E+04  0.12031613300E+04 0.  0.
        1    1    3    3  502    0 -0.15271541349E+03 -0.11896833781E+03  0.53949227804E+03  0.57317308120E+03  0.50400001928E-02 0. -1.
       -1    1    3    3    0  502  0.15271541349E+03  0.11896833781E+03 -0.60116775008E+03  0.63156799055E+03  0.50400001928E-02 0.  1.
</event>
<event>
 5   0  0.2517023E-03  0.1187036E+04  0.7818609E-02  0.9124280E-01
        2   -1    0    0  501    0  0.00000000000E+00  0.00000000000E+00  0.11396376491E+04  0.11396376491E+04  0.25500000920E-02 0.  1.
       -2   -1    0    0    0  501  0.00000000000E+00  0.00000000000E+00 -0.30910151612E+03  0.30910151613E+03  0.25500000920E-02 0. -1.
    10030    2    1    2    0    0  0.00000000000E+00  0.00000000000E+00  0.83053613297E+03  0.14487391652E+04  0.11870361834E+04 0.  0.
        3    1    3    3  502    0 -0.46190723930E+03 -0.34698967372E+03  0.58128568002E+03  0.81954449750E+03  0.10100000352E+00 0.  1.
       -3    1    3    3    0  502  0.46190723930E+03  0.34698967372E+03  0.24925045295E+03  0.62919466772E+03  0.10100000352E+00 0. -1.
</event>
<event>
 5   0  0.1404833E-03  0.1204173E+04  0.7818609E-02  0.9109212E-01
       -1   -1    0    0    0  501  0.00000000000E+00  0.00000000000E+00  0.42943019314E+03  0.42943019317E+03  0.50400001928E-02 0. -1.
        1   -1    0    0  501    0  0.00000000000E+00  0.00000000000E+00 -0.84416113288E+03  0.84416113289E+03  0.50400001928E-02 0.  1.
    10030    2    1    2    0    0  0.00000000000E+00  0.00000000000E+00 -0.41473093974E+03  0.12735913261E+04  0.12041732074E+04 0.  0.
        1    1    3    3  502    0 -0.87508157815E+02  0.29325085691E+03  0.34103752303E+03  0.45821428928E+03  0.50400001928E-02 0. -1.
       -1    1    3    3    0  502  0.87508157815E+02 -0.29325085691E+03 -0.75576846277E+03  0.81537703678E+03  0.50400001928E-02 0.  1.
</event>
<event>
 5   0  0.1455076E-03  0.1146548E+04  0.7818609E-02  0.9160974E-01
        1   -1    0    0  501    0  0.00000000000E+00  0.00000000000E+00  0.14073538471E+04  0.14073538471E+04  0.50400001928E-02 0.  1.
       -1   -1    0    0    0  501  0.00000000000E+00  0.00000000000E+00 -0.23351848613E+03  0.23351848618E+03  0.50400001928E-02 0. -1.
    10030    2    1    2    0    0  0.00000000000E+00  0.00000000000E+00  0.11738353610E+04  0.16408723333E+04  0.11465481060E+04 0.  0.
        4    1    3    3  502    0 -0.37717261876E+02 -0.13368160142E+03 -0.20906988411E+03  0.25100834995E+03  0.12699999809E+01 0. -1.
       -4    1    3    3    0  502  0.37717261876E+02  0.13368160142E+03  0.13829052451E+04  0.13898639833E+04  0.12699999809E+01 0.  1.
</event>
<event>
 5   0  0.2580244E-03  0.1204219E+04  0.7818609E-02  0.9109172E-01
        2   -1    0    0  501    0  0.00000000000E+00  0.00000000000E+00  0.86253313454E+03  0.86253313455E+03  0.25500000920E-02 0.  1.
       -2   -1    0    0    0  501  0.00000000000E+00  0.00000000000E+00 -0.42031521810E+03  0.42031521810E+03  0.25500000920E-02 0. -1.
    10030    2    1    2    0    0  0.00000000000E+00  0.00000000000E+00  0.44221791645E+03  0.12828483526E+04  0.12042189212E+04 0.  0.
        1    1    3    3  502    0 -0.48364925625E+03 -0.35745973879E+03  0.25201600205E+03  0.65207831833E+03  0.50400001928E-02 0.  1.
       -1    1    3    3    0  502  0.48364925625E+03  0.35745973879E+03  0.19020191440E+03  0.63077003432E+03  0.50400001928E-02 0. -1.
</event>
<event>
 5   0  0.1404833E-03  0.1205250E+04  0.7818609E-02  0.9108273E-01
       -1   -1    0    0    0  501  0.00000000000E+00  0.00000000000E+00  0.18267324246E+03  0.18267324253E+03  0.50400001928E-02 0. -1.
        1   -1    0    0  501    0  0.00000000000E+00  0.00000000000E+00 -0.19880150763E+04  0.19880150763E+04  0.50400001928E-02 0.  1.
    10030    2    1    2    0    0  0.00000000000E+00  0.00000000000E+00 -0.18053418338E+04  0.21706883188E+04  0.12052504472E+04 0.  0.
        1    1    3    3  502    0 -0.20212628750E+03  0.54980843080E+03 -0.64788569111E+03  0.87344159247E+03  0.50400001928E-02 0. -1.
       -1    1    3    3    0  502  0.20212628750E+03 -0.54980843080E+03 -0.11574561427E+04  0.12972467263E+04  0.50400001928E-02 0.  1.
</event>
<event>
 5   0  0.1404833E-03  0.1168859E+04  0.7818609E-02  0.9140559E-01
       -1   -1    0    0    0  501  0.00000000000E+00  0.00000000000E+00  0.25938265925E+03  0.25938265930E+03  0.50400001928E-02 0.  1.
        1   -1    0    0  501    0  0.00000000000E+00  0.00000000000E+00 -0.13168107940E+04  0.13168107940E+04  0.50400001928E-02 0. -1.
    10030    2    1    2    0    0  0.00000000000E+00  0.00000000000E+00 -0.10574281348E+04  0.15761934533E+04  0.11688590771E+04 0.  0.
        1    1    3    3  502    0  0.27325835615E+02  0.57957666997E+03 -0.62312820354E+03  0.85143677143E+03  0.50400001928E-02 0. -1.
       -1    1    3    3    0  502 -0.27325835615E+02 -0.57957666997E+03 -0.43429993121E+03  0.72475668189E+03  0.50400001928E-02 0.  1.
</event>
<event>
 5   0  0.2517023E-03  0.1206208E+04  0.7818609E-02  0.9107440E-01
        2   -1    0    0  501    0  0.00000000000E+00  0.00000000000E+00  0.12303406520E+04  0.12303406520E+04  0.25500000920E-02 0. -1.
       -2   -1    0    0    0  501  0.00000000000E+00  0.00000000000E+00 -0.29563716482E+03  0.29563716483E+03  0.25500000920E-02 0.  1.
    10030    2    1    2    0    0  0.00000000000E+00  0.00000000000E+00  0.93470348717E+03  0.15259778168E+04  0.12062079790E+04 0.  0.
        3    1    3    3  502    0  0.15576564459E+03 -0.18546860889E+03  0.11661113925E+04  0.11909984596E+04  0.10100000352E+00 0. -1.
       -3    1    3    3    0  502 -0.15576564459E+03  0.18546860889E+03 -0.23140790532E+03  0.33497935722E+03  0.10100000352E+00 0.  1.
</event>
<event>
 5   0  0.2499890E-03  0.1209439E+04  0.7818609E-02  0.9104634E-01
       -2   -1    0    0    0  501  0.00000000000E+00  0.00000000000E+00  0.36872528428E+03  0.36872528429E+03  0.25500000920E-02 0. -1.
        2   -1    0    0  501    0  0.00000000000E+00  0.00000000000E+00 -0.99175715199E+03  0.99175715199E+03  0.25500000920E-02 0.  1.
    10030    2    1    2    0    0  0.00000000000E+00  0.00000000000E+00 -0.62303186771E+03  0.13604824363E+04  0.12094394368E+04 0.  0.
        5    1    3    3  502    0  0.14537108613E+03  0.58691814137E+03 -0.30293499742E+03  0.67631158501E+03  0.46999998093E+01 0. -1.
       -5    1    3    3    0  502 -0.14537108613E+03 -0.58691814137E+03 -0.32009687029E+03  0.68417085127E+03  0.46999998093E+01 0.  1.
</event>
<event>
 5   0  0.2484507E-03  0.1204921E+04  0.7818609E-02  0.9108560E-01
       -2   -1    0    0    0  501  0.00000000000E+00  0.00000000000E+00  0.32584733669E+03  0.32584733670E+03  0.25500000920E-02 0.  1.
        2   -1    0    0  501    0  0.00000000000E+00  0.00000000000E+00 -0.11138923665E+04  0.11138923665E+04  0.25500000920E-02 0. -1.
    10030    2    1    2    0    0  0.00000000000E+00  0.00000000000E+00 -0.78804502983E+03  0.14397397032E+04  0.12049213435E+04 0.  0.
        2    1    3    3  502    0 -0.27962411093E+03  0.51394169773E+03 -0.56565837878E+03  0.81381515934E+03  0.25500000920E-02 0.  1.
       -2    1    3    3    0  502  0.27962411093E+03 -0.51394169773E+03 -0.22238665106E+03  0.62592454390E+03  0.25500000920E-02 0. -1.
</event>
<event>
 5   0  0.2484507E-03  0.1205364E+04  0.7818609E-02  0.9108174E-01
        2   -1    0    0  501    0  0.00000000000E+00  0.00000000000E+00  0.14730115151E+04  0.14730115151E+04  0.25500000920E-02 0. -1.
       -2   -1    0    0    0  501  0.00000000000E+00  0.00000000000E+00 -0.24658725019E+03  0.24658725020E+03  0.25500000920E-02 0.  1.
    10030    2    1    2    0    0  0.00000000000E+00  0.00000000000E+00  0.12264242649E+04  0.17195987653E+04  0.12053644412E+04 0.  0.
        2    1    3    3  502    0 -0.18426544992E+03  0.26485671969E+03 -0.11299707064E+03  0.34186426543E+03  0.25500000920E-02 0.  1.
       -2    1    3    3    0  502  0.18426544992E+03 -0.26485671969E+03  0.13394213356E+04  0.13777344999E+04  0.25500000920E-02 0. -1.
</event>
<event>
 5   0  0.2517023E-03  0.1195187E+04  0.7818609E-02  0.9117080E-01
       -2   -1    0    0    0  501  0.00000000000E+00  0.00000000000E+00  0.44178938457E+03  0.44178938458E+03  0.25500000920E-02 0. -1.
        2   -1    0    0  501    0  0.00000000000E+00  0.00000000000E+00 -0.80834418196E+03  0.80834418197E+03  0.25500000920E-02 0.  1.
    10030    2    1    2    0    0  0.00000000000E+00  0.00000000000E+00 -0.36655479739E+03  0.12501335665E+04  0.11951868116E+04 0.  0.
        3    1    3    3  502    0 -0.24744481715E+03  0.97825541530E+02 -0.74296512084E+03  0.78917422354E+03  0.10100000352E+00 0.  1.
       -3    1    3    3    0  502  0.24744481715E+03 -0.97825541530E+02  0.37641032345E+03  0.46095934301E+03  0.10100000352E+00 0. -1.
</event>
<event>
 5   0  0.1423024E-03  0.1207484E+04  0.7818609E-02  0.9106331E-01
        1   -1    0    0  501    0  0.00000000000E+00  0.00000000000E+00  0.67450274056E+03  0.67450274058E+03  0.50400001928E-02 0.  1.
       -1   -1    0    0    0  501  0.00000000000E+00  0.00000000000E+00 -0.54040445056E+03  0.54040445058E+03  0.50400001928E-02 0. -1.
    10030    2    1    2    0    0  0.00000000000E+00  0.00000000000E+00  0.13409829000E+03  0.12149071912E+04  0.12074838019E+04 0.  0.
        2    1    3    3  502    0 -0.25790241633E+03  0.30642303843E+03  0.52159589302E+03  0.65762528119E+03  0.25500000920E-02 0.  1.
       -2    1    3    3    0  502  0.25790241633E+03 -0.30642303843E+03 -0.38749760302E+03  0.55728190998E+03  0.25500000920E-02 0. -1.
</event>
<event>
 5   0  0.2580244E-03  0.1227290E+04  0.7818609E-02  0.9089300E-01
       -2   -1    0    0    0  501  0.00000000000E+00  0.00000000000E+00  0.52200191242E+03  0.52200191242E+03  0.25500000920E-02 0. -1.
        2   -1    0    0  501    0  0.00000000000E+00  0.00000000000E+00 -0.72137679146E+03  0.72137679146E+03  0.25500000920E-02 0.  1.
    10030    2    1    2    0    0  0.00000000000E+00  0.00000000000E+00 -0.19937487904E+03  0.12433787039E+04  0.12272898023E+04 0.  0.
        1    1    3    3  502    0  0.30052184408E+03 -0.36009794362E+03 -0.50057180005E+03  0.68597087023E+03  0.50400001928E-02 0.  1.
       -1    1    3    3    0  502 -0.30052184408E+03  0.36009794362E+03  0.30119692101E+03  0.55740783366E+03  0.50400001928E-02 0. -1.
</event>
<event>
 5   0  0.1404833E-03  0.1192041E+04  0.7818609E-02  0.9119852E-01
        1   -1    0    0  501    0  0.00000000000E+00  0.00000000000E+00  0.82392911421E+03  0.82392911422E+03  0.50400001928E-02 0. -1.
       -1   -1    0    0    0  501  0.00000000000E+00  0.00000000000E+00 -0.43115404955E+03  0.43115404958E+03  0.50400001928E-02 0.  1.
    10030    2    1    2    0    0  0.00000000000E+00  0.00000000000E+00  0.39277506466E+03  0.12550831638E+04  0.11920408955E+04 0.  0.
        1    1    3    3  502    0  0.55874671701E+03  0.20748850361E+01 -0.22040449651E+02  0.55918510384E+03  0.50400001928E-02 0.  1.
       -1    1    3    3    0  502 -0.55874671701E+03 -0.20748850361E+01  0.41481551431E+03  0.69589805996E+03  0.50400001928E-02 0. -1.
</event>
<event>
 5   0  0.1403154E-03  0.1200518E+04  0.7818609E-02  0.9112403E-01
        1   -1    0    0  501    0  0.00000000000E+00  0.00000000000E+00  0.63742492004E+03  0.63742492006E+03  0.50400001928E-02 0. -1.
       -1   -1    0    0    0  501  0.00000000000E+00  0.00000000000E+00 -0.56525989851E+03  0.56525989854E+03  0.50400001928E-02 0.  1.
    10030    2    1    2    0    0  0.00000000000E+00  0.00000000000E+00  0.72165021522E+02  0.12026848186E+04  0.12005177977E+04 0.  0.
        3    1    3    3  502    0 -0.53426635292E+03 -0.26911840014E+03  0.85623633062E+02  0.60431503862E+03  0.10100000352E+00 0. -1.
       -3    1    3    3    0  502  0.53426635292E+03  0.26911840014E+03 -0.13458611539E+02  0.59836977997E+03  0.10100000352E+00 0.  1.
</event>
<event>
 5   0  0.1455076E-03  0.1206778E+04  0.7818609E-02  0.9106944E-01
        1   -1    0    0  501    0  0.00000000000E+00  0.00000000000E+00  0.21546981273E+04  0.21546981273E+04  0.50400001928E-02 0.  1.
       -1   -1    0    0    0  501  0.00000000000E+00  0.00000000000E+00 -0.16896960345E+03  0.16896960353E+03  0.50400001928E-02 0. -1.
    10030    2    1    2    0    0  0.00000000000E+00  0.00000000000E+00  0.19857285238E+04  0.23236677308E+04  0.12067783363E+04 0.  0.
        4    1    3    3  502    0  0.14564460263E+03  0.28534736721E+03  0.83234895206E+01  0.32047833566E+03  0.12699999809E+01 0. -1.
       -4    1    3    3    0  502 -0.14564460263E+03 -0.28534736721E+03  0.19774050343E+04  0.20031893951E+04  0.12699999809E+01 0.  1.
</event>
<event>
 5   0  0.2579442E-03  0.1227181E+04  0.7818609E-02  0.9089392E-01
        2   -1    0    0  501    0  0.00000000000E+00  0.00000000000E+00  0.21980522367E+04  0.21980522367E+04  0.25500000920E-02 0.  1.
       -2   -1    0    0    0  501  0.00000000000E+00  0.00000000000E+00 -0.17128508906E+03  0.17128508908E+03  0.25500000920E-02 0. -1.
    10030    2    1    2    0    0  0.00000000000E+00  0.00000000000E+00  0.20267671476E+04  0.23693373258E+04  0.12271814424E+04 0.  0.
        4    1    3    3  502    0 -0.12864155764E+03  0.19077034625E+03 -0.84835061797E+02  0.24523575590E+03  0.12699999809E+01 0. -1.
       -4    1    3    3    0  502  0.12864155764E+03 -0.19077034625E+03  0.21116022094E+04  0.21241015699E+04  0.12699999809E+01 0.  1.
</event>
<event>
 5   0  0.1403154E-03  0.1213932E+04  0.7818609E-02  0.9100749E-01
       -1   -1    0    0    0  501  0.00000000000E+00  0.00000000000E+00  0.21297581866E+03  0.21297581872E+03  0.50400001928E-02 0.  1.
        1   -1    0    0  501    0  0.00000000000E+00  0.00000000000E+00 -0.17298101332E+04  0.17298101332E+04  0.50400001928E-02 0. -1.
    10030    2    1    2    0    0  0.00000000000E+00  0.00000000000E+00 -0.15168343145E+04  0.19427859519E+04  0.12139320068E+04 0.  0.
        3    1    3    3  502    0  0.35883247714E+03  0.43434044424E+03 -0.11198235952E+04  0.12535618304E+04  0.10100000352E+00 0. -1.
       -3    1    3    3    0  502 -0.35883247714E+03 -0.43434044424E+03 -0.39701071929E+03  0.68922412145E+03  0.10100000352E+00 0.  1.
</event>
<event>
 5   0  0.2499890E-03  0.1196272E+04  0.7818609E-02  0.9116126E-01
        2   -1    0    0  501    0  0.00000000000E+00  0.00000000000E+00  0.42042400168E+03  0.42042400169E+03  0.25500000920E-02 0.  1.
       -2   -1    0    0    0  501  0.00000000000E+00  0.00000000000E+00 -0.85096693303E+03  0.85096693304E+03  0.25500000920E-02 0. -1.
    10030    2    1    2    0    0  0.00000000000E+00  0.00000000000E+00 -0.43054293135E+03  0.12713909347E+04  0.11962724160E+04 0.  0.
        5    1    3    3  502    0  0.30239991349E+03 -0.45122746947E+03 -0.48137962388E+03  0.72581014677E+03  0.46999998093E+01 0. -1.
       -5    1    3    3    0  502 -0.30239991349E+03  0.45122746947E+03  0.50836692529E+02  0.54558078795E+03  0.46999998093E+01 0.  1.
</event>
<event>
 5   0  0.1403154E-03  0.1199319E+04  0.7818609E-02  0.9113453E-01
       -1   -1    0    0    0  501  0.00000000000E+00  0.00000000000E+00  0.39851695853E+03  0.39851695856E+03  0.50400001928E-02 0.  1.
        1   -1    0    0  501    0  0.00000000000E+00  0.00000000000E+00 -0.90232352142E+03  0.90232352144E+03  0.50400001928E-02 0. -1.
    10030    2    1    2    0    0  0.00000000000E+00  0.00000000000E+00 -0.50380656290E+03  0.13008404800E+04  0.11993185155E+04 0.  0.
        3    1    3    3  502    0 -0.44803050236E+03  0.13346734696E+02  0.18016560493E+03  0.48308293467E+03  0.10100000352E+00 0.  1.
       -3    1    3    3    0  502  0.44803050236E+03 -0.13346734696E+02 -0.68397216783E+03  0.81775754532E+03  0.10100000352E+00 0. -1.
</event>
<event>
 5   0  0.2580244E-03  0.1258168E+04  0.7818609E-02  0.9063412E-01
       -2   -1    0    0    0  501  0.00000000000E+00  0.00000000000E+00  0.24967150485E+03  0.24967150486E+03  0.25500000920E-02 0. -1.
        2   -1    0    0  501    0  0.00000000000E+00  0.00000000000E+00 -0.15850697964E+04  0.15850697964E+04  0.25500000920E-02 0.  1.
    10030    2    1    2    0    0  0.00000000000E+00  0.00000000000E+00 -0.13353982916E+04  0.18347413013E+04  0.12581681309E+04 0.  0.
        1    1    3    3  502    0  0.46346140045E+03 -0.30322836611E+03 -0.11027480838E+04  0.12340167130E+04  0.50400001928E-02 0.  1.
       -1    1    3    3    0  502 -0.46346140045E+03  0.30322836611E+03 -0.23265020780E+03  0.60072458826E+03  0.50400001928E-02 0. -1.
</event>
<event>
 5   0  0.1403154E-03  0.1194027E+04  0.7818609E-02  0.9118101E-01
        1   -1    0    0  501    0  0.00000000000E+00  0.00000000000E+00  0.46865557017E+03  0.46865557019E+03  0.50400001928E-02 0.  1.
       -1   -1    0    0    0  501  0.00000000000E+00  0.00000000000E+00 -0.76052702902E+03  0.76052702904E+03  0.50400001928E-02 0. -1.
    10030    2    1    2    0    0  0.00000000000E+00  0.00000000000E+00 -0.29187145886E+03  0.12291825992E+04  0.11940271830E+04 0.  0.
        3    1    3    3  502    0  0.57896386941E+03  0.14394497306E+03 -0.16909020300E+03  0.62008936800E+03  0.10100000352E+00 0.  1.
       -3    1    3    3    0  502 -0.57896386941E+03 -0.14394497306E+03 -0.12278125586E+03  0.60909323124E+03  0.10100000352E+00 0. -1.
</event>
<event>
 5   0  0.2499890E-03  0.1172853E+04  0.7818609E-02  0.9136956E-01
       -2   -1    0    0    0  501  0.00000000000E+00  0.00000000000E+00  0.32023025239E+03  0.32023025240E+03  0.25500000920E-02 0. -1.
        2   -1    0    0  501    0  0.00000000000E+00  0.00000000000E+00 -0.10739017137E+04  0.10739017137E+04  0.25500000920E-02 0.  1.
    10030    2    1    2    0    0  0.00000000000E+00  0.00000000000E+00 -0.75367146134E+03  0.13941319661E+04  0.11728526196E+04 0.  0.
        5    1    3    3  502    0  0.39356608747E+03 -0.36598673453E+03 -0.65568705724E+03  0.84781375437E+03  0.46999998093E+01 0.  1.
       -5    1    3    3    0  502 -0.39356608747E+03  0.36598673453E+03 -0.97984404101E+02  0.54631821177E+03  0.46999998093E+01 0. -1.
</event>
<event>
 5   0  0.2517023E-03  0.1198145E+04  0.7818609E-02  0.9114481E-01
       -2   -1    0    0    0  501  0.00000000000E+00  0.00000000000E+00  0.46082274545E+03  0.46082274545E+03  0.25500000920E-02 0.  1.
        2   -1    0    0  501    0  0.00000000000E+00  0.00000000000E+00 -0.77879863228E+03  0.77879863228E+03  0.25500000920E-02 0. -1.
    10030    2    1    2    0    0  0.00000000000E+00  0.00000000000E+00 -0.31797588683E+03  0.12396213777E+04  0.11981454401E+04 0.  0.
        3    1    3    3  502    0  0.50644394843E+03  0.14047586398E+03  0.13848763180E+03  0.54350508335E+03  0.10100000352E+00 0.  1.
       -3    1    3    3    0  502 -0.50644394843E+03 -0.14047586398E+03 -0.45646351863E+03  0.69611629439E+03  0.10100000352E+00 0. -1.
</event>
<event>
 5   0  0.2517023E-03  0.1267679E+04  0.7818609E-02  0.9055596E-01
       -2   -1    0    0    0  501  0.00000000000E+00  0.00000000000E+00  0.54276509073E+03  0.54276509074E+03  0.25500000920E-02 0. -1.
        2   -1    0    0  501    0  0.00000000000E+00  0.00000000000E+00 -0.74019617175E+03  0.74019617175E+03  0.25500000920E-02 0.  1.
    10030    2    1    2    0    0  0.00000000000E+00  0.00000000000E+00 -0.19743108102E+03  0.12829612625E+04  0.12676792060E+04 0.  0.
        3    1    3    3  502    0 -0.44783524236E+03 -0.31180987325E+03  0.22761666345E+03  0.59126234198E+03  0.10100000352E+00 0. -1.
       -3    1    3    3    0  502  0.44783524236E+03  0.31180987325E+03 -0.42504774447E+03  0.69169892051E+03  0.10100000352E+00 0.  1.
</event>
<event>
 5   0  0.1404833E-03  0.1203748E+04  0.7818609E-02  0.9109582E-01
        1   -1    0    0  501    0  0.00000000000E+00  0.00000000000E+00  0.36467430455E+03  0.36467430459E+03  0.50400001928E-02 0. -1.
       -1   -1    0    0    0  501  0.00000000000E+00  0.00000000000E+00 -0.99335826655E+03  0.99335826656E+03  0.50400001928E-02 0.  1.
    10030    2    1    2    0    0  0.00000000000E+00  0.00000000000E+00 -0.62868396200E+03  0.13580325712E+04  0.12037478724E+04 0.  0.
        1    1    3    3  502    0  0.23131244297E+03 -0.27544211063E+02 -0.94043898510E+03  0.96885995611E+03  0.50400001928E-02 0.  1.
       -1    1    3    3    0  502 -0.23131244297E+03  0.27544211063E+02  0.31175502311E+03  0.38917261504E+03  0.50400001928E-02 0. -1.
</event>
<event>
 5   0  0.1455076E-03  0.1188760E+04  0.7818609E-02  0.9122752E-01
       -1   -1    0    0    0  501  0.00000000000E+00  0.00000000000E+00  0.24159959630E+03  0.24159959635E+03  0.50400001928E-02 0. -1.
        1   -1    0    0  501    0  0.00000000000E+00  0.00000000000E+00 -0.14622850861E+04  0.14622850861E+04  0.50400001928E-02 0.  1.
    10030    2    1    2    0    0  0.00000000000E+00  0.00000000000E+00 -0.12206854898E+04  0.17038846824E+04  0.11887598353E+04 0.  0.
        4    1    3    3  502    0  0.58014175562E+02 -0.46472431497E+03 -0.11349326527E+04  0.12277654794E+04  0.12699999809E+01 0.  1.
       -4    1    3    3    0  502 -0.58014175562E+02  0.46472431497E+03 -0.85752837108E+02  0.47611920300E+03  0.12699999809E+01 0. -1.
</event>
<event>
 5   0  0.1404833E-03  0.1237056E+04  0.7818609E-02  0.9081026E-01
       -1   -1    0    0    0  501  0.00000000000E+00  0.00000000000E+00  0.79261076592E+03  0.79261076593E+03  0.50400001928E-02 0.  1.
        1   -1    0    0  501    0  0.00000000000E+00  0.00000000000E+00 -0.48267945051E+03  0.48267945054E+03  0.50400001928E-02 0. -1.
    10030    2    1    2    0    0  0.00000000000E+00  0.00000000000E+00  0.30993131540E+03  0.12752902165E+04  0.12370560682E+04 0.  0.
        1    1    3    3  502    0 -0.13051025846E+03  0.60404370038E+03  0.18175357157E+03  0.64415532315E+03  0.50400001928E-02 0.  1.
       -1    1    3    3    0  502  0.13051025846E+03 -0.60404370038E+03  0.12817774383E+03  0.63113489333E+03  0.50400001928E-02 0. -1.
</event>
<event>
 5   0  0.1469851E-03  0.1280146E+04  0.7818609E-02  0.9045460E-01
        1   -1    0    0  501    0  0.00000000000E+00  0.00000000000E+00  0.96966506320E+03  0.96966506322E+03  0.50400001928E-02 0. -1.
       -1   -1    0    0    0  501  0.00000000000E+00  0.00000000000E+00 -0.42251002948E+03  0.42251002951E+03  0.50400001928E-02 0.  1.
    10030    2    1    2    0    0  0.00000000000E+00  0.00000000000E+00  0.54715503373E+03  0.13921750927E+04  0.12801456393E+04 0.  0.
        5    1    3    3  502    0 -0.47990884970E+03  0.24624066759E+03 -0.10114002145E+03  0.54881541918E+03  0.46999998093E+01 0.  1.
       -5    1    3    3    0  502  0.47990884970E+03 -0.24624066759E+03  0.64829505518E+03  0.84335967354E+03  0.46999998093E+01 0. -1.
</event>
<event>
 5   0  0.1403154E-03  0.1173101E+04  0.7818609E-02  0.9136732E-01
       -1   -1    0    0    0  501  0.00000000000E+00  0.00000000000E+00  0.31907148749E+03  0.31907148753E+03  0.50400001928E-02 0. -1.
        1   -1    0    0  501    0  0.00000000000E+00  0.00000000000E+00 -0.10782587904E+04  0.10782587904E+04  0.50400001928E-02 0.  1.
    10030    2    1    2    0    0  0.00000000000E+00  0.00000000000E+00 -0.75918730294E+03  0.13973302780E+04  0.11731012509E+04 0.  0.
        3    1    3    3  502    0  0.20267820418E+03 -0.44886552572E+03 -0.13886911070E+00  0.49250253209E+03  0.10100000352E+00 0. -1.
       -3    1    3    3    0  502 -0.20267820418E+03  0.44886552572E+03 -0.75904843383E+03  0.90482774589E+03  0.10100000352E+00 0.  1.
</event>
<event>
 5   0  0.1455076E-03  0.1206365E+04  0.7818609E-02  0.9107303E-01
        1   -1    0    0  501    0  0.00000000000E+00  0.00000000000E+00  0.18737211759E+03  0.18737211766E+03  0.50400001928E-02 0.  1.
       -1   -1    0    0    0  501  0.00000000000E+00  0.00000000000E+00 -0.19417461779E+04  0.19417461780E+04  0.50400001928E-02 0. -1.
    10030    2    1    2    0    0  0.00000000000E+00  0.00000000000E+00 -0.17543740604E+04  0.21291182956E+04  0.12063649419E+04 0.  0.
        4    1    3    3  502    0  0.40881170923E+03  0.33395249899E+02 -0.16577161407E+04  0.17077080173E+04  0.12699999809E+01 0. -1.
       -4    1    3    3    0  502 -0.40881170923E+03 -0.33395249899E+02 -0.96657919640E+02  0.42141027829E+03  0.12699999809E+01 0.  1.
</event>
<event>
 5   0  0.1423024E-03  0.1149577E+04  0.7818609E-02  0.9158174E-01
        1   -1    0    0  501    0  0.00000000000E+00  0.00000000000E+00  0.23541964212E+03  0.23541964217E+03  0.50400001928E-02 0.  1.
       -1   -1    0    0    0  501  0.00000000000E+00  0.00000000000E+00 -0.14033738037E+04  0.14033738037E+04  0.50400001928E-02 0. -1.
    10030    2    1    2    0    0  0.00000000000E+00  0.00000000000E+00 -0.11679541615E+04  0.16387934458E+04  0.11495768938E+04 0.  0.
        2    1    3    3  502    0 -0.12029570009E+03  0.14103554236E+03 -0.13595925889E+04  0.13721713040E+04  0.25500000920E-02 0. -1.
       -2    1    3    3    0  502  0.12029570009E+03 -0.14103554236E+03  0.19163842737E+03  0.26662214184E+03  0.25500000920E-02 0.  1.
</event>
<event>
 5   0  0.2484507E-03  0.1207765E+04  0.7818609E-02  0.9106087E-01
       -2   -1    0    0    0  501  0.00000000000E+00  0.00000000000E+00  0.89677685479E+03  0.89677685479E+03  0.25500000920E-02 0. -1.
        2   -1    0    0  501    0  0.00000000000E+00  0.00000000000E+00 -0.40664986944E+03  0.40664986945E+03  0.25500000920E-02 0.  1.
    10030    2    1    2    0    0  0.00000000000E+00  0.00000000000E+00  0.49012698535E+03  0.13034267242E+04  0.12077651939E+04 0.  0.
        2    1    3    3  502    0  0.10026596757E+03  0.40338266864E+02 -0.39612780576E+03  0.41060647648E+03  0.25500000920E-02 0.  1.
       -2    1    3    3    0  502 -0.10026596757E+03 -0.40338266864E+02  0.88625479111E+03  0.89282024775E+03  0.25500000920E-02 0. -1.
</event>
<event>
 5   0  0.1469851E-03  0.1217379E+04  0.7818609E-02  0.9097780E-01
        1   -1    0    0  501    0  0.00000000000E+00  0.00000000000E+00  0.50463087528E+03  0.50463087530E+03  0.50400001928E-02 0. -1.
       -1   -1    0    0    0  501  0.00000000000E+00  0.00000000000E+00 -0.73420530909E+03  0.73420530911E+03  0.50400001928E-02 0.  1.
    10030    2    1    2    0    0  0.00000000000E+00  0.00000000000E+00 -0.22957443381E+03  0.12388361844E+04  0.12173786063E+04 0.  0.
        5    1    3    3  502    0 -0.33790234166E+03  0.50625148069E+03 -0.11831584057E+03  0.62007199769E+03  0.46999998093E+01 0. -1.
       -5    1    3    3    0  502  0.33790234166E+03 -0.50625148069E+03 -0.11125859324E+03  0.61876418672E+03  0.46999998093E+01 0.  1.
</event>
<event>
 5   0  0.1403154E-03  0.1184804E+04  0.7818609E-02  0.9126263E-01
        1   -1    0    0  501    0  0.00000000000E+00  0.00000000000E+00  0.59535315464E+03  0.59535315466E+03  0.50400001928E-02 0.  1.
       -1   -1    0    0    0  501  0.00000000000E+00  0.00000000000E+00 -0.58946503714E+03  0.58946503717E+03  0.50400001928E-02 0. -1.
    10030    2    1    2    0    0  0.00000000000E+00  0.00000000000E+00  0.58881174994E+01  0.11848181918E+04  0.11848035608E+04 0.  0.
        3    1    3    3  502    0  0.47603712419E+03 -0.26049761367E+03  0.24058013259E+03  0.59359006118E+03  0.10100000352E+00 0.  1.
       -3    1    3    3    0  502 -0.47603712419E+03  0.26049761367E+03 -0.23469201509E+03  0.59122813065E+03  0.10100000352E+00 0. -1.
</event>
<event>
 5   0  0.2484507E-03  0.1204453E+04  0.7818609E-02  0.9108967E-01
        2   -1    0    0  501    0  0.00000000000E+00  0.00000000000E+00  0.21430758539E+04  0.21430758539E+04  0.25500000920E-02 0.  1.
       -2   -1    0    0    0  501  0.00000000000E+00  0.00000000000E+00 -0.16923199004E+03  0.16923199006E+03  0.25500000920E-02 0. -1.
    10030    2    1    2    0    0  0.00000000000E+00  0.00000000000E+00  0.19738438638E+04  0.23123078439E+04  0.12044533890E+04 0.  0.
        2    1    3    3  502    0 -0.57769771920E+03  0.14085237583E+03  0.80375519256E+03  0.99979820770E+03  0.25500000920E-02 0.  1.
       -2    1    3    3    0  502  0.57769771920E+03 -0.14085237583E+03  0.11700886713E+04  0.13125096362E+04  0.25500000920E-02 0. -1.
</event>
<event>
 5   0  0.1423024E-03  0.1191493E+04  0.7818609E-02  0.9120335E-01
       -1   -1    0    0    0  501  0.00000000000E+00  0.00000000000E+00  0.34243439970E+03  0.34243439974E+03  0.50400001928E-02 0. -1.
        1   -1    0    0  501    0  0.00000000000E+00  0.00000000000E+00 -0.10364437526E+04  0.10364437527E+04  0.50400001928E-02 0.  1.
    10030    2    1    2    0    0  0.00000000000E+00  0.00000000000E+00 -0.69400935294E+03  0.13788781524E+04  0.11914931713E+04 0.  0.
        2    1    3    3  502    0  0.38640911530E+03 -0.45179870451E+03 -0.39152450936E+03  0.71184655315E+03  0.25500000920E-02 0. -1.
       -2    1    3    3    0  502 -0.38640911530E+03  0.45179870451E+03 -0.30248484358E+03  0.66703159925E+03  0.25500000920E-02 0.  1.
</event>
<event>
 5   0  0.1469851E-03  0.1208834E+04  0.7818609E-02  0.9105159E-01
        1   -1    0    0  501    0  0.00000000000E+00  0.00000000000E+00  0.72812325850E+03  0.72812325852E+03  0.50400001928E-02 0. -1.
       -1   -1    0    0    0  501  0.00000000000E+00  0.00000000000E+00 -0.50172836975E+03  0.50172836978E+03  0.50400001928E-02 0.  1.
    10030    2    1    2    0    0  0.00000000000E+00  0.00000000000E+00  0.22639488875E+03  0.12298516283E+04  0.12088343071E+04 0.  0.
        5    1    3    3  502    0  0.45826090319E+03 -0.32929763995E+03  0.33342815716E+03  0.65546656441E+03  0.46999998093E+01 0.  1.
       -5    1    3    3    0  502 -0.45826090319E+03  0.32929763995E+03 -0.10703326841E+03  0.57438506389E+03  0.46999998093E+01 0. -1.
</event>
<event>
 5   0  0.2580244E-03  0.1200728E+04  0.7818609E-02  0.9112220E-01
       -2   -1    0    0    0  501  0.00000000000E+00  0.00000000000E+00  0.15766959832E+03  0.15766959834E+03  0.25500000920E-02 0. -1.
        2   -1    0    0  501    0  0.00000000000E+00  0.00000000000E+00 -0.22860262460E+04  0.22860262460E+04  0.25500000920E-02 0.  1.
    10030    2    1    2    0    0  0.00000000000E+00  0.00000000000E+00 -0.21283566477E+04  0.24436958444E+04  0.12007278459E+04 0.  0.
        1    1    3    3  502    0  0.80513774620E+02 -0.24184213496E+03 -0.21704374800E+04  0.21853532760E+04  0.50400001928E-02 0.  1.
       -1    1    3    3    0  502 -0.80513774620E+02  0.24184213496E+03  0.42080832347E+02  0.25834256835E+03  0.50400001928E-02 0. -1.
</event>
<event>
 5   0  0.2484507E-03  0.1102043E+04  0.7818609E-02  0.9203202E-01
        2   -1    0    0  501    0  0.00000000000E+00  0.00000000000E+00  0.23842968337E+04  0.23842968337E+04  0.25500000920E-02 0. -1.
       -2   -1    0    0    0  501  0.00000000000E+00  0.00000000000E+00 -0.12734361002E+03  0.12734361004E+03  0.25500000920E-02 0.  1.
    10030    2    1    2    0    0  0.00000000000E+00  0.00000000000E+00  0.22569532237E+04  0.25116404437E+04  0.11020434949E+04 0.  0.
        2    1    3    3  502    0  0.18171595264E+03 -0.50872334262E+03  0.13760983535E+04  0.14783324408E+04  0.25500000920E-02 0. -1.
       -2    1    3    3    0  502 -0.18171595264E+03  0.50872334262E+03  0.88085487014E+03  0.10333080030E+04  0.25500000920E-02 0.  1.
</event>
<event>
 5   0  0.2579442E-03  0.1196832E+04  0.7818609E-02  0.9115634E-01
       -2   -1    0    0    0  501  0.00000000000E+00  0.00000000000E+00  0.31092295546E+03  0.31092295547E+03  0.25500000920E-02 0.  1.
        2   -1    0    0  501    0  0.00000000000E+00  0.00000000000E+00 -0.11517381504E+04  0.11517381504E+04  0.25500000920E-02 0. -1.
    10030    2    1    2    0    0  0.00000000000E+00  0.00000000000E+00 -0.84081519491E+03  0.14626611058E+04  0.11968322015E+04 0.  0.
        4    1    3    3  502    0  0.20279273154E+03 -0.51910689789E+03 -0.68676979027E+03  0.88444967134E+03  0.12699999809E+01 0. -1.
       -4    1    3    3    0  502 -0.20279273154E+03  0.51910689789E+03 -0.15404540464E+03  0.57821143451E+03  0.12699999809E+01 0.  1.
</event>
<event>
 5   0  0.2499890E-03  0.1245422E+04  0.7818609E-02  0.9074002E-01
        2   -1    0    0  501    0  0.00000000000E+00  0.00000000000E+00  0.11355406964E+04  0.11355406964E+04  0.25500000920E-02 0. -1.
       -2   -1    0    0    0  501  0.00000000000E+00  0.00000000000E+00 -0.34148404303E+03  0.34148404304E+03  0.25500000920E-02 0.  1.
    10030    2    1    2    0    0  0.00000000000E+00  0.00000000000E+00  0.79405665336E+03  0.14770247394E+04  0.12454220619E+04 0.  0.
        5    1    3    3  502    0  0.72007796429E+02  0.58983102027E+03  0.61782519256E+03  0.85721398365E+03  0.46999998093E+01 0. -1.
       -5    1    3    3    0  502 -0.72007796429E+02 -0.58983102027E+03  0.17623146081E+03  0.61981075579E+03  0.46999998093E+01 0.  1.
</event>
<event>
 5   0  0.2579442E-03  0.1201901E+04  0.7818609E-02  0.9111194E-01
        2   -1    0    0  501    0  0.00000000000E+00  0.00000000000E+00  0.52706256893E+03  0.52706256894E+03  0.25500000920E-02 0.  1.
       -2   -1    0    0    0  501  0.00000000000E+00  0.00000000000E+00 -0.68519689367E+03  0.68519689368E+03  0.25500000920E-02 0. -1.
    10030    2    1    2    0    0  0.00000000000E+00  0.00000000000E+00 -0.15813432474E+03  0.12122594626E+04  0.12019012189E+04 0.  0.
        4    1    3    3  502    0 -0.13004278747E+03 -0.32395194844E+03 -0.57244957573E+03  0.67048946384E+03  0.12699999809E+01 0. -1.
       -4    1    3    3    0  502  0.13004278747E+03  0.32395194844E+03  0.41431525099E+03  0.54176999877E+03  0.12699999809E+01 0.  1.
</event>
<event>
 5   0  0.2580244E-03  0.1270305E+04  0.7818609E-02  0.9053450E-01
       -2   -1    0    0    0  501  0.00000000000E+00  0.00000000000E+00  0.57749500546E+03  0.57749500547E+03  0.25500000920E-02 0.  1.
        2   -1    0    0  501    0  0.00000000000E+00  0.00000000000E+00 -0.69856694512E+03  0.69856694512E+03  0.25500000920E-02 0. -1.
    10030    2    1    2    0    0  0.00000000000E+00  0.00000000000E+00 -0.12107193966E+03  0.12760619506E+04  0.12703053519E+04 0.  0.
        1    1    3    3  502    0  0.44911583111E+02  0.28755750049E+03  0.50656869221E+03  0.58422444859E+03  0.50400001928E-02 0.  1.
       -1    1    3    3    0  502 -0.44911583111E+02 -0.28755750049E+03 -0.62764063186E+03  0.69183750200E+03  0.50400001928E-02 0. -1.
</event>
<event>
 5   0  0.1423024E-03  0.1202537E+04  0.7818609E-02  0.9110639E-01
        1   -1    0    0  501    0  0.00000000000E+00  0.00000000000E+00  0.99309496406E+03  0.99309496408E+03  0.50400001928E-02 0.  1.
       -1   -1    0    0    0  501  0.00000000000E+00  0.00000000000E+00 -0.36403748541E+03  0.36403748545E+03  0.50400001928E-02 0. -1.
    10030    2    1    2    0    0  0.00000000000E+00  0.00000000000E+00  0.62905747865E+03  0.13571324495E+04  0.12025369741E+04 0.  0.
        2    1    3    3  502    0  0.23939318548E+03 -0.36247267476E+02  0.93564661648E+03  0.96646652947E+03  0.25500000920E-02 0.  1.
       -2    1    3    3    0  502 -0.23939318548E+03  0.36247267476E+02 -0.30658913783E+03  0.39066592006E+03  0.25500000920E-02 0. -1.
</event>
<event>
 5   0  0.2484507E-03  0.1292379E+04  0.7818609E-02  0.9035631E-01
       -2   -1    0    0    0  501  0.00000000000E+00  0.00000000000E+00  0.21022183563E+03  0.21022183565E+03  0.25500000920E-02 0.  1.
        2   -1    0    0  501    0  0.00000000000E+00  0.00000000000E+00 -0.19862858066E+04  0.19862858066E+04  0.25500000920E-02 0. -1.
    10030    2    1    2    0    0  0.00000000000E+00  0.00000000000E+00 -0.17760639710E+04  0.21965076422E+04  0.12923786572E+04 0.  0.
        2    1    3    3  502    0  0.62097973876E+03  0.17872935431E+03 -0.88668263362E+03  0.10971627549E+04  0.25500000920E-02 0.  1.
       -2    1    3    3    0  502 -0.62097973876E+03 -0.17872935431E+03 -0.88938133734E+03  0.10993448873E+04  0.25500000920E-02 0. -1.
</event>
<event>
 5   0  0.2517023E-03  0.1196344E+04  0.7818609E-02  0.9116063E-01
        2   -1    0    0  501    0  0.00000000000E+00  0.00000000000E+00  0.92737392323E+03  0.92737392323E+03  0.25500000920E-02 0. -1.
       -2   -1    0    0    0  501  0.00000000000E+00  0.00000000000E+00 -0.38583098610E+03  0.38583098611E+03  0.25500000920E-02 0.  1.
    10030    2    1    2    0    0  0.00000000000E+00  0.00000000000E+00  0.54154293713E+03  0.13132049093E+04  0.11963437554E+04 0.  0.
        3    1    3    3  502    0  0.69202903290E+02 -0.32178694695E+03 -0.27749148104E+03  0.43050831967E+03  0.10100000352E+00 0.  1.
       -3    1    3    3    0  502 -0.69202903290E+02  0.32178694695E+03  0.81903441818E+03  0.88269658967E+03  0.10100000352E+00 0. -1.
</event>
<event>
 5   0  0.2499890E-03  0.1194259E+04  0.7818609E-02  0.9117897E-01
       -2   -1    0    0    0  501  0.00000000000E+00  0.00000000000E+00  0.45174076379E+03  0.45174076380E+03  0.25500000920E-02 0.  1.
        2   -1    0    0  501    0  0.00000000000E+00  0.00000000000E+00 -0.78931025893E+03  0.78931025893E+03  0.25500000920E-02 0. -1.
    10030    2    1    2    0    0  0.00000000000E+00  0.00000000000E+00 -0.33756949514E+03  0.12410510227E+04  0.11942589656E+04 0.  0.
        5    1    3    3  502    0 -0.46383230725E+03  0.35274979224E+03 -0.30415257673E+03  0.65734595542E+03  0.46999998093E+01 0. -1.
       -5    1    3    3    0  502  0.46383230725E+03 -0.35274979224E+03 -0.33416918406E+02  0.58370506731E+03  0.46999998093E+01 0.  1.
</event>
<event>
 5   0  0.2580244E-03  0.1200795E+04  0.7818609E-02  0.9112161E-01
        2   -1    0    0  501    0  0.00000000000E+00  0.00000000000E+00  0.94011444274E+03  0.94011444275E+03  0.25500000920E-02 0. -1.
       -2   -1    0    0    0  501  0.00000000000E+00  0.00000000000E+00 -0.38343960509E+03  0.38343960510E+03  0.25500000920E-02 0.  1.
    10030    2    1    2    0    0  0.00000000000E+00  0.00000000000E+00  0.55667483765E+03  0.13235540478E+04  0.12007949212E+04 0.  0.
        1    1    3    3  502    0 -0.18485357026E+02  0.31532027667E+02 -0.38221214891E+03  0.38395586204E+03  0.50400001928E-02 0.  1.
       -1    1    3    3    0  502  0.18485357026E+02 -0.31532027667E+02  0.93888698657E+03  0.93959818580E+03  0.50400001928E-02 0. -1.
</event>
<event>
 5   0  0.1404833E-03  0.1190209E+04  0.7818609E-02  0.9121470E-01
       -1   -1    0    0    0  501  0.00000000000E+00  0.00000000000E+00  0.35391730133E+03  0.35391730136E+03  0.50400001928E-02 0. -1.
        1   -1    0    0  501    0  0.00000000000E+00  0.00000000000E+00 -0.10006555298E+04  0.10006555299E+04  0.50400001928E-02 0.  1.
    10030    2    1    2    0    0  0.00000000000E+00  0.00000000000E+00 -0.64673822852E+03  0.13545728312E+04  0.11902088971E+04 0.  0.
        1    1    3    3  502    0  0.88549143457E+02  0.55575645277E+03 -0.54359338366E+03  0.78243207525E+03  0.50400001928E-02 0.  1.
       -1    1    3    3    0  502 -0.88549143457E+02 -0.55575645277E+03 -0.10314484487E+03  0.57214075597E+03  0.50400001928E-02 0. -1.
</event>
<event>
 5   0  0.2484507E-03  0.1201230E+04  0.7818609E-02  0.9111780E-01
        2   -1    0    0  501    0  0.00000000000E+00  0.00000000000E+00  0.55654305915E+03  0.55654305916E+03  0.25500000920E-02 0.  1.
       -2   -1    0    0    0  501  0.00000000000E+00  0.00000000000E+00 -0.64817711103E+03  0.64817711104E+03  0.25500000920E-02 0. -1.
    10030    2    1    2    0    0  0.00000000000E+00  0.00000000000E+00 -0.91634051880E+02  0.12047201702E+04  0.12012301565E+04 0.  0.
        2    1    3    3  502    0 -0.33321227736E+03 -0.14892013507E+03  0.43257077214E+03  0.56597270370E+03  0.25500000920E-02 0.  1.
       -2    1    3    3    0  502  0.33321227736E+03  0.14892013507E+03 -0.52420482402E+03  0.63874746649E+03  0.25500000920E-02 0. -1.
</event>
<event>
 5   0  0.1403154E-03  0.1221336E+04  0.7818609E-02  0.9094384E-01
        1   -1    0    0  501    0  0.00000000000E+00  0.00000000000E+00  0.13867333807E+04  0.13867333807E+04  0.50400001928E-02 0. -1.
       -1   -1    0    0    0  501  0.00000000000E+00  0.00000000000E+00 -0.26891629004E+03  0.26891629009E+03  0.50400001928E-02 0.  1.
    10030    2    1    2    0    0  0.00000000000E+00  0.00000000000E+00  0.11178170906E+04  0.16556496708E+04  0.12213356558E+04 0.  0.
        3    1    3    3  502    0  0.15115707396E+03 -0.59164335579E+03  0.56566816623E+03  0.83238861474E+03  0.10100000352E+00 0.  1.
       -3    1    3    3    0  502 -0.15115707396E+03  0.59164335579E+03  0.55214892439E+03  0.82326105602E+03  0.10100000352E+00 0. -1.
</event>
<event>
 5   0  0.2499890E-03  0.1206623E+04  0.7818609E-02  0.9107079E-01
       -2   -1    0    0    0  501  0.00000000000E+00  0.00000000000E+00  0.47488778588E+03  0.47488778589E+03  0.25500000920E-02 0.  1.
        2   -1    0    0  501    0  0.00000000000E+00  0.00000000000E+00 -0.76646425511E+03  0.76646425511E+03  0.25500000920E-02 0. -1.
    10030    2    1    2    0    0  0.00000000000E+00  0.00000000000E+00 -0.29157646923E+03  0.12413520410E+04  0.12066225807E+04 0.  0.
        5    1    3    3  502    0 -0.10879856562E+02 -0.73728614674E+02 -0.76169141744E+03  0.76534318139E+03  0.46999998093E+01 0. -1.
       -5    1    3    3    0  502  0.10879856562E+02  0.73728614674E+02  0.47011494821E+03  0.47600885961E+03  0.46999998093E+01 0.  1.
</event>
<event>
 5   0  0.1423024E-03  0.1206133E+04  0.7818609E-02  0.9107505E-01
        1   -1    0    0  501    0  0.00000000000E+00  0.00000000000E+00  0.15976755347E+04  0.15976755347E+04  0.50400001928E-02 0.  1.
       -1   -1    0    0    0  501  0.00000000000E+00  0.00000000000E+00 -0.22763646715E+03  0.22763646720E+03  0.50400001928E-02 0. -1.
    10030    2    1    2    0    0  0.00000000000E+00  0.00000000000E+00  0.13700390676E+04  0.18253120019E+04  0.12061330183E+04 0.  0.
        2    1    3    3  502    0 -0.31884107692E+03 -0.45471135885E+03  0.32924448598E+03  0.64561907016E+03  0.25500000920E-02 0. -1.
       -2    1    3    3    0  502  0.31884107692E+03  0.45471135885E+03  0.10407945816E+04  0.11796929318E+04  0.25500000920E-02 0.  1.
</event>
<event>
 5   0  0.2579442E-03  0.1198230E+04  0.7818609E-02  0.9114407E-01
       -2   -1    0    0    0  501  0.00000000000E+00  0.00000000000E+00  0.12441234390E+04  0.12441234390E+04  0.25500000920E-02 0. -1.
        2   -1    0    0  501    0  0.00000000000E+00  0.00000000000E+00 -0.28850743791E+03  0.28850743792E+03  0.25500000920E-02 0.  1.
    10030    2    1    2    0    0  0.00000000000E+00  0.00000000000E+00  0.95561600113E+03  0.15326308770E+04  0.11982301379E+04 0.  0.
        4    1    3    3  502    0  0.47655843234E+02  0.23949909931E+03  0.11775779703E+04  0.12026314427E+04  0.12699999809E+01 0. -1.
       -4    1    3    3    0  502 -0.47655843234E+02 -0.23949909931E+03 -0.22196196915E+03  0.32999943427E+03  0.12699999809E+01 0.  1.
</event>
<event>
 5   0  0.1404833E-03  0.1203110E+04  0.7818609E-02  0.9110138E-01
        1   -1    0    0  501    0  0.00000000000E+00  0.00000000000E+00  0.68063466128E+03  0.68063466130E+03  0.50400001928E-02 0. -1.
       -1   -1    0    0    0  501  0.00000000000E+00  0.00000000000E+00 -0.53166357185E+03  0.53166357187E+03  0.50400001928E-02 0.  1.
    10030    2    1    2    0    0  0.00000000000E+00  0.00000000000E+00  0.14897108943E+03  0.12122982332E+04  0.12031103942E+04 0.  0.
        1    1    3    3  502    0  0.43181755142E+03 -0.21590740022E+03  0.43609414042E+03  0.65058473892E+03  0.50400001928E-02 0. -1.
       -1    1    3    3    0  502 -0.43181755142E+03  0.21590740022E+03 -0.28712305099E+03  0.56171349425E+03  0.50400001928E-02 0.  1.
</event>
<event>
 5   0  0.2580244E-03  0.1242618E+04  0.7818609E-02  0.9076350E-01
        2   -1    0    0  501    0  0.00000000000E+00  0.00000000000E+00  0.97220122544E+03  0.97220122544E+03  0.25500000920E-02 0. -1.
       -2   -1    0    0    0  501  0.00000000000E+00  0.00000000000E+00 -0.39706243244E+03  0.39706243244E+03  0.25500000920E-02 0.  1.
    10030    2    1    2    0    0  0.00000000000E+00  0.00000000000E+00  0.57513879301E+03  0.13692636579E+04  0.12426175331E+04 0.  0.
        1    1    3    3  502    0  0.33303445019E+03 -0.28214417445E+03 -0.19965732299E+03  0.47997950669E+03  0.50400001928E-02 0.  1.
       -1    1    3    3    0  502 -0.33303445019E+03  0.28214417445E+03  0.77479611600E+03  0.88928415120E+03  0.50400001928E-02 0. -1.
</event>
<event>
 5   0  0.1455076E-03  0.1190521E+04  0.7818609E-02  0.9121195E-01
       -1   -1    0    0    0  501  0.00000000000E+00  0.00000000000E+00  0.34552455366E+03  0.34552455370E+03  0.50400001928E-02 0. -1.
        1   -1    0    0  501    0  0.00000000000E+00  0.00000000000E+00 -0.10254980771E+04  0.10254980771E+04  0.50400001928E-02 0.  1.
    10030    2    1    2    0    0  0.00000000000E+00  0.00000000000E+00 -0.67997352344E+03  0.13710226308E+04  0.11905205003E+04 0.  0.
        4    1    3    3  502    0  0.28678867869E+03 -0.51066392571E+03 -0.46244727083E+03  0.74624693128E+03  0.12699999809E+01 0.  1.
       -4    1    3    3    0  502 -0.28678867869E+03  0.51066392571E+03 -0.21752625261E+03  0.62477569953E+03  0.12699999809E+01 0. -1.
</event>
<event>
 5   0  0.9678750E-04  0.1203861E+04  0.7818609E-02  0.9109484E-01
       -3   -1    0    0    0  501  0.00000000000E+00  0.00000000000E+00  0.22334093456E+04  0.22334093479E+04  0.10100000352E+00 0.  1.
        3   -1    0    0  501    0  0.00000000000E+00  0.00000000000E+00 -0.16222734027E+03  0.16222737171E+03  0.10100000352E+00 0. -1.
    10030    2    1    2    0    0  0.00000000000E+00  0.00000000000E+00  0.20711820054E+04  0.23956367196E+04  0.12038606203E+04 0.  0.
        1    1    3    3  502    0 -0.20627971467E+02 -0.20484796210E+03  0.21611636318E+04  0.21709482822E+04  0.50400001928E-02 0.  1.
       -1    1    3    3    0  502  0.20627971467E+02  0.20484796210E+03 -0.89981626410E+02  0.22468843740E+03  0.50400001928E-02 0. -1.
</event>
<event>
 5   0  0.2517023E-03  0.1255193E+04  0.7818609E-02  0.9065872E-01
        2   -1    0    0  501    0  0.00000000000E+00  0.00000000000E+00  0.13377175815E+04  0.13377175815E+04  0.25500000920E-02 0. -1.
       -2   -1    0    0    0  501  0.00000000000E+00  0.00000000000E+00 -0.29443978739E+03  0.29443978740E+03  0.25500000920E-02 0.  1.
    10030    2    1    2    0    0  0.00000000000E+00  0.00000000000E+00  0.10432777941E+04  0.16321573689E+04  0.12551928621E+04 0.  0.
        3    1    3    3  502    0 -0.59642985116E+02  0.47713480995E+03 -0.28002476796E+01  0.48085628220E+03  0.10100000352E+00 0.  1.
       -3    1    3    3    0  502  0.59642985116E+02 -0.47713480995E+03  0.10460780418E+04  0.11513010867E+04  0.10100000352E+00 0. -1.
</event>
<event>
 5   0  0.1403154E-03  0.1199178E+04  0.7818609E-02  0.9113576E-01
        1   -1    0    0  501    0  0.00000000000E+00  0.00000000000E+00  0.65387890521E+03  0.65387890523E+03  0.50400001928E-02 0. -1.
       -1   -1    0    0    0  501  0.00000000000E+00  0.00000000000E+00 -0.54980698625E+03  0.54980698628E+03  0.50400001928E-02 0.  1.
    10030    2    1    2    0    0  0.00000000000E+00  0.00000000000E+00  0.10407191895E+03  0.12036858915E+04  0.11991783692E+04 0.  0.
        3    1    3    3  502    0 -0.40282384375E+03 -0.36304477086E+03  0.30880725235E+03  0.62404365556E+03  0.10100000352E+00 0. -1.
       -3    1    3    3    0  502  0.40282384375E+03  0.36304477086E+03 -0.20473533340E+03  0.57964223594E+03  0.10100000352E+00 0.  1.
</event>
<event>
 5   0  0.2580244E-03  0.1201969E+04  0.7818609E-02  0.9111135E-01
       -2   -1    0    0    0  501  0.00000000000E+00  0.00000000000E+00  0.72824083631E+03  0.72824083632E+03  0.25500000920E-02 0. -1.
        2   -1    0    0  501    0  0.00000000000E+00  0.00000000000E+00 -0.49596550715E+03  0.49596550715E+03  0.25500000920E-02 0.  1.
    10030    2    1    2    0    0  0.00000000000E+00  0.00000000000E+00  0.23227532916E+03  0.12242063435E+04  0.12019689442E+04 0.  0.
        1    1    3    3  502    0  0.99916118128E+02 -0.14607364080E+03  0.70109912918E+03  0.72309109257E+03  0.50400001928E-02 0. -1.
       -1    1    3    3    0  502 -0.99916118128E+02  0.14607364080E+03 -0.46882380001E+03  0.50111525090E+03  0.50400001928E-02 0.  1.
</event>
<event>
 5   0  0.1455076E-03  0.1209506E+04  0.7818609E-02  0.9104576E-01
        1   -1    0    0  501    0  0.00000000000E+00  0.00000000000E+00  0.13328068256E+04  0.13328068256E+04  0.50400001928E-02 0. -1.
       -1   -1    0    0    0  501  0.00000000000E+00  0.00000000000E+00 -0.27440308096E+03  0.27440308101E+03  0.50400001928E-02 0.  1.
    10030    2    1    2    0    0  0.00000000000E+00  0.00000000000E+00  0.10584037447E+04  0.16072099067E+04  0.12095061791E+04 0.  0.
        4    1    3    3  502    0 -0.18974144669E+03  0.33800518518E+03  0.11460287954E+04  0.12098069824E+04  0.12699999809E+01 0. -1.
       -4    1    3    3    0  502  0.18974144669E+03 -0.33800518518E+03 -0.87625050745E+02  0.39740292427E+03  0.12699999809E+01 0.  1.
</event>
<event>
 5   0  0.2517023E-03  0.1195409E+04  0.7818609E-02  0.9116885E-01
        2   -1    0    0  501    0  0.00000000000E+00  0.00000000000E+00  0.16565377071E+04  0.16565377071E+04  0.25500000920E-02 0. -1.
       -2   -1    0    0    0  501  0.00000000000E+00  0.00000000000E+00 -0.21566098309E+03  0.21566098310E+03  0.25500000920E-02 0.  1.
    10030    2    1    2    0    0  0.00000000000E+00  0.00000000000E+00  0.14408767241E+04  0.18721986902E+04  0.11954088011E+04 0.  0.
        3    1    3    3  502    0 -0.36378040325E+03  0.27379948044E+03  0.13269038908E+04  0.14028457802E+04  0.10100000352E+00 0. -1.
       -3    1    3    3    0  502  0.36378040325E+03 -0.27379948044E+03  0.11397283324E+03  0.46935291008E+03  0.10100000352E+00 0.  1.
</event>
<event>
 5   0  0.1455076E-03  0.1205740E+04  0.7818609E-02  0.9107847E-01
        1   -1    0    0  501    0  0.00000000000E+00  0.00000000000E+00  0.35212300530E+03  0.35212300534E+03  0.50400001928E-02 0. -1.
       -1   -1    0    0    0  501  0.00000000000E+00  0.00000000000E+00 -0.10321737492E+04  0.10321737492E+04  0.50400001928E-02 0.  1.
    10030    2    1    2    0    0  0.00000000000E+00  0.00000000000E+00 -0.68005074385E+03  0.13842967545E+04  0.12057398104E+04 0.  0.
        4    1    3    3  502    0 -0.36994605484E+03 -0.38957067698E+03 -0.65407573033E+03  0.84642901046E+03  0.12699999809E+01 0.  1.
       -4    1    3    3    0  502  0.36994605484E+03  0.38957067698E+03 -0.25975013523E+02  0.53786774404E+03  0.12699999809E+01 0. -1.
</event>
<event>
 5   0  0.1469851E-03  0.1203584E+04  0.7818609E-02  0.9109725E-01
        1   -1    0    0  501    0  0.00000000000E+00  0.00000000000E+00  0.72461364256E+03  0.72461364258E+03  0.50400001928E-02 0.  1.
       -1   -1    0    0    0  501  0.00000000000E+00  0.00000000000E+00 -0.49978862266E+03  0.49978862268E+03  0.50400001928E-02 0. -1.
    10030    2    1    2    0    0  0.00000000000E+00  0.00000000000E+00  0.22482501990E+03  0.12244022653E+04  0.12035840717E+04 0.  0.
        5    1    3    3  502    0  0.20109046813E+03  0.54720913734E+03  0.26417856481E+03  0.64006844983E+03  0.46999998093E+01 0.  1.
       -5    1    3    3    0  502 -0.20109046813E+03 -0.54720913734E+03 -0.39353544902E+02  0.58433381543E+03  0.46999998093E+01 0. -1.
</event>
<event>
 5   0  0.1455076E-03  0.1187301E+04  0.7818609E-02  0.9124045E-01
       -1   -1    0    0    0  501  0.00000000000E+00  0.00000000000E+00  0.71947632082E+03  0.71947632084E+03  0.50400001928E-02 0.  1.
        1   -1    0    0  501    0  0.00000000000E+00  0.00000000000E+00 -0.48983007180E+03  0.48983007182E+03  0.50400001928E-02 0. -1.
    10030    2    1    2    0    0  0.00000000000E+00  0.00000000000E+00  0.22964624902E+03  0.12093063927E+04  0.11873013736E+04 0.  0.
        4    1    3    3  502    0 -0.43942580192E+02 -0.17102648240E+03  0.69210667763E+03  0.71427884902E+03  0.12699999809E+01 0.  1.
       -4    1    3    3    0  502  0.43942580192E+02  0.17102648240E+03 -0.46246042861E+03  0.49502754364E+03  0.12699999809E+01 0. -1.
</event>
<event>
 5   0  0.1403154E-03  0.1206312E+04  0.7818609E-02  0.9107350E-01
        1   -1    0    0  501    0  0.00000000000E+00  0.00000000000E+00  0.63505265010E+03  0.63505265012E+03  0.50400001928E-02 0. -1.
       -1   -1    0    0    0  501  0.00000000000E+00  0.00000000000E+00 -0.57286144206E+03  0.57286144208E+03  0.50400001928E-02 0.  1.
    10030    2    1    2    0    0  0.00000000000E+00  0.00000000000E+00  0.62191208040E+02  0.12079140922E+04  0.12063120275E+04 0.  0.
        3    1    3    3  502    0  0.29569684188E+03 -0.13182813591E+03 -0.47848288359E+03  0.57772065898E+03  0.10100000352E+00 0.  1.
       -3    1    3    3    0  502 -0.29569684188E+03  0.13182813591E+03  0.54067409163E+03  0.63019343323E+03  0.10100000352E+00 0. -1.
</event>
<event>
 5   0  0.2484507E-03  0.1188217E+04  0.7818609E-02  0.9123233E-01
        2   -1    0    0  501    0  0.00000000000E+00  0.00000000000E+00  0.88117179691E+03  0.88117179691E+03  0.25500000920E-02 0.  1.
       -2   -1    0    0    0  501  0.00000000000E+00  0.00000000000E+00 -0.40056317784E+03  0.40056317785E+03  0.25500000920E-02 0. -1.
    10030    2    1    2    0    0  0.00000000000E+00  0.00000000000E+00  0.48060861907E+03  0.12817349748E+04  0.11882171101E+04 0.  0.
        2    1    3    3  502    0  0.43608483704E+03 -0.37265690954E+03  0.73464562397E+02  0.57830804876E+03  0.25500000920E-02 0. -1.
       -2    1    3    3    0  502 -0.43608483704E+03  0.37265690954E+03  0.40714405668E+03  0.70342692600E+03  0.25500000920E-02 0.  1.
</event>
<event>
 5   0  0.2579442E-03  0.1201781E+04  0.7818609E-02  0.9111299E-01
       -2   -1    0    0    0  501  0.00000000000E+00  0.00000000000E+00  0.14360596233E+04  0.14360596233E+04  0.25500000920E-02 0. -1.
        2   -1    0    0  501    0  0.00000000000E+00  0.00000000000E+00 -0.25143045405E+03  0.25143045406E+03  0.25500000920E-02 0.  1.
    10030    2    1    2    0    0  0.00000000000E+00  0.00000000000E+00  0.11846291692E+04  0.16874900773E+04  0.12017805509E+04 0.  0.
        4    1    3    3  502    0  0.16382941060E+03  0.44770384359E+03  0.11059154870E+04  0.12042962611E+04  0.12699999809E+01 0. -1.
       -4    1    3    3    0  502 -0.16382941060E+03 -0.44770384359E+03  0.78713682247E+02  0.48319381620E+03  0.12699999809E+01 0.  1.
</event>
<event>
 5   0  0.2499890E-03  0.1082085E+04  0.7818609E-02  0.9222831E-01
        2   -1    0    0  501    0  0.00000000000E+00  0.00000000000E+00  0.84578226632E+03  0.84578226632E+03  0.25500000920E-02 0. -1.
       -2   -1    0    0    0  501  0.00000000000E+00  0.00000000000E+00 -0.34610195118E+03  0.34610195119E+03  0.25500000920E-02 0.  1.
    10030    2    1    2    0    0  0.00000000000E+00  0.00000000000E+00  0.49968031514E+03  0.11918842175E+04  0.10820848260E+04 0.  0.
        5    1    3    3  502    0  0.16127436227E+03 -0.38282080341E+03  0.63162889261E+03  0.75600154460E+03  0.46999998093E+01 0. -1.
       -5    1    3    3    0  502 -0.16127436227E+03  0.38282080341E+03 -0.13194857747E+03  0.43588267292E+03  0.46999998093E+01 0.  1.
</event>
<event>
 5   0  0.2499890E-03  0.1204146E+04  0.7818609E-02  0.9109235E-01
       -2   -1    0    0    0  501  0.00000000000E+00  0.00000000000E+00  0.41139191602E+03  0.41139191603E+03  0.25500000920E-02 0. -1.
        2   -1    0    0  501    0  0.00000000000E+00  0.00000000000E+00 -0.88113512366E+03  0.88113512366E+03  0.25500000920E-02 0.  1.
    10030    2    1    2    0    0  0.00000000000E+00  0.00000000000E+00 -0.46974320764E+03  0.12925270397E+04  0.12041459493E+04 0.  0.
        5    1    3    3  502    0 -0.37066444933E+03 -0.96920533510E+02 -0.73337661250E+03  0.82743523588E+03  0.46999998093E+01 0.  1.
       -5    1    3    3    0  502  0.37066444933E+03  0.96920533510E+02  0.26363340486E+03  0.46509180381E+03  0.46999998093E+01 0. -1.
</event>
<event>
 5   0  0.1455076E-03  0.1203150E+04  0.7818609E-02  0.9110103E-01
        1   -1    0    0  501    0  0.00000000000E+00  0.00000000000E+00  0.51831008810E+03  0.51831008813E+03  0.50400001928E-02 0. -1.
       -1   -1    0    0    0  501  0.00000000000E+00  0.00000000000E+00 -0.69821661505E+03  0.69821661506E+03  0.50400001928E-02 0.  1.
    10030    2    1    2    0    0  0.00000000000E+00  0.00000000000E+00 -0.17990652695E+03  0.12165267032E+04  0.12031503901E+04 0.  0.
        4    1    3    3  502    0 -0.69385419481E+02 -0.39355660418E+03 -0.54460780009E+03  0.67550011543E+03  0.12699999809E+01 0.  1.
       -4    1    3    3    0  502  0.69385419481E+02  0.39355660418E+03  0.36470127315E+03  0.54102658776E+03  0.12699999809E+01 0. -1.
</event>
<event>
 5   0  0.1404833E-03  0.1203806E+04  0.7818609E-02  0.9109531E-01
        1   -1    0    0  501    0  0.00000000000E+00  0.00000000000E+00  0.53351454448E+03  0.53351454450E+03  0.50400001928E-02 0. -1.
       -1   -1    0    0    0  501  0.00000000000E+00  0.00000000000E+00 -0.67905803696E+03  0.67905803698E+03  0.50400001928E-02 0.  1.
    10030    2    1    2    0    0  0.00000000000E+00  0.00000000000E+00 -0.14554349249E+03  0.12125725815E+04  0.12038061958E+04 0.  0.
        1    1    3    3  502    0 -0.27057475963E+03  0.49749744652E+03 -0.27815095842E+03  0.63093768752E+03  0.50400001928E-02 0. -1.
       -1    1    3    3    0  502  0.27057475963E+03 -0.49749744652E+03  0.13260746593E+03  0.58163489397E+03  0.50400001928E-02 0.  1.
</event>
<event>
 5   0  0.2517023E-03  0.1205019E+04  0.7818609E-02  0.9108474E-01
        2   -1    0    0  501    0  0.00000000000E+00  0.00000000000E+00  0.12908522165E+04  0.12908522165E+04  0.25500000920E-02 0. -1.
       -2   -1    0    0    0  501  0.00000000000E+00  0.00000000000E+00 -0.28122341665E+03  0.28122341667E+03  0.25500000920E-02 0.  1.
    10030    2    1    2    0    0  0.00000000000E+00  0.00000000000E+00  0.10096287999E+04  0.15720756332E+04  0.12050192874E+04 0.  0.
        3    1    3    3  502    0  0.34271076673E+03  0.29726739736E+03 -0.12440629056E+02  0.45384287437E+03  0.10100000352E+00 0.  1.
       -3    1    3    3    0  502 -0.34271076673E+03 -0.29726739736E+03  0.10220694289E+04  0.11182327588E+04  0.10100000352E+00 0. -1.
</event>
<event>
 5   0  0.2580244E-03  0.1212296E+04  0.7818609E-02  0.9102161E-01
        2   -1    0    0  501    0  0.00000000000E+00  0.00000000000E+00  0.17500603313E+04  0.17500603313E+04  0.25500000920E-02 0. -1.
       -2   -1    0    0    0  501  0.00000000000E+00  0.00000000000E+00 -0.20994445013E+03  0.20994445015E+03  0.25500000920E-02 0.  1.
    10030    2    1    2    0    0  0.00000000000E+00  0.00000000000E+00  0.15401158812E+04  0.19600047814E+04  0.12122960925E+04 0.  0.
        1    1    3    3  502    0  0.37215255571E+03 -0.46740709033E+03  0.60479470406E+03  0.85014325081E+03  0.50400001928E-02 0. -1.
       -1    1    3    3    0  502 -0.37215255571E+03  0.46740709033E+03  0.93532117710E+03  0.11098615306E+04  0.50400001928E-02 0.  1.
</event>
<event>
 5   0  0.9678750E-04  0.1198891E+04  0.7818609E-02  0.9113828E-01
        3   -1    0    0  501    0  0.00000000000E+00  0.00000000000E+00  0.86520959557E+03  0.86520960147E+03  0.10100000352E+00 0.  1.
       -3   -1    0    0    0  501  0.00000000000E+00  0.00000000000E+00 -0.41531519566E+03  0.41531520794E+03  0.10100000352E+00 0. -1.
    10030    2    1    2    0    0  0.00000000000E+00  0.00000000000E+00  0.44989439991E+03  0.12805248094E+04  0.11988906608E+04 0.  0.
        1    1    3    3  502    0  0.51823917094E+03 -0.82486555968E+02  0.53443363538E+03  0.74899611539E+03  0.50400001928E-02 0.  1.
       -1    1    3    3    0  502 -0.51823917094E+03  0.82486555968E+02 -0.84539235467E+02  0.53152869403E+03  0.50400001928E-02 0. -1.
</event>
<event>
 5   0  0.2499890E-03  0.1106910E+04  0.7818609E-02  0.9198483E-01
        2   -1    0    0  501    0  0.00000000000E+00  0.00000000000E+00  0.12746319053E+04  0.12746319053E+04  0.25500000920E-02 0.  1.
       -2   -1    0    0    0  501  0.00000000000E+00  0.00000000000E+00 -0.24031434962E+03  0.24031434963E+03  0.25500000920E-02 0. -1.
    10030    2    1    2    0    0  0.00000000000E+00  0.00000000000E+00  0.10343175556E+04  0.15149462549E+04  0.11069098199E+04 0.  0.
        5    1    3    3  502    0  0.55258215878E+03 -0.22076924147E+02  0.48793885422E+03  0.73752345606E+03  0.46999998093E+01 0. -1.
       -5    1    3    3    0  502 -0.55258215878E+03  0.22076924147E+02  0.54637870142E+03  0.77742279884E+03  0.46999998093E+01 0.  1.
</event>
<event>
 5   0  0.1403154E-03  0.1222402E+04  0.7818609E-02  0.9093471E-01
       -1   -1    0    0    0  501  0.00000000000E+00  0.00000000000E+00  0.40419948528E+03  0.40419948531E+03  0.50400001928E-02 0. -1.
        1   -1    0    0  501    0  0.00000000000E+00  0.00000000000E+00 -0.92421359097E+03  0.92421359099E+03  0.50400001928E-02 0.  1.
    10030    2    1    2    0    0  0.00000000000E+00  0.00000000000E+00 -0.52001410570E+03  0.13284130763E+04  0.12224019925E+04 0.  0.
        3    1    3    3  502    0 -0.34988570398E+03  0.35625932522E+03 -0.64303038472E+03  0.81414298407E+03  0.10100000352E+00 0.  1.
       -3    1    3    3    0  502  0.34988570398E+03 -0.35625932522E+03  0.12301627902E+03  0.51427009222E+03  0.10100000352E+00 0. -1.
</event>
<event>
 5   0  0.9678750E-04  0.1196303E+04  0.7818609E-02  0.9116099E-01
       -3   -1    0    0    0  501  0.00000000000E+00  0.00000000000E+00  0.75392557292E+03  0.75392557968E+03  0.10100000352E+00 0. -1.
        3   -1    0    0  501    0  0.00000000000E+00  0.00000000000E+00 -0.47456299827E+03  0.47456300902E+03  0.10100000352E+00 0.  1.
    10030    2    1    2    0    0  0.00000000000E+00  0.00000000000E+00  0.27936257465E+03  0.12284885887E+04  0.11963029568E+04 0.  0.
        3    1    3    3  502    0  0.27298144268E+03  0.25222199099E+03  0.62095919905E+03  0.72368856415E+03  0.10100000352E+00 0. -1.
       -3    1    3    3    0  502 -0.27298144268E+03 -0.25222199099E+03 -0.34159662440E+03  0.50480002455E+03  0.10100000352E+00 0.  1.
</event>
<event>
 5   0  0.2484507E-03  0.1231699E+04  0.7818609E-02  0.9085554E-01
        2   -1    0    0  501    0  0.00000000000E+00  0.00000000000E+00  0.70094478298E+03  0.70094478298E+03  0.25500000920E-02 0.  1.
       -2   -1    0    0    0  501  0.00000000000E+00  0.00000000000E+00 -0.54108462522E+03  0.54108462523E+03  0.25500000920E-02 0. -1.
    10030    2    1    2    0    0  0.00000000000E+00  0.00000000000E+00  0.15986015776E+03  0.12420294082E+04  0.12316987378E+04 0.  0.
        2    1    3    3  502    0 -0.15118941115E+03 -0.56089932666E+03  0.28610559685E+03  0.64755131476E+03  0.25500000920E-02 0.  1.
       -2    1    3    3    0  502  0.15118941115E+03  0.56089932666E+03 -0.12624543909E+03  0.59447809345E+03  0.25500000920E-02 0. -1.
</event>
<event>
 5   0  0.1404833E-03  0.1191645E+04  0.7818609E-02  0.9120201E-01
        1   -1    0    0  501    0  0.00000000000E+00  0.00000000000E+00  0.10111940622E+04  0.10111940622E+04  0.50400001928E-02 0. -1.
       -1   -1    0    0    0  501  0.00000000000E+00  0.00000000000E+00 -0.35107450165E+03  0.35107450169E+03  0.50400001928E-02 0.  1.
    10030    2    1    2    0    0  0.00000000000E+00  0.00000000000E+00  0.66011956054E+03  0.13622685639E+04  0.11916450000E+04 0.  0.
        1    1    3    3  502    0 -0.34210874989E+03  0.22690414015E+02 -0.22700156542E+03  0.41119698730E+03  0.50400001928E-02 0.  1.
       -1    1    3    3    0  502  0.34210874989E+03 -0.22690414015E+02  0.88712112595E+03  0.95107157658E+03  0.50400001928E-02 0. -1.
</event>
<event>
 5   0  0.2517023E-03  0.1202971E+04  0.7818609E-02  0.9110260E-01
       -2   -1    0    0    0  501  0.00000000000E+00  0.00000000000E+00  0.54961493910E+03  0.54961493911E+03  0.25500000920E-02 0.  1.
        2   -1    0    0  501    0  0.00000000000E+00  0.00000000000E+00 -0.65825137326E+03  0.65825137327E+03  0.25500000920E-02 0. -1.
    10030    2    1    2    0    0  0.00000000000E+00  0.00000000000E+00 -0.10863643416E+03  0.12078663124E+04  0.12029709696E+04 0.  0.
        3    1    3    3  502    0 -0.25137852654E+03 -0.19307681478E+03  0.45895175464E+03  0.55776925632E+03  0.10100000352E+00 0.  1.
       -3    1    3    3    0  502  0.25137852654E+03  0.19307681478E+03 -0.56758818881E+03  0.65009705605E+03  0.10100000352E+00 0. -1.
</event>
<event>
 5   0  0.2484507E-03  0.9910484E+03  0.7818609E-02  0.9318418E-01
       -2   -1    0    0    0  501  0.00000000000E+00  0.00000000000E+00  0.15656632573E+03  0.15656632575E+03  0.25500000920E-02 0.  1.
        2   -1    0    0  501    0  0.00000000000E+00  0.00000000000E+00 -0.15683080918E+04  0.15683080918E+04  0.25500000920E-02 0. -1.
    10030    2    1    2    0    0  0.00000000000E+00  0.00000000000E+00 -0.14117417661E+04  0.17248744176E+04  0.99104840562E+03 0.  0.
        2    1    3    3  502    0  0.22619823443E+03  0.44084751518E+03 -0.71572601439E+03  0.87050324559E+03  0.25500000920E-02 0.  1.
       -2    1    3    3    0  502 -0.22619823443E+03 -0.44084751518E+03 -0.69601575170E+03  0.85437117198E+03  0.25500000920E-02 0. -1.
</event>
<event>
 5   0  0.1404833E-03  0.1196347E+04  0.7818609E-02  0.9116060E-01
       -1   -1    0    0    0  501  0.00000000000E+00  0.00000000000E+00  0.21412368379E+03  0.21412368385E+03  0.50400001928E-02 0.  1.
        1   -1    0    0  501    0  0.00000000000E+00  0.00000000000E+00 -0.16710507042E+04  0.16710507042E+04  0.50400001928E-02 0. -1.
    10030    2    1    2    0    0  0.00000000000E+00  0.00000000000E+00 -0.14569270204E+04  0.18851743881E+04  0.11963469942E+04 0.  0.
        1    1    3    3  502    0  0.44657377026E+03  0.10188908289E+03 -0.12224641068E+03  0.47408195752E+03  0.50400001928E-02 0.  1.
       -1    1    3    3    0  502 -0.44657377026E+03 -0.10188908289E+03 -0.13346806098E+04  0.14110924306E+04  0.50400001928E-02 0. -1.
</event>
<event>
 5   0  0.2499890E-03  0.1193899E+04  0.7818609E-02  0.9118214E-01
        2   -1    0    0  501    0  0.00000000000E+00  0.00000000000E+00  0.32486688883E+03  0.32486688884E+03  0.25500000920E-02 0. -1.
       -2   -1    0    0    0  501  0.00000000000E+00  0.00000000000E+00 -0.10969060182E+04  0.10969060182E+04  0.25500000920E-02 0.  1.
    10030    2    1    2    0    0  0.00000000000E+00  0.00000000000E+00 -0.77203912935E+03  0.14217729070E+04  0.11938985643E+04 0.  0.
        5    1    3    3  502    0 -0.58155054987E+03 -0.18695287234E+01 -0.22570842933E+03  0.62383565325E+03  0.46999998093E+01 0. -1.
       -5    1    3    3    0  502  0.58155054987E+03  0.18695287234E+01 -0.54633070001E+03  0.79793725378E+03  0.46999998093E+01 0.  1.
</event>
<event>
 5   0  0.2484507E-03  0.1202370E+04  0.7818609E-02  0.9110785E-01
       -2   -1    0    0    0  501  0.00000000000E+00  0.00000000000E+00  0.39534087211E+03  0.39534087212E+03  0.25500000920E-02 0. -1.
        2   -1    0    0  501    0  0.00000000000E+00  0.00000000000E+00 -0.91420678925E+03  0.91420678925E+03  0.25500000920E-02 0.  1.
    10030    2    1    2    0    0  0.00000000000E+00  0.00000000000E+00 -0.51886591714E+03  0.13095476614E+04  0.12023698422E+04 0.  0.
        2    1    3    3  502    0 -0.33712343236E+03  0.46000237359E+03 -0.46656676542E+03  0.73684390406E+03  0.25500000920E-02 0.  1.
       -2    1    3    3    0  502  0.33712343236E+03 -0.46000237359E+03 -0.52299151719E+02  0.57270375731E+03  0.25500000920E-02 0. -1.
</event>
<event>
 5   0  0.2499890E-03  0.1209940E+04  0.7818609E-02  0.9104200E-01
        2   -1    0    0  501    0  0.00000000000E+00  0.00000000000E+00  0.75576676901E+03  0.75576676901E+03  0.25500000920E-02 0. -1.
       -2   -1    0    0    0  501  0.00000000000E+00  0.00000000000E+00 -0.48426134762E+03  0.48426134762E+03  0.25500000920E-02 0.  1.
    10030    2    1    2    0    0  0.00000000000E+00  0.00000000000E+00  0.27150542139E+03  0.12400281166E+04  0.12099398895E+04 0.  0.
        5    1    3    3  502    0 -0.24355837636E+03  0.38091488768E+03  0.54768025104E+03  0.71020601358E+03  0.46999998093E+01 0. -1.
       -5    1    3    3    0  502  0.24355837636E+03 -0.38091488768E+03 -0.27617482965E+03  0.52982210305E+03  0.46999998093E+01 0.  1.
</event>
<event>
 5   0  0.1404833E-03  0.1194533E+04  0.7818609E-02  0.9117656E-01
        1   -1    0    0  501    0  0.00000000000E+00  0.00000000000E+00  0.10536203134E+04  0.10536203134E+04  0.50400001928E-02 0. -1.
       -1   -1    0    0    0  501  0.00000000000E+00  0.00000000000E+00 -0.33857267346E+03  0.33857267350E+03  0.50400001928E-02 0.  1.
    10030    2    1    2    0    0  0.00000000000E+00  0.00000000000E+00  0.71504763991E+03  0.13921929869E+04  0.11945326221E+04 0.  0.
        1    1    3    3  502    0  0.22058145966E+03  0.97662559166E+02  0.99431570457E+03  0.10231607284E+04  0.50400001928E-02 0. -1.
       -1    1    3    3    0  502 -0.22058145966E+03 -0.97662559166E+02 -0.27926806466E+03  0.36903225845E+03  0.50400001928E-02 0.  1.
</event>
<event>
 5   0  0.2579442E-03  0.1187219E+04  0.7818609E-02  0.9124118E-01
       -2   -1    0    0    0  501  0.00000000000E+00  0.00000000000E+00  0.55619670002E+03  0.55619670003E+03  0.25500000920E-02 0.  1.
        2   -1    0    0  501    0  0.00000000000E+00  0.00000000000E+00 -0.63353894172E+03  0.63353894172E+03  0.25500000920E-02 0. -1.
    10030    2    1    2    0    0  0.00000000000E+00  0.00000000000E+00 -0.77342241699E+02  0.11897356417E+04  0.11872190509E+04 0.  0.
        4    1    3    3  502    0  0.23477447024E+03  0.53492337422E+03  0.66949578408E+02  0.58800163870E+03  0.12699999809E+01 0.  1.
       -4    1    3    3    0  502 -0.23477447024E+03 -0.53492337422E+03 -0.14429182011E+03  0.60173400304E+03  0.12699999809E+01 0. -1.
</event>
<event>
 5   0  0.2517023E-03  0.1216384E+04  0.7818609E-02  0.9098635E-01
       -2   -1    0    0    0  501  0.00000000000E+00  0.00000000000E+00  0.32148727623E+03  0.32148727624E+03  0.25500000920E-02 0. -1.
        2   -1    0    0  501    0  0.00000000000E+00  0.00000000000E+00 -0.11505827307E+04  0.11505827307E+04  0.25500000920E-02 0.  1.
    10030    2    1    2    0    0  0.00000000000E+00  0.00000000000E+00 -0.82909545451E+03  0.14720700070E+04  0.12163843277E+04 0.  0.
        3    1    3    3  502    0 -0.33343447939E+03  0.24081360749E+02  0.20032418796E+03  0.38972843682E+03  0.10100000352E+00 0. -1.
       -3    1    3    3    0  502  0.33343447939E+03 -0.24081360749E+02 -0.10294196425E+04  0.10823415702E+04  0.10100000352E+00 0.  1.
</event>
<event>
 5   0  0.2499890E-03  0.1192051E+04  0.7818609E-02  0.9119843E-01
        2   -1    0    0  501    0  0.00000000000E+00  0.00000000000E+00  0.57960654798E+03  0.57960654799E+03  0.25500000920E-02 0. -1.
       -2   -1    0    0    0  501  0.00000000000E+00  0.00000000000E+00 -0.61290968430E+03  0.61290968431E+03  0.25500000920E-02 0.  1.
    10030    2    1    2    0    0  0.00000000000E+00  0.00000000000E+00 -0.33303136320E+02  0.11925162323E+04  0.11920511169E+04 0.  0.
        5    1    3    3  502    0  0.16280877955E+03 -0.57108715709E+03  0.34133746138E+02  0.59483984594E+03  0.46999998093E+01 0.  1.
       -5    1    3    3    0  502 -0.16280877955E+03  0.57108715709E+03 -0.67436882457E+02  0.59767638636E+03  0.46999998093E+01 0. -1.
</event>
<event>
 5   0  0.2517023E-03  0.1201591E+04  0.7818609E-02  0.9111465E-01
       -2   -1    0    0    0  501  0.00000000000E+00  0.00000000000E+00  0.45105907871E+03  0.45105907872E+03  0.25500000920E-02 0.  1.
        2   -1    0    0  501    0  0.00000000000E+00  0.00000000000E+00 -0.80023943294E+03  0.80023943294E+03  0.25500000920E-02 0. -1.
    10030    2    1    2    0    0  0.00000000000E+00  0.00000000000E+00 -0.34918035422E+03  0.12512985117E+04  0.12015910475E+04 0.  0.
        3    1    3    3  502    0  0.31551569486E+03  0.12339206716E+03  0.34209997300E+03  0.48146459649E+03  0.10100000352E+00 0.  1.
       -3    1    3    3    0  502 -0.31551569486E+03 -0.12339206716E+03 -0.69128032722E+03  0.76983391517E+03  0.10100000352E+00 0. -1.
</event>
<event>
 5   0  0.1403154E-03  0.1173693E+04  0.7818609E-02  0.9136200E-01
       -1   -1    0    0    0  501  0.00000000000E+00  0.00000000000E+00  0.19403214495E+03  0.19403214502E+03  0.50400001928E-02 0. -1.
        1   -1    0    0  501    0  0.00000000000E+00  0.00000000000E+00 -0.17749052729E+04  0.17749052730E+04  0.50400001928E-02 0.  1.
    10030    2    1    2    0    0  0.00000000000E+00  0.00000000000E+00 -0.15808731280E+04  0.19689374180E+04  0.11736927660E+04 0.  0.
        3    1    3    3  502    0 -0.24291065600E+03 -0.53316463644E+03 -0.73433107837E+03  0.93942123630E+03  0.10100000352E+00 0. -1.
       -3    1    3    3    0  502  0.24291065600E+03  0.53316463644E+03 -0.84654204962E+03  0.10295161817E+04  0.10100000352E+00 0.  1.
</event>
<event>
 5   0  0.1403154E-03  0.1198132E+04  0.7818609E-02  0.9114493E-01
       -1   -1    0    0    0  501  0.00000000000E+00  0.00000000000E+00  0.41955658258E+03  0.41955658261E+03  0.50400001928E-02 0. -1.
        1   -1    0    0  501    0  0.00000000000E+00  0.00000000000E+00 -0.85538004472E+03  0.85538004474E+03  0.50400001928E-02 0.  1.
    10030    2    1    2    0    0  0.00000000000E+00  0.00000000000E+00 -0.43582346214E+03  0.12749366274E+04  0.11981324274E+04 0.  0.
        3    1    3    3  502    0  0.43999988476E+03 -0.16641098351E+03  0.17679428450E+03  0.50254228007E+03  0.10100000352E+00 0. -1.
       -3    1    3    3    0  502 -0.43999988476E+03  0.16641098351E+03 -0.61261774664E+03  0.77239434729E+03  0.10100000352E+00 0.  1.
</event>
<event>
 5   0  0.2579442E-03  0.1207400E+04  0.7818609E-02  0.9106404E-01
       -2   -1    0    0    0  501  0.00000000000E+00  0.00000000000E+00  0.45565464280E+03  0.45565464281E+03  0.25500000920E-02 0. -1.
        2   -1    0    0  501    0  0.00000000000E+00  0.00000000000E+00 -0.79984580888E+03  0.79984580889E+03  0.25500000920E-02 0.  1.
    10030    2    1    2    0    0  0.00000000000E+00  0.00000000000E+00 -0.34419116608E+03  0.12555004517E+04  0.12073996130E+04 0.  0.
        4    1    3    3  502    0 -0.47547946426E+02 -0.76016641468E+02 -0.79288214672E+03  0.79793674466E+03  0.12699999809E+01 0.  1.
       -4    1    3    3    0  502  0.47547946426E+02  0.76016641468E+02  0.44869098064E+03  0.45756370703E+03  0.12699999809E+01 0. -1.
</event>
<event>
 5   0  0.1469851E-03  0.1217088E+04  0.7818609E-02  0.9098029E-01
       -1   -1    0    0    0  501  0.00000000000E+00  0.00000000000E+00  0.21458934151E+03  0.21458934157E+03  0.50400001928E-02 0.  1.
        1   -1    0    0  501    0  0.00000000000E+00  0.00000000000E+00 -0.17257425129E+04  0.17257425129E+04  0.50400001928E-02 0. -1.
    10030    2    1    2    0    0  0.00000000000E+00  0.00000000000E+00 -0.15111531714E+04  0.19403318545E+04  0.12170882458E+04 0.  0.
        5    1    3    3  502    0  0.52256497179E+03 -0.11033252077E+03 -0.29062518755E+03  0.60805633334E+03  0.46999998093E+01 0.  1.
       -5    1    3    3    0  502 -0.52256497179E+03  0.11033252077E+03 -0.12205279838E+04  0.13322755211E+04  0.46999998093E+01 0. -1.
</event>
<event>
 5   0  0.9678750E-04  0.1203997E+04  0.7818609E-02  0.9109365E-01
        3   -1    0    0  501    0  0.00000000000E+00  0.00000000000E+00  0.79567275081E+03  0.79567275722E+03  0.10100000352E+00 0. -1.
       -3   -1    0    0    0  501  0.00000000000E+00  0.00000000000E+00 -0.45546645948E+03  0.45546647068E+03  0.10100000352E+00 0.  1.
    10030    2    1    2    0    0  0.00000000000E+00  0.00000000000E+00  0.34020629133E+03  0.12511392279E+04  0.12039971125E+04 0.  0.
        4    1    3    3  502    0 -0.45406097750E+03 -0.31648383708E+03 -0.75953362117E+02  0.55866261423E+03  0.12699999809E+01 0. -1.
       -4    1    3    3    0  502  0.45406097750E+03  0.31648383708E+03  0.41615965345E+03  0.69247661367E+03  0.12699999809E+01 0.  1.
</event>
<event>
 5   0  0.1403154E-03  0.1195399E+04  0.7818609E-02  0.9116893E-01
       -1   -1    0    0    0  501  0.00000000000E+00  0.00000000000E+00  0.37345517612E+03  0.37345517615E+03  0.50400001928E-02 0.  1.
        1   -1    0    0  501    0  0.00000000000E+00  0.00000000000E+00 -0.95659372088E+03  0.95659372090E+03  0.50400001928E-02 0. -1.
    10030    2    1    2    0    0  0.00000000000E+00  0.00000000000E+00 -0.58313854477E+03  0.13300488970E+04  0.11953993082E+04 0.  0.
        3    1    3    3  502    0  0.34750585607E+03  0.14983774809E+03  0.22317932872E+03  0.43934120422E+03  0.10100000352E+00 0.  1.
       -3    1    3    3    0  502 -0.34750585607E+03 -0.14983774809E+03 -0.80631787349E+03  0.89070769283E+03  0.10100000352E+00 0. -1.
</event>
<event>
 5   0  0.9678750E-04  0.1163349E+04  0.7818609E-02  0.9145556E-01
        3   -1    0    0  501    0  0.00000000000E+00  0.00000000000E+00  0.10069818930E+04  0.10069818981E+04  0.10100000352E+00 0. -1.
       -3   -1    0    0    0  501  0.00000000000E+00  0.00000000000E+00 -0.33599946095E+03  0.33599947613E+03  0.10100000352E+00 0.  1.
    10030    2    1    2    0    0  0.00000000000E+00  0.00000000000E+00  0.67098243206E+03  0.13429813742E+04  0.11633492800E+04 0.  0.
        2    1    3    3  502    0  0.18423907988E+03 -0.52384651907E+03  0.53539470924E+03  0.77136677968E+03  0.25500000920E-02 0. -1.
       -2    1    3    3    0  502 -0.18423907988E+03  0.52384651907E+03  0.13558772282E+03  0.57161459454E+03  0.25500000920E-02 0.  1.
</event>
<event>
 5   0  0.1403154E-03  0.1169801E+04  0.7818609E-02  0.9139708E-01
        1   -1    0    0  501    0  0.00000000000E+00  0.00000000000E+00  0.42150001083E+03  0.42150001086E+03  0.50400001928E-02 0.  1.
       -1   -1    0    0    0  501  0.00000000000E+00  0.00000000000E+00 -0.81164592059E+03  0.81164592060E+03  0.50400001928E-02 0. -1.
    10030    2    1    2    0    0  0.00000000000E+00  0.00000000000E+00 -0.39014590976E+03  0.12331459315E+04  0.11698012897E+04 0.  0.
        3    1    3    3  502    0  0.31644179028E+03  0.48968056977E+03 -0.24436263214E+03  0.63216736173E+03  0.10100000352E+00 0.  1.
       -3    1    3    3    0  502 -0.31644179028E+03 -0.48968056977E+03 -0.14578327762E+03  0.60097856973E+03  0.10100000352E+00 0. -1.
</event>
<event>
 5   0  0.2580244E-03  0.1202086E+04  0.7818609E-02  0.9111033E-01
       -2   -1    0    0    0  501  0.00000000000E+00  0.00000000000E+00  0.11527686775E+04  0.11527686775E+04  0.25500000920E-02 0. -1.
        2   -1    0    0  501    0  0.00000000000E+00  0.00000000000E+00 -0.31337834989E+03  0.31337834990E+03  0.25500000920E-02 0.  1.
    10030    2    1    2    0    0  0.00000000000E+00  0.00000000000E+00  0.83939032765E+03  0.14661470274E+04  0.12020860967E+04 0.  0.
        1    1    3    3  502    0  0.47884391245E+03  0.51721827774E+02 -0.18853586253E+02  0.48199802666E+03  0.50400001928E-02 0.  1.
       -1    1    3    3    0  502 -0.47884391245E+03 -0.51721827774E+02  0.85824391391E+03  0.98414900078E+03  0.50400001928E-02 0. -1.
</event>
<event>
 5   0  0.1423024E-03  0.1183781E+04  0.7818609E-02  0.9127173E-01
       -1   -1    0    0    0  501  0.00000000000E+00  0.00000000000E+00  0.38621751687E+03  0.38621751690E+03  0.50400001928E-02 0.  1.
        1   -1    0    0  501    0  0.00000000000E+00  0.00000000000E+00 -0.90709016801E+03  0.90709016803E+03  0.50400001928E-02 0. -1.
    10030    2    1    2    0    0  0.00000000000E+00  0.00000000000E+00 -0.52087265114E+03  0.12933076849E+04  0.11837805748E+04 0.  0.
        2    1    3    3  502    0  0.38159905617E+03  0.45204528617E+03 -0.23938343349E+03  0.63817490443E+03  0.25500000920E-02 0.  1.
       -2    1    3    3    0  502 -0.38159905617E+03 -0.45204528617E+03 -0.28148921765E+03  0.65513278049E+03  0.25500000920E-02 0. -1.
</event>
<event>
 5   0  0.1403154E-03  0.1207454E+04  0.7818609E-02  0.9106357E-01
        1   -1    0    0  501    0  0.00000000000E+00  0.00000000000E+00  0.41440336897E+03  0.41440336901E+03  0.50400001928E-02 0.  1.
       -1   -1    0    0    0  501  0.00000000000E+00  0.00000000000E+00 -0.87954449520E+03  0.87954449521E+03  0.50400001928E-02 0. -1.
    10030    2    1    2    0    0  0.00000000000E+00  0.00000000000E+00 -0.46514112622E+03  0.12939478642E+04  0.12074538534E+04 0.  0.
        3    1    3    3  502    0 -0.63481887641E+02 -0.13960320023E+03  0.39318184611E+03  0.42203196311E+03  0.10100000352E+00 0.  1.
       -3    1    3    3    0  502  0.63481887641E+02  0.13960320023E+03 -0.85832297233E+03  0.87191590111E+03  0.10100000352E+00 0. -1.
</event>
<event>
 5   0  0.1423024E-03  0.1202726E+04  0.7818609E-02  0.9110474E-01
        1   -1    0    0  501    0  0.00000000000E+00  0.00000000000E+00  0.96491882983E+03  0.96491882985E+03  0.50400001928E-02 0.  1.
       -1   -1    0    0    0  501  0.00000000000E+00  0.00000000000E+00 -0.37478521738E+03  0.37478521741E+03  0.50400001928E-02 0. -1.
    10030    2    1    2    0    0  0.00000000000E+00  0.00000000000E+00  0.59013361245E+03  0.13397040473E+04  0.12027257600E+04 0.  0.
        2    1    3    3  502    0  0.17828257824E+03 -0.56919631073E+03  0.20973822081E+03  0.63226516520E+03  0.25500000920E-02 0. -1.
       -2    1    3    3    0  502 -0.17828257824E+03  0.56919631073E+03  0.38039539165E+03  0.70743888206E+03  0.25500000920E-02 0.  1.
</event>
<event>
 5   0  0.1403154E-03  0.1199499E+04  0.7818609E-02  0.9113295E-01
        1   -1    0    0  501    0  0.00000000000E+00  0.00000000000E+00  0.58004141434E+03  0.58004141436E+03  0.50400001928E-02 0.  1.
       -1   -1    0    0    0  501  0.00000000000E+00  0.00000000000E+00 -0.62012723044E+03  0.62012723046E+03  0.50400001928E-02 0. -1.
    10030    2    1    2    0    0  0.00000000000E+00  0.00000000000E+00 -0.40085816102E+02  0.12001686448E+04  0.11994990218E+04 0.  0.
        3    1    3    3  502    0 -0.46900643239E+03 -0.86147902539E+02 -0.38399172028E+03  0.61224026834E+03  0.10100000352E+00 0. -1.
       -3    1    3    3    0  502  0.46900643239E+03  0.86147902539E+02  0.34390590418E+03  0.58792837648E+03  0.10100000352E+00 0.  1.
</event>
<event>
 5   0  0.2499890E-03  0.1227944E+04  0.7818609E-02  0.9088743E-01
       -2   -1    0    0    0  501  0.00000000000E+00  0.00000000000E+00  0.29199607024E+03  0.29199607025E+03  0.25500000920E-02 0.  1.
        2   -1    0    0  501    0  0.00000000000E+00  0.00000000000E+00 -0.12909810455E+04  0.12909810455E+04  0.25500000920E-02 0. -1.
    10030    2    1    2    0    0  0.00000000000E+00  0.00000000000E+00 -0.99898497523E+03  0.15829771157E+04  0.12279436340E+04 0.  0.
        5    1    3    3  502    0  0.36502382969E+03  0.45079139594E+03 -0.24011156131E+03  0.62779847943E+03  0.46999998093E+01 0.  1.
       -5    1    3    3    0  502 -0.36502382969E+03 -0.45079139594E+03 -0.75887341392E+03  0.95517863630E+03  0.46999998093E+01 0. -1.
</event>
<event>
 5   0  0.2580244E-03  0.1199356E+04  0.7818609E-02  0.9113421E-01
       -2   -1    0    0    0  501  0.00000000000E+00  0.00000000000E+00  0.53183345583E+03  0.53183345584E+03  0.25500000920E-02 0.  1.
        2   -1    0    0  501    0  0.00000000000E+00  0.00000000000E+00 -0.67617705980E+03  0.67617705981E+03  0.25500000920E-02 0. -1.
    10030    2    1    2    0    0  0.00000000000E+00  0.00000000000E+00 -0.14434360397E+03  0.12080105156E+04  0.11993557979E+04 0.  0.
        1    1    3    3  502    0 -0.23255927456E+02  0.53757379688E+03  0.19447838855E+03  0.57214357367E+03  0.50400001928E-02 0. -1.
       -1    1    3    3    0  502  0.23255927456E+02 -0.53757379688E+03 -0.33882199252E+03  0.63586694198E+03  0.50400001928E-02 0.  1.
</event>
<event>
 5   0  0.1404833E-03  0.1175422E+04  0.7818609E-02  0.9134646E-01
        1   -1    0    0  501    0  0.00000000000E+00  0.00000000000E+00  0.18332236484E+04  0.18332236484E+04  0.50400001928E-02 0.  1.
       -1   -1    0    0    0  501  0.00000000000E+00  0.00000000000E+00 -0.18841357311E+03  0.18841357317E+03  0.50400001928E-02 0. -1.
    10030    2    1    2    0    0  0.00000000000E+00  0.00000000000E+00  0.16448100753E+04  0.20216372216E+04  0.11754219974E+04 0.  0.
        1    1    3    3  502    0 -0.34975946709E+02 -0.56095855552E+02 -0.18199876867E+03  0.19363267720E+03  0.50400001928E-02 0. -1.
       -1    1    3    3    0  502  0.34975946709E+02  0.56095855552E+02  0.18268088440E+04  0.18280045444E+04  0.50400001928E-02 0.  1.
</event>
<event>
 5   0  0.2484507E-03  0.1215067E+04  0.7818609E-02  0.9099769E-01
        2   -1    0    0  501    0  0.00000000000E+00  0.00000000000E+00  0.14122448104E+04  0.14122448104E+04  0.25500000920E-02 0.  1.
       -2   -1    0    0    0  501  0.00000000000E+00  0.00000000000E+00 -0.26135495160E+03  0.26135495161E+03  0.25500000920E-02 0. -1.
    10030    2    1    2    0    0  0.00000000000E+00  0.00000000000E+00  0.11508898588E+04  0.16735997620E+04  0.12150673629E+04 0.  0.
        2    1    3    3  502    0 -0.22658804383E+03  0.29291205157E+02  0.13508173568E+04  0.13700027911E+04  0.25500000920E-02 0.  1.
       -2    1    3    3    0  502  0.22658804383E+03 -0.29291205157E+02 -0.19992749795E+03  0.30359697091E+03  0.25500000920E-02 0. -1.
</event>
<event>
 5   0  0.2499890E-03  0.1230710E+04  0.7818609E-02  0.9086393E-01
        2   -1    0    0  501    0  0.00000000000E+00  0.00000000000E+00  0.39840719305E+03  0.39840719306E+03  0.25500000920E-02 0.  1.
       -2   -1    0    0    0  501  0.00000000000E+00  0.00000000000E+00 -0.95043854733E+03  0.95043854733E+03  0.25500000920E-02 0. -1.
    10030    2    1    2    0    0  0.00000000000E+00  0.00000000000E+00 -0.55203135428E+03  0.13488457404E+04  0.12307096389E+04 0.  0.
        5    1    3    3  502    0 -0.53330300110E+03 -0.12446951314E+03  0.31515965195E+02  0.54856184405E+03  0.46999998093E+01 0.  1.
       -5    1    3    3    0  502  0.53330300110E+03  0.12446951314E+03 -0.58354731948E+03  0.80028389634E+03  0.46999998093E+01 0. -1.
</event>
<event>
 5   0  0.1423024E-03  0.1202785E+04  0.7818609E-02  0.9110423E-01
        1   -1    0    0  501    0  0.00000000000E+00  0.00000000000E+00  0.43028362983E+03  0.43028362986E+03  0.50400001928E-02 0. -1.
       -1   -1    0    0    0  501  0.00000000000E+00  0.00000000000E+00 -0.84054509114E+03  0.84054509116E+03  0.50400001928E-02 0.  1.
    10030    2    1    2    0    0  0.00000000000E+00  0.00000000000E+00 -0.41026146131E+03  0.12708287210E+04  0.12027847569E+04 0.  0.
        2    1    3    3  502    0  0.70399833684E+02 -0.55734325659E+03  0.21688363395E+02  0.56219038355E+03  0.25500000920E-02 0.  1.
       -2    1    3    3    0  502 -0.70399833684E+02  0.55734325659E+03 -0.43194982471E+03  0.70863833746E+03  0.25500000920E-02 0. -1.
</event>
<event>
 5   0  0.2484507E-03  0.1196463E+04  0.7818609E-02  0.9115958E-01
        2   -1    0    0  501    0  0.00000000000E+00  0.00000000000E+00  0.93092065135E+03  0.93092065135E+03  0.25500000920E-02 0. -1.
       -2   -1    0    0    0  501  0.00000000000E+00  0.00000000000E+00 -0.38443748157E+03  0.38443748157E+03  0.25500000920E-02 0.  1.
    10030    2    1    2    0    0  0.00000000000E+00  0.00000000000E+00  0.54648316978E+03  0.13153581329E+04  0.11964627713E+04 0.  0.
        2    1    3    3  502    0  0.39833545789E+03  0.14052992693E+03 -0.19248374424E+03  0.46418723504E+03  0.25500000920E-02 0.  1.
       -2    1    3    3    0  502 -0.39833545789E+03 -0.14052992693E+03  0.73896691402E+03  0.85117089788E+03  0.25500000920E-02 0. -1.
</event>
<event>
 5   0  0.2517023E-03  0.1200417E+04  0.7818609E-02  0.9112491E-01
       -2   -1    0    0    0  501  0.00000000000E+00  0.00000000000E+00  0.50937567598E+03  0.50937567599E+03  0.25500000920E-02 0. -1.
        2   -1    0    0  501    0  0.00000000000E+00  0.00000000000E+00 -0.70723908274E+03  0.70723908274E+03  0.25500000920E-02 0.  1.
    10030    2    1    2    0    0  0.00000000000E+00  0.00000000000E+00 -0.19786340676E+03  0.12166147587E+04  0.12004172372E+04 0.  0.
        3    1    3    3  502    0 -0.20014788170E+03 -0.62856040312E+02  0.47100874209E+03  0.51561545912E+03  0.10100000352E+00 0. -1.
       -3    1    3    3    0  502  0.20014788170E+03  0.62856040312E+02 -0.66887214885E+03  0.70099929961E+03  0.10100000352E+00 0.  1.
</event>
<event>
 5   0  0.1469851E-03  0.1202707E+04  0.7818609E-02  0.9110490E-01
        1   -1    0    0  501    0  0.00000000000E+00  0.00000000000E+00  0.14489423237E+04  0.14489423237E+04  0.50400001928E-02 0.  1.
       -1   -1    0    0    0  501  0.00000000000E+00  0.00000000000E+00 -0.24957928181E+03  0.24957928186E+03  0.50400001928E-02 0. -1.
    10030    2    1    2    0    0  0.00000000000E+00  0.00000000000E+00  0.11993630419E+04  0.16985216056E+04  0.12027069212E+04 0.  0.
        5    1    3    3  502    0  0.12194005672E+03 -0.47229917648E+01  0.14312458161E+04  0.14364464349E+04  0.46999998093E+01 0.  1.
       -5    1    3    3    0  502 -0.12194005672E+03  0.47229917648E+01 -0.23188277426E+03  0.26207517067E+03  0.46999998093E+01 0. -1.
</event>
<event>
 5   0  0.1469851E-03  0.1045165E+04  0.7818609E-02  0.9260350E-01
       -1   -1    0    0    0  501  0.00000000000E+00  0.00000000000E+00  0.24547865243E+03  0.24547865248E+03  0.50400001928E-02 0. -1.
        1   -1    0    0  501    0  0.00000000000E+00  0.00000000000E+00 -0.11124897591E+04  0.11124897592E+04  0.50400001928E-02 0.  1.
    10030    2    1    2    0    0  0.00000000000E+00  0.00000000000E+00 -0.86701110671E+03  0.13579684116E+04  0.10451650338E+04 0.  0.
        5    1    3    3  502    0  0.89158687640E+02 -0.48164288657E+03 -0.67003720932E+03  0.83000065882E+03  0.46999998093E+01 0.  1.
       -5    1    3    3    0  502 -0.89158687640E+02  0.48164288657E+03 -0.19697389739E+03  0.52796775282E+03  0.46999998093E+01 0. -1.
</event>
<event>
 5   0  0.2580244E-03  0.1203089E+04  0.7818609E-02  0.9110157E-01
        2   -1    0    0  501    0  0.00000000000E+00  0.00000000000E+00  0.12574709346E+04  0.12574709346E+04  0.25500000920E-02 0. -1.
       -2   -1    0    0    0  501  0.00000000000E+00  0.00000000000E+00 -0.28776475441E+03  0.28776475442E+03  0.25500000920E-02 0.  1.
    10030    2    1    2    0    0  0.00000000000E+00  0.00000000000E+00  0.96970618022E+03  0.15452356890E+04  0.12030890486E+04 0.  0.
        1    1    3    3  502    0  0.23740815664E+03  0.42684771972E+03  0.93584452158E+03  0.10556356271E+04  0.50400001928E-02 0. -1.
       -1    1    3    3    0  502 -0.23740815664E+03 -0.42684771972E+03  0.33861658637E+02  0.48960006191E+03  0.50400001928E-02 0.  1.
</event>
<event>
 5   0  0.1455076E-03  0.1184224E+04  0.7818609E-02  0.9126778E-01
       -1   -1    0    0    0  501  0.00000000000E+00  0.00000000000E+00  0.45789149157E+03  0.45789149160E+03  0.50400001928E-02 0. -1.
        1   -1    0    0  501    0  0.00000000000E+00  0.00000000000E+00 -0.76567617564E+03  0.76567617566E+03  0.50400001928E-02 0.  1.
    10030    2    1    2    0    0  0.00000000000E+00  0.00000000000E+00 -0.30778468407E+03  0.12235676673E+04  0.11842239757E+04 0.  0.
        4    1    3    3  502    0  0.15742038462E+03  0.18482270223E+03  0.40410020414E+03  0.47142252454E+03  0.12699999809E+01 0. -1.
       -4    1    3    3    0  502 -0.15742038462E+03 -0.18482270223E+03 -0.71188488821E+03  0.75214514272E+03  0.12699999809E+01 0.  1.
</event>
<event>
 5   0  0.1423024E-03  0.1198778E+04  0.7818609E-02  0.9113927E-01
        1   -1    0    0  501    0  0.00000000000E+00  0.00000000000E+00  0.42680630775E+03  0.42680630778E+03  0.50400001928E-02 0.  1.
       -1   -1    0    0    0  501  0.00000000000E+00  0.00000000000E+00 -0.84175705919E+03  0.84175705921E+03  0.50400001928E-02 0. -1.
    10030    2    1    2    0    0  0.00000000000E+00  0.00000000000E+00 -0.41495075144E+03  0.12685633670E+04  0.11987780820E+04 0.  0.
        2    1    3    3  502    0 -0.39299853150E+03  0.36693232913E+03 -0.48781222347E+03  0.72598067832E+03  0.25500000920E-02 0. -1.
       -2    1    3    3    0  502  0.39299853150E+03 -0.36693232913E+03  0.72861472034E+02  0.54258268866E+03  0.25500000920E-02 0.  1.
</event>
<event>
 5   0  0.2579442E-03  0.1205990E+04  0.7818609E-02  0.9107629E-01
       -2   -1    0    0    0  501  0.00000000000E+00  0.00000000000E+00  0.31466059973E+03  0.31466059974E+03  0.25500000920E-02 0.  1.
        2   -1    0    0  501    0  0.00000000000E+00  0.00000000000E+00 -0.11555405506E+04  0.11555405506E+04  0.25500000920E-02 0. -1.
    10030    2    1    2    0    0  0.00000000000E+00  0.00000000000E+00 -0.84087995090E+03  0.14702011504E+04  0.12059901868E+04 0.  0.
        4    1    3    3  502    0  0.10629253766E+03  0.40421037461E+03 -0.95030944225E+03  0.10381588411E+04  0.12699999809E+01 0. -1.
       -4    1    3    3    0  502 -0.10629253766E+03 -0.40421037461E+03  0.10942949135E+03  0.43204230924E+03  0.12699999809E+01 0.  1.
</event>
<event>
 5   0  0.2484507E-03  0.1205809E+04  0.7818609E-02  0.9107787E-01
       -2   -1    0    0    0  501  0.00000000000E+00  0.00000000000E+00  0.13134208115E+03  0.13134208118E+03  0.25500000920E-02 0. -1.
        2   -1    0    0  501    0  0.00000000000E+00  0.00000000000E+00 -0.27675346442E+04  0.27675346442E+04  0.25500000920E-02 0.  1.
    10030    2    1    2    0    0  0.00000000000E+00  0.00000000000E+00 -0.26361925630E+04  0.28988767254E+04  0.12058088735E+04 0.  0.
        2    1    3    3  502    0 -0.29152331798E+03 -0.52743806234E+03 -0.13609003013E+04  0.14883636601E+04  0.25500000920E-02 0.  1.
       -2    1    3    3    0  502  0.29152331798E+03  0.52743806234E+03 -0.12752922617E+04  0.14105130653E+04  0.25500000920E-02 0. -1.
</event>
<event>
 5   0  0.2499890E-03  0.1197359E+04  0.7818609E-02  0.9115171E-01
        2   -1    0    0  501    0  0.00000000000E+00  0.00000000000E+00  0.17589115984E+04  0.17589115984E+04  0.25500000920E-02 0. -1.
       -2   -1    0    0    0  501  0.00000000000E+00  0.00000000000E+00 -0.20377222119E+03  0.20377222121E+03  0.25500000920E-02 0.  1.
    10030    2    1    2    0    0  0.00000000000E+00  0.00000000000E+00  0.15551393772E+04  0.19626838196E+04  0.11973593000E+04 0.  0.
        5    1    3    3  502    0 -0.46066413808E+03  0.66979712799E+02  0.13946006397E+04  0.14702485383E+04  0.46999998093E+01 0. -1.
       -5    1    3    3    0  502  0.46066413808E+03 -0.66979712799E+02  0.16053873746E+03  0.49243528130E+03  0.46999998093E+01 0.  1.
</event>
<event>
 5   0  0.9678750E-04  0.1202597E+04  0.7818609E-02  0.9110586E-01
        4   -1    0    0  501    0  0.00000000000E+00  0.00000000000E+00  0.57719411843E+03  0.57719551562E+03  0.12699999809E+01 0. -1.
       -4   -1    0    0    0  501  0.00000000000E+00  0.00000000000E+00 -0.62640705074E+03  0.62640833816E+03  0.12699999809E+01 0.  1.
    10030    2    1    2    0    0  0.00000000000E+00  0.00000000000E+00 -0.49212932317E+02  0.12036038538E+04  0.12025973242E+04 0.  0.
        1    1    3    3  502    0  0.22741238641E+03 -0.55270016140E+03 -0.90739142552E+02  0.60450595855E+03  0.50400001928E-02 0.  1.
       -1    1    3    3    0  502 -0.22741238641E+03  0.55270016140E+03  0.41526210236E+02  0.59909789523E+03  0.50400001928E-02 0. -1.
</event>
<event>
 5   0  0.2579442E-03  0.1199311E+04  0.7818609E-02  0.9113460E-01
        2   -1    0    0  501    0  0.00000000000E+00  0.00000000000E+00  0.11268765271E+04  0.11268765271E+04  0.25500000920E-02 0.  1.
       -2   -1    0    0    0  501  0.00000000000E+00  0.00000000000E+00 -0.31910052769E+03  0.31910052770E+03  0.25500000920E-02 0. -1.
    10030    2    1    2    0    0  0.00000000000E+00  0.00000000000E+00  0.80777599942E+03  0.14459770548E+04  0.11993112931E+04 0.  0.
        4    1    3    3  502    0 -0.45496062092E+02  0.55012224285E+03  0.12143894759E+03  0.56520209186E+03  0.12699999809E+01 0. -1.
       -4    1    3    3    0  502  0.45496062092E+02 -0.55012224285E+03  0.68633705183E+03  0.88077496295E+03  0.12699999809E+01 0.  1.
</event>
<event>
 5   0  0.2517023E-03  0.1197700E+04  0.7818609E-02  0.9114872E-01
       -2   -1    0    0    0  501  0.00000000000E+00  0.00000000000E+00  0.30004331503E+03  0.30004331504E+03  0.25500000920E-02 0.  1.
        2   -1    0    0  501    0  0.00000000000E+00  0.00000000000E+00 -0.11952310976E+04  0.11952310976E+04  0.25500000920E-02 0. -1.
    10030    2    1    2    0    0  0.00000000000E+00  0.00000000000E+00 -0.89518778260E+03  0.14952744127E+04  0.11976996297E+04 0.  0.
        3    1    3    3  502    0  0.39744038390E+03 -0.15202017769E+03 -0.97365462923E+03  0.10625781573E+04  0.10100000352E+00 0. -1.
       -3    1    3    3    0  502 -0.39744038390E+03  0.15202017769E+03  0.78466846630E+02  0.43269625535E+03  0.10100000352E+00 0.  1.
</event>
<event>
 5   0  0.1403154E-03  0.1204424E+04  0.7818609E-02  0.9108993E-01
        1   -1    0    0  501    0  0.00000000000E+00  0.00000000000E+00  0.93752727065E+03  0.93752727066E+03  0.50400001928E-02 0. -1.
       -1   -1    0    0    0  501  0.00000000000E+00  0.00000000000E+00 -0.38682511756E+03  0.38682511760E+03  0.50400001928E-02 0.  1.
    10030    2    1    2    0    0  0.00000000000E+00  0.00000000000E+00  0.55070215308E+03  0.13243523883E+04  0.12044236742E+04 0.  0.
        3    1    3    3  502    0 -0.18903598468E+03  0.52448680153E+03  0.25000427758E+02  0.55807350777E+03  0.10100000352E+00 0.  1.
       -3    1    3    3    0  502  0.18903598468E+03 -0.52448680153E+03  0.52570172533E+03  0.76627888050E+03  0.10100000352E+00 0. -1.
</event>
<event>
 5   0  0.2517023E-03  0.1200133E+04  0.7818609E-02  0.9112740E-01
        2   -1    0    0  501    0  0.00000000000E+00  0.00000000000E+00  0.50428373311E+03  0.50428373311E+03  0.25500000920E-02 0.  1.
       -2   -1    0    0    0  501  0.00000000000E+00  0.00000000000E+00 -0.71404261516E+03  0.71404261516E+03  0.25500000920E-02 0. -1.
    10030    2    1    2    0    0  0.00000000000E+00  0.00000000000E+00 -0.20975888205E+03  0.12183263483E+04  0.12001334519E+04 0.  0.
        3    1    3    3  502    0 -0.51840420706E+03  0.30032164703E+03 -0.70542868654E+02  0.60325145677E+03  0.10100000352E+00 0. -1.
       -3    1    3    3    0  502  0.51840420706E+03 -0.30032164703E+03 -0.13921601340E+03  0.61507489151E+03  0.10100000352E+00 0.  1.
</event>
<event>
 5   0  0.1423024E-03  0.1199669E+04  0.7818609E-02  0.9113147E-01
        1   -1    0    0  501    0  0.00000000000E+00  0.00000000000E+00  0.68831384876E+03  0.68831384877E+03  0.50400001928E-02 0. -1.
       -1   -1    0    0    0  501  0.00000000000E+00  0.00000000000E+00 -0.52272836828E+03  0.52272836831E+03  0.50400001928E-02 0.  1.
    10030    2    1    2    0    0  0.00000000000E+00  0.00000000000E+00  0.16558548047E+03  0.12110422171E+04  0.11996685793E+04 0.  0.
        2    1    3    3  502    0  0.10830934723E+03  0.52018105699E+03  0.36378749223E+03  0.64394144630E+03  0.25500000920E-02 0. -1.
       -2    1    3    3    0  502 -0.10830934723E+03 -0.52018105699E+03 -0.19820201175E+03  0.56710077078E+03  0.25500000920E-02 0.  1.
</event>
<event>
 5   0  0.1404833E-03  0.1193029E+04  0.7818609E-02  0.9118980E-01
       -1   -1    0    0    0  501  0.00000000000E+00  0.00000000000E+00  0.49007520614E+03  0.49007520616E+03  0.50400001928E-02 0.  1.
        1   -1    0    0  501    0  0.00000000000E+00  0.00000000000E+00 -0.72607178498E+03  0.72607178499E+03  0.50400001928E-02 0. -1.
    10030    2    1    2    0    0  0.00000000000E+00  0.00000000000E+00 -0.23599657884E+03  0.12161469912E+04  0.11930293873E+04 0.  0.
        1    1    3    3  502    0  0.47863548144E+03  0.12489833609E+03 -0.45783221096E+03  0.67401917767E+03  0.50400001928E-02 0. -1.
       -1    1    3    3    0  502 -0.47863548144E+03 -0.12489833609E+03  0.22183563212E+03  0.54212781348E+03  0.50400001928E-02 0.  1.
</event>
<event>
 5   0  0.2579442E-03  0.1196432E+04  0.7818609E-02  0.9115985E-01
        2   -1    0    0  501    0  0.00000000000E+00  0.00000000000E+00  0.62566945639E+03  0.62566945639E+03  0.25500000920E-02 0. -1.
       -2   -1    0    0    0  501  0.00000000000E+00  0.00000000000E+00 -0.57196748706E+03  0.57196748706E+03  0.25500000920E-02 0.  1.
    10030    2    1    2    0    0  0.00000000000E+00  0.00000000000E+00  0.53701969328E+02  0.11976369435E+04  0.11964323411E+04 0.  0.
        4    1    3    3  502    0 -0.56716952613E+03 -0.12364374488E+03 -0.11783494120E+03  0.59233076342E+03  0.12699999809E+01 0.  1.
       -4    1    3    3    0  502  0.56716952613E+03  0.12364374488E+03  0.17153691053E+03  0.60530618004E+03  0.12699999809E+01 0. -1.
</event>
<event>
 5   0  0.2579442E-03  0.1204395E+04  0.7818609E-02  0.9109018E-01
        2   -1    0    0  501    0  0.00000000000E+00  0.00000000000E+00  0.12294479853E+04  0.12294479853E+04  0.25500000920E-02 0.  1.
       -2   -1    0    0    0  501  0.00000000000E+00  0.00000000000E+00 -0.29496335669E+03  0.29496335671E+03  0.25500000920E-02 0. -1.
    10030    2    1    2    0    0  0.00000000000E+00  0.00000000000E+00  0.93448462860E+03  0.15244113420E+04  0.12043954577E+04 0.  0.
        4    1    3    3  502    0 -0.51760029986E+03  0.10427389048E+03  0.83376739631E+03  0.98689046945E+03  0.12699999809E+01 0.  1.
       -4    1    3    3    0  502  0.51760029986E+03 -0.10427389048E+03  0.10071723229E+03  0.53752087255E+03  0.12699999809E+01 0. -1.
</event>
<event>
 5   0  0.2579442E-03  0.1211695E+04  0.7818609E-02  0.9102681E-01
       -2   -1    0    0    0  501  0.00000000000E+00  0.00000000000E+00  0.30177774045E+03  0.30177774046E+03  0.25500000920E-02 0.  1.
        2   -1    0    0  501    0  0.00000000000E+00  0.00000000000E+00 -0.12162957374E+04  0.12162957374E+04  0.25500000920E-02 0. -1.
    10030    2    1    2    0    0  0.00000000000E+00  0.00000000000E+00 -0.91451799699E+03  0.15180734779E+04  0.12116946470E+04 0.  0.
        4    1    3    3  502    0 -0.44753271976E+03  0.13318622463E+03 -0.94090716845E+03  0.10503961244E+04  0.12699999809E+01 0. -1.
       -4    1    3    3    0  502  0.44753271976E+03 -0.13318622463E+03  0.26389171455E+02  0.46767735348E+03  0.12699999809E+01 0.  1.
</event>
<event>
 5   0  0.9678750E-04  0.1175104E+04  0.7818609E-02  0.9134931E-01
       -3   -1    0    0    0  501  0.00000000000E+00  0.00000000000E+00  0.57861607112E+03  0.57861607994E+03  0.10100000352E+00 0. -1.
        3   -1    0    0  501    0  0.00000000000E+00  0.00000000000E+00 -0.59662637379E+03  0.59662638234E+03  0.10100000352E+00 0.  1.
    10030    2    1    2    0    0  0.00000000000E+00  0.00000000000E+00 -0.18010302668E+02  0.11752424623E+04  0.11751044524E+04 0.  0.
        1    1    3    3  502    0 -0.29277742251E+03  0.13076636587E+03  0.48339316029E+03  0.58007534771E+03  0.50400001928E-02 0. -1.
       -1    1    3    3    0  502  0.29277742251E+03 -0.13076636587E+03 -0.50140346296E+03  0.59516711457E+03  0.50400001928E-02 0.  1.
</event>
<event>
 5   0  0.1404833E-03  0.1218792E+04  0.7818609E-02  0.9096565E-01
       -1   -1    0    0    0  501  0.00000000000E+00  0.00000000000E+00  0.22743284083E+03  0.22743284088E+03  0.50400001928E-02 0. -1.
        1   -1    0    0  501    0  0.00000000000E+00  0.00000000000E+00 -0.16328481038E+04  0.16328481038E+04  0.50400001928E-02 0.  1.
    10030    2    1    2    0    0  0.00000000000E+00  0.00000000000E+00 -0.14054152630E+04  0.18602809447E+04  0.12187916687E+04 0.  0.
        1    1    3    3  502    0  0.52172554202E+03 -0.22420548539E+03 -0.36519267779E+03  0.67515282182E+03  0.50400001928E-02 0. -1.
       -1    1    3    3    0  502 -0.52172554202E+03  0.22420548539E+03 -0.10402225852E+04  0.11851281229E+04  0.50400001928E-02 0.  1.
</event>
<event>
 5   0  0.9678750E-04  0.1211118E+04  0.7818609E-02  0.9103180E-01
        3   -1    0    0  501    0  0.00000000000E+00  0.00000000000E+00  0.12157509337E+04  0.12157509379E+04  0.10100000352E+00 0.  1.
       -3   -1    0    0    0  501  0.00000000000E+00  0.00000000000E+00 -0.30162556699E+03  0.30162558390E+03  0.10100000352E+00 0. -1.
    10030    2    1    2    0    0  0.00000000000E+00  0.00000000000E+00  0.91412536668E+03  0.15173765218E+04  0.12111177989E+04 0.  0.
        1    1    3    3  502    0 -0.98216778174E+02  0.25288287204E+03  0.11353579832E+04  0.11673191648E+04  0.50400001928E-02 0.  1.
       -1    1    3    3    0  502  0.98216778174E+02 -0.25288287204E+03 -0.22123261655E+03  0.35005735692E+03  0.50400001928E-02 0. -1.
</event>
<event>
 5   0  0.2517023E-03  0.1190481E+04  0.7818609E-02  0.9121229E-01
        2   -1    0    0  501    0  0.00000000000E+00  0.00000000000E+00  0.82339302377E+03  0.82339302377E+03  0.25500000920E-02 0. -1.
       -2   -1    0    0    0  501  0.00000000000E+00  0.00000000000E+00 -0.43030663308E+03  0.43030663309E+03  0.25500000920E-02 0.  1.
    10030    2    1    2    0    0  0.00000000000E+00  0.00000000000E+00  0.39308639068E+03  0.12536996569E+04  0.11904813812E+04 0.  0.
        3    1    3    3  502    0  0.52512077553E+03 -0.11212327006E+02  0.49147585827E+03  0.71932334498E+03  0.10100000352E+00 0. -1.
       -3    1    3    3    0  502 -0.52512077553E+03  0.11212327006E+02 -0.98389467582E+02  0.53437631189E+03  0.10100000352E+00 0.  1.
</event>
<event>
 5   0  0.2580244E-03  0.1197964E+04  0.7818609E-02  0.9114641E-01
       -2   -1    0    0    0  501  0.00000000000E+00  0.00000000000E+00  0.59753435145E+03  0.59753435146E+03  0.25500000920E-02 0.  1.
        2   -1    0    0  501    0  0.00000000000E+00  0.00000000000E+00 -0.60043268511E+03  0.60043268512E+03  0.25500000920E-02 0. -1.
    10030    2    1    2    0    0  0.00000000000E+00  0.00000000000E+00 -0.28983336560E+01  0.11979670366E+04  0.11979635305E+04 0.  0.
        1    1    3    3  502    0  0.35136067441E+03  0.29271430894E+03 -0.38828768716E+03  0.59991942643E+03  0.50400001928E-02 0. -1.
       -1    1    3    3    0  502 -0.35136067441E+03 -0.29271430894E+03  0.38538935351E+03  0.59804761015E+03  0.50400001928E-02 0.  1.
</event>
<event>
 5   0  0.9678750E-04  0.1217319E+04  0.7818609E-02  0.9097831E-01
        4   -1    0    0  501    0  0.00000000000E+00  0.00000000000E+00  0.23953703716E+03  0.23954040384E+03  0.12699999809E+01 0.  1.
       -4   -1    0    0    0  501  0.00000000000E+00  0.00000000000E+00 -0.15465776653E+04  0.15465781868E+04  0.12699999809E+01 0. -1.
    10030    2    1    2    0    0  0.00000000000E+00  0.00000000000E+00 -0.13070406282E+04  0.17861185906E+04  0.12173185352E+04 0.  0.
        3    1    3    3  502    0 -0.31378419322E+02 -0.51735746742E+02 -0.15421557367E+04  0.15433423208E+04  0.10100000352E+00 0. -1.
       -3    1    3    3    0  502  0.31378419322E+02  0.51735746742E+02  0.23511510857E+03  0.24277626978E+03  0.10100000352E+00 0.  1.
</event>
<event>
 5   0  0.1404833E-03  0.1201656E+04  0.7818609E-02  0.9111409E-01
       -1   -1    0    0    0  501  0.00000000000E+00  0.00000000000E+00  0.36903627047E+03  0.36903627051E+03  0.50400001928E-02 0. -1.
        1   -1    0    0  501    0  0.00000000000E+00  0.00000000000E+00 -0.97820770378E+03  0.97820770379E+03  0.50400001928E-02 0.  1.
    10030    2    1    2    0    0  0.00000000000E+00  0.00000000000E+00 -0.60917143331E+03  0.13472439743E+04  0.12016557290E+04 0.  0.
        1    1    3    3  502    0  0.90396794334E+02 -0.26289524787E+01  0.36136194344E+03  0.37250630332E+03  0.50400001928E-02 0. -1.
       -1    1    3    3    0  502 -0.90396794334E+02  0.26289524787E+01 -0.97053337675E+03  0.97473767098E+03  0.50400001928E-02 0.  1.
</event>
<event>
 5   0  0.1423024E-03  0.1246294E+04  0.7818609E-02  0.9073274E-01
        1   -1    0    0  501    0  0.00000000000E+00  0.00000000000E+00  0.95208850977E+03  0.95208850979E+03  0.50400001928E-02 0. -1.
       -1   -1    0    0    0  501  0.00000000000E+00  0.00000000000E+00 -0.40785284825E+03  0.40785284828E+03  0.50400001928E-02 0.  1.
    10030    2    1    2    0    0  0.00000000000E+00  0.00000000000E+00  0.54423566153E+03  0.13599413581E+04  0.12462937222E+04 0.  0.
        2    1    3    3  502    0 -0.36340888480E+03  0.22570368453E+03 -0.22230476476E+03  0.48210743533E+03  0.25500000920E-02 0.  1.
       -2    1    3    3    0  502  0.36340888480E+03 -0.22570368453E+03  0.76654042629E+03  0.87783392273E+03  0.25500000920E-02 0. -1.
</event>
<event>
 5   0  0.2517023E-03  0.1194354E+04  0.7818609E-02  0.9117813E-01
        2   -1    0    0  501    0  0.00000000000E+00  0.00000000000E+00  0.49593939939E+03  0.49593939940E+03  0.25500000920E-02 0.  1.
       -2   -1    0    0    0  501  0.00000000000E+00  0.00000000000E+00 -0.71908034617E+03  0.71908034618E+03  0.25500000920E-02 0. -1.
    10030    2    1    2    0    0  0.00000000000E+00  0.00000000000E+00 -0.22314094679E+03  0.12150197456E+04  0.11943538420E+04 0.  0.
        3    1    3    3  502    0 -0.34663358102E+03 -0.48511206828E+03 -0.14579340685E+03  0.61379498692E+03  0.10100000352E+00 0. -1.
       -3    1    3    3    0  502  0.34663358102E+03  0.48511206828E+03 -0.77347539937E+02  0.60122475866E+03  0.10100000352E+00 0.  1.
</event>
<event>
 5   0  0.1423024E-03  0.1183948E+04  0.7818609E-02  0.9127024E-01
        1   -1    0    0  501    0  0.00000000000E+00  0.00000000000E+00  0.60549048208E+03  0.60549048210E+03  0.50400001928E-02 0.  1.
       -1   -1    0    0    0  501  0.00000000000E+00  0.00000000000E+00 -0.57875897981E+03  0.57875897983E+03  0.50400001928E-02 0. -1.
    10030    2    1    2    0    0  0.00000000000E+00  0.00000000000E+00  0.26731502272E+02  0.11842494619E+04  0.11839477247E+04 0.  0.
        2    1    3    3  502    0 -0.30772272488E+03 -0.18459004323E+03  0.48430024233E+03  0.60275491221E+03  0.25500000920E-02 0.  1.
       -2    1    3    3    0  502  0.30772272488E+03  0.18459004323E+03 -0.45756874006E+03  0.58149454972E+03  0.25500000920E-02 0. -1.
</event>
<event>
 5   0  0.2484507E-03  0.1190627E+04  0.7818609E-02  0.9121100E-01
        2   -1    0    0  501    0  0.00000000000E+00  0.00000000000E+00  0.87995177956E+03  0.87995177956E+03  0.25500000920E-02 0. -1.
       -2   -1    0    0    0  501  0.00000000000E+00  0.00000000000E+00 -0.40274726809E+03  0.40274726810E+03  0.25500000920E-02 0.  1.
    10030    2    1    2    0    0  0.00000000000E+00  0.00000000000E+00  0.47720451147E+03  0.12826990477E+04  0.11906270201E+04 0.  0.
        2    1    3    3  502    0  0.25239463578E+03  0.51856267130E+03  0.79580510394E+02  0.58218841785E+03  0.25500000920E-02 0.  1.
       -2    1    3    3    0  502 -0.25239463578E+03 -0.51856267130E+03  0.39762400107E+03  0.70051062981E+03  0.25500000920E-02 0. -1.
</event>
<event>
 5   0  0.1403154E-03  0.1210527E+04  0.7818609E-02  0.9103691E-01
        1   -1    0    0  501    0  0.00000000000E+00  0.00000000000E+00  0.65075352369E+03  0.65075352371E+03  0.50400001928E-02 0. -1.
       -1   -1    0    0    0  501  0.00000000000E+00  0.00000000000E+00 -0.56295378807E+03  0.56295378810E+03  0.50400001928E-02 0.  1.
    10030    2    1    2    0    0  0.00000000000E+00  0.00000000000E+00  0.87799735616E+02  0.12137073118E+04  0.12105274244E+04 0.  0.
        3    1    3    3  502    0 -0.56379036810E+03 -0.21973243110E+03  0.58158006352E+02  0.60788509139E+03  0.10100000352E+00 0.  1.
       -3    1    3    3    0  502  0.56379036810E+03  0.21973243110E+03  0.29641729264E+02  0.60582222041E+03  0.10100000352E+00 0. -1.
</event>
<event>
 5   0  0.1404833E-03  0.1094953E+04  0.7818609E-02  0.9210125E-01
       -1   -1    0    0    0  501  0.00000000000E+00  0.00000000000E+00  0.44888901115E+03  0.44888901118E+03  0.50400001928E-02 0.  1.
        1   -1    0    0  501    0  0.00000000000E+00  0.00000000000E+00 -0.66771594657E+03  0.66771594658E+03  0.50400001928E-02 0. -1.
    10030    2    1    2    0    0  0.00000000000E+00  0.00000000000E+00 -0.21882693542E+03  0.11166049578E+04  0.10949526949E+04 0.  0.
        1    1    3    3  502    0 -0.22899338444E+02  0.14314228638E+03 -0.64778903900E+03  0.66381076590E+03  0.50400001928E-02 0. -1.
       -1    1    3    3    0  502  0.22899338444E+02 -0.14314228638E+03  0.42896210358E+03  0.45279419186E+03  0.50400001928E-02 0.  1.
</event>
<event>
 5   0  0.2579442E-03  0.1195964E+04  0.7818609E-02  0.9116397E-01
       -2   -1    0    0    0  501  0.00000000000E+00  0.00000000000E+00  0.61146921862E+03  0.61146921863E+03  0.25500000920E-02 0.  1.
        2   -1    0    0  501    0  0.00000000000E+00  0.00000000000E+00 -0.58479179923E+03  0.58479179924E+03  0.25500000920E-02 0. -1.
    10030    2    1    2    0    0  0.00000000000E+00  0.00000000000E+00  0.26677419391E+02  0.11962610179E+04  0.11959635187E+04 0.  0.
        4    1    3    3  502    0 -0.10102047631E+03  0.20699992618E+03  0.56531514756E+03  0.61043995203E+03  0.12699999809E+01 0.  1.
       -4    1    3    3    0  502  0.10102047631E+03 -0.20699992618E+03 -0.53863772817E+03  0.58582106584E+03  0.12699999809E+01 0. -1.
</event>
<event>
 5   0  0.2499890E-03  0.1201017E+04  0.7818609E-02  0.9111967E-01
        2   -1    0    0  501    0  0.00000000000E+00  0.00000000000E+00  0.10039030983E+04  0.10039030983E+04  0.25500000920E-02 0. -1.
       -2   -1    0    0    0  501  0.00000000000E+00  0.00000000000E+00 -0.35920815644E+03  0.35920815645E+03  0.25500000920E-02 0.  1.
    10030    2    1    2    0    0  0.00000000000E+00  0.00000000000E+00  0.64469494189E+03  0.13631112548E+04  0.12010165381E+04 0.  0.
        5    1    3    3  502    0  0.42740344001E+03  0.33901820260E+03  0.37516466875E+02  0.54684240646E+03  0.46999998093E+01 0.  1.
       -5    1    3    3    0  502 -0.42740344001E+03 -0.33901820260E+03  0.60717847502E+03  0.81626884832E+03  0.46999998093E+01 0. -1.
</event>
<event>
 5   0  0.1423024E-03  0.1199503E+04  0.7818609E-02  0.9113292E-01
        1   -1    0    0  501    0  0.00000000000E+00  0.00000000000E+00  0.67976829598E+03  0.67976829599E+03  0.50400001928E-02 0.  1.
       -1   -1    0    0    0  501  0.00000000000E+00  0.00000000000E+00 -0.52915378159E+03  0.52915378162E+03  0.50400001928E-02 0. -1.
    10030    2    1    2    0    0  0.00000000000E+00  0.00000000000E+00  0.15061451438E+03  0.12089220776E+04  0.11995031712E+04 0.  0.
        2    1    3    3  502    0  0.36287125789E+03 -0.13938001170E+03  0.53562071489E+03  0.66180955545E+03  0.25500000920E-02 0.  1.
       -2    1    3    3    0  502 -0.36287125789E+03  0.13938001170E+03 -0.38500620051E+03  0.54711252216E+03  0.25500000920E-02 0. -1.
</event>
<event>
 5   0  0.1423024E-03  0.1197546E+04  0.7818609E-02  0.9115007E-01
        1   -1    0    0  501    0  0.00000000000E+00  0.00000000000E+00  0.81937142644E+03  0.81937142645E+03  0.50400001928E-02 0.  1.
       -1   -1    0    0    0  501  0.00000000000E+00  0.00000000000E+00 -0.43756625350E+03  0.43756625352E+03  0.50400001928E-02 0. -1.
    10030    2    1    2    0    0  0.00000000000E+00  0.00000000000E+00  0.38180517294E+03  0.12569376800E+04  0.11975463003E+04 0.  0.
        2    1    3    3  502    0  0.51819784822E+03 -0.23636451862E+03  0.38481377649E+03  0.68737096109E+03  0.25500000920E-02 0.  1.
       -2    1    3    3    0  502 -0.51819784822E+03  0.23636451862E+03 -0.30086035484E+01  0.56956671889E+03  0.25500000920E-02 0. -1.
</event>
<event>
 5   0  0.1404833E-03  0.1194619E+04  0.7818609E-02  0.9117579E-01
        1   -1    0    0  501    0  0.00000000000E+00  0.00000000000E+00  0.18261397604E+04  0.18261397604E+04  0.50400001928E-02 0. -1.
       -1   -1    0    0    0  501  0.00000000000E+00  0.00000000000E+00 -0.19537326789E+03  0.19537326796E+03  0.50400001928E-02 0.  1.
    10030    2    1    2    0    0  0.00000000000E+00  0.00000000000E+00  0.16307664925E+04  0.20215130284E+04  0.11946194251E+04 0.  0.
        1    1    3    3  502    0  0.47064802175E+03  0.27611536571E+03  0.12265159545E+04  0.13424196967E+04  0.50400001928E-02 0. -1.
       -1    1    3    3    0  502 -0.47064802175E+03 -0.27611536571E+03  0.40425053807E+03  0.67909333167E+03  0.50400001928E-02 0.  1.
</event>
<event>
 5   0  0.1469851E-03  0.1330339E+04  0.7818609E-02  0.9005846E-01
       -1   -1    0    0    0  501  0.00000000000E+00  0.00000000000E+00  0.12366196179E+04  0.12366196179E+04  0.50400001928E-02 0. -1.
        1   -1    0    0  501    0  0.00000000000E+00  0.00000000000E+00 -0.35779034079E+03  0.35779034082E+03  0.50400001928E-02 0.  1.
    10030    2    1    2    0    0  0.00000000000E+00  0.00000000000E+00  0.87882927709E+03  0.15944099587E+04  0.13303391365E+04 0.  0.
        5    1    3    3  502    0  0.16141488081E+03 -0.49364470503E+03 -0.58631380002E+02  0.52268497900E+03  0.46999998093E+01 0.  1.
       -5    1    3    3    0  502 -0.16141488081E+03  0.49364470503E+03  0.93746065709E+03  0.10717249797E+04  0.46999998093E+01 0. -1.
</event>
<event>
 5   0  0.1403154E-03  0.1196599E+04  0.7818609E-02  0.9115839E-01
        1   -1    0    0  501    0  0.00000000000E+00  0.00000000000E+00  0.13021685882E+04  0.13021685882E+04  0.50400001928E-02 0.  1.
       -1   -1    0    0    0  501  0.00000000000E+00  0.00000000000E+00 -0.27489688462E+03  0.27489688467E+03  0.50400001928E-02 0. -1.
    10030    2    1    2    0    0  0.00000000000E+00  0.00000000000E+00  0.10272717036E+04  0.15770654729E+04  0.11965986599E+04 0.  0.
        3    1    3    3  502    0 -0.25614821563E+02  0.51561906365E+03  0.91217987650E+03  0.10481370498E+04  0.10100000352E+00 0.  1.
       -3    1    3    3    0  502  0.25614821563E+02 -0.51561906365E+03  0.11509182709E+03  0.52892842308E+03  0.10100000352E+00 0. -1.
</event>
<event>
 5   0  0.2580244E-03  0.1187277E+04  0.7818609E-02  0.9124066E-01
       -2   -1    0    0    0  501  0.00000000000E+00  0.00000000000E+00  0.48837168624E+03  0.48837168625E+03  0.25500000920E-02 0. -1.
        2   -1    0    0  501    0  0.00000000000E+00  0.00000000000E+00 -0.72159546320E+03  0.72159546320E+03  0.25500000920E-02 0.  1.
    10030    2    1    2    0    0  0.00000000000E+00  0.00000000000E+00 -0.23322377696E+03  0.12099671494E+04  0.11872772097E+04 0.  0.
        1    1    3    3  502    0 -0.16572018909E+02 -0.16208004616E+03 -0.69836465054E+03  0.71711767397E+03  0.50400001928E-02 0.  1.
       -1    1    3    3    0  502  0.16572018909E+02  0.16208004616E+03  0.46514087359E+03  0.49284947548E+03  0.50400001928E-02 0. -1.
</event>
<event>
 5   0  0.1403154E-03  0.1198125E+04  0.7818609E-02  0.9114500E-01
        1   -1    0    0  501    0  0.00000000000E+00  0.00000000000E+00  0.65108343551E+03  0.65108343553E+03  0.50400001928E-02 0. -1.
       -1   -1    0    0    0  501  0.00000000000E+00  0.00000000000E+00 -0.55119753899E+03  0.55119753902E+03  0.50400001928E-02 0.  1.
    10030    2    1    2    0    0  0.00000000000E+00  0.00000000000E+00  0.99885896515E+02  0.12022809745E+04  0.11981245133E+04 0.  0.
        3    1    3    3  502    0  0.56979168008E+03  0.54986375014E+02  0.22716115831E+03  0.61586383411E+03  0.10100000352E+00 0. -1.
       -3    1    3    3    0  502 -0.56979168008E+03 -0.54986375014E+02 -0.12727526179E+03  0.58641714043E+03  0.10100000352E+00 0.  1.
</event>
<event>
 5   0  0.1404833E-03  0.1186174E+04  0.7818609E-02  0.9125045E-01
        1   -1    0    0  501    0  0.00000000000E+00  0.00000000000E+00  0.13000201828E+04  0.13000201828E+04  0.50400001928E-02 0.  1.
       -1   -1    0    0    0  501  0.00000000000E+00  0.00000000000E+00 -0.27057454509E+03  0.27057454514E+03  0.50400001928E-02 0. -1.
    10030    2    1    2    0    0  0.00000000000E+00  0.00000000000E+00  0.10294456377E+04  0.15705947280E+04  0.11861743036E+04 0.  0.
        1    1    3    3  502    0  0.48138206645E+03  0.30269614718E+03  0.73785642936E+03  0.93155019285E+03  0.50400001928E-02 0.  1.
       -1    1    3    3    0  502 -0.48138206645E+03 -0.30269614718E+03  0.29158920837E+03  0.63904453513E+03  0.50400001928E-02 0. -1.
</event>
<event>
 5   0  0.1404833E-03  0.1208167E+04  0.7818609E-02  0.9105738E-01
        1   -1    0    0  501    0  0.00000000000E+00  0.00000000000E+00  0.13117956103E+04  0.13117956103E+04  0.50400001928E-02 0.  1.
       -1   -1    0    0    0  501  0.00000000000E+00  0.00000000000E+00 -0.27818099476E+03  0.27818099480E+03  0.50400001928E-02 0. -1.
    10030    2    1    2    0    0  0.00000000000E+00  0.00000000000E+00  0.10336146155E+04  0.15899766051E+04  0.12081665578E+04 0.  0.
        1    1    3    3  502    0  0.26774618646E+03 -0.16493621714E+03  0.11955807618E+04  0.12362464698E+04  0.50400001928E-02 0.  1.
       -1    1    3    3    0  502 -0.26774618646E+03  0.16493621714E+03 -0.16196614624E+03  0.35373013533E+03  0.50400001928E-02 0. -1.
</event>
<event>
 5   0  0.1423024E-03  0.1213116E+04  0.7818609E-02  0.9101453E-01
        1   -1    0    0  501    0  0.00000000000E+00  0.00000000000E+00  0.17953523019E+04  0.17953523019E+04  0.50400001928E-02 0. -1.
       -1   -1    0    0    0  501  0.00000000000E+00  0.00000000000E+00 -0.20492511999E+03  0.20492512005E+03  0.50400001928E-02 0.  1.
    10030    2    1    2    0    0  0.00000000000E+00  0.00000000000E+00  0.15904271819E+04  0.20002774219E+04  0.12131162944E+04 0.  0.
        2    1    3    3  502    0  0.24340231957E+03  0.12795306472E+02  0.17110511742E+04  0.17283241970E+04  0.25500000920E-02 0. -1.
       -2    1    3    3    0  502 -0.24340231957E+03 -0.12795306472E+02 -0.12062399232E+03  0.27195322497E+03  0.25500000920E-02 0.  1.
</event>
<event>
 5   0  0.1403154E-03  0.1197404E+04  0.7818609E-02  0.9115131E-01
       -1   -1    0    0    0  501  0.00000000000E+00  0.00000000000E+00  0.58051702725E+03  0.58051702728E+03  0.50400001928E-02 0.  1.
        1   -1    0    0  501    0  0.00000000000E+00  0.00000000000E+00 -0.61745706259E+03  0.61745706261E+03  0.50400001928E-02 0. -1.
    10030    2    1    2    0    0  0.00000000000E+00  0.00000000000E+00 -0.36940035337E+02  0.11979740899E+04  0.11974044237E+04 0.  0.
        3    1    3    3  502    0  0.54291720741E+02  0.23243102977E+03 -0.56779639936E+03  0.61592575516E+03  0.10100000352E+00 0. -1.
       -3    1    3    3    0  502 -0.54291720741E+02 -0.23243102977E+03  0.53085636402E+03  0.58204833473E+03  0.10100000352E+00 0.  1.
</event>
<event>
 5   0  0.2580244E-03  0.1177309E+04  0.7818609E-02  0.9132953E-01
       -2   -1    0    0    0  501  0.00000000000E+00  0.00000000000E+00  0.52346199810E+03  0.52346199811E+03  0.25500000920E-02 0.  1.
        2   -1    0    0  501    0  0.00000000000E+00  0.00000000000E+00 -0.66196601673E+03  0.66196601673E+03  0.25500000920E-02 0. -1.
    10030    2    1    2    0    0  0.00000000000E+00  0.00000000000E+00 -0.13850401863E+03  0.11854280148E+04  0.11773088869E+04 0.  0.
        1    1    3    3  502    0  0.39316434736E+03  0.39358994531E+03  0.12448804728E+03  0.57007764648E+03  0.50400001928E-02 0.  1.
       -1    1    3    3    0  502 -0.39316434736E+03 -0.39358994531E+03 -0.26299206591E+03  0.61535036836E+03  0.50400001928E-02 0. -1.
</event>
<event>
 5   0  0.2517023E-03  0.1208829E+04  0.7818609E-02  0.9105163E-01
       -2   -1    0    0    0  501  0.00000000000E+00  0.00000000000E+00  0.19704079126E+03  0.19704079128E+03  0.25500000920E-02 0.  1.
        2   -1    0    0  501    0  0.00000000000E+00  0.00000000000E+00 -0.18540171835E+04  0.18540171835E+04  0.25500000920E-02 0. -1.
    10030    2    1    2    0    0  0.00000000000E+00  0.00000000000E+00 -0.16569763923E+04  0.20510579748E+04  0.12088292069E+04 0.  0.
        3    1    3    3  502    0 -0.39817399165E+02 -0.93525947092E+02  0.18243385846E+03  0.20884120994E+03  0.10100000352E+00 0.  1.
       -3    1    3    3    0  502  0.39817399165E+02  0.93525947092E+02 -0.18394102507E+04  0.18422167649E+04  0.10100000352E+00 0. -1.
</event>
<event>
 5   0  0.1403154E-03  0.1191738E+04  0.7818609E-02  0.9120119E-01
       -1   -1    0    0    0  501  0.00000000000E+00  0.00000000000E+00  0.28148998436E+03  0.28148998440E+03  0.50400001928E-02 0. -1.
        1   -1    0    0  501    0  0.00000000000E+00  0.00000000000E+00 -0.12613585445E+04  0.12613585445E+04  0.50400001928E-02 0.  1.
    10030    2    1    2    0    0  0.00000000000E+00  0.00000000000E+00 -0.97986856010E+03  0.15428485289E+04  0.11917378856E+04 0.  0.
        3    1    3    3  502    0 -0.41899096436E+03  0.35633827737E+03 -0.78665216621E+03  0.95987084388E+03  0.10100000352E+00 0.  1.
       -3    1    3    3    0  502  0.41899096436E+03 -0.35633827737E+03 -0.19321639389E+03  0.58297768500E+03  0.10100000352E+00 0. -1.
</event>
<event>
 5   0  0.9678750E-04  0.1188727E+04  0.7818609E-02  0.9122781E-01
       -4   -1    0    0    0  501  0.00000000000E+00  0.00000000000E+00  0.83596745198E+03  0.83596841667E+03  0.12699999809E+01 0.  1.
        4   -1    0    0  501    0  0.00000000000E+00  0.00000000000E+00 -0.42258388906E+03  0.42258579743E+03  0.12699999809E+01 0. -1.
    10030    2    1    2    0    0  0.00000000000E+00  0.00000000000E+00  0.41338356293E+03  0.12585542141E+04  0.11887273614E+04 0.  0.
        2    1    3    3  502    0  0.24984441632E+03  0.34255337769E+03 -0.23431303581E+03  0.48442506922E+03  0.25500000920E-02 0. -1.
       -2    1    3    3    0  502 -0.24984441632E+03 -0.34255337769E+03  0.64769659874E+03  0.77412914488E+03  0.25500000920E-02 0.  1.
</event>
<event>
 5   0  0.1455076E-03  0.1201103E+04  0.7818609E-02  0.9111891E-01
        1   -1    0    0  501    0  0.00000000000E+00  0.00000000000E+00  0.19018007714E+04  0.19018007714E+04  0.50400001928E-02 0.  1.
       -1   -1    0    0    0  501  0.00000000000E+00  0.00000000000E+00 -0.18964248526E+03  0.18964248533E+03  0.50400001928E-02 0. -1.
    10030    2    1    2    0    0  0.00000000000E+00  0.00000000000E+00  0.17121582862E+04  0.20914432568E+04  0.12011032010E+04 0.  0.
        4    1    3    3  502    0  0.39269642706E+03  0.45390220281E+03  0.89188829678E+03  0.10750367623E+04  0.12699999809E+01 0.  1.
       -4    1    3    3    0  502 -0.39269642706E+03 -0.45390220281E+03  0.82026998939E+03  0.10164064944E+04  0.12699999809E+01 0. -1.
</event>
<event>
 5   0  0.1423024E-03  0.1199387E+04  0.7818609E-02  0.9113394E-01
        1   -1    0    0  501    0  0.00000000000E+00  0.00000000000E+00  0.80400563871E+03  0.80400563873E+03  0.50400001928E-02 0.  1.
       -1   -1    0    0    0  501  0.00000000000E+00  0.00000000000E+00 -0.44730049763E+03  0.44730049765E+03  0.50400001928E-02 0. -1.
    10030    2    1    2    0    0  0.00000000000E+00  0.00000000000E+00  0.35670514108E+03  0.12513061364E+04  0.11993867138E+04 0.  0.
        2    1    3    3  502    0  0.53422394705E+03 -0.22669592974E+03  0.33604397516E+03  0.67060556470E+03  0.25500000920E-02 0.  1.
       -2    1    3    3    0  502 -0.53422394705E+03  0.22669592974E+03  0.20661165920E+02  0.58070057168E+03  0.25500000920E-02 0. -1.
</event>
<event>
 5   0  0.1404833E-03  0.1200998E+04  0.7818609E-02  0.9111984E-01
        1   -1    0    0  501    0  0.00000000000E+00  0.00000000000E+00  0.22809754228E+03  0.22809754234E+03  0.50400001928E-02 0.  1.
       -1   -1    0    0    0  501  0.00000000000E+00  0.00000000000E+00 -0.15808976765E+04  0.15808976765E+04  0.50400001928E-02 0. -1.
    10030    2    1    2    0    0  0.00000000000E+00  0.00000000000E+00 -0.13528001342E+04  0.18089952189E+04  0.12009977097E+04 0.  0.
        1    1    3    3  502    0  0.18149635658E+03  0.47846032535E+03 -0.11496906544E+04  0.12584330778E+04  0.50400001928E-02 0. -1.
       -1    1    3    3    0  502 -0.18149635658E+03 -0.47846032535E+03 -0.20310947984E+03  0.55056214110E+03  0.50400001928E-02 0.  1.
</event>
<event>
 5   0  0.1469851E-03  0.1104158E+04  0.7818609E-02  0.9201149E-01
       -1   -1    0    0    0  501  0.00000000000E+00  0.00000000000E+00  0.27365592096E+03  0.27365592101E+03  0.50400001928E-02 0. -1.
        1   -1    0    0  501    0  0.00000000000E+00  0.00000000000E+00 -0.11137743866E+04  0.11137743866E+04  0.50400001928E-02 0.  1.
    10030    2    1    2    0    0  0.00000000000E+00  0.00000000000E+00 -0.84011846564E+03  0.13874303076E+04  0.11041575169E+04 0.  0.
        5    1    3    3  502    0 -0.81005394363E+02 -0.50856103090E+03 -0.17009503027E+03  0.54235652977E+03  0.46999998093E+01 0. -1.
       -5    1    3    3    0  502  0.81005394363E+02  0.50856103090E+03 -0.67002343537E+03  0.84507377785E+03  0.46999998093E+01 0.  1.
</event>
<event>
 5   0  0.2499890E-03  0.1175545E+04  0.7818609E-02  0.9134535E-01
        2   -1    0    0  501    0  0.00000000000E+00  0.00000000000E+00  0.20108675008E+03  0.20108675010E+03  0.25500000920E-02 0.  1.
       -2   -1    0    0    0  501  0.00000000000E+00  0.00000000000E+00 -0.17180468060E+04  0.17180468060E+04  0.25500000920E-02 0. -1.
    10030    2    1    2    0    0  0.00000000000E+00  0.00000000000E+00 -0.15169600559E+04  0.19191335561E+04  0.11755448928E+04 0.  0.
        5    1    3    3  502    0  0.11391789843E+03 -0.30414192741E+03 -0.15582199249E+04  0.15917132354E+04  0.46999998093E+01 0. -1.
       -5    1    3    3    0  502 -0.11391789843E+03  0.30414192741E+03  0.41259868962E+02  0.32742032066E+03  0.46999998093E+01 0.  1.
</event>
<event>
 5   0  0.2579442E-03  0.1171990E+04  0.7818609E-02  0.9137733E-01
        2   -1    0    0  501    0  0.00000000000E+00  0.00000000000E+00  0.29005300481E+03  0.29005300483E+03  0.25500000920E-02 0.  1.
       -2   -1    0    0    0  501  0.00000000000E+00  0.00000000000E+00 -0.11838878828E+04  0.11838878828E+04  0.25500000920E-02 0. -1.
    10030    2    1    2    0    0  0.00000000000E+00  0.00000000000E+00 -0.89383487803E+03  0.14739408877E+04  0.11719901668E+04 0.  0.
        4    1    3    3  502    0 -0.31244846827E+03 -0.38446846839E+03 -0.84051750513E+03  0.97565943742E+03  0.12699999809E+01 0. -1.
       -4    1    3    3    0  502  0.31244846827E+03  0.38446846839E+03 -0.53317372903E+02  0.49828145025E+03  0.12699999809E+01 0.  1.
</event>
<event>
 5   0  0.1469851E-03  0.1046902E+04  0.7818609E-02  0.9258549E-01
        1   -1    0    0  501    0  0.00000000000E+00  0.00000000000E+00  0.37693092435E+03  0.37693092438E+03  0.50400001928E-02 0.  1.
       -1   -1    0    0    0  501  0.00000000000E+00  0.00000000000E+00 -0.72692598418E+03  0.72692598420E+03  0.50400001928E-02 0. -1.
    10030    2    1    2    0    0  0.00000000000E+00  0.00000000000E+00 -0.34999505983E+03  0.11038569086E+04  0.10469018735E+04 0.  0.
        5    1    3    3  502    0  0.13811171868E+03 -0.12879882744E+03  0.33973583226E+03  0.38872420880E+03  0.46999998093E+01 0.  1.
       -5    1    3    3    0  502 -0.13811171868E+03  0.12879882744E+03 -0.68973089209E+03  0.71513269978E+03  0.46999998093E+01 0. -1.
</event>
<event>
 5   0  0.1469851E-03  0.1196032E+04  0.7818609E-02  0.9116337E-01
       -1   -1    0    0    0  501  0.00000000000E+00  0.00000000000E+00  0.54327750843E+03  0.54327750845E+03  0.50400001928E-02 0. -1.
        1   -1    0    0  501    0  0.00000000000E+00  0.00000000000E+00 -0.65826983399E+03  0.65826983401E+03  0.50400001928E-02 0.  1.
    10030    2    1    2    0    0  0.00000000000E+00  0.00000000000E+00 -0.11499232556E+03  0.12015473425E+04  0.11960320988E+04 0.  0.
        5    1    3    3  502    0  0.34540746093E+02 -0.90042951028E+02  0.53539500656E+03  0.54403189173E+03  0.46999998093E+01 0. -1.
       -5    1    3    3    0  502 -0.34540746093E+02  0.90042951028E+02 -0.65038733212E+03  0.65751545073E+03  0.46999998093E+01 0.  1.
</event>
<event>
 5   0  0.2580244E-03  0.1194773E+04  0.7818609E-02  0.9117444E-01
        2   -1    0    0  501    0  0.00000000000E+00  0.00000000000E+00  0.45201155343E+03  0.45201155343E+03  0.25500000920E-02 0. -1.
       -2   -1    0    0    0  501  0.00000000000E+00  0.00000000000E+00 -0.78951598317E+03  0.78951598317E+03  0.25500000920E-02 0.  1.
    10030    2    1    2    0    0  0.00000000000E+00  0.00000000000E+00 -0.33750442974E+03  0.12415275366E+04  0.11947725240E+04 0.  0.
        1    1    3    3  502    0  0.51730851033E+03 -0.18503427306E+03 -0.41250492570E+03  0.68702699424E+03  0.50400001928E-02 0.  1.
       -1    1    3    3    0  502 -0.51730851033E+03  0.18503427306E+03  0.75000495959E+02  0.55450054237E+03  0.50400001928E-02 0. -1.
</event>
<event>
 5   0  0.2579442E-03  0.1203660E+04  0.7818609E-02  0.9109659E-01
        2   -1    0    0  501    0  0.00000000000E+00  0.00000000000E+00  0.11223927849E+04  0.11223927849E+04  0.25500000920E-02 0.  1.
       -2   -1    0    0    0  501  0.00000000000E+00  0.00000000000E+00 -0.32270306600E+03  0.32270306601E+03  0.25500000920E-02 0. -1.
    10030    2    1    2    0    0  0.00000000000E+00  0.00000000000E+00  0.79968971889E+03  0.14450958509E+04  0.12036604055E+04 0.  0.
        4    1    3    3  502    0  0.28697676173E+03 -0.43525469763E+03  0.76081101580E+03  0.92230002073E+03  0.12699999809E+01 0. -1.
       -4    1    3    3    0  502 -0.28697676173E+03  0.43525469763E+03  0.38878703088E+02  0.52279583017E+03  0.12699999809E+01 0.  1.
</event>
<event>
 5   0  0.2579442E-03  0.1202785E+04  0.7818609E-02  0.9110423E-01
       -2   -1    0    0    0  501  0.00000000000E+00  0.00000000000E+00  0.43004448967E+03  0.43004448968E+03  0.25500000920E-02 0.  1.
        2   -1    0    0  501    0  0.00000000000E+00  0.00000000000E+00 -0.84101215491E+03  0.84101215491E+03  0.25500000920E-02 0. -1.
    10030    2    1    2    0    0  0.00000000000E+00  0.00000000000E+00 -0.41096766524E+03  0.12710566446E+04  0.12027845077E+04 0.  0.
        4    1    3    3  502    0 -0.21188963230E+03  0.38157287466E+03 -0.64270226182E+03  0.77689309767E+03  0.12699999809E+01 0. -1.
       -4    1    3    3    0  502  0.21188963230E+03 -0.38157287466E+03  0.23173459658E+03  0.49416354692E+03  0.12699999809E+01 0.  1.
</event>
<event>
 5   0  0.1455076E-03  0.1196261E+04  0.7818609E-02  0.9116135E-01
       -1   -1    0    0    0  501  0.00000000000E+00  0.00000000000E+00  0.43819688828E+03  0.43819688831E+03  0.50400001928E-02 0.  1.
        1   -1    0    0  501    0  0.00000000000E+00  0.00000000000E+00 -0.81643726516E+03  0.81643726518E+03  0.50400001928E-02 0. -1.
    10030    2    1    2    0    0  0.00000000000E+00  0.00000000000E+00 -0.37824037688E+03  0.12546341535E+04  0.11962612910E+04 0.  0.
        4    1    3    3  502    0  0.46399272393E+03 -0.35118983578E+03 -0.44040534846E+02  0.58357924074E+03  0.12699999809E+01 0. -1.
       -4    1    3    3    0  502 -0.46399272393E+03  0.35118983578E+03 -0.33419984204E+03  0.67105491275E+03  0.12699999809E+01 0.  1.
</event>
<event>
 5   0  0.1403154E-03  0.1197722E+04  0.7818609E-02  0.9114853E-01
        1   -1    0    0  501    0  0.00000000000E+00  0.00000000000E+00  0.23682285787E+04  0.23682285787E+04  0.50400001928E-02 0.  1.
       -1   -1    0    0    0  501  0.00000000000E+00  0.00000000000E+00 -0.15143567273E+03  0.15143567282E+03  0.50400001928E-02 0. -1.
    10030    2    1    2    0    0  0.00000000000E+00  0.00000000000E+00  0.22167929059E+04  0.25196642515E+04  0.11977216507E+04 0.  0.
        3    1    3    3  502    0 -0.30133888771E+03 -0.48923102218E+03  0.75335976620E+03  0.94747193407E+03  0.10100000352E+00 0. -1.
       -3    1    3    3    0  502  0.30133888771E+03  0.48923102218E+03  0.14634331397E+04  0.15721923174E+04  0.10100000352E+00 0.  1.
</event>
<event>
 5   0  0.1403154E-03  0.1183889E+04  0.7818609E-02  0.9127077E-01
        1   -1    0    0  501    0  0.00000000000E+00  0.00000000000E+00  0.37486416078E+03  0.37486416081E+03  0.50400001928E-02 0.  1.
       -1   -1    0    0    0  501  0.00000000000E+00  0.00000000000E+00 -0.93473370534E+03  0.93473370535E+03  0.50400001928E-02 0. -1.
    10030    2    1    2    0    0  0.00000000000E+00  0.00000000000E+00 -0.55986954456E+03  0.13095978662E+04  0.11838887887E+04 0.  0.
        3    1    3    3  502    0  0.48821111254E+03  0.26668074774E+02 -0.64903692046E+03  0.81259473967E+03  0.10100000352E+00 0. -1.
       -3    1    3    3    0  502 -0.48821111254E+03 -0.26668074774E+02  0.89167375901E+02  0.49700312649E+03  0.10100000352E+00 0.  1.
</event>
<event>
 5   0  0.2579442E-03  0.1199198E+04  0.7818609E-02  0.9113559E-01
       -2   -1    0    0    0  501  0.00000000000E+00  0.00000000000E+00  0.14660596338E+03  0.14660596340E+03  0.25500000920E-02 0.  1.
        2   -1    0    0  501    0  0.00000000000E+00  0.00000000000E+00 -0.24522818492E+04  0.24522818492E+04  0.25500000920E-02 0. -1.
    10030    2    1    2    0    0  0.00000000000E+00  0.00000000000E+00 -0.23056758858E+04  0.25988878126E+04  0.11991983039E+04 0.  0.
        4    1    3    3  502    0 -0.30071054349E+02  0.21094257890E+03 -0.23674620460E+04  0.23770315925E+04  0.12699999809E+01 0. -1.
       -4    1    3    3    0  502  0.30071054349E+02 -0.21094257890E+03  0.61786160135E+02  0.22185622008E+03  0.12699999809E+01 0.  1.
</event>
<event>
 5   0  0.1455076E-03  0.1201896E+04  0.7818609E-02  0.9111199E-01
        1   -1    0    0  501    0  0.00000000000E+00  0.00000000000E+00  0.13173568648E+04  0.13173568648E+04  0.50400001928E-02 0. -1.
       -1   -1    0    0    0  501  0.00000000000E+00  0.00000000000E+00 -0.27413852630E+03  0.27413852634E+03  0.50400001928E-02 0.  1.
    10030    2    1    2    0    0  0.00000000000E+00  0.00000000000E+00  0.10432183385E+04  0.15914953912E+04  0.12018956187E+04 0.  0.
        4    1    3    3  502    0  0.49243469437E+02 -0.36725812442E+03  0.11480800545E+04  0.12063966485E+04  0.12699999809E+01 0. -1.
       -4    1    3    3    0  502 -0.49243469437E+02  0.36725812442E+03 -0.10486171592E+03  0.38509874266E+03  0.12699999809E+01 0.  1.
</event>
<event>
 5   0  0.2517023E-03  0.1202253E+04  0.7818609E-02  0.9110887E-01
        2   -1    0    0  501    0  0.00000000000E+00  0.00000000000E+00  0.10395716134E+04  0.10395716134E+04  0.25500000920E-02 0.  1.
       -2   -1    0    0    0  501  0.00000000000E+00  0.00000000000E+00 -0.34759799379E+03  0.34759799380E+03  0.25500000920E-02 0. -1.
    10030    2    1    2    0    0  0.00000000000E+00  0.00000000000E+00  0.69197361962E+03  0.13871696072E+04  0.12022528972E+04 0.  0.
        3    1    3    3  502    0 -0.53238490532E+03 -0.27253726513E+03  0.41562513865E+03  0.72832308378E+03  0.10100000352E+00 0. -1.
       -3    1    3    3    0  502  0.53238490532E+03  0.27253726513E+03  0.27634848097E+03  0.65884652342E+03  0.10100000352E+00 0.  1.
</event>
<event>
 5   0  0.1469851E-03  0.1201416E+04  0.7818609E-02  0.9111618E-01
       -1   -1    0    0    0  501  0.00000000000E+00  0.00000000000E+00  0.14309339901E+03  0.14309339910E+03  0.50400001928E-02 0.  1.
        1   -1    0    0  501    0  0.00000000000E+00  0.00000000000E+00 -0.25217784181E+04  0.25217784181E+04  0.50400001928E-02 0. -1.
    10030    2    1    2    0    0  0.00000000000E+00  0.00000000000E+00 -0.23786850191E+04  0.26648718172E+04  0.12014155743E+04 0.  0.
        5    1    3    3  502    0  0.10972989720E+03  0.54553042522E+03 -0.68752161909E+03  0.88450673367E+03  0.46999998093E+01 0.  1.
       -5    1    3    3    0  502 -0.10972989720E+03 -0.54553042522E+03 -0.16911634000E+04  0.17803650835E+04  0.46999998093E+01 0. -1.
</event>
<event>
 5   0  0.2517023E-03  0.1195168E+04  0.7818609E-02  0.9117097E-01
        2   -1    0    0  501    0  0.00000000000E+00  0.00000000000E+00  0.45628191386E+03  0.45628191387E+03  0.25500000920E-02 0. -1.
       -2   -1    0    0    0  501  0.00000000000E+00  0.00000000000E+00 -0.78264461193E+03  0.78264461193E+03  0.25500000920E-02 0.  1.
    10030    2    1    2    0    0  0.00000000000E+00  0.00000000000E+00 -0.32636269807E+03  0.12389265258E+04  0.11951679069E+04 0.  0.
        3    1    3    3  502    0  0.16068984127E+03  0.20772942111E+03  0.39325277718E+03  0.47288528677E+03  0.10100000352E+00 0. -1.
       -3    1    3    3    0  502 -0.16068984127E+03 -0.20772942111E+03 -0.71961547525E+03  0.76604123903E+03  0.10100000352E+00 0.  1.
</event>
<event>
 5   0  0.2580244E-03  0.1222981E+04  0.7818609E-02  0.9092976E-01
        2   -1    0    0  501    0  0.00000000000E+00  0.00000000000E+00  0.17663896197E+04  0.17663896198E+04  0.25500000920E-02 0. -1.
       -2   -1    0    0    0  501  0.00000000000E+00  0.00000000000E+00 -0.21168630851E+03  0.21168630853E+03  0.25500000920E-02 0.  1.
    10030    2    1    2    0    0  0.00000000000E+00  0.00000000000E+00  0.15547033112E+04  0.19780759283E+04  0.12229807816E+04 0.  0.
        1    1    3    3  502    0 -0.10775132468E+03  0.48233981500E+03  0.13597548430E+04  0.14467879175E+04  0.50400001928E-02 0. -1.
       -1    1    3    3    0  502  0.10775132468E+03 -0.48233981500E+03  0.19494846821E+03  0.53128801077E+03  0.50400001928E-02 0.  1.
</event>
<event>
 5   0  0.1469851E-03  0.1199101E+04  0.7818609E-02  0.9113644E-01
       -1   -1    0    0    0  501  0.00000000000E+00  0.00000000000E+00  0.34865372366E+03  0.34865372370E+03  0.50400001928E-02 0. -1.
        1   -1    0    0  501    0  0.00000000000E+00  0.00000000000E+00 -0.10309958313E+04  0.10309958313E+04  0.50400001928E-02 0.  1.
    10030    2    1    2    0    0  0.00000000000E+00  0.00000000000E+00 -0.68234210767E+03  0.13796495550E+04  0.11991005558E+04 0.  0.
        5    1    3    3  502    0  0.54228308884E+03 -0.24180086365E+03 -0.24559861279E+03  0.64255690386E+03  0.46999998093E+01 0. -1.
       -5    1    3    3    0  502 -0.54228308884E+03  0.24180086365E+03 -0.43674349488E+03  0.73709265117E+03  0.46999998093E+01 0.  1.
</event>
<event>
 5   0  0.1423024E-03  0.1197524E+04  0.7818609E-02  0.9115027E-01
       -1   -1    0    0    0  501  0.00000000000E+00  0.00000000000E+00  0.11455320354E+04  0.11455320354E+04  0.50400001928E-02 0.  1.
        1   -1    0    0  501    0  0.00000000000E+00  0.00000000000E+00 -0.31296888243E+03  0.31296888247E+03  0.50400001928E-02 0. -1.
    10030    2    1    2    0    0  0.00000000000E+00  0.00000000000E+00  0.83256315298E+03  0.14585009179E+04  0.11975239137E+04 0.  0.
        2    1    3    3  502    0  0.46483453984E+03  0.34975494106E+03  0.58902265300E+03  0.82785708548E+03  0.25500000920E-02 0.  1.
       -2    1    3    3    0  502 -0.46483453984E+03 -0.34975494106E+03  0.24354049998E+03  0.63064383241E+03  0.25500000920E-02 0. -1.
</event>
<event>
 5   0  0.2484507E-03  0.1197235E+04  0.7818609E-02  0.9115280E-01
       -2   -1    0    0    0  501  0.00000000000E+00  0.00000000000E+00  0.24527055959E+03  0.24527055960E+03  0.25500000920E-02 0. -1.
        2   -1    0    0  501    0  0.00000000000E+00  0.00000000000E+00 -0.14610118344E+04  0.14610118344E+04  0.25500000920E-02 0.  1.
    10030    2    1    2    0    0  0.00000000000E+00  0.00000000000E+00 -0.12157412748E+04  0.17062823940E+04  0.11972354659E+04 0.  0.
        2    1    3    3  502    0  0.46389771412E+03  0.86246828964E+02 -0.82861336410E+02  0.47906743341E+03  0.25500000920E-02 0. -1.
       -2    1    3    3    0  502 -0.46389771412E+03 -0.86246828964E+02 -0.11328799384E+04  0.12272149606E+04  0.25500000920E-02 0.  1.
</event>
<event>
 5   0  0.2484507E-03  0.1211441E+04  0.7818609E-02  0.9102901E-01
       -2   -1    0    0    0  501  0.00000000000E+00  0.00000000000E+00  0.34675915641E+03  0.34675915642E+03  0.25500000920E-02 0. -1.
        2   -1    0    0  501    0  0.00000000000E+00  0.00000000000E+00 -0.10580758687E+04  0.10580758687E+04  0.25500000920E-02 0.  1.
    10030    2    1    2    0    0  0.00000000000E+00  0.00000000000E+00 -0.71131671224E+03  0.14048350251E+04  0.12114412832E+04 0.  0.
        2    1    3    3  502    0  0.48574396347E+02  0.60706556926E+02  0.34094884447E+03  0.34970111894E+03  0.25500000920E-02 0. -1.
       -2    1    3    3    0  502 -0.48574396347E+02 -0.60706556926E+02 -0.10522655567E+04  0.10551339061E+04  0.25500000920E-02 0.  1.
</event>
<event>
 5   0  0.1403154E-03  0.1208459E+04  0.7818609E-02  0.9105485E-01
       -1   -1    0    0    0  501  0.00000000000E+00  0.00000000000E+00  0.46742206937E+03  0.46742206940E+03  0.50400001928E-02 0. -1.
        1   -1    0    0  501    0  0.00000000000E+00  0.00000000000E+00 -0.78107818769E+03  0.78107818771E+03  0.50400001928E-02 0.  1.
    10030    2    1    2    0    0  0.00000000000E+00  0.00000000000E+00 -0.31365611832E+03  0.12485002571E+04  0.12084588249E+04 0.  0.
        3    1    3    3  502    0 -0.97578541997E+02  0.49258536186E+03 -0.50401539034E+03  0.71147272223E+03  0.10100000352E+00 0.  1.
       -3    1    3    3    0  502  0.97578541997E+02 -0.49258536186E+03  0.19035927202E+03  0.53702753488E+03  0.10100000352E+00 0. -1.
</event>
<event>
 5   0  0.1423024E-03  0.1214085E+04  0.7818609E-02  0.9100617E-01
        1   -1    0    0  501    0  0.00000000000E+00  0.00000000000E+00  0.14452237437E+04  0.14452237437E+04  0.50400001928E-02 0. -1.
       -1   -1    0    0    0  501  0.00000000000E+00  0.00000000000E+00 -0.25497805335E+03  0.25497805340E+03  0.50400001928E-02 0.  1.
    10030    2    1    2    0    0  0.00000000000E+00  0.00000000000E+00  0.11902456904E+04  0.17002017971E+04  0.12140845718E+04 0.  0.
        2    1    3    3  502    0  0.24373612531E+03 -0.30128328538E+03 -0.59211481760E+02  0.39202667819E+03  0.25500000920E-02 0.  1.
       -2    1    3    3    0  502 -0.24373612531E+03  0.30128328538E+03  0.12494571721E+04  0.13081751190E+04  0.25500000920E-02 0. -1.
</event>
<event>
 5   0  0.2580244E-03  0.1207011E+04  0.7818609E-02  0.9106742E-01
       -2   -1    0    0    0  501  0.00000000000E+00  0.00000000000E+00  0.54663493564E+03  0.54663493565E+03  0.25500000920E-02 0.  1.
        2   -1    0    0  501    0  0.00000000000E+00  0.00000000000E+00 -0.66629232686E+03  0.66629232686E+03  0.25500000920E-02 0. -1.
    10030    2    1    2    0    0  0.00000000000E+00  0.00000000000E+00 -0.11965739122E+03  0.12129272625E+04  0.12070106267E+04 0.  0.
        1    1    3    3  502    0  0.47022804969E+03  0.32956373001E+03  0.12680188383E+03  0.58805219889E+03  0.50400001928E-02 0.  1.
       -1    1    3    3    0  502 -0.47022804969E+03 -0.32956373001E+03 -0.24645927505E+03  0.62487506362E+03  0.50400001928E-02 0. -1.
</event>
<event>
 5   0  0.1455076E-03  0.1187511E+04  0.7818609E-02  0.9123859E-01
        1   -1    0    0  501    0  0.00000000000E+00  0.00000000000E+00  0.84338825998E+03  0.84338826000E+03  0.50400001928E-02 0.  1.
       -1   -1    0    0    0  501  0.00000000000E+00  0.00000000000E+00 -0.41801110646E+03  0.41801110649E+03  0.50400001928E-02 0. -1.
    10030    2    1    2    0    0  0.00000000000E+00  0.00000000000E+00  0.42537715352E+03  0.12613993665E+04  0.11875111111E+04 0.  0.
        4    1    3    3  502    0 -0.28787719703E+03 -0.51305910005E+03  0.12743829383E+03  0.60195103816E+03  0.12699999809E+01 0.  1.
       -4    1    3    3    0  502  0.28787719703E+03  0.51305910005E+03  0.29793885969E+03  0.65944832832E+03  0.12699999809E+01 0. -1.
</event>
<event>
 5   0  0.2580244E-03  0.1198707E+04  0.7818609E-02  0.9113989E-01
        2   -1    0    0  501    0  0.00000000000E+00  0.00000000000E+00  0.73182151750E+03  0.73182151750E+03  0.25500000920E-02 0. -1.
       -2   -1    0    0    0  501  0.00000000000E+00  0.00000000000E+00 -0.49086395043E+03  0.49086395043E+03  0.25500000920E-02 0.  1.
    10030    2    1    2    0    0  0.00000000000E+00  0.00000000000E+00  0.24095756707E+03  0.12226854679E+04  0.11987073055E+04 0.  0.
        1    1    3    3  502    0 -0.18402429555E+03 -0.36165582041E+03 -0.32943974265E+03  0.52267620746E+03  0.50400001928E-02 0.  1.
       -1    1    3    3    0  502  0.18402429555E+03  0.36165582041E+03  0.57039730972E+03  0.70000926047E+03  0.50400001928E-02 0. -1.
</event>
<event>
 5   0  0.1404833E-03  0.1198986E+04  0.7818609E-02  0.9113744E-01
       -1   -1    0    0    0  501  0.00000000000E+00  0.00000000000E+00  0.22874266383E+03  0.22874266388E+03  0.50400001928E-02 0. -1.
        1   -1    0    0  501    0  0.00000000000E+00  0.00000000000E+00 -0.15711632848E+04  0.15711632848E+04  0.50400001928E-02 0.  1.
    10030    2    1    2    0    0  0.00000000000E+00  0.00000000000E+00 -0.13424206210E+04  0.17999059487E+04  0.11989863638E+04 0.  0.
        1    1    3    3  502    0  0.31242636167E+03 -0.15295267014E+03  0.61744413104E+02  0.35329466928E+03  0.50400001928E-02 0. -1.
       -1    1    3    3    0  502 -0.31242636167E+03  0.15295267014E+03 -0.14041650341E+04  0.14466112794E+04  0.50400001928E-02 0.  1.
</event>
<event>
 5   0  0.2579442E-03  0.1245449E+04  0.7818609E-02  0.9073979E-01
       -2   -1    0    0    0  501  0.00000000000E+00  0.00000000000E+00  0.54076641229E+03  0.54076641230E+03  0.25500000920E-02 0. -1.
        2   -1    0    0  501    0  0.00000000000E+00  0.00000000000E+00 -0.71710449016E+03  0.71710449017E+03  0.25500000920E-02 0.  1.
    10030    2    1    2    0    0  0.00000000000E+00  0.00000000000E+00 -0.17633807787E+03  0.12578709025E+04  0.12454493525E+04 0.  0.
        4    1    3    3  502    0  0.10336146649E+03 -0.37448402886E+03  0.40337018635E+03  0.56002767857E+03  0.12699999809E+01 0. -1.
       -4    1    3    3    0  502 -0.10336146649E+03  0.37448402886E+03 -0.57970826422E+03  0.69784322389E+03  0.12699999809E+01 0.  1.
</event>
<event>
 5   0  0.1469851E-03  0.1205477E+04  0.7818609E-02  0.9108076E-01
        1   -1    0    0  501    0  0.00000000000E+00  0.00000000000E+00  0.37153366843E+03  0.37153366846E+03  0.50400001928E-02 0. -1.
       -1   -1    0    0    0  501  0.00000000000E+00  0.00000000000E+00 -0.97782100420E+03  0.97782100422E+03  0.50400001928E-02 0.  1.
    10030    2    1    2    0    0  0.00000000000E+00  0.00000000000E+00 -0.60628733578E+03  0.13493546727E+04  0.12054765444E+04 0.  0.
        5    1    3    3  502    0  0.88129241338E+01  0.39891015130E+03 -0.80879473929E+03  0.90187471233E+03  0.46999998093E+01 0.  1.
       -5    1    3    3    0  502 -0.88129241338E+01 -0.39891015130E+03  0.20250740351E+03  0.44747996035E+03  0.46999998093E+01 0. -1.
</event>
<event>
 5   0  0.2517023E-03  0.1208079E+04  0.7818609E-02  0.9105814E-01
       -2   -1    0    0    0  501  0.00000000000E+00  0.00000000000E+00  0.16419528345E+03  0.16419528347E+03  0.25500000920E-02 0. -1.
        2   -1    0    0  501    0  0.00000000000E+00  0.00000000000E+00 -0.22221319257E+04  0.22221319257E+04  0.25500000920E-02 0.  1.
    10030    2    1    2    0    0  0.00000000000E+00  0.00000000000E+00 -0.20579366422E+04  0.23863272091E+04  0.12080787746E+04 0.  0.
        3    1    3    3  502    0 -0.62398565144E+01 -0.13304781933E+03  0.13482639226E+03  0.18952262210E+03  0.10100000352E+00 0. -1.
       -3    1    3    3    0  502  0.62398565144E+01  0.13304781933E+03 -0.21927630345E+04  0.21968045870E+04  0.10100000352E+00 0.  1.
</event>
<event>
 5   0  0.2484507E-03  0.1181700E+04  0.7818609E-02  0.9129027E-01
       -2   -1    0    0    0  501  0.00000000000E+00  0.00000000000E+00  0.41386159815E+03  0.41386159816E+03  0.25500000920E-02 0. -1.
        2   -1    0    0  501    0  0.00000000000E+00  0.00000000000E+00 -0.84352784857E+03  0.84352784857E+03  0.25500000920E-02 0.  1.
    10030    2    1    2    0    0  0.00000000000E+00  0.00000000000E+00 -0.42966625042E+03  0.12573894467E+04  0.11817001032E+04 0.  0.
        2    1    3    3  502    0  0.64649944875E+02 -0.48974720979E+03 -0.55974305962E+03  0.74655491269E+03  0.25500000920E-02 0.  1.
       -2    1    3    3    0  502 -0.64649944875E+02  0.48974720979E+03  0.13007680920E+03  0.51083453404E+03  0.25500000920E-02 0. -1.
</event>
<event>
 5   0  0.2580244E-03  0.1190118E+04  0.7818609E-02  0.9121550E-01
       -2   -1    0    0    0  501  0.00000000000E+00  0.00000000000E+00  0.32895305425E+03  0.32895305426E+03  0.25500000920E-02 0. -1.
        2   -1    0    0  501    0  0.00000000000E+00  0.00000000000E+00 -0.10764315680E+04  0.10764315680E+04  0.25500000920E-02 0.  1.
    10030    2    1    2    0    0  0.00000000000E+00  0.00000000000E+00 -0.74747851374E+03  0.14053846222E+04  0.11901184008E+04 0.  0.
        1    1    3    3  502    0  0.76805694662E+02 -0.48817574615E+03  0.17701362765E+02  0.49449773723E+03  0.50400001928E-02 0. -1.
       -1    1    3    3    0  502 -0.76805694662E+02  0.48817574615E+03 -0.76517987650E+03  0.91088688501E+03  0.50400001928E-02 0.  1.
</event>
<event>
 5   0  0.1423024E-03  0.1173538E+04  0.7818609E-02  0.9136339E-01
        1   -1    0    0  501    0  0.00000000000E+00  0.00000000000E+00  0.61784646256E+03  0.61784646258E+03  0.50400001928E-02 0.  1.
       -1   -1    0    0    0  501  0.00000000000E+00  0.00000000000E+00 -0.55725498461E+03  0.55725498463E+03  0.50400001928E-02 0. -1.
    10030    2    1    2    0    0  0.00000000000E+00  0.00000000000E+00  0.60591477949E+02  0.11751014472E+04  0.11735382755E+04 0.  0.
        2    1    3    3  502    0 -0.43412533065E+03 -0.39269448451E+03 -0.10060054821E+02  0.58546986736E+03  0.25500000920E-02 0.  1.
       -2    1    3    3    0  502  0.43412533065E+03  0.39269448451E+03  0.70651532771E+02  0.58963157986E+03  0.25500000920E-02 0. -1.
</event>
<event>
 5   0  0.2484507E-03  0.1200796E+04  0.7818609E-02  0.9112160E-01
       -2   -1    0    0    0  501  0.00000000000E+00  0.00000000000E+00  0.31345636679E+03  0.31345636680E+03  0.25500000920E-02 0.  1.
        2   -1    0    0  501    0  0.00000000000E+00  0.00000000000E+00 -0.11500094336E+04  0.11500094336E+04  0.25500000920E-02 0. -1.
    10030    2    1    2    0    0  0.00000000000E+00  0.00000000000E+00 -0.83655306679E+03  0.14634658004E+04  0.12007960340E+04 0.  0.
        2    1    3    3  502    0  0.47376569005E+03 -0.17463754474E+03 -0.22370425197E+02  0.50542322566E+03  0.25500000920E-02 0.  1.
       -2    1    3    3    0  502 -0.47376569005E+03  0.17463754474E+03 -0.81418264159E+03  0.95804257472E+03  0.25500000920E-02 0. -1.
</event>
<event>
 5   0  0.1403154E-03  0.1169333E+04  0.7818609E-02  0.9140131E-01
       -1   -1    0    0    0  501  0.00000000000E+00  0.00000000000E+00  0.14752402881E+04  0.14752402881E+04  0.50400001928E-02 0.  1.
        1   -1    0    0  501    0  0.00000000000E+00  0.00000000000E+00 -0.23171487370E+03  0.23171487376E+03  0.50400001928E-02 0. -1.
    10030    2    1    2    0    0  0.00000000000E+00  0.00000000000E+00  0.12435254144E+04  0.17069551618E+04  0.11693333435E+04 0.  0.
        3    1    3    3  502    0  0.37001440204E+03  0.34361983402E+02 -0.37146956932E+02  0.37345857900E+03  0.10100000352E+00 0. -1.
       -3    1    3    3    0  502 -0.37001440204E+03 -0.34361983402E+02  0.12806723713E+04  0.13334965828E+04  0.10100000352E+00 0.  1.
</event>
<event>
 5   0  0.1455076E-03  0.1193981E+04  0.7818609E-02  0.9118141E-01
        1   -1    0    0  501    0  0.00000000000E+00  0.00000000000E+00  0.37305148781E+03  0.37305148784E+03  0.50400001928E-02 0.  1.
       -1   -1    0    0    0  501  0.00000000000E+00  0.00000000000E+00 -0.95535796628E+03  0.95535796629E+03  0.50400001928E-02 0. -1.
    10030    2    1    2    0    0  0.00000000000E+00  0.00000000000E+00 -0.58230647847E+03  0.13284094541E+04  0.11939810899E+04 0.  0.
        4    1    3    3  502    0  0.15600054793E+03 -0.12137469038E+03 -0.91789521555E+03  0.93893622043E+03  0.12699999809E+01 0. -1.
       -4    1    3    3    0  502 -0.15600054793E+03  0.12137469038E+03  0.33558873708E+03  0.38947323370E+03  0.12699999809E+01 0.  1.
</event>
<event>
 5   0  0.1423024E-03  0.1216769E+04  0.7818609E-02  0.9098304E-01
        1   -1    0    0  501    0  0.00000000000E+00  0.00000000000E+00  0.38798965027E+03  0.38798965030E+03  0.50400001928E-02 0. -1.
       -1   -1    0    0    0  501  0.00000000000E+00  0.00000000000E+00 -0.95397275093E+03  0.95397275094E+03  0.50400001928E-02 0.  1.
    10030    2    1    2    0    0  0.00000000000E+00  0.00000000000E+00 -0.56598310066E+03  0.13419624012E+04  0.12167687603E+04 0.  0.
        2    1    3    3  502    0  0.41500029922E+03  0.37835185387E+03 -0.24914807024E+02  0.56213532294E+03  0.25500000920E-02 0. -1.
       -2    1    3    3    0  502 -0.41500029922E+03 -0.37835185387E+03 -0.54106829363E+03  0.77982707831E+03  0.25500000920E-02 0.  1.
</event>
<event>
 5   0  0.1469851E-03  0.1194844E+04  0.7818609E-02  0.9117381E-01
        1   -1    0    0  501    0  0.00000000000E+00  0.00000000000E+00  0.11854753615E+04  0.11854753615E+04  0.50400001928E-02 0.  1.
       -1   -1    0    0    0  501  0.00000000000E+00  0.00000000000E+00 -0.30107175446E+03  0.30107175451E+03  0.50400001928E-02 0. -1.
    10030    2    1    2    0    0  0.00000000000E+00  0.00000000000E+00  0.88440360708E+03  0.14865471161E+04  0.11948441689E+04 0.  0.
        5    1    3    3  502    0  0.24479498887E+03  0.49741212329E+03  0.16526610587E+03  0.57851394341E+03  0.46999998093E+01 0. -1.
       -5    1    3    3    0  502 -0.24479498887E+03 -0.49741212329E+03  0.71913750121E+03  0.90803317264E+03  0.46999998093E+01 0.  1.
</event>
<event>
 5   0  0.2517023E-03  0.1193163E+04  0.7818609E-02  0.9118862E-01
        2   -1    0    0  501    0  0.00000000000E+00  0.00000000000E+00  0.88440248884E+03  0.88440248885E+03  0.25500000920E-02 0.  1.
       -2   -1    0    0    0  501  0.00000000000E+00  0.00000000000E+00 -0.40242916140E+03  0.40242916141E+03  0.25500000920E-02 0. -1.
    10030    2    1    2    0    0  0.00000000000E+00  0.00000000000E+00  0.48197332745E+03  0.12868316503E+04  0.11931627750E+04 0.  0.
        3    1    3    3  502    0  0.44149999662E+03 -0.38962103053E+02 -0.18969882685E+03  0.48210574317E+03  0.10100000352E+00 0. -1.
       -3    1    3    3    0  502 -0.44149999662E+03  0.38962103053E+02  0.67167215429E+03  0.80472590709E+03  0.10100000352E+00 0.  1.
</event>
<event>
 5   0  0.2579442E-03  0.1147233E+04  0.7818609E-02  0.9160340E-01
       -2   -1    0    0    0  501  0.00000000000E+00  0.00000000000E+00  0.31040428237E+03  0.31040428238E+03  0.25500000920E-02 0. -1.
        2   -1    0    0  501    0  0.00000000000E+00  0.00000000000E+00 -0.10600239239E+04  0.10600239239E+04  0.25500000920E-02 0.  1.
    10030    2    1    2    0    0  0.00000000000E+00  0.00000000000E+00 -0.74961964150E+03  0.13704282063E+04  0.11472331331E+04 0.  0.
        4    1    3    3  502    0 -0.97465510911E+02  0.42294839238E+02 -0.10481656671E+04  0.10535374971E+04  0.12699999809E+01 0.  1.
       -4    1    3    3    0  502  0.97465510911E+02 -0.42294839238E+02  0.29854602559E+03  0.31689070914E+03  0.12699999809E+01 0. -1.
</event>
<event>
 5   0  0.2499890E-03  0.1200469E+04  0.7818609E-02  0.9112446E-01
        2   -1    0    0  501    0  0.00000000000E+00  0.00000000000E+00  0.17174047338E+04  0.17174047338E+04  0.25500000920E-02 0.  1.
       -2   -1    0    0    0  501  0.00000000000E+00  0.00000000000E+00 -0.20978243784E+03  0.20978243786E+03  0.25500000920E-02 0. -1.
    10030    2    1    2    0    0  0.00000000000E+00  0.00000000000E+00  0.15076222960E+04  0.19271871717E+04  0.12004688281E+04 0.  0.
        5    1    3    3  502    0  0.18143343580E+03  0.46204799599E+03  0.21212852482E+03  0.53983983112E+03  0.46999998093E+01 0. -1.
       -5    1    3    3    0  502 -0.18143343580E+03 -0.46204799599E+03  0.12954937711E+04  0.13873473405E+04  0.46999998093E+01 0.  1.
</event>
<event>
 5   0  0.1423024E-03  0.1191806E+04  0.7818609E-02  0.9120059E-01
       -1   -1    0    0    0  501  0.00000000000E+00  0.00000000000E+00  0.48578363969E+03  0.48578363972E+03  0.50400001928E-02 0.  1.
        1   -1    0    0  501    0  0.00000000000E+00  0.00000000000E+00 -0.73098498102E+03  0.73098498103E+03  0.50400001928E-02 0. -1.
    10030    2    1    2    0    0  0.00000000000E+00  0.00000000000E+00 -0.24520134132E+03  0.12167686208E+04  0.11918062673E+04 0.  0.
        2    1    3    3  502    0  0.57749067256E+03 -0.14534162163E+03 -0.10021237433E+03  0.60387265533E+03  0.25500000920E-02 0.  1.
       -2    1    3    3    0  502 -0.57749067256E+03  0.14534162163E+03 -0.14498896699E+03  0.61289596543E+03  0.25500000920E-02 0. -1.
</event>
<event>
 5   0  0.9678750E-04  0.9962741E+03  0.7818609E-02  0.9312641E-01
       -4   -1    0    0    0  501  0.00000000000E+00  0.00000000000E+00  0.64971715581E+03  0.64971839704E+03  0.12699999809E+01 0.  1.
        4   -1    0    0  501    0  0.00000000000E+00  0.00000000000E+00 -0.38191817447E+03  0.38192028605E+03  0.12699999809E+01 0. -1.
    10030    2    1    2    0    0  0.00000000000E+00  0.00000000000E+00  0.26779898134E+03  0.10316386831E+04  0.99627409785E+03 0.  0.
        1    1    3    3  502    0 -0.34775928438E+03  0.23682287415E+03  0.41004715456E+03  0.58750341495E+03  0.50400001928E-02 0.  1.
       -1    1    3    3    0  502  0.34775928438E+03 -0.23682287415E+03 -0.14224817323E+03  0.44413526814E+03  0.50400001928E-02 0. -1.
</event>
<event>
 5   0  0.9678750E-04  0.1199170E+04  0.7818609E-02  0.9113583E-01
        3   -1    0    0  501    0  0.00000000000E+00  0.00000000000E+00  0.22820281176E+04  0.22820281198E+04  0.10100000352E+00 0.  1.
       -3   -1    0    0    0  501  0.00000000000E+00  0.00000000000E+00 -0.15753625847E+03  0.15753629085E+03  0.10100000352E+00 0. -1.
    10030    2    1    2    0    0  0.00000000000E+00  0.00000000000E+00  0.21244918591E+04  0.24395644107E+04  0.11991700690E+04 0.  0.
        2    1    3    3  502    0 -0.10039285017E+03  0.16906661494E+02 -0.13982433358E+03  0.17296070026E+03  0.25500000920E-02 0. -1.
       -2    1    3    3    0  502  0.10039285017E+03 -0.16906661494E+02  0.22643161927E+04  0.22666037104E+04  0.25500000920E-02 0.  1.
</event>
<event>
 5   0  0.1469851E-03  0.1201287E+04  0.7818609E-02  0.9111731E-01
       -1   -1    0    0    0  501  0.00000000000E+00  0.00000000000E+00  0.47255945822E+03  0.47255945824E+03  0.50400001928E-02 0.  1.
        1   -1    0    0  501    0  0.00000000000E+00  0.00000000000E+00 -0.76344386041E+03  0.76344386043E+03  0.50400001928E-02 0. -1.
    10030    2    1    2    0    0  0.00000000000E+00  0.00000000000E+00 -0.29088440220E+03  0.12360033187E+04  0.12012870050E+04 0.  0.
        5    1    3    3  502    0 -0.46199696031E+03  0.12455328865E+03 -0.51897063432E+03  0.70590886263E+03  0.46999998093E+01 0. -1.
       -5    1    3    3    0  502  0.46199696031E+03 -0.12455328865E+03  0.22808623213E+03  0.53009445605E+03  0.46999998093E+01 0.  1.
</event>
<event>
 5   0  0.1455076E-03  0.1199867E+04  0.7818609E-02  0.9112973E-01
        1   -1    0    0  501    0  0.00000000000E+00  0.00000000000E+00  0.10014118164E+04  0.10014118164E+04  0.50400001928E-02 0.  1.
       -1   -1    0    0    0  501  0.00000000000E+00  0.00000000000E+00 -0.35941277576E+03  0.35941277579E+03  0.50400001928E-02 0. -1.
    10030    2    1    2    0    0  0.00000000000E+00  0.00000000000E+00  0.64199904063E+03  0.13608245922E+04  0.11998669937E+04 0.  0.
        4    1    3    3  502    0  0.43741481265E+02  0.77171999256E+02  0.99393133970E+03  0.99788273639E+03  0.12699999809E+01 0.  1.
       -4    1    3    3    0  502 -0.43741481265E+02 -0.77171999256E+02 -0.35193229908E+03  0.36294185579E+03  0.12699999809E+01 0. -1.
</event>
<event>
 5   0  0.1404833E-03  0.1203673E+04  0.7818609E-02  0.9109648E-01
        1   -1    0    0  501    0  0.00000000000E+00  0.00000000000E+00  0.35906906552E+03  0.35906906556E+03  0.50400001928E-02 0.  1.
       -1   -1    0    0    0  501  0.00000000000E+00  0.00000000000E+00 -0.10087392223E+04  0.10087392223E+04  0.50400001928E-02 0. -1.
    10030    2    1    2    0    0  0.00000000000E+00  0.00000000000E+00 -0.64967015676E+03  0.13678082879E+04  0.12036727960E+04 0.  0.
        1    1    3    3  502    0  0.14934239395E+03  0.43523434640E+03  0.11597235380E+03  0.47453311137E+03  0.50400001928E-02 0.  1.
       -1    1    3    3    0  502 -0.14934239395E+03 -0.43523434640E+03 -0.76564251057E+03  0.89327517649E+03  0.50400001928E-02 0. -1.
</event>
<event>
 5   0  0.2579442E-03  0.1205429E+04  0.7818609E-02  0.9108118E-01
       -2   -1    0    0    0  501  0.00000000000E+00  0.00000000000E+00  0.71151788166E+03  0.71151788167E+03  0.25500000920E-02 0.  1.
        2   -1    0    0  501    0  0.00000000000E+00  0.00000000000E+00 -0.51054890747E+03  0.51054890747E+03  0.25500000920E-02 0. -1.
    10030    2    1    2    0    0  0.00000000000E+00  0.00000000000E+00  0.20096897420E+03  0.12220667891E+04  0.12054288484E+04 0.  0.
        4    1    3    3  502    0 -0.35767294393E+03 -0.85479465839E+02  0.58459656441E+03  0.69064566162E+03  0.12699999809E+01 0.  1.
       -4    1    3    3    0  502  0.35767294393E+03  0.85479465839E+02 -0.38362759021E+03  0.53142112752E+03  0.12699999809E+01 0. -1.
</event>
<event>
 5   0  0.2499890E-03  0.1190792E+04  0.7818609E-02  0.9120954E-01
        2   -1    0    0  501    0  0.00000000000E+00  0.00000000000E+00  0.18558567031E+04  0.18558567031E+04  0.25500000920E-02 0.  1.
       -2   -1    0    0    0  501  0.00000000000E+00  0.00000000000E+00 -0.19101507812E+03  0.19101507814E+03  0.25500000920E-02 0. -1.
    10030    2    1    2    0    0  0.00000000000E+00  0.00000000000E+00  0.16648416249E+04  0.20468717812E+04  0.11907923633E+04 0.  0.
        5    1    3    3  502    0 -0.27590437203E+03 -0.51779498816E+03  0.65848173101E+03  0.88196096985E+03  0.46999998093E+01 0. -1.
       -5    1    3    3    0  502  0.27590437203E+03  0.51779498816E+03  0.10063598939E+04  0.11649108113E+04  0.46999998093E+01 0.  1.
</event>
<event>
 5   0  0.1469851E-03  0.1198565E+04  0.7818609E-02  0.9114114E-01
       -1   -1    0    0    0  501  0.00000000000E+00  0.00000000000E+00  0.78766675072E+03  0.78766675074E+03  0.50400001928E-02 0.  1.
        1   -1    0    0  501    0  0.00000000000E+00  0.00000000000E+00 -0.45595345247E+03  0.45595345249E+03  0.50400001928E-02 0. -1.
    10030    2    1    2    0    0  0.00000000000E+00  0.00000000000E+00  0.33171329825E+03  0.12436202032E+04  0.11985647657E+04 0.  0.
        5    1    3    3  502    0  0.41458330447E+03 -0.86689161778E+01 -0.28302933970E+03  0.50207784614E+03  0.46999998093E+01 0. -1.
       -5    1    3    3    0  502 -0.41458330447E+03  0.86689161778E+01  0.61474263795E+03  0.74154235709E+03  0.46999998093E+01 0.  1.
</event>
<event>
 5   0  0.2580244E-03  0.1176582E+04  0.7818609E-02  0.9133604E-01
        2   -1    0    0  501    0  0.00000000000E+00  0.00000000000E+00  0.64750406383E+03  0.64750406384E+03  0.25500000920E-02 0.  1.
       -2   -1    0    0    0  501  0.00000000000E+00  0.00000000000E+00 -0.53449327301E+03  0.53449327302E+03  0.25500000920E-02 0. -1.
    10030    2    1    2    0    0  0.00000000000E+00  0.00000000000E+00  0.11301079082E+03  0.11819973369E+04  0.11765824516E+04 0.  0.
        1    1    3    3  502    0 -0.40588295904E+03  0.12440837341E+03  0.46564886826E+03  0.63011688468E+03  0.50400001928E-02 0.  1.
       -1    1    3    3    0  502  0.40588295904E+03 -0.12440837341E+03 -0.35263807743E+03  0.55188045218E+03  0.50400001928E-02 0. -1.
</event>
<event>
 5   0  0.2484507E-03  0.1204817E+04  0.7818609E-02  0.9108651E-01
        2   -1    0    0  501    0  0.00000000000E+00  0.00000000000E+00  0.95312915887E+03  0.95312915887E+03  0.25500000920E-02 0. -1.
       -2   -1    0    0    0  501  0.00000000000E+00  0.00000000000E+00 -0.38074166481E+03  0.38074166482E+03  0.25500000920E-02 0.  1.
    10030    2    1    2    0    0  0.00000000000E+00  0.00000000000E+00  0.57238749406E+03  0.13338708237E+04  0.12048169699E+04 0.  0.
        2    1    3    3  502    0  0.35317675900E+03  0.41460295779E+03  0.11970230662E+01  0.54463829150E+03  0.25500000920E-02 0.  1.
       -2    1    3    3    0  502 -0.35317675900E+03 -0.41460295779E+03  0.57119047099E+03  0.78923253219E+03  0.25500000920E-02 0. -1.
</event>
<event>
 5   0  0.2484507E-03  0.1195800E+04  0.7818609E-02  0.9116540E-01
       -2   -1    0    0    0  501  0.00000000000E+00  0.00000000000E+00  0.56293718281E+03  0.56293718281E+03  0.25500000920E-02 0.  1.
        2   -1    0    0  501    0  0.00000000000E+00  0.00000000000E+00 -0.63503473471E+03  0.63503473472E+03  0.25500000920E-02 0. -1.
    10030    2    1    2    0    0  0.00000000000E+00  0.00000000000E+00 -0.72097551908E+02  0.11979719175E+04  0.11958004257E+04 0.  0.
        2    1    3    3  502    0 -0.24684465548E+03  0.54120028948E+03 -0.96612068689E+02  0.60263083982E+03  0.25500000920E-02 0.  1.
       -2    1    3    3    0  502  0.24684465548E+03 -0.54120028948E+03  0.24514516781E+02  0.59534107771E+03  0.25500000920E-02 0. -1.
</event>
<event>
 5   0  0.1455076E-03  0.1210975E+04  0.7818609E-02  0.9103304E-01
        1   -1    0    0  501    0  0.00000000000E+00  0.00000000000E+00  0.71143484796E+03  0.71143484797E+03  0.50400001928E-02 0.  1.
       -1   -1    0    0    0  501  0.00000000000E+00  0.00000000000E+00 -0.51531767516E+03  0.51531767519E+03  0.50400001928E-02 0. -1.
    10030    2    1    2    0    0  0.00000000000E+00  0.00000000000E+00  0.19611717279E+03  0.12267525232E+04  0.12109747345E+04 0.  0.
        4    1    3    3  502    0 -0.23172380175E+02  0.50342816614E+03 -0.24192768188E+03  0.55902369701E+03  0.12699999809E+01 0. -1.
       -4    1    3    3    0  502  0.23172380175E+02 -0.50342816614E+03  0.43804485467E+03  0.66772882615E+03  0.12699999809E+01 0.  1.
</event>
<event>
 5   0  0.1404833E-03  0.1191504E+04  0.7818609E-02  0.9120326E-01
        1   -1    0    0  501    0  0.00000000000E+00  0.00000000000E+00  0.20101928105E+03  0.20101928111E+03  0.50400001928E-02 0. -1.
       -1   -1    0    0    0  501  0.00000000000E+00  0.00000000000E+00 -0.17656032905E+04  0.17656032905E+04  0.50400001928E-02 0.  1.
    10030    2    1    2    0    0  0.00000000000E+00  0.00000000000E+00 -0.15645840094E+04  0.19666225716E+04  0.11915037627E+04 0.  0.
        1    1    3    3  502    0  0.22825664670E+03 -0.35099902901E+03 -0.14818143695E+04  0.15398296142E+04  0.50400001928E-02 0.  1.
       -1    1    3    3    0  502 -0.22825664670E+03  0.35099902901E+03 -0.82769639898E+02  0.42679295735E+03  0.50400001928E-02 0. -1.
</event>
<event>
 5   0  0.2499890E-03  0.1204986E+04  0.7818609E-02  0.9108504E-01
        2   -1    0    0  501    0  0.00000000000E+00  0.00000000000E+00  0.37088713689E+03  0.37088713690E+03  0.25500000920E-02 0. -1.
       -2   -1    0    0    0  501  0.00000000000E+00  0.00000000000E+00 -0.97872829867E+03  0.97872829868E+03  0.25500000920E-02 0.  1.
    10030    2    1    2    0    0  0.00000000000E+00  0.00000000000E+00 -0.60784116178E+03  0.13496154356E+04  0.12049858696E+04 0.  0.
        5    1    3    3  502    0 -0.14812821450E+02  0.55004226143E+03 -0.29092282279E+02  0.55103027133E+03  0.46999998093E+01 0. -1.
       -5    1    3    3    0  502  0.14812821450E+02 -0.55004226143E+03 -0.57874887950E+03  0.79858516425E+03  0.46999998093E+01 0.  1.
</event>
<event>
 5   0  0.1469851E-03  0.1210116E+04  0.7818609E-02  0.9104048E-01
       -1   -1    0    0    0  501  0.00000000000E+00  0.00000000000E+00  0.81795012029E+03  0.81795012031E+03  0.50400001928E-02 0. -1.
        1   -1    0    0  501    0  0.00000000000E+00  0.00000000000E+00 -0.44757630000E+03  0.44757630003E+03  0.50400001928E-02 0.  1.
    10030    2    1    2    0    0  0.00000000000E+00  0.00000000000E+00  0.37037382029E+03  0.12655264203E+04  0.12101158431E+04 0.  0.
        5    1    3    3  502    0  0.10385529722E+03  0.43718113040E+02 -0.43648704516E+03  0.45082172392E+03  0.46999998093E+01 0.  1.
       -5    1    3    3    0  502 -0.10385529722E+03 -0.43718113040E+02  0.80686086545E+03  0.81470469642E+03  0.46999998093E+01 0. -1.
</event>
<event>
 5   0  0.2484507E-03  0.1221794E+04  0.7818609E-02  0.9093992E-01
        2   -1    0    0  501    0  0.00000000000E+00  0.00000000000E+00  0.26431841431E+03  0.26431841432E+03  0.25500000920E-02 0. -1.
       -2   -1    0    0    0  501  0.00000000000E+00  0.00000000000E+00 -0.14119141061E+04  0.14119141061E+04  0.25500000920E-02 0.  1.
    10030    2    1    2    0    0  0.00000000000E+00  0.00000000000E+00 -0.11475956918E+04  0.16762325204E+04  0.12217935958E+04 0.  0.
        2    1    3    3  502    0 -0.10663121359E+03 -0.29305903848E+03 -0.12944813792E+04  0.13315163750E+04  0.25500000920E-02 0.  1.
       -2    1    3    3    0  502  0.10663121359E+03  0.29305903848E+03  0.14688568742E+03  0.34471614543E+03  0.25500000920E-02 0. -1.
</event>
<event>
 5   0  0.2579442E-03  0.1186121E+04  0.7818609E-02  0.9125092E-01
       -2   -1    0    0    0  501  0.00000000000E+00  0.00000000000E+00  0.40937277987E+03  0.40937277987E+03  0.25500000920E-02 0. -1.
        2   -1    0    0  501    0  0.00000000000E+00  0.00000000000E+00 -0.85916997384E+03  0.85916997384E+03  0.25500000920E-02 0.  1.
    10030    2    1    2    0    0  0.00000000000E+00  0.00000000000E+00 -0.44979719397E+03  0.12685427537E+04  0.11861210740E+04 0.  0.
        4    1    3    3  502    0 -0.42632506077E+03  0.30084003983E+03  0.76578409795E+02  0.52737430043E+03  0.12699999809E+01 0. -1.
       -4    1    3    3    0  502  0.42632506077E+03 -0.30084003983E+03 -0.52637560376E+03  0.74116845329E+03  0.12699999809E+01 0.  1.
</event>
<event>
 5   0  0.1455076E-03  0.1255179E+04  0.7818609E-02  0.9065884E-01
       -1   -1    0    0    0  501  0.00000000000E+00  0.00000000000E+00  0.33076480697E+03  0.33076480701E+03  0.50400001928E-02 0. -1.
        1   -1    0    0  501    0  0.00000000000E+00  0.00000000000E+00 -0.11907819775E+04  0.11907819775E+04  0.50400001928E-02 0.  1.
    10030    2    1    2    0    0  0.00000000000E+00  0.00000000000E+00 -0.86001717054E+03  0.15215467845E+04  0.12551793035E+04 0.  0.
        4    1    3    3  502    0 -0.34920221234E+03  0.18850590912E+03 -0.10193874341E+04  0.10939053966E+04  0.12699999809E+01 0.  1.
       -4    1    3    3    0  502  0.34920221234E+03 -0.18850590912E+03  0.15937026360E+03  0.42764138796E+03  0.12699999809E+01 0. -1.
</event>
<event>
 5   0  0.2499890E-03  0.1171613E+04  0.7818609E-02  0.9138073E-01
       -2   -1    0    0    0  501  0.00000000000E+00  0.00000000000E+00  0.44474168010E+03  0.44474168011E+03  0.25500000920E-02 0. -1.
        2   -1    0    0  501    0  0.00000000000E+00  0.00000000000E+00 -0.77161520900E+03  0.77161520901E+03  0.25500000920E-02 0.  1.
    10030    2    1    2    0    0  0.00000000000E+00  0.00000000000E+00 -0.32687352890E+03  0.12163568891E+04  0.11716133226E+04 0.  0.
        5    1    3    3  502    0  0.60385064457E+02 -0.26165406449E+02 -0.76774555299E+03  0.77057531017E+03  0.46999998093E+01 0.  1.
       -5    1    3    3    0  502 -0.60385064457E+02  0.26165406449E+02  0.44087202409E+03  0.44578157894E+03  0.46999998093E+01 0. -1.
</event>
<event>
 5   0  0.2517023E-03  0.1210701E+04  0.7818609E-02  0.9103541E-01
        2   -1    0    0  501    0  0.00000000000E+00  0.00000000000E+00  0.68189654771E+03  0.68189654772E+03  0.25500000920E-02 0.  1.
       -2   -1    0    0    0  501  0.00000000000E+00  0.00000000000E+00 -0.53739706616E+03  0.53739706617E+03  0.25500000920E-02 0. -1.
    10030    2    1    2    0    0  0.00000000000E+00  0.00000000000E+00  0.14449948155E+03  0.12192936139E+04  0.12107009609E+04 0.  0.
        3    1    3    3  502    0 -0.37547005066E+03 -0.44795213938E+03 -0.86381075370E+02  0.59084733942E+03  0.10100000352E+00 0. -1.
       -3    1    3    3    0  502  0.37547005066E+03  0.44795213938E+03  0.23088055692E+03  0.62844627446E+03  0.10100000352E+00 0.  1.
</event>
<event>
 5   0  0.2579442E-03  0.1201226E+04  0.7818609E-02  0.9111784E-01
        2   -1    0    0  501    0  0.00000000000E+00  0.00000000000E+00  0.90402492473E+03  0.90402492474E+03  0.25500000920E-02 0. -1.
       -2   -1    0    0    0  501  0.00000000000E+00  0.00000000000E+00 -0.39903294492E+03  0.39903294493E+03  0.25500000920E-02 0.  1.
    10030    2    1    2    0    0  0.00000000000E+00  0.00000000000E+00  0.50499197981E+03  0.13030578697E+04  0.12012255875E+04 0.  0.
        4    1    3    3  502    0  0.37164037913E+03  0.23881218990E+02  0.76366181409E+03  0.84962807346E+03  0.12699999809E+01 0. -1.
       -4    1    3    3    0  502 -0.37164037913E+03 -0.23881218990E+02 -0.25866983428E+03  0.45342979621E+03  0.12699999809E+01 0.  1.
</event>
<event>
 5   0  0.1423024E-03  0.1211449E+04  0.7818609E-02  0.9102894E-01
       -1   -1    0    0    0  501  0.00000000000E+00  0.00000000000E+00  0.24572738879E+03  0.24572738884E+03  0.50400001928E-02 0.  1.
        1   -1    0    0  501    0  0.00000000000E+00  0.00000000000E+00 -0.14931267722E+04  0.14931267722E+04  0.50400001928E-02 0. -1.
    10030    2    1    2    0    0  0.00000000000E+00  0.00000000000E+00 -0.12473993834E+04  0.17388541610E+04  0.12114489554E+04 0.  0.
        2    1    3    3  502    0 -0.16620718144E+03 -0.57835097672E+03 -0.52438562269E+03  0.79818228540E+03  0.25500000920E-02 0. -1.
       -2    1    3    3    0  502  0.16620718144E+03  0.57835097672E+03 -0.72301376071E+03  0.94067187564E+03  0.25500000920E-02 0.  1.
</event>
<event>
 5   0  0.2499890E-03  0.1183627E+04  0.7818609E-02  0.9127310E-01
        2   -1    0    0  501    0  0.00000000000E+00  0.00000000000E+00  0.12629779933E+04  0.12629779933E+04  0.25500000920E-02 0.  1.
       -2   -1    0    0    0  501  0.00000000000E+00  0.00000000000E+00 -0.27731545072E+03  0.27731545073E+03  0.25500000920E-02 0. -1.
    10030    2    1    2    0    0  0.00000000000E+00  0.00000000000E+00  0.98566254263E+03  0.15402934441E+04  0.11836271566E+04 0.  0.
        5    1    3    3  502    0 -0.27969548374E+03 -0.25898164145E+03  0.10819202491E+04  0.11471157612E+04  0.46999998093E+01 0.  1.
       -5    1    3    3    0  502  0.27969548374E+03  0.25898164145E+03 -0.96257706482E+02  0.39317768285E+03  0.46999998093E+01 0. -1.
</event>
<event>
 5   0  0.1403154E-03  0.1197832E+04  0.7818609E-02  0.9114756E-01
       -1   -1    0    0    0  501  0.00000000000E+00  0.00000000000E+00  0.26645249238E+03  0.26645249243E+03  0.50400001928E-02 0. -1.
        1   -1    0    0  501    0  0.00000000000E+00  0.00000000000E+00 -0.13462071013E+04  0.13462071013E+04  0.50400001928E-02 0.  1.
    10030    2    1    2    0    0  0.00000000000E+00  0.00000000000E+00 -0.10797546089E+04  0.16126595937E+04  0.11978317702E+04 0.  0.
        3    1    3    3  502    0  0.51861430713E+03  0.79404851731E+02 -0.92876050543E+03  0.10667061529E+04  0.10100000352E+00 0.  1.
       -3    1    3    3    0  502 -0.51861430713E+03 -0.79404851731E+02 -0.15099410347E+03  0.54595344081E+03  0.10100000352E+00 0. -1.
</event>
<event>
 5   0  0.2579442E-03  0.1245565E+04  0.7818609E-02  0.9073883E-01
       -2   -1    0    0    0  501  0.00000000000E+00  0.00000000000E+00  0.78985642763E+03  0.78985642764E+03  0.25500000920E-02 0. -1.
        2   -1    0    0  501    0  0.00000000000E+00  0.00000000000E+00 -0.49104867357E+03  0.49104867358E+03  0.25500000920E-02 0.  1.
    10030    2    1    2    0    0  0.00000000000E+00  0.00000000000E+00  0.29880775406E+03  0.12809051012E+04  0.12455648536E+04 0.  0.
        4    1    3    3  502    0  0.44908274455E+03  0.89742966941E+02  0.58342989384E+03  0.74170153397E+03  0.12699999809E+01 0. -1.
       -4    1    3    3    0  502 -0.44908274455E+03 -0.89742966941E+02 -0.28462213978E+03  0.53920356724E+03  0.12699999809E+01 0.  1.
</event>
<event>
 5   0  0.1404833E-03  0.1189418E+04  0.7818609E-02  0.9122169E-01
        1   -1    0    0  501    0  0.00000000000E+00  0.00000000000E+00  0.41999824664E+03  0.41999824667E+03  0.50400001928E-02 0.  1.
       -1   -1    0    0    0  501  0.00000000000E+00  0.00000000000E+00 -0.84209635764E+03  0.84209635766E+03  0.50400001928E-02 0. -1.
    10030    2    1    2    0    0  0.00000000000E+00  0.00000000000E+00 -0.42209811100E+03  0.12620946043E+04  0.11894183347E+04 0.  0.
        1    1    3    3  502    0 -0.41211047386E+03  0.32235146245E+02  0.24263251106E+03  0.47931689180E+03  0.50400001928E-02 0.  1.
       -1    1    3    3    0  502  0.41211047386E+03 -0.32235146245E+02 -0.66473062205E+03  0.78277771253E+03  0.50400001928E-02 0. -1.
</event>
<event>
 5   0  0.2499890E-03  0.1202652E+04  0.7818609E-02  0.9110539E-01
        2   -1    0    0  501    0  0.00000000000E+00  0.00000000000E+00  0.95827716572E+03  0.95827716573E+03  0.25500000920E-02 0. -1.
       -2   -1    0    0    0  501  0.00000000000E+00  0.00000000000E+00 -0.37733623322E+03  0.37733623323E+03  0.25500000920E-02 0.  1.
    10030    2    1    2    0    0  0.00000000000E+00  0.00000000000E+00  0.58094093250E+03  0.13356133990E+04  0.12026515640E+04 0.  0.
        5    1    3    3  502    0  0.11882352624E+03  0.38766009486E+03 -0.20266100068E+03  0.45331330306E+03  0.46999998093E+01 0.  1.
       -5    1    3    3    0  502 -0.11882352624E+03 -0.38766009486E+03  0.78360193318E+03  0.88230009590E+03  0.46999998093E+01 0. -1.
</event>
<event>
 5   0  0.1469851E-03  0.1195717E+04  0.7818609E-02  0.9116613E-01
       -1   -1    0    0    0  501  0.00000000000E+00  0.00000000000E+00  0.37581925659E+03  0.37581925662E+03  0.50400001928E-02 0.  1.
        1   -1    0    0  501    0  0.00000000000E+00  0.00000000000E+00 -0.95108211220E+03  0.95108211221E+03  0.50400001928E-02 0. -1.
    10030    2    1    2    0    0  0.00000000000E+00  0.00000000000E+00 -0.57526285561E+03  0.13269013688E+04  0.11957173117E+04 0.  0.
        5    1    3    3  502    0 -0.44398261986E+03 -0.34909514716E+03 -0.70102778373E+02  0.56914363569E+03  0.46999998093E+01 0.  1.
       -5    1    3    3    0  502  0.44398261986E+03  0.34909514716E+03 -0.50516007724E+03  0.75775773315E+03  0.46999998093E+01 0. -1.
</event>
<event>
 5   0  0.1469851E-03  0.1198087E+04  0.7818609E-02  0.9114532E-01
        1   -1    0    0  501    0  0.00000000000E+00  0.00000000000E+00  0.67887199661E+03  0.67887199663E+03  0.50400001928E-02 0. -1.
       -1   -1    0    0    0  501  0.00000000000E+00  0.00000000000E+00 -0.52860240950E+03  0.52860240953E+03  0.50400001928E-02 0.  1.
    10030    2    1    2    0    0  0.00000000000E+00  0.00000000000E+00  0.15026958711E+03  0.12074744062E+04  0.11980874312E+04 0.  0.
        5    1    3    3  502    0  0.29220300191E+03  0.39409385697E+03  0.42154091180E+03  0.64684727158E+03  0.46999998093E+01 0.  1.
       -5    1    3    3    0  502 -0.29220300191E+03 -0.39409385697E+03 -0.27127132469E+03  0.56062713458E+03  0.46999998093E+01 0. -1.
</event>
<event>
 5   0  0.2499890E-03  0.1210557E+04  0.7818609E-02  0.9103666E-01
       -2   -1    0    0    0  501  0.00000000000E+00  0.00000000000E+00  0.64647943536E+03  0.64647943536E+03  0.25500000920E-02 0.  1.
        2   -1    0    0  501    0  0.00000000000E+00  0.00000000000E+00 -0.56670375175E+03  0.56670375176E+03  0.25500000920E-02 0. -1.
    10030    2    1    2    0    0  0.00000000000E+00  0.00000000000E+00  0.79775683605E+02  0.12131831871E+04  0.12105574277E+04 0.  0.
        5    1    3    3  502    0 -0.36293071378E+03  0.17119725107E+03  0.49398547890E+03  0.63645184039E+03  0.46999998093E+01 0.  1.
       -5    1    3    3    0  502  0.36293071378E+03 -0.17119725107E+03 -0.41420979530E+03  0.57673134672E+03  0.46999998093E+01 0. -1.
</event>
<event>
 5   0  0.1455076E-03  0.1194048E+04  0.7818609E-02  0.9118082E-01
        1   -1    0    0  501    0  0.00000000000E+00  0.00000000000E+00  0.56503879492E+03  0.56503879494E+03  0.50400001928E-02 0. -1.
       -1   -1    0    0    0  501  0.00000000000E+00  0.00000000000E+00 -0.63082028490E+03  0.63082028492E+03  0.50400001928E-02 0.  1.
    10030    2    1    2    0    0  0.00000000000E+00  0.00000000000E+00 -0.65781489983E+02  0.11958590799E+04  0.11940484640E+04 0.  0.
        4    1    3    3  502    0 -0.36146422936E+03 -0.46233134047E+02 -0.50651632624E+03  0.62398260668E+03  0.12699999809E+01 0.  1.
       -4    1    3    3    0  502  0.36146422936E+03  0.46233134047E+02  0.44073483625E+03  0.57187647318E+03  0.12699999809E+01 0. -1.
</event>
<event>
 5   0  0.1455076E-03  0.1196395E+04  0.7818609E-02  0.9116018E-01
        1   -1    0    0  501    0  0.00000000000E+00  0.00000000000E+00  0.13214891443E+04  0.13214891443E+04  0.50400001928E-02 0.  1.
       -1   -1    0    0    0  501  0.00000000000E+00  0.00000000000E+00 -0.27078540614E+03  0.27078540619E+03  0.50400001928E-02 0. -1.
    10030    2    1    2    0    0  0.00000000000E+00  0.00000000000E+00  0.10507037382E+04  0.15922745505E+04  0.11963945414E+04 0.  0.
        4    1    3    3  502    0  0.43748485295E+03  0.63250525524E+02  0.10617612354E+04  0.11501009345E+04  0.12699999809E+01 0.  1.
       -4    1    3    3    0  502 -0.43748485295E+03 -0.63250525524E+02 -0.11057497282E+02  0.44217361600E+03  0.12699999809E+01 0. -1.
</event>
<event>
 5   0  0.1469851E-03  0.1229015E+04  0.7818609E-02  0.9087832E-01
       -1   -1    0    0    0  501  0.00000000000E+00  0.00000000000E+00  0.33406482311E+03  0.33406482314E+03  0.50400001928E-02 0.  1.
        1   -1    0    0  501    0  0.00000000000E+00  0.00000000000E+00 -0.11303785187E+04  0.11303785187E+04  0.50400001928E-02 0. -1.
    10030    2    1    2    0    0  0.00000000000E+00  0.00000000000E+00 -0.79631369554E+03  0.14644433418E+04  0.12290153781E+04 0.  0.
        5    1    3    3  502    0  0.31414238328E+03  0.33991192215E+03  0.83462745815E+02  0.47033357495E+03  0.46999998093E+01 0.  1.
       -5    1    3    3    0  502 -0.31414238328E+03 -0.33991192215E+03 -0.87977644136E+03  0.99410976686E+03  0.46999998093E+01 0. -1.
</event>
<event>
 5   0  0.1423024E-03  0.1192634E+04  0.7818609E-02  0.9119329E-01
        1   -1    0    0  501    0  0.00000000000E+00  0.00000000000E+00  0.21654467495E+04  0.21654467495E+04  0.50400001928E-02 0.  1.
       -1   -1    0    0    0  501  0.00000000000E+00  0.00000000000E+00 -0.16421268974E+03  0.16421268982E+03  0.50400001928E-02 0. -1.
    10030    2    1    2    0    0  0.00000000000E+00  0.00000000000E+00  0.20012340598E+04  0.23296594394E+04  0.11926337834E+04 0.  0.
        2    1    3    3  502    0 -0.36827737214E+03 -0.18770330778E+03  0.16104556871E+03  0.44361743630E+03  0.25500000920E-02 0. -1.
       -2    1    3    3    0  502  0.36827737214E+03  0.18770330778E+03  0.18401884911E+04  0.18860420031E+04  0.25500000920E-02 0.  1.
</event>
<event>
 5   0  0.1455076E-03  0.1198654E+04  0.7818609E-02  0.9114035E-01
       -1   -1    0    0    0  501  0.00000000000E+00  0.00000000000E+00  0.91583755843E+03  0.91583755844E+03  0.50400001928E-02 0.  1.
        1   -1    0    0  501    0  0.00000000000E+00  0.00000000000E+00 -0.39220175991E+03  0.39220175994E+03  0.50400001928E-02 0. -1.
    10030    2    1    2    0    0  0.00000000000E+00  0.00000000000E+00  0.52363579852E+03  0.13080393184E+04  0.11986544160E+04 0.  0.
        4    1    3    3  502    0  0.10085406706E+03 -0.14194507675E+03  0.88762423551E+03  0.90454316869E+03  0.12699999809E+01 0.  1.
       -4    1    3    3    0  502 -0.10085406706E+03  0.14194507675E+03 -0.36398843699E+03  0.40349614969E+03  0.12699999809E+01 0. -1.
</event>
<event>
 5   0  0.1455076E-03  0.1194848E+04  0.7818609E-02  0.9117378E-01
        1   -1    0    0  501    0  0.00000000000E+00  0.00000000000E+00  0.13720842863E+04  0.13720842863E+04  0.50400001928E-02 0.  1.
       -1   -1    0    0    0  501  0.00000000000E+00  0.00000000000E+00 -0.26012652662E+03  0.26012652666E+03  0.50400001928E-02 0. -1.
    10030    2    1    2    0    0  0.00000000000E+00  0.00000000000E+00  0.11119577597E+04  0.16322108130E+04  0.11948481404E+04 0.  0.
        4    1    3    3  502    0 -0.15916851456E+03 -0.51312310164E+03  0.91294165604E+03  0.10592893909E+04  0.12699999809E+01 0.  1.
       -4    1    3    3    0  502  0.15916851456E+03  0.51312310164E+03  0.19901610366E+03  0.57292142208E+03  0.12699999809E+01 0. -1.
</event>
<event>
 5   0  0.1404833E-03  0.1202496E+04  0.7818609E-02  0.9110674E-01
       -1   -1    0    0    0  501  0.00000000000E+00  0.00000000000E+00  0.19841244240E+03  0.19841244246E+03  0.50400001928E-02 0.  1.
        1   -1    0    0  501    0  0.00000000000E+00  0.00000000000E+00 -0.18219588835E+04  0.18219588835E+04  0.50400001928E-02 0. -1.
    10030    2    1    2    0    0  0.00000000000E+00  0.00000000000E+00 -0.16235464411E+04  0.20203713260E+04  0.12024962571E+04 0.  0.
        1    1    3    3  502    0 -0.56873389616E+02  0.52243444973E+03 -0.32098894638E+03  0.61579723971E+03  0.50400001928E-02 0.  1.
       -1    1    3    3    0  502  0.56873389616E+02 -0.52243444973E+03 -0.13025574947E+04  0.14045740863E+04  0.50400001928E-02 0. -1.
</event>
<event>
 5   0  0.2484507E-03  0.1076188E+04  0.7818609E-02  0.9228717E-01
        2   -1    0    0  501    0  0.00000000000E+00  0.00000000000E+00  0.17842207961E+04  0.17842207961E+04  0.25500000920E-02 0. -1.
       -2   -1    0    0    0  501  0.00000000000E+00  0.00000000000E+00 -0.16228097307E+03  0.16228097309E+03  0.25500000920E-02 0.  1.
    10030    2    1    2    0    0  0.00000000000E+00  0.00000000000E+00  0.16219398231E+04  0.19465017692E+04  0.10761878776E+04 0.  0.
        2    1    3    3  502    0 -0.17235732846E+03  0.23028971240E+03  0.16334907231E+04  0.16586236290E+04  0.25500000920E-02 0. -1.
       -2    1    3    3    0  502  0.17235732846E+03 -0.23028971240E+03 -0.11550900030E+02  0.28787814020E+03  0.25500000920E-02 0.  1.
</event>
<event>
 5   0  0.1404833E-03  0.1189933E+04  0.7818609E-02  0.9121714E-01
        1   -1    0    0  501    0  0.00000000000E+00  0.00000000000E+00  0.12212483935E+04  0.12212483935E+04  0.50400001928E-02 0. -1.
       -1   -1    0    0    0  501  0.00000000000E+00  0.00000000000E+00 -0.28985499076E+03  0.28985499081E+03  0.50400001928E-02 0.  1.
    10030    2    1    2    0    0  0.00000000000E+00  0.00000000000E+00  0.93139340275E+03  0.15111033843E+04  0.11899326735E+04 0.  0.
        1    1    3    3  502    0 -0.51321203514E+03  0.26783222939E+03  0.64011478523E+03  0.86305714434E+03  0.50400001928E-02 0. -1.
       -1    1    3    3    0  502  0.51321203514E+03 -0.26783222939E+03  0.29127861752E+03  0.64804623998E+03  0.50400001928E-02 0.  1.
</event>
<event>
 5   0  0.1455076E-03  0.1202623E+04  0.7818609E-02  0.9110564E-01
        1   -1    0    0  501    0  0.00000000000E+00  0.00000000000E+00  0.14424493045E+04  0.14424493046E+04  0.50400001928E-02 0. -1.
       -1   -1    0    0    0  501  0.00000000000E+00  0.00000000000E+00 -0.25066763818E+03  0.25066763823E+03  0.50400001928E-02 0.  1.
    10030    2    1    2    0    0  0.00000000000E+00  0.00000000000E+00  0.11917816664E+04  0.16931169428E+04  0.12026227346E+04 0.  0.
        4    1    3    3  502    0  0.63199773323E+02  0.53973627550E+03  0.95829845067E+03  0.11016564764E+04  0.12699999809E+01 0.  1.
       -4    1    3    3    0  502 -0.63199773323E+02 -0.53973627550E+03  0.23348321569E+03  0.59146046643E+03  0.12699999809E+01 0. -1.
</event>
<event>
 5   0  0.2499890E-03  0.1196054E+04  0.7818609E-02  0.9116318E-01
       -2   -1    0    0    0  501  0.00000000000E+00  0.00000000000E+00  0.38867853674E+03  0.38867853675E+03  0.25500000920E-02 0.  1.
        2   -1    0    0  501    0  0.00000000000E+00  0.00000000000E+00 -0.92013355857E+03  0.92013355857E+03  0.25500000920E-02 0. -1.
    10030    2    1    2    0    0  0.00000000000E+00  0.00000000000E+00 -0.53145502182E+03  0.13088120953E+04  0.11960537867E+04 0.  0.
        5    1    3    3  502    0 -0.33292085137E+03 -0.18267567724E+03  0.23978429801E+03  0.44913839282E+03  0.46999998093E+01 0.  1.
       -5    1    3    3    0  502  0.33292085137E+03  0.18267567724E+03 -0.77123931983E+03  0.85967370251E+03  0.46999998093E+01 0. -1.
</event>
<event>
 5   0  0.9678750E-04  0.1171735E+04  0.7818609E-02  0.9137963E-01
        4   -1    0    0  501    0  0.00000000000E+00  0.00000000000E+00  0.43196294224E+03  0.43196480918E+03  0.12699999809E+01 0. -1.
       -4   -1    0    0    0  501  0.00000000000E+00  0.00000000000E+00 -0.79460325730E+03  0.79460427221E+03  0.12699999809E+01 0.  1.
    10030    2    1    2    0    0  0.00000000000E+00  0.00000000000E+00 -0.36264031507E+03  0.12265690814E+04  0.11717353427E+04 0.  0.
        4    1    3    3  502    0 -0.11300755959E+03 -0.53669052369E+03  0.34309585321E+02  0.54953269901E+03  0.12699999809E+01 0. -1.
       -4    1    3    3    0  502  0.11300755959E+03  0.53669052369E+03 -0.39694990039E+03  0.67703638237E+03  0.12699999809E+01 0.  1.
</event>
<event>
 5   0  0.1403154E-03  0.1176948E+04  0.7818609E-02  0.9133277E-01
        1   -1    0    0  501    0  0.00000000000E+00  0.00000000000E+00  0.61080406567E+03  0.61080406569E+03  0.50400001928E-02 0. -1.
       -1   -1    0    0    0  501  0.00000000000E+00  0.00000000000E+00 -0.56696022906E+03  0.56696022909E+03  0.50400001928E-02 0.  1.
    10030    2    1    2    0    0  0.00000000000E+00  0.00000000000E+00  0.43843836605E+02  0.11777642948E+04  0.11769479394E+04 0.  0.
        3    1    3    3  502    0 -0.16621313839E+03 -0.88701261303E+02 -0.53596534212E+03  0.56811405483E+03  0.10100000352E+00 0.  1.
       -3    1    3    3    0  502  0.16621313839E+03  0.88701261303E+02  0.57980917873E+03  0.60965023995E+03  0.10100000352E+00 0. -1.
</event>
<event>
 5   0  0.1455076E-03  0.1214223E+04  0.7818609E-02  0.9100498E-01
       -1   -1    0    0    0  501  0.00000000000E+00  0.00000000000E+00  0.53545365651E+03  0.53545365654E+03  0.50400001928E-02 0. -1.
        1   -1    0    0  501    0  0.00000000000E+00  0.00000000000E+00 -0.68835866672E+03  0.68835866674E+03  0.50400001928E-02 0.  1.
    10030    2    1    2    0    0  0.00000000000E+00  0.00000000000E+00 -0.15290501021E+03  0.12238123233E+04  0.12142226569E+04 0.  0.
        4    1    3    3  502    0 -0.54219794622E+03 -0.10165143868E+03 -0.33197183666E+03  0.64383114332E+03  0.12699999809E+01 0.  1.
       -4    1    3    3    0  502  0.54219794622E+03  0.10165143868E+03  0.17906682645E+03  0.57998117996E+03  0.12699999809E+01 0. -1.
</event>
<event>
 5   0  0.1455076E-03  0.1203108E+04  0.7818609E-02  0.9110140E-01
       -1   -1    0    0    0  501  0.00000000000E+00  0.00000000000E+00  0.23199788210E+03  0.23199788215E+03  0.50400001928E-02 0. -1.
        1   -1    0    0  501    0  0.00000000000E+00  0.00000000000E+00 -0.15597878207E+04  0.15597878207E+04  0.50400001928E-02 0.  1.
    10030    2    1    2    0    0  0.00000000000E+00  0.00000000000E+00 -0.13277899386E+04  0.17917857029E+04  0.12031084257E+04 0.  0.
        4    1    3    3  502    0 -0.28145840148E+03 -0.48828171859E+01 -0.14556397176E+04  0.14826096162E+04  0.12699999809E+01 0.  1.
       -4    1    3    3    0  502  0.28145840148E+03  0.48828171859E+01  0.12784977901E+03  0.30917608665E+03  0.12699999809E+01 0. -1.
</event>
<event>
 5   0  0.2579442E-03  0.1202617E+04  0.7818609E-02  0.9110569E-01
       -2   -1    0    0    0  501  0.00000000000E+00  0.00000000000E+00  0.33543879154E+03  0.33543879155E+03  0.25500000920E-02 0. -1.
        2   -1    0    0  501    0  0.00000000000E+00  0.00000000000E+00 -0.10779078735E+04  0.10779078735E+04  0.25500000920E-02 0.  1.
    10030    2    1    2    0    0  0.00000000000E+00  0.00000000000E+00 -0.74246908200E+03  0.14133466651E+04  0.12026173365E+04 0.  0.
        4    1    3    3  502    0 -0.49441121329E+03  0.15299119418E+03 -0.11450886393E+02  0.51766928538E+03  0.12699999809E+01 0. -1.
       -4    1    3    3    0  502  0.49441121329E+03 -0.15299119418E+03 -0.73101819561E+03  0.89567737971E+03  0.12699999809E+01 0.  1.
</event>
<event>
 5   0  0.9678750E-04  0.1210465E+04  0.7818609E-02  0.9103746E-01
        3   -1    0    0  501    0  0.00000000000E+00  0.00000000000E+00  0.14581753451E+04  0.14581753486E+04  0.10100000352E+00 0.  1.
       -3   -1    0    0    0  501  0.00000000000E+00  0.00000000000E+00 -0.25120859772E+03  0.25120861803E+03  0.10100000352E+00 0. -1.
    10030    2    1    2    0    0  0.00000000000E+00  0.00000000000E+00  0.12069667473E+04  0.17093839666E+04  0.12104647108E+04 0.  0.
        2    1    3    3  502    0  0.59218349571E+03 -0.76390906146E+02  0.46376155853E+03  0.75603680222E+03  0.25500000920E-02 0. -1.
       -2    1    3    3    0  502 -0.59218349571E+03  0.76390906146E+02  0.74320518882E+03  0.95334716438E+03  0.25500000920E-02 0.  1.
</event>
<event>
 5   0  0.1403154E-03  0.1244292E+04  0.7818609E-02  0.9074948E-01
       -1   -1    0    0    0  501  0.00000000000E+00  0.00000000000E+00  0.40735421942E+03  0.40735421945E+03  0.50400001928E-02 0.  1.
        1   -1    0    0  501    0  0.00000000000E+00  0.00000000000E+00 -0.95019365996E+03  0.95019365997E+03  0.50400001928E-02 0. -1.
    10030    2    1    2    0    0  0.00000000000E+00  0.00000000000E+00 -0.54283944054E+03  0.13575478794E+04  0.12442916004E+04 0.  0.
        3    1    3    3  502    0  0.27452076001E+03 -0.37695011462E+03 -0.72074589853E+03  0.85844492953E+03  0.10100000352E+00 0. -1.
       -3    1    3    3    0  502 -0.27452076001E+03  0.37695011462E+03  0.17790645798E+03  0.49910294989E+03  0.10100000352E+00 0.  1.
</event>
<event>
 5   0  0.2484507E-03  0.1205775E+04  0.7818609E-02  0.9107817E-01
       -2   -1    0    0    0  501  0.00000000000E+00  0.00000000000E+00  0.23621329327E+03  0.23621329329E+03  0.25500000920E-02 0.  1.
        2   -1    0    0  501    0  0.00000000000E+00  0.00000000000E+00 -0.15387498773E+04  0.15387498773E+04  0.25500000920E-02 0. -1.
    10030    2    1    2    0    0  0.00000000000E+00  0.00000000000E+00 -0.13025365840E+04  0.17749631706E+04  0.12057747319E+04 0.  0.
        2    1    3    3  502    0  0.44805781111E+03 -0.64913641025E+02 -0.65207424750E+02  0.45740746729E+03  0.25500000920E-02 0.  1.
       -2    1    3    3    0  502 -0.44805781111E+03  0.64913641025E+02 -0.12373291592E+04  0.13175557033E+04  0.25500000920E-02 0. -1.
</event>
<event>
 5   0  0.2499890E-03  0.1199246E+04  0.7818609E-02  0.9113517E-01
        2   -1    0    0  501    0  0.00000000000E+00  0.00000000000E+00  0.14067030696E+04  0.14067030696E+04  0.25500000920E-02 0.  1.
       -2   -1    0    0    0  501  0.00000000000E+00  0.00000000000E+00 -0.25559598758E+03  0.25559598759E+03  0.25500000920E-02 0. -1.
    10030    2    1    2    0    0  0.00000000000E+00  0.00000000000E+00  0.11511070821E+04  0.16622990572E+04  0.11992458636E+04 0.  0.
        5    1    3    3  502    0  0.40358436947E+03  0.39611397797E+03  0.85187148439E+03  0.10224938840E+04  0.46999998093E+01 0.  1.
       -5    1    3    3    0  502 -0.40358436947E+03 -0.39611397797E+03  0.29923559766E+03  0.63980517326E+03  0.46999998093E+01 0. -1.
</event>
<event>
 5   0  0.2517023E-03  0.1176171E+04  0.7818609E-02  0.9133974E-01
        2   -1    0    0  501    0  0.00000000000E+00  0.00000000000E+00  0.11283684343E+04  0.11283684343E+04  0.25500000920E-02 0. -1.
       -2   -1    0    0    0  501  0.00000000000E+00  0.00000000000E+00 -0.30649962949E+03  0.30649962950E+03  0.25500000920E-02 0.  1.
    10030    2    1    2    0    0  0.00000000000E+00  0.00000000000E+00  0.82186880483E+03  0.14348680638E+04  0.11761709179E+04 0.  0.
        3    1    3    3  502    0 -0.30246196075E+03 -0.46913532772E+03  0.63678410122E+03  0.84679702124E+03  0.10100000352E+00 0. -1.
       -3    1    3    3    0  502  0.30246196075E+03  0.46913532772E+03  0.18508470360E+03  0.58807104258E+03  0.10100000352E+00 0.  1.
</event>
<event>
 5   0  0.1423024E-03  0.1432621E+04  0.7818609E-02  0.8930538E-01
       -1   -1    0    0    0  501  0.00000000000E+00  0.00000000000E+00  0.59168944718E+03  0.59168944720E+03  0.50400001928E-02 0. -1.
        1   -1    0    0  501    0  0.00000000000E+00  0.00000000000E+00 -0.86717947395E+03  0.86717947396E+03  0.50400001928E-02 0.  1.
    10030    2    1    2    0    0  0.00000000000E+00  0.00000000000E+00 -0.27549002677E+03  0.14588689212E+04  0.14326212948E+04 0.  0.
        2    1    3    3  502    0 -0.53266366250E+03  0.47628018256E+03 -0.86549124944E+02  0.71976672657E+03  0.25500000920E-02 0.  1.
       -2    1    3    3    0  502  0.53266366250E+03 -0.47628018256E+03 -0.18894090183E+03  0.73910219458E+03  0.25500000920E-02 0. -1.
</event>
<event>
 5   0  0.2517023E-03  0.1189278E+04  0.7818609E-02  0.9122293E-01
        2   -1    0    0  501    0  0.00000000000E+00  0.00000000000E+00  0.50082273836E+03  0.50082273837E+03  0.25500000920E-02 0.  1.
       -2   -1    0    0    0  501  0.00000000000E+00  0.00000000000E+00 -0.70602987692E+03  0.70602987693E+03  0.25500000920E-02 0. -1.
    10030    2    1    2    0    0  0.00000000000E+00  0.00000000000E+00 -0.20520713856E+03  0.12068526153E+04  0.11892784642E+04 0.  0.
        3    1    3    3  502    0 -0.27333883658E+03 -0.20366706033E+03  0.39183499076E+03  0.51935446589E+03  0.10100000352E+00 0.  1.
       -3    1    3    3    0  502  0.27333883658E+03  0.20366706033E+03 -0.59704212932E+03  0.68749814941E+03  0.10100000352E+00 0. -1.
</event>
<event>
 5   0  0.1469851E-03  0.1202094E+04  0.7818609E-02  0.9111026E-01
       -1   -1    0    0    0  501  0.00000000000E+00  0.00000000000E+00  0.79288693606E+03  0.79288693608E+03  0.50400001928E-02 0.  1.
        1   -1    0    0  501    0  0.00000000000E+00  0.00000000000E+00 -0.45562292574E+03  0.45562292577E+03  0.50400001928E-02 0. -1.
    10030    2    1    2    0    0  0.00000000000E+00  0.00000000000E+00  0.33726401032E+03  0.12485098618E+04  0.12020939491E+04 0.  0.
        5    1    3    3  502    0 -0.48076009685E+03  0.29223066333E+02 -0.20476490430E+03  0.52338801511E+03  0.46999998093E+01 0. -1.
       -5    1    3    3    0  502  0.48076009685E+03 -0.29223066333E+02  0.54202891462E+03  0.72512184673E+03  0.46999998093E+01 0.  1.
</event>
<event>
 5   0  0.1403154E-03  0.1203147E+04  0.7818609E-02  0.9110106E-01
        1   -1    0    0  501    0  0.00000000000E+00  0.00000000000E+00  0.38520511444E+03  0.38520511447E+03  0.50400001928E-02 0.  1.
       -1   -1    0    0    0  501  0.00000000000E+00  0.00000000000E+00 -0.93947546402E+03  0.93947546403E+03  0.50400001928E-02 0. -1.
    10030    2    1    2    0    0  0.00000000000E+00  0.00000000000E+00 -0.55427034958E+03  0.13246805785E+04  0.12031471293E+04 0.  0.
        3    1    3    3  502    0  0.67377532483E+02  0.49056688357E+03 -0.65324858871E+03  0.81971295463E+03  0.10100000352E+00 0. -1.
       -3    1    3    3    0  502 -0.67377532483E+02 -0.49056688357E+03  0.98978239134E+02  0.50496762387E+03  0.10100000352E+00 0.  1.
</event>
<event>
 5   0  0.1455076E-03  0.1194748E+04  0.7818609E-02  0.9117466E-01
        1   -1    0    0  501    0  0.00000000000E+00  0.00000000000E+00  0.79747831267E+03  0.79747831269E+03  0.50400001928E-02 0. -1.
       -1   -1    0    0    0  501  0.00000000000E+00  0.00000000000E+00 -0.44747989867E+03  0.44747989870E+03  0.50400001928E-02 0.  1.
    10030    2    1    2    0    0  0.00000000000E+00  0.00000000000E+00  0.34999841400E+03  0.12449582114E+04  0.11947476965E+04 0.  0.
        4    1    3    3  502    0  0.38662098718E+02 -0.13319556690E+03 -0.43046911115E+03  0.45226218665E+03  0.12699999809E+01 0.  1.
       -4    1    3    3    0  502 -0.38662098718E+02  0.13319556690E+03  0.78046752515E+03  0.79269602474E+03  0.12699999809E+01 0. -1.
</event>
<event>
 5   0  0.2579442E-03  0.1220906E+04  0.7818609E-02  0.9094752E-01
       -2   -1    0    0    0  501  0.00000000000E+00  0.00000000000E+00  0.27873369900E+03  0.27873369901E+03  0.25500000920E-02 0. -1.
        2   -1    0    0  501    0  0.00000000000E+00  0.00000000000E+00 -0.13369485524E+04  0.13369485524E+04  0.25500000920E-02 0.  1.
    10030    2    1    2    0    0  0.00000000000E+00  0.00000000000E+00 -0.10582148534E+04  0.16156822514E+04  0.12209055908E+04 0.  0.
        4    1    3    3  502    0  0.19810589137E+03  0.40521589562E+03  0.15245600860E+02  0.45130910417E+03  0.12699999809E+01 0. -1.
       -4    1    3    3    0  502 -0.19810589137E+03 -0.40521589562E+03 -0.10734604542E+04  0.11643731472E+04  0.12699999809E+01 0.  1.
</event>
<event>
 5   0  0.1455076E-03  0.1195209E+04  0.7818609E-02  0.9117061E-01
       -1   -1    0    0    0  501  0.00000000000E+00  0.00000000000E+00  0.52539441979E+03  0.52539441982E+03  0.50400001928E-02 0.  1.
        1   -1    0    0  501    0  0.00000000000E+00  0.00000000000E+00 -0.67973885811E+03  0.67973885813E+03  0.50400001928E-02 0. -1.
    10030    2    1    2    0    0  0.00000000000E+00  0.00000000000E+00 -0.15434443832E+03  0.12051332780E+04  0.11952087734E+04 0.  0.
        4    1    3    3  502    0  0.31096017135E+03 -0.14367825795E+03 -0.57092162611E+03  0.66580236259E+03  0.12699999809E+01 0. -1.
       -4    1    3    3    0  502 -0.31096017135E+03  0.14367825795E+03  0.41657718779E+03  0.53933091536E+03  0.12699999809E+01 0.  1.
</event>
<event>
 5   0  0.2499890E-03  0.1191277E+04  0.7818609E-02  0.9120526E-01
        2   -1    0    0  501    0  0.00000000000E+00  0.00000000000E+00  0.78255967451E+03  0.78255967451E+03  0.25500000920E-02 0. -1.
       -2   -1    0    0    0  501  0.00000000000E+00  0.00000000000E+00 -0.45336502763E+03  0.45336502763E+03  0.25500000920E-02 0.  1.
    10030    2    1    2    0    0  0.00000000000E+00  0.00000000000E+00  0.32919464689E+03  0.12359247021E+04  0.11912769425E+04 0.  0.
        5    1    3    3  502    0  0.38282013601E+03  0.45180756382E+03  0.23088051205E+03  0.63561720564E+03  0.46999998093E+01 0. -1.
       -5    1    3    3    0  502 -0.38282013601E+03 -0.45180756382E+03  0.98314134832E+02  0.60030749651E+03  0.46999998093E+01 0.  1.
</event>
<event>
 5   0  0.1403154E-03  0.1197408E+04  0.7818609E-02  0.9115128E-01
       -1   -1    0    0    0  501  0.00000000000E+00  0.00000000000E+00  0.73344672060E+03  0.73344672062E+03  0.50400001928E-02 0.  1.
        1   -1    0    0  501    0  0.00000000000E+00  0.00000000000E+00 -0.48871514671E+03  0.48871514674E+03  0.50400001928E-02 0. -1.
    10030    2    1    2    0    0  0.00000000000E+00  0.00000000000E+00  0.24473157389E+03  0.12221618674E+04  0.11974080703E+04 0.  0.
        3    1    3    3  502    0 -0.34606099403E+02  0.30339200954E+03 -0.40325813719E+03  0.50582746958E+03  0.10100000352E+00 0. -1.
       -3    1    3    3    0  502  0.34606099403E+02 -0.30339200954E+03  0.64798971108E+03  0.71633439777E+03  0.10100000352E+00 0.  1.
</event>
<event>
 5   0  0.2484507E-03  0.1201109E+04  0.7818609E-02  0.9111887E-01
       -2   -1    0    0    0  501  0.00000000000E+00  0.00000000000E+00  0.41961443891E+03  0.41961443892E+03  0.25500000920E-02 0. -1.
        2   -1    0    0  501    0  0.00000000000E+00  0.00000000000E+00 -0.85951654435E+03  0.85951654435E+03  0.25500000920E-02 0.  1.
    10030    2    1    2    0    0  0.00000000000E+00  0.00000000000E+00 -0.43990210544E+03  0.12791309833E+04  0.12011087420E+04 0.  0.
        2    1    3    3  502    0 -0.75381886611E+02 -0.45384919403E+03  0.19113401529E+03  0.49819045711E+03  0.25500000920E-02 0. -1.
       -2    1    3    3    0  502  0.75381886611E+02  0.45384919403E+03 -0.63103612072E+03  0.78094052617E+03  0.25500000920E-02 0.  1.
</event>
<event>
 5   0  0.2579442E-03  0.1203728E+04  0.7818609E-02  0.9109600E-01
        2   -1    0    0  501    0  0.00000000000E+00  0.00000000000E+00  0.64611509689E+03  0.64611509689E+03  0.25500000920E-02 0.  1.
       -2   -1    0    0    0  501  0.00000000000E+00  0.00000000000E+00 -0.56064332381E+03  0.56064332381E+03  0.25500000920E-02 0. -1.
    10030    2    1    2    0    0  0.00000000000E+00  0.00000000000E+00  0.85471773077E+02  0.12067584207E+04  0.12037277358E+04 0.  0.
        4    1    3    3  502    0 -0.55191218052E+02  0.59758795707E+03 -0.29976678774E+01  0.60014001358E+03  0.12699999809E+01 0.  1.
       -4    1    3    3    0  502  0.55191218052E+02 -0.59758795707E+03  0.88469440955E+02  0.60661840713E+03  0.12699999809E+01 0. -1.
</event>
<event>
 5   0  0.2484507E-03  0.1197829E+04  0.7818609E-02  0.9114759E-01
        2   -1    0    0  501    0  0.00000000000E+00  0.00000000000E+00  0.84847956764E+03  0.84847956764E+03  0.25500000920E-02 0.  1.
       -2   -1    0    0    0  501  0.00000000000E+00  0.00000000000E+00 -0.42275448212E+03  0.42275448213E+03  0.25500000920E-02 0. -1.
    10030    2    1    2    0    0  0.00000000000E+00  0.00000000000E+00  0.42572508552E+03  0.12712340498E+04  0.11978289364E+04 0.  0.
        2    1    3    3  502    0 -0.23347824002E+03 -0.39451437175E+03 -0.19617157483E+03  0.49863510191E+03  0.25500000920E-02 0. -1.
       -2    1    3    3    0  502  0.23347824002E+03  0.39451437175E+03  0.62189666034E+03  0.77259894786E+03  0.25500000920E-02 0.  1.
</event>
<event>
 5   0  0.1455076E-03  0.1189672E+04  0.7818609E-02  0.9121945E-01
       -1   -1    0    0    0  501  0.00000000000E+00  0.00000000000E+00  0.17621905106E+03  0.17621905113E+03  0.50400001928E-02 0.  1.
        1   -1    0    0  501    0  0.00000000000E+00  0.00000000000E+00 -0.20078972332E+04  0.20078972332E+04  0.50400001928E-02 0. -1.
    10030    2    1    2    0    0  0.00000000000E+00  0.00000000000E+00 -0.18316781821E+04  0.21841162843E+04  0.11896717953E+04 0.  0.
        4    1    3    3  502    0 -0.23002252916E+03  0.27463384923E+03 -0.17876375625E+04  0.18231795805E+04  0.12699999809E+01 0. -1.
       -4    1    3    3    0  502  0.23002252916E+03 -0.27463384923E+03 -0.44040619621E+02  0.36093670379E+03  0.12699999809E+01 0.  1.
</event>
<event>
 5   0  0.2499890E-03  0.1212401E+04  0.7818609E-02  0.9102071E-01
        2   -1    0    0  501    0  0.00000000000E+00  0.00000000000E+00  0.10663326502E+04  0.10663326502E+04  0.25500000920E-02 0.  1.
       -2   -1    0    0    0  501  0.00000000000E+00  0.00000000000E+00 -0.34461939257E+03  0.34461939257E+03  0.25500000920E-02 0. -1.
    10030    2    1    2    0    0  0.00000000000E+00  0.00000000000E+00  0.72171325765E+03  0.14109520428E+04  0.12124007756E+04 0.  0.
        5    1    3    3  502    0 -0.43267252829E+03 -0.34542430689E+03  0.73584441746E+02  0.55853399950E+03  0.46999998093E+01 0. -1.
       -5    1    3    3    0  502  0.43267252829E+03  0.34542430689E+03  0.64812881590E+03  0.85241804329E+03  0.46999998093E+01 0.  1.
</event>
<event>
 5   0  0.1423024E-03  0.1202732E+04  0.7818609E-02  0.9110468E-01
       -1   -1    0    0    0  501  0.00000000000E+00  0.00000000000E+00  0.62701637920E+03  0.62701637922E+03  0.50400001928E-02 0.  1.
        1   -1    0    0  501    0  0.00000000000E+00  0.00000000000E+00 -0.57676504583E+03  0.57676504585E+03  0.50400001928E-02 0. -1.
    10030    2    1    2    0    0  0.00000000000E+00  0.00000000000E+00  0.50251333366E+02  0.12037814251E+04  0.12027321077E+04 0.  0.
        2    1    3    3  502    0 -0.48511614617E+02 -0.20588691136E+03 -0.53830270278E+03  0.57837063968E+03  0.25500000920E-02 0. -1.
       -2    1    3    3    0  502  0.48511614617E+02  0.20588691136E+03  0.58855403614E+03  0.62541078539E+03  0.25500000920E-02 0.  1.
</event>
<event>
 5   0  0.1404833E-03  0.1179721E+04  0.7818609E-02  0.9130794E-01
        1   -1    0    0  501    0  0.00000000000E+00  0.00000000000E+00  0.11172584687E+04  0.11172584687E+04  0.50400001928E-02 0.  1.
       -1   -1    0    0    0  501  0.00000000000E+00  0.00000000000E+00 -0.31141904467E+03  0.31141904471E+03  0.50400001928E-02 0. -1.
    10030    2    1    2    0    0  0.00000000000E+00  0.00000000000E+00  0.80583942401E+03  0.14286775134E+04  0.11797212637E+04 0.  0.
        1    1    3    3  502    0  0.79168455482E+02 -0.29747306701E+03 -0.20643128031E+03  0.37063694292E+03  0.50400001928E-02 0. -1.
       -1    1    3    3    0  502 -0.79168455482E+02  0.29747306701E+03  0.10122707043E+04  0.10580405705E+04  0.50400001928E-02 0.  1.
</event>
<event>
 5   0  0.1469851E-03  0.1216178E+04  0.7818609E-02  0.9098813E-01
       -1   -1    0    0    0  501  0.00000000000E+00  0.00000000000E+00  0.41108440355E+03  0.41108440358E+03  0.50400001928E-02 0.  1.
        1   -1    0    0  501    0  0.00000000000E+00  0.00000000000E+00 -0.89950455854E+03  0.89950455856E+03  0.50400001928E-02 0. -1.
    10030    2    1    2    0    0  0.00000000000E+00  0.00000000000E+00 -0.48842015499E+03  0.13105889621E+04  0.12161781037E+04 0.  0.
        5    1    3    3  502    0  0.42221852370E+03  0.15883706928E+03  0.19518322169E+03  0.49154478571E+03  0.46999998093E+01 0.  1.
       -5    1    3    3    0  502 -0.42221852370E+03 -0.15883706928E+03 -0.68360337668E+03  0.81904417643E+03  0.46999998093E+01 0. -1.
</event>
<event>
 5   0  0.1455076E-03  0.1198060E+04  0.7818609E-02  0.9114556E-01
        1   -1    0    0  501    0  0.00000000000E+00  0.00000000000E+00  0.37955966847E+03  0.37955966850E+03  0.50400001928E-02 0. -1.
       -1   -1    0    0    0  501  0.00000000000E+00  0.00000000000E+00 -0.94540307644E+03  0.94540307645E+03  0.50400001928E-02 0.  1.
    10030    2    1    2    0    0  0.00000000000E+00  0.00000000000E+00 -0.56584340797E+03  0.13249627450E+04  0.11980598955E+04 0.  0.
        4    1    3    3  502    0 -0.24765221573E+03  0.34844745515E+03 -0.74699869555E+03  0.86067178007E+03  0.12699999809E+01 0.  1.
       -4    1    3    3    0  502  0.24765221573E+03 -0.34844745515E+03  0.18115528758E+03  0.46429096489E+03  0.12699999809E+01 0. -1.
</event>
<event>
 5   0  0.2580244E-03  0.1206260E+04  0.7818609E-02  0.9107395E-01
       -2   -1    0    0    0  501  0.00000000000E+00  0.00000000000E+00  0.51477333612E+03  0.51477333613E+03  0.25500000920E-02 0. -1.
        2   -1    0    0  501    0  0.00000000000E+00  0.00000000000E+00 -0.70665258053E+03  0.70665258054E+03  0.25500000920E-02 0.  1.
    10030    2    1    2    0    0  0.00000000000E+00  0.00000000000E+00 -0.19187924441E+03  0.12214259167E+04  0.12062601815E+04 0.  0.
        1    1    3    3  502    0 -0.31468880193E+03  0.47310096759E+03  0.10887138439E+03  0.57853828392E+03  0.50400001928E-02 0. -1.
       -1    1    3    3    0  502  0.31468880193E+03 -0.47310096759E+03 -0.30075062880E+03  0.64288763275E+03  0.50400001928E-02 0.  1.
</event>
<event>
 5   0  0.1404833E-03  0.1227630E+04  0.7818609E-02  0.9089010E-01
        1   -1    0    0  501    0  0.00000000000E+00  0.00000000000E+00  0.90635665652E+03  0.90635665653E+03  0.50400001928E-02 0. -1.
       -1   -1    0    0    0  501  0.00000000000E+00  0.00000000000E+00 -0.41569591102E+03  0.41569591105E+03  0.50400001928E-02 0.  1.
    10030    2    1    2    0    0  0.00000000000E+00  0.00000000000E+00  0.49066074550E+03  0.13220525676E+04  0.12276298401E+04 0.  0.
        1    1    3    3  502    0  0.26588859691E+03  0.52168649662E+03  0.47004881569E+02  0.58742063774E+03  0.50400001928E-02 0.  1.
       -1    1    3    3    0  502 -0.26588859691E+03 -0.52168649662E+03  0.44365586393E+03  0.73463192985E+03  0.50400001928E-02 0. -1.
</event>
<event>
 5   0  0.2517023E-03  0.1201239E+04  0.7818609E-02  0.9111773E-01
        2   -1    0    0  501    0  0.00000000000E+00  0.00000000000E+00  0.85000683381E+03  0.85000683381E+03  0.25500000920E-02 0.  1.
       -2   -1    0    0    0  501  0.00000000000E+00  0.00000000000E+00 -0.42440068936E+03  0.42440068937E+03  0.25500000920E-02 0. -1.
    10030    2    1    2    0    0  0.00000000000E+00  0.00000000000E+00  0.42560614444E+03  0.12744075232E+04  0.12012385046E+04 0.  0.
        3    1    3    3  502    0  0.27153375661E+03 -0.40352930121E+03 -0.16104888648E+03  0.51235069235E+03  0.10100000352E+00 0. -1.
       -3    1    3    3    0  502 -0.27153375661E+03  0.40352930121E+03  0.58665503092E+03  0.76205683083E+03  0.10100000352E+00 0.  1.
</event>
<event>
 5   0  0.2580244E-03  0.1177261E+04  0.7818609E-02  0.9132996E-01
        2   -1    0    0  501    0  0.00000000000E+00  0.00000000000E+00  0.92310629780E+03  0.92310629780E+03  0.25500000920E-02 0. -1.
       -2   -1    0    0    0  501  0.00000000000E+00  0.00000000000E+00 -0.37534749863E+03  0.37534749863E+03  0.25500000920E-02 0.  1.
    10030    2    1    2    0    0  0.00000000000E+00  0.00000000000E+00  0.54775879917E+03  0.12984537964E+04  0.11772606166E+04 0.  0.
        1    1    3    3  502    0  0.10405621253E+03  0.14614633319E+03 -0.34445800450E+03  0.38837837602E+03  0.50400001928E-02 0.  1.
       -1    1    3    3    0  502 -0.10405621253E+03 -0.14614633319E+03  0.89221680367E+03  0.91007542042E+03  0.50400001928E-02 0. -1.
</event>
<event>
 5   0  0.2580244E-03  0.1206190E+04  0.7818609E-02  0.9107455E-01
        2   -1    0    0  501    0  0.00000000000E+00  0.00000000000E+00  0.64230654962E+03  0.64230654963E+03  0.25500000920E-02 0.  1.
       -2   -1    0    0    0  501  0.00000000000E+00  0.00000000000E+00 -0.56627756361E+03  0.56627756361E+03  0.25500000920E-02 0. -1.
    10030    2    1    2    0    0  0.00000000000E+00  0.00000000000E+00  0.76028986018E+02  0.12085841132E+04  0.12061903465E+04 0.  0.
        1    1    3    3  502    0  0.41813466538E+03 -0.19094302888E+03 -0.35318054391E+03  0.57968296101E+03  0.50400001928E-02 0. -1.
       -1    1    3    3    0  502 -0.41813466538E+03  0.19094302888E+03  0.42920952992E+03  0.62890115223E+03  0.50400001928E-02 0.  1.
</event>
<event>
 5   0  0.2499890E-03  0.1194642E+04  0.7818609E-02  0.9117559E-01
        2   -1    0    0  501    0  0.00000000000E+00  0.00000000000E+00  0.15845428519E+04  0.15845428519E+04  0.25500000920E-02 0. -1.
       -2   -1    0    0    0  501  0.00000000000E+00  0.00000000000E+00 -0.22517066571E+03  0.22517066572E+03  0.25500000920E-02 0.  1.
    10030    2    1    2    0    0  0.00000000000E+00  0.00000000000E+00  0.13593721862E+04  0.18097135176E+04  0.11946423211E+04 0.  0.
        5    1    3    3  502    0  0.39930506100E+03 -0.49786531471E+01  0.68074349538E+01  0.39942176943E+03  0.46999998093E+01 0.  1.
       -5    1    3    3    0  502 -0.39930506100E+03  0.49786531471E+01  0.13525647512E+04  0.14102917482E+04  0.46999998093E+01 0. -1.
</event>
<event>
 5   0  0.1469851E-03  0.1050100E+04  0.7818609E-02  0.9255241E-01
        1   -1    0    0  501    0  0.00000000000E+00  0.00000000000E+00  0.94729543923E+03  0.94729543924E+03  0.50400001928E-02 0.  1.
       -1   -1    0    0    0  501  0.00000000000E+00  0.00000000000E+00 -0.29101547902E+03  0.29101547906E+03  0.50400001928E-02 0. -1.
    10030    2    1    2    0    0  0.00000000000E+00  0.00000000000E+00  0.65627996021E+03  0.12383109183E+04  0.10501002544E+04 0.  0.
        5    1    3    3  502    0 -0.36068356559E+03 -0.19736117281E+02 -0.12116626850E+03  0.38103215538E+03  0.46999998093E+01 0. -1.
       -5    1    3    3    0  502  0.36068356559E+03  0.19736117281E+02  0.77744622871E+03  0.85727876292E+03  0.46999998093E+01 0.  1.
</event>
<event>
 5   0  0.2517023E-03  0.1208927E+04  0.7818609E-02  0.9105079E-01
        2   -1    0    0  501    0  0.00000000000E+00  0.00000000000E+00  0.31556010597E+03  0.31556010598E+03  0.25500000920E-02 0. -1.
       -2   -1    0    0    0  501  0.00000000000E+00  0.00000000000E+00 -0.11578649437E+04  0.11578649437E+04  0.25500000920E-02 0.  1.
    10030    2    1    2    0    0  0.00000000000E+00  0.00000000000E+00 -0.84230483773E+03  0.14734250497E+04  0.12089267709E+04 0.  0.
        3    1    3    3  502    0 -0.18779006887E+03  0.12897663108E+03  0.26123361255E+03  0.34661663528E+03  0.10100000352E+00 0. -1.
       -3    1    3    3    0  502  0.18779006887E+03 -0.12897663108E+03 -0.11035384503E+04  0.11268084144E+04  0.10100000352E+00 0.  1.
</event>
<event>
 5   0  0.1423024E-03  0.1205923E+04  0.7818609E-02  0.9107688E-01
       -1   -1    0    0    0  501  0.00000000000E+00  0.00000000000E+00  0.49199387319E+03  0.49199387322E+03  0.50400001928E-02 0.  1.
        1   -1    0    0  501    0  0.00000000000E+00  0.00000000000E+00 -0.73895725552E+03  0.73895725553E+03  0.50400001928E-02 0. -1.
    10030    2    1    2    0    0  0.00000000000E+00  0.00000000000E+00 -0.24696338233E+03  0.12309511288E+04  0.12059227874E+04 0.  0.
        2    1    3    3  502    0  0.40561820274E+03  0.33204561898E+03 -0.42762889422E+03  0.67649603890E+03  0.25500000920E-02 0. -1.
       -2    1    3    3    0  502 -0.40561820274E+03 -0.33204561898E+03  0.18066551189E+03  0.55445508985E+03  0.25500000920E-02 0.  1.
</event>
<event>
 5   0  0.1404833E-03  0.1193941E+04  0.7818609E-02  0.9118177E-01
        1   -1    0    0  501    0  0.00000000000E+00  0.00000000000E+00  0.49228539147E+03  0.49228539149E+03  0.50400001928E-02 0.  1.
       -1   -1    0    0    0  501  0.00000000000E+00  0.00000000000E+00 -0.72391696296E+03  0.72391696298E+03  0.50400001928E-02 0. -1.
    10030    2    1    2    0    0  0.00000000000E+00  0.00000000000E+00 -0.23163157149E+03  0.12162023545E+04  0.11939409458E+04 0.  0.
        1    1    3    3  502    0 -0.14187933129E+03  0.13776426937E+03  0.45794925097E+03  0.49882487413E+03  0.50400001928E-02 0.  1.
       -1    1    3    3    0  502  0.14187933129E+03 -0.13776426937E+03 -0.68958082246E+03  0.71737748034E+03  0.50400001928E-02 0. -1.
</event>
<event>
 5   0  0.1403154E-03  0.1224391E+04  0.7818609E-02  0.9091771E-01
       -1   -1    0    0    0  501  0.00000000000E+00  0.00000000000E+00  0.44748187391E+03  0.44748187394E+03  0.50400001928E-02 0.  1.
        1   -1    0    0  501    0  0.00000000000E+00  0.00000000000E+00 -0.83753844402E+03  0.83753844404E+03  0.50400001928E-02 0. -1.
    10030    2    1    2    0    0  0.00000000000E+00  0.00000000000E+00 -0.39005657011E+03  0.12850203180E+04  0.12243909056E+04 0.  0.
        3    1    3    3  502    0 -0.17094142775E+03  0.58783962882E+03 -0.19227916848E+03  0.64167568892E+03  0.10100000352E+00 0.  1.
       -3    1    3    3    0  502  0.17094142775E+03 -0.58783962882E+03 -0.19777740164E+03  0.64334462905E+03  0.10100000352E+00 0. -1.
</event>
<event>
 5   0  0.1403154E-03  0.1206961E+04  0.7818609E-02  0.9106785E-01
       -1   -1    0    0    0  501  0.00000000000E+00  0.00000000000E+00  0.48664261000E+03  0.48664261002E+03  0.50400001928E-02 0.  1.
        1   -1    0    0  501    0  0.00000000000E+00  0.00000000000E+00 -0.74836991177E+03  0.74836991179E+03  0.50400001928E-02 0. -1.
    10030    2    1    2    0    0  0.00000000000E+00  0.00000000000E+00 -0.26172730178E+03  0.12350125218E+04  0.12069609557E+04 0.  0.
        3    1    3    3  502    0 -0.19417406677E+02 -0.38949960489E+03 -0.60211240329E+03  0.71737461224E+03  0.10100000352E+00 0. -1.
       -3    1    3    3    0  502  0.19417406677E+02  0.38949960489E+03  0.34038510152E+03  0.51763790957E+03  0.10100000352E+00 0.  1.
</event>
<event>
 5   0  0.2484507E-03  0.1206216E+04  0.7818609E-02  0.9107433E-01
       -2   -1    0    0    0  501  0.00000000000E+00  0.00000000000E+00  0.35931852838E+03  0.35931852839E+03  0.25500000920E-02 0.  1.
        2   -1    0    0  501    0  0.00000000000E+00  0.00000000000E+00 -0.10123023489E+04  0.10123023489E+04  0.25500000920E-02 0. -1.
    10030    2    1    2    0    0  0.00000000000E+00  0.00000000000E+00 -0.65298382049E+03  0.13716208773E+04  0.12062155533E+04 0.  0.
        2    1    3    3  502    0  0.90659476929E+02  0.17504817346E+03  0.32164880664E+03  0.37725185037E+03  0.25500000920E-02 0.  1.
       -2    1    3    3    0  502 -0.90659476929E+02 -0.17504817346E+03 -0.97463262712E+03  0.99436902690E+03  0.25500000920E-02 0. -1.
</event>
<event>
 5   0  0.1469851E-03  0.1195899E+04  0.7818609E-02  0.9116454E-01
       -1   -1    0    0    0  501  0.00000000000E+00  0.00000000000E+00  0.57752705065E+03  0.57752705067E+03  0.50400001928E-02 0.  1.
        1   -1    0    0  501    0  0.00000000000E+00  0.00000000000E+00 -0.61909408337E+03  0.61909408339E+03  0.50400001928E-02 0. -1.
    10030    2    1    2    0    0  0.00000000000E+00  0.00000000000E+00 -0.41567032728E+02  0.11966211341E+04  0.11958989591E+04 0.  0.
        5    1    3    3  502    0 -0.50143645721E+03 -0.27514941195E+03 -0.19517522500E+03  0.60436841245E+03  0.46999998093E+01 0. -1.
       -5    1    3    3    0  502  0.50143645721E+03  0.27514941195E+03  0.15360819228E+03  0.59225272161E+03  0.46999998093E+01 0.  1.
</event>
<event>
 5   0  0.2499890E-03  0.1192412E+04  0.7818609E-02  0.9119524E-01
       -2   -1    0    0    0  501  0.00000000000E+00  0.00000000000E+00  0.43183804883E+03  0.43183804883E+03  0.25500000920E-02 0.  1.
        2   -1    0    0  501    0  0.00000000000E+00  0.00000000000E+00 -0.82313684625E+03  0.82313684626E+03  0.25500000920E-02 0. -1.
    10030    2    1    2    0    0  0.00000000000E+00  0.00000000000E+00 -0.39129879742E+03  0.12549748951E+04  0.11924123609E+04 0.  0.
        5    1    3    3  502    0 -0.26584197490E+03  0.32462679920E+03  0.25011140691E+03  0.48850007189E+03  0.46999998093E+01 0.  1.
       -5    1    3    3    0  502  0.26584197490E+03 -0.32462679920E+03 -0.64141020433E+03  0.76647482320E+03  0.46999998093E+01 0. -1.
</event>
<event>
 5   0  0.1423024E-03  0.1210557E+04  0.7818609E-02  0.9103666E-01
        1   -1    0    0  501    0  0.00000000000E+00  0.00000000000E+00  0.19833173513E+04  0.19833173514E+04  0.50400001928E-02 0. -1.
       -1   -1    0    0    0  501  0.00000000000E+00  0.00000000000E+00 -0.18472172390E+03  0.18472172397E+03  0.50400001928E-02 0.  1.
    10030    2    1    2    0    0  0.00000000000E+00  0.00000000000E+00  0.17985956274E+04  0.21680390753E+04  0.12105565667E+04 0.  0.
        2    1    3    3  502    0  0.14453624175E+03 -0.25867330357E+03  0.18445349342E+04  0.18681840719E+04  0.25500000920E-02 0. -1.
       -2    1    3    3    0  502 -0.14453624175E+03  0.25867330357E+03 -0.45939306731E+02  0.29985500341E+03  0.25500000920E-02 0.  1.
</event>
<event>
 5   0  0.9678750E-04  0.1190267E+04  0.7818609E-02  0.9121419E-01
        4   -1    0    0  501    0  0.00000000000E+00  0.00000000000E+00  0.65933387954E+03  0.65933510267E+03  0.12699999809E+01 0.  1.
       -4   -1    0    0    0  501  0.00000000000E+00  0.00000000000E+00 -0.53718160631E+03  0.53718310757E+03  0.12699999809E+01 0. -1.
    10030    2    1    2    0    0  0.00000000000E+00  0.00000000000E+00  0.12215227323E+03  0.11965182102E+04  0.11902666296E+04 0.  0.
        4    1    3    3  502    0  0.11943229989E+03  0.55971518397E+03  0.22514145954E+03  0.61500849680E+03  0.12699999809E+01 0.  1.
       -4    1    3    3    0  502 -0.11943229989E+03 -0.55971518397E+03 -0.10298918632E+03  0.58150971344E+03  0.12699999809E+01 0. -1.
</event>
<event>
 5   0  0.1404833E-03  0.1189982E+04  0.7818609E-02  0.9121670E-01
       -1   -1    0    0    0  501  0.00000000000E+00  0.00000000000E+00  0.26226415824E+03  0.26226415829E+03  0.50400001928E-02 0.  1.
        1   -1    0    0  501    0  0.00000000000E+00  0.00000000000E+00 -0.13498397032E+04  0.13498397032E+04  0.50400001928E-02 0. -1.
    10030    2    1    2    0    0  0.00000000000E+00  0.00000000000E+00 -0.10875755450E+04  0.16121038615E+04  0.11899824764E+04 0.  0.
        1    1    3    3  502    0 -0.11173047273E+03  0.50429175082E+03 -0.14369357888E+03  0.53613590918E+03  0.50400001928E-02 0.  1.
       -1    1    3    3    0  502  0.11173047273E+03 -0.50429175082E+03 -0.94388196608E+03  0.10759679523E+04  0.50400001928E-02 0. -1.
</event>
<event>
 5   0  0.1423024E-03  0.1201960E+04  0.7818609E-02  0.9111143E-01
        1   -1    0    0  501    0  0.00000000000E+00  0.00000000000E+00  0.66152123155E+03  0.66152123157E+03  0.50400001928E-02 0. -1.
       -1   -1    0    0    0  501  0.00000000000E+00  0.00000000000E+00 -0.54597943837E+03  0.54597943839E+03  0.50400001928E-02 0.  1.
    10030    2    1    2    0    0  0.00000000000E+00  0.00000000000E+00  0.11554179318E+03  0.12075006700E+04  0.12019600501E+04 0.  0.
        2    1    3    3  502    0  0.50309102574E+02 -0.66693667134E+02 -0.54011782686E+03  0.54654031684E+03  0.25500000920E-02 0.  1.
       -2    1    3    3    0  502 -0.50309102574E+02  0.66693667134E+02  0.65565962004E+03  0.66096035312E+03  0.25500000920E-02 0. -1.
</event>
<event>
 5   0  0.2580244E-03  0.1203579E+04  0.7818609E-02  0.9109729E-01
        2   -1    0    0  501    0  0.00000000000E+00  0.00000000000E+00  0.27532712018E+03  0.27532712020E+03  0.25500000920E-02 0. -1.
       -2   -1    0    0    0  501  0.00000000000E+00  0.00000000000E+00 -0.13153475040E+04  0.13153475040E+04  0.25500000920E-02 0.  1.
    10030    2    1    2    0    0  0.00000000000E+00  0.00000000000E+00 -0.10400203838E+04  0.15906746242E+04  0.12035793955E+04 0.  0.
        1    1    3    3  502    0 -0.29418360480E+03 -0.27004667204E+02 -0.12129193154E+04  0.12483775515E+04  0.50400001928E-02 0.  1.
       -1    1    3    3    0  502  0.29418360480E+03  0.27004667204E+02  0.17289893161E+03  0.34229707268E+03  0.50400001928E-02 0. -1.
</event>
<event>
 5   0  0.2580244E-03  0.1198477E+04  0.7818609E-02  0.9114190E-01
        2   -1    0    0  501    0  0.00000000000E+00  0.00000000000E+00  0.73790131294E+03  0.73790131294E+03  0.25500000920E-02 0. -1.
       -2   -1    0    0    0  501  0.00000000000E+00  0.00000000000E+00 -0.48663281651E+03  0.48663281652E+03  0.25500000920E-02 0.  1.
    10030    2    1    2    0    0  0.00000000000E+00  0.00000000000E+00  0.25126849642E+03  0.12245341295E+04  0.11984773577E+04 0.  0.
        1    1    3    3  502    0  0.38327916830E+03 -0.23968026751E+03 -0.27628496549E+03  0.52979518087E+03  0.50400001928E-02 0.  1.
       -1    1    3    3    0  502 -0.38327916830E+03  0.23968026751E+03  0.52755346192E+03  0.69473894859E+03  0.50400001928E-02 0. -1.
</event>
<event>
 5   0  0.9678750E-04  0.1195921E+04  0.7818609E-02  0.9116434E-01
       -3   -1    0    0    0  501  0.00000000000E+00  0.00000000000E+00  0.91933010312E+03  0.91933010867E+03  0.10100000352E+00 0. -1.
        3   -1    0    0  501    0  0.00000000000E+00  0.00000000000E+00 -0.38893181852E+03  0.38893183163E+03  0.10100000352E+00 0.  1.
    10030    2    1    2    0    0  0.00000000000E+00  0.00000000000E+00  0.53039828460E+03  0.13082619403E+04  0.11959209690E+04 0.  0.
        2    1    3    3  502    0 -0.50092753309E+02  0.43839226527E+03  0.70666692313E+03  0.83311175867E+03  0.25500000920E-02 0. -1.
       -2    1    3    3    0  502  0.50092753309E+02 -0.43839226527E+03 -0.17626863852E+03  0.47515018164E+03  0.25500000920E-02 0.  1.
</event>
<event>
 5   0  0.1455076E-03  0.1183010E+04  0.7818609E-02  0.9127860E-01
        1   -1    0    0  501    0  0.00000000000E+00  0.00000000000E+00  0.82269216572E+03  0.82269216573E+03  0.50400001928E-02 0. -1.
       -1   -1    0    0    0  501  0.00000000000E+00  0.00000000000E+00 -0.42528413213E+03  0.42528413216E+03  0.50400001928E-02 0.  1.
    10030    2    1    2    0    0  0.00000000000E+00  0.00000000000E+00  0.39740803359E+03  0.12479762979E+04  0.11830095921E+04 0.  0.
        4    1    3    3  502    0 -0.20698100270E+03 -0.82609272566E+02  0.77670860702E+03  0.80804907061E+03  0.12699999809E+01 0. -1.
       -4    1    3    3    0  502  0.20698100270E+03  0.82609272566E+02 -0.37930057344E+03  0.43992722728E+03  0.12699999809E+01 0.  1.
</event>
<event>
 5   0  0.2499890E-03  0.1202589E+04  0.7818609E-02  0.9110594E-01
        2   -1    0    0  501    0  0.00000000000E+00  0.00000000000E+00  0.62262693021E+03  0.62262693022E+03  0.25500000920E-02 0.  1.
       -2   -1    0    0    0  501  0.00000000000E+00  0.00000000000E+00 -0.58069260465E+03  0.58069260466E+03  0.25500000920E-02 0. -1.
    10030    2    1    2    0    0  0.00000000000E+00  0.00000000000E+00  0.41934325564E+02  0.12033195349E+04  0.12025886310E+04 0.  0.
        5    1    3    3  502    0  0.11127491093E+02  0.20243732505E+03 -0.54544054129E+03  0.58192109922E+03  0.46999998093E+01 0. -1.
       -5    1    3    3    0  502 -0.11127491093E+02 -0.20243732505E+03  0.58737486685E+03  0.62139843566E+03  0.46999998093E+01 0.  1.
</event>
<event>
 5   0  0.1469851E-03  0.1192307E+04  0.7818609E-02  0.9119617E-01
        1   -1    0    0  501    0  0.00000000000E+00  0.00000000000E+00  0.82666121286E+03  0.82666121287E+03  0.50400001928E-02 0.  1.
       -1   -1    0    0    0  501  0.00000000000E+00  0.00000000000E+00 -0.42992080897E+03  0.42992080900E+03  0.50400001928E-02 0. -1.
    10030    2    1    2    0    0  0.00000000000E+00  0.00000000000E+00  0.39674040389E+03  0.12565820219E+04  0.11923067682E+04 0.  0.
        5    1    3    3  502    0  0.22883073259E+02  0.14960215499E+03  0.80605809576E+03  0.82015619461E+03  0.46999998093E+01 0.  1.
       -5    1    3    3    0  502 -0.22883073259E+02 -0.14960215499E+03 -0.40931769187E+03  0.43642582726E+03  0.46999998093E+01 0. -1.
</event>
<event>
 5   0  0.1423024E-03  0.1183008E+04  0.7818609E-02  0.9127861E-01
        1   -1    0    0  501    0  0.00000000000E+00  0.00000000000E+00  0.43098033254E+03  0.43098033257E+03  0.50400001928E-02 0.  1.
       -1   -1    0    0    0  501  0.00000000000E+00  0.00000000000E+00 -0.81181599578E+03  0.81181599580E+03  0.50400001928E-02 0. -1.
    10030    2    1    2    0    0  0.00000000000E+00  0.00000000000E+00 -0.38083566324E+03  0.12427963284E+04  0.11830075703E+04 0.  0.
        2    1    3    3  502    0 -0.22925907112E+03 -0.27108711701E+03 -0.68743386919E+03  0.77370102185E+03  0.25500000920E-02 0. -1.
       -2    1    3    3    0  502  0.22925907112E+03  0.27108711701E+03  0.30659820595E+03  0.46909530651E+03  0.25500000920E-02 0.  1.
</event>
<event>
 5   0  0.2499890E-03  0.1177360E+04  0.7818609E-02  0.9132908E-01
       -2   -1    0    0    0  501  0.00000000000E+00  0.00000000000E+00  0.23252770506E+03  0.23252770507E+03  0.25500000920E-02 0. -1.
        2   -1    0    0  501    0  0.00000000000E+00  0.00000000000E+00 -0.14903341656E+04  0.14903341656E+04  0.25500000920E-02 0.  1.
    10030    2    1    2    0    0  0.00000000000E+00  0.00000000000E+00 -0.12578064606E+04  0.17228618707E+04  0.11773597298E+04 0.  0.
        5    1    3    3  502    0  0.42697385382E+03 -0.39911928626E+03 -0.52627178716E+03  0.78650299457E+03  0.46999998093E+01 0. -1.
       -5    1    3    3    0  502 -0.42697385382E+03  0.39911928626E+03 -0.73153467341E+03  0.93635887613E+03  0.46999998093E+01 0.  1.
</event>
<event>
 5   0  0.2580244E-03  0.1198321E+04  0.7818609E-02  0.9114327E-01
        2   -1    0    0  501    0  0.00000000000E+00  0.00000000000E+00  0.46707077031E+03  0.46707077032E+03  0.25500000920E-02 0.  1.
       -2   -1    0    0    0  501  0.00000000000E+00  0.00000000000E+00 -0.76860594467E+03  0.76860594467E+03  0.25500000920E-02 0. -1.
    10030    2    1    2    0    0  0.00000000000E+00  0.00000000000E+00 -0.30153517436E+03  0.12356767150E+04  0.11983211100E+04 0.  0.
        1    1    3    3  502    0 -0.42649007830E+03 -0.12430435580E+03 -0.56535569005E+03  0.71900793880E+03  0.50400001928E-02 0. -1.
       -1    1    3    3    0  502  0.42649007830E+03  0.12430435580E+03  0.26382051570E+03  0.51666877618E+03  0.50400001928E-02 0.  1.
</event>
<event>
 5   0  0.1423024E-03  0.1199920E+04  0.7818609E-02  0.9112926E-01
       -1   -1    0    0    0  501  0.00000000000E+00  0.00000000000E+00  0.17822578890E+03  0.17822578897E+03  0.50400001928E-02 0. -1.
        1   -1    0    0  501    0  0.00000000000E+00  0.00000000000E+00 -0.20196414802E+04  0.20196414802E+04  0.50400001928E-02 0.  1.
    10030    2    1    2    0    0  0.00000000000E+00  0.00000000000E+00 -0.18414156913E+04  0.21978672692E+04  0.11999203243E+04 0.  0.
        2    1    3    3  502    0 -0.21572620982E+03  0.18483918970E+03  0.47223972095E+02  0.28798164386E+03  0.25500000920E-02 0. -1.
       -2    1    3    3    0  502  0.21572620982E+03 -0.18483918970E+03 -0.18886396634E+04  0.19098856253E+04  0.25500000920E-02 0.  1.
</event>
<event>
 5   0  0.1469851E-03  0.1192381E+04  0.7818609E-02  0.9119551E-01
        1   -1    0    0  501    0  0.00000000000E+00  0.00000000000E+00  0.55240671436E+03  0.55240671438E+03  0.50400001928E-02 0. -1.
       -1   -1    0    0    0  501  0.00000000000E+00  0.00000000000E+00 -0.64344482398E+03  0.64344482400E+03  0.50400001928E-02 0.  1.
    10030    2    1    2    0    0  0.00000000000E+00  0.00000000000E+00 -0.91038109624E+02  0.11958515384E+04  0.11923812161E+04 0.  0.
        5    1    3    3  502    0  0.19845374351E+03 -0.55243466891E+03  0.58962837985E+02  0.58997174338E+03  0.46999998093E+01 0. -1.
       -5    1    3    3    0  502 -0.19845374351E+03  0.55243466891E+03 -0.15000094761E+03  0.60587979501E+03  0.46999998093E+01 0.  1.
</event>
<event>
 5   0  0.1403154E-03  0.1038322E+04  0.7818609E-02  0.9267485E-01
       -1   -1    0    0    0  501  0.00000000000E+00  0.00000000000E+00  0.51907838088E+03  0.51907838090E+03  0.50400001928E-02 0.  1.
        1   -1    0    0  501    0  0.00000000000E+00  0.00000000000E+00 -0.51924365628E+03  0.51924365631E+03  0.50400001928E-02 0. -1.
    10030    2    1    2    0    0  0.00000000000E+00  0.00000000000E+00 -0.16527540459E+00  0.10383220372E+04  0.10383220241E+04 0.  0.
        3    1    3    3  502    0 -0.47162225571E+02  0.10199989156E+03 -0.50693557428E+03  0.51924169716E+03  0.10100000352E+00 0. -1.
       -3    1    3    3    0  502  0.47162225571E+02 -0.10199989156E+03  0.50677029888E+03  0.51908034005E+03  0.10100000352E+00 0.  1.
</event>
<event>
 5   0  0.1403154E-03  0.1239404E+04  0.7818609E-02  0.9079049E-01
       -1   -1    0    0    0  501  0.00000000000E+00  0.00000000000E+00  0.10611474110E+04  0.10611474110E+04  0.50400001928E-02 0. -1.
        1   -1    0    0  501    0  0.00000000000E+00  0.00000000000E+00 -0.36190120590E+03  0.36190120594E+03  0.50400001928E-02 0.  1.
    10030    2    1    2    0    0  0.00000000000E+00  0.00000000000E+00  0.69924620512E+03  0.14230486170E+04  0.12394039337E+04 0.  0.
        3    1    3    3  502    0  0.89687935820E+02 -0.74732411166E+02 -0.34916150271E+03  0.36816113902E+03  0.10100000352E+00 0.  1.
       -3    1    3    3    0  502 -0.89687935820E+02  0.74732411166E+02  0.10484077078E+04  0.10548874780E+04  0.10100000352E+00 0. -1.
</event>
<event>
 5   0  0.1469851E-03  0.1207694E+04  0.7818609E-02  0.9106149E-01
       -1   -1    0    0    0  501  0.00000000000E+00  0.00000000000E+00  0.14444119270E+04  0.14444119270E+04  0.50400001928E-02 0. -1.
        1   -1    0    0  501    0  0.00000000000E+00  0.00000000000E+00 -0.25244263104E+03  0.25244263109E+03  0.50400001928E-02 0.  1.
    10030    2    1    2    0    0  0.00000000000E+00  0.00000000000E+00  0.11919692960E+04  0.16968545581E+04  0.12076939135E+04 0.  0.
        5    1    3    3  502    0 -0.56780530944E+03 -0.10582211497E+03  0.84339831909E+03  0.10222250262E+04  0.46999998093E+01 0.  1.
       -5    1    3    3    0  502  0.56780530944E+03  0.10582211497E+03  0.34857097686E+03  0.67462953193E+03  0.46999998093E+01 0. -1.
</event>
<event>
 5   0  0.1455076E-03  0.1211039E+04  0.7818609E-02  0.9103248E-01
       -1   -1    0    0    0  501  0.00000000000E+00  0.00000000000E+00  0.35756300408E+03  0.35756300412E+03  0.50400001928E-02 0. -1.
        1   -1    0    0  501    0  0.00000000000E+00  0.00000000000E+00 -0.10254252803E+04  0.10254252803E+04  0.50400001928E-02 0.  1.
    10030    2    1    2    0    0  0.00000000000E+00  0.00000000000E+00 -0.66786227625E+03  0.13829882845E+04  0.12110394605E+04 0.  0.
        4    1    3    3  502    0  0.60305139434E+02 -0.14130736060E+03 -0.10027949271E+04  0.10144968008E+04  0.12699999809E+01 0.  1.
       -4    1    3    3    0  502 -0.60305139434E+02  0.14130736060E+03  0.33493265089E+03  0.36849148367E+03  0.12699999809E+01 0. -1.
</event>
<event>
 5   0  0.1403154E-03  0.1202321E+04  0.7818609E-02  0.9110827E-01
        1   -1    0    0  501    0  0.00000000000E+00  0.00000000000E+00  0.33989930169E+03  0.33989930172E+03  0.50400001928E-02 0. -1.
       -1   -1    0    0    0  501  0.00000000000E+00  0.00000000000E+00 -0.10632383059E+04  0.10632383059E+04  0.50400001928E-02 0.  1.
    10030    2    1    2    0    0  0.00000000000E+00  0.00000000000E+00 -0.72333900421E+03  0.14031376076E+04  0.12023210183E+04 0.  0.
        3    1    3    3  502    0  0.26771155292E+02 -0.54657875893E+03 -0.71249479742E+02  0.55185281827E+03  0.10100000352E+00 0. -1.
       -3    1    3    3    0  502 -0.26771155292E+02  0.54657875893E+03 -0.65208952447E+03  0.85128478936E+03  0.10100000352E+00 0.  1.
</event>
<event>
 5   0  0.2579442E-03  0.1202344E+04  0.7818609E-02  0.9110808E-01
        2   -1    0    0  501    0  0.00000000000E+00  0.00000000000E+00  0.13124033354E+04  0.13124033354E+04  0.25500000920E-02 0. -1.
       -2   -1    0    0    0  501  0.00000000000E+00  0.00000000000E+00 -0.27537839908E+03  0.27537839909E+03  0.25500000920E-02 0.  1.
    10030    2    1    2    0    0  0.00000000000E+00  0.00000000000E+00  0.10370249363E+04  0.15877817345E+04  0.12023435939E+04 0.  0.
        4    1    3    3  502    0 -0.22473423169E+02  0.58089372434E+03  0.72079442722E+03  0.92600690761E+03  0.12699999809E+01 0. -1.
       -4    1    3    3    0  502  0.22473423169E+02 -0.58089372434E+03  0.31623050912E+03  0.66177482690E+03  0.12699999809E+01 0.  1.
</event>
<event>
 5   0  0.1403154E-03  0.1190814E+04  0.7818609E-02  0.9120935E-01
        1   -1    0    0  501    0  0.00000000000E+00  0.00000000000E+00  0.33117319419E+03  0.33117319423E+03  0.50400001928E-02 0.  1.
       -1   -1    0    0    0  501  0.00000000000E+00  0.00000000000E+00 -0.10704658036E+04  0.10704658036E+04  0.50400001928E-02 0. -1.
    10030    2    1    2    0    0  0.00000000000E+00  0.00000000000E+00 -0.73929260940E+03  0.14016389978E+04  0.11908141408E+04 0.  0.
        3    1    3    3  502    0 -0.12373381573E+03 -0.98833769975E+02  0.30593042809E+03  0.34448745735E+03  0.10100000352E+00 0.  1.
       -3    1    3    3    0  502  0.12373381573E+03  0.98833769975E+02 -0.10452230375E+04  0.10571515405E+04  0.10100000352E+00 0. -1.
</event>
<event>
 5   0  0.2517023E-03  0.1210542E+04  0.7818609E-02  0.9103679E-01
        2   -1    0    0  501    0  0.00000000000E+00  0.00000000000E+00  0.77457640980E+03  0.77457640980E+03  0.25500000920E-02 0.  1.
       -2   -1    0    0    0  501  0.00000000000E+00  0.00000000000E+00 -0.47297203077E+03  0.47297203078E+03  0.25500000920E-02 0. -1.
    10030    2    1    2    0    0  0.00000000000E+00  0.00000000000E+00  0.30160437903E+03  0.12475484406E+04  0.12105419902E+04 0.  0.
        3    1    3    3  502    0 -0.64437858585E+02  0.36653114241E+03  0.64273689367E+03  0.74270319823E+03  0.10100000352E+00 0.  1.
       -3    1    3    3    0  502  0.64437858585E+02 -0.36653114241E+03 -0.34113251464E+03  0.50484524235E+03  0.10100000352E+00 0. -1.
</event>
<event>
 5   0  0.2517023E-03  0.1210155E+04  0.7818609E-02  0.9104014E-01
       -2   -1    0    0    0  501  0.00000000000E+00  0.00000000000E+00  0.31944636206E+03  0.31944636207E+03  0.25500000920E-02 0. -1.
        2   -1    0    0  501    0  0.00000000000E+00  0.00000000000E+00 -0.11461041420E+04  0.11461041420E+04  0.25500000920E-02 0.  1.
    10030    2    1    2    0    0  0.00000000000E+00  0.00000000000E+00 -0.82665777997E+03  0.14655505041E+04  0.12101550293E+04 0.  0.
        3    1    3    3  502    0 -0.46796974409E+03  0.37892692677E+03 -0.48535790401E+03  0.77340390638E+03  0.10100000352E+00 0. -1.
       -3    1    3    3    0  502  0.46796974409E+03 -0.37892692677E+03 -0.34129987596E+03  0.69214659773E+03  0.10100000352E+00 0.  1.
</event>
<event>
 5   0  0.9678750E-04  0.1197983E+04  0.7818609E-02  0.9114624E-01
       -4   -1    0    0    0  501  0.00000000000E+00  0.00000000000E+00  0.76423475526E+03  0.76423581050E+03  0.12699999809E+01 0.  1.
        4   -1    0    0  501    0  0.00000000000E+00  0.00000000000E+00 -0.46947522992E+03  0.46947694768E+03  0.12699999809E+01 0. -1.
    10030    2    1    2    0    0  0.00000000000E+00  0.00000000000E+00  0.29475952534E+03  0.12337127582E+04  0.11979833020E+04 0.  0.
        1    1    3    3  502    0 -0.86998872760E+02  0.16561661174E+03 -0.43861973221E+03  0.47684896503E+03  0.50400001928E-02 0. -1.
       -1    1    3    3    0  502  0.86998872760E+02 -0.16561661174E+03  0.73337925755E+03  0.75686379315E+03  0.50400001928E-02 0.  1.
</event>
<event>
 5   0  0.2499890E-03  0.1202949E+04  0.7818609E-02  0.9110279E-01
       -2   -1    0    0    0  501  0.00000000000E+00  0.00000000000E+00  0.55863021046E+03  0.55863021046E+03  0.25500000920E-02 0. -1.
        2   -1    0    0  501    0  0.00000000000E+00  0.00000000000E+00 -0.64760489561E+03  0.64760489562E+03  0.25500000920E-02 0.  1.
    10030    2    1    2    0    0  0.00000000000E+00  0.00000000000E+00 -0.88974685158E+02  0.12062351061E+04  0.12029491413E+04 0.  0.
        5    1    3    3  502    0 -0.30018376394E+02  0.24264160252E+03 -0.59550958197E+03  0.64376222506E+03  0.46999998093E+01 0.  1.
       -5    1    3    3    0  502  0.30018376394E+02 -0.24264160252E+03  0.50653489682E+03  0.56247288102E+03  0.46999998093E+01 0. -1.
</event>
<event>
 5   0  0.1469851E-03  0.1193971E+04  0.7818609E-02  0.9118150E-01
        1   -1    0    0  501    0  0.00000000000E+00  0.00000000000E+00  0.52088953123E+03  0.52088953125E+03  0.50400001928E-02 0.  1.
       -1   -1    0    0    0  501  0.00000000000E+00  0.00000000000E+00 -0.68419805642E+03  0.68419805644E+03  0.50400001928E-02 0. -1.
    10030    2    1    2    0    0  0.00000000000E+00  0.00000000000E+00 -0.16330852520E+03  0.12050875877E+04  0.11939708621E+04 0.  0.
        5    1    3    3  502    0  0.55114505467E+03  0.19195169534E+03 -0.20837478187E+03  0.61971643866E+03  0.46999998093E+01 0. -1.
       -5    1    3    3    0  502 -0.55114505467E+03 -0.19195169534E+03  0.45066256674E+02  0.58537114903E+03  0.46999998093E+01 0.  1.
</event>
<event>
 5   0  0.1423024E-03  0.1195722E+04  0.7818609E-02  0.9116609E-01
        1   -1    0    0  501    0  0.00000000000E+00  0.00000000000E+00  0.97116477592E+03  0.97116477593E+03  0.50400001928E-02 0. -1.
       -1   -1    0    0    0  501  0.00000000000E+00  0.00000000000E+00 -0.36805084261E+03  0.36805084265E+03  0.50400001928E-02 0.  1.
    10030    2    1    2    0    0  0.00000000000E+00  0.00000000000E+00  0.60311393331E+03  0.13392156186E+04  0.11957223994E+04 0.  0.
        2    1    3    3  502    0 -0.11490098687E+03 -0.26341962420E+03 -0.28561424631E+03  0.40517605173E+03  0.25500000920E-02 0.  1.
       -2    1    3    3    0  502  0.11490098687E+03  0.26341962420E+03  0.88872817961E+03  0.93403956685E+03  0.25500000920E-02 0. -1.
</event>
<event>
 5   0  0.2499890E-03  0.1201096E+04  0.7818609E-02  0.9111898E-01
        2   -1    0    0  501    0  0.00000000000E+00  0.00000000000E+00  0.85970978239E+03  0.85970978240E+03  0.25500000920E-02 0.  1.
       -2   -1    0    0    0  501  0.00000000000E+00  0.00000000000E+00 -0.41951104053E+03  0.41951104053E+03  0.25500000920E-02 0. -1.
    10030    2    1    2    0    0  0.00000000000E+00  0.00000000000E+00  0.44019874187E+03  0.12792208229E+04  0.12010957420E+04 0.  0.
        5    1    3    3  502    0  0.20250184063E+03 -0.27837784489E+03 -0.30397892166E+03  0.45926734567E+03  0.46999998093E+01 0. -1.
       -5    1    3    3    0  502 -0.20250184063E+03  0.27837784489E+03  0.74417766353E+03  0.81995347726E+03  0.46999998093E+01 0.  1.
</event>
<event>
 5   0  0.2580244E-03  0.1169224E+04  0.7818609E-02  0.9140230E-01
        2   -1    0    0  501    0  0.00000000000E+00  0.00000000000E+00  0.11473949449E+04  0.11473949449E+04  0.25500000920E-02 0.  1.
       -2   -1    0    0    0  501  0.00000000000E+00  0.00000000000E+00 -0.29786686382E+03  0.29786686383E+03  0.25500000920E-02 0. -1.
    10030    2    1    2    0    0  0.00000000000E+00  0.00000000000E+00  0.84952808105E+03  0.14452618087E+04  0.11692235608E+04 0.  0.
        1    1    3    3  502    0  0.45693025718E+03 -0.36463867199E+03  0.41866914992E+03  0.71904831420E+03  0.50400001928E-02 0.  1.
       -1    1    3    3    0  502 -0.45693025718E+03  0.36463867199E+03  0.43085893113E+03  0.72621349450E+03  0.50400001928E-02 0. -1.
</event>
<event>
 5   0  0.1423024E-03  0.1170578E+04  0.7818609E-02  0.9139007E-01
        1   -1    0    0  501    0  0.00000000000E+00  0.00000000000E+00  0.11031412934E+04  0.11031412934E+04  0.50400001928E-02 0. -1.
       -1   -1    0    0    0  501  0.00000000000E+00  0.00000000000E+00 -0.31053433602E+03  0.31053433606E+03  0.50400001928E-02 0.  1.
    10030    2    1    2    0    0  0.00000000000E+00  0.00000000000E+00  0.79260695737E+03  0.14136756295E+04  0.11705780608E+04 0.  0.
        2    1    3    3  502    0 -0.30428388101E+03  0.18045242122E+03 -0.16680315000E+03  0.39112024676E+03  0.25500000920E-02 0.  1.
       -2    1    3    3    0  502  0.30428388101E+03 -0.18045242122E+03  0.95941010737E+03  0.10225553827E+04  0.25500000920E-02 0. -1.
</event>
<event>
 5   0  0.2580244E-03  0.1202329E+04  0.7818609E-02  0.9110820E-01
        2   -1    0    0  501    0  0.00000000000E+00  0.00000000000E+00  0.63073970786E+03  0.63073970786E+03  0.25500000920E-02 0. -1.
       -2   -1    0    0    0  501  0.00000000000E+00  0.00000000000E+00 -0.57297604618E+03  0.57297604619E+03  0.25500000920E-02 0.  1.
    10030    2    1    2    0    0  0.00000000000E+00  0.00000000000E+00  0.57763661675E+02  0.12037157540E+04  0.12023289799E+04 0.  0.
        1    1    3    3  502    0 -0.12485343010E+03  0.27722553526E+03  0.54809003323E+03  0.62677353244E+03  0.50400001928E-02 0. -1.
       -1    1    3    3    0  502  0.12485343010E+03 -0.27722553526E+03 -0.49032637156E+03  0.57694222161E+03  0.50400001928E-02 0.  1.
</event>
<event>
 5   0  0.1455076E-03  0.1200849E+04  0.7818609E-02  0.9112114E-01
        1   -1    0    0  501    0  0.00000000000E+00  0.00000000000E+00  0.11497846842E+04  0.11497846843E+04  0.50400001928E-02 0.  1.
       -1   -1    0    0    0  501  0.00000000000E+00  0.00000000000E+00 -0.31354516147E+03  0.31354516151E+03  0.50400001928E-02 0. -1.
    10030    2    1    2    0    0  0.00000000000E+00  0.00000000000E+00  0.83623952278E+03  0.14633298458E+04  0.12008487407E+04 0.  0.
        4    1    3    3  502    0 -0.57654729453E+03  0.11373863241E+02  0.21431558706E+03  0.61519828621E+03  0.12699999809E+01 0. -1.
       -4    1    3    3    0  502  0.57654729453E+03 -0.11373863241E+02  0.62192393572E+03  0.84813155956E+03  0.12699999809E+01 0.  1.
</event>
<event>
 5   0  0.2517023E-03  0.1203047E+04  0.7818609E-02  0.9110194E-01
        2   -1    0    0  501    0  0.00000000000E+00  0.00000000000E+00  0.50516694346E+03  0.50516694347E+03  0.25500000920E-02 0. -1.
       -2   -1    0    0    0  501  0.00000000000E+00  0.00000000000E+00 -0.71625909036E+03  0.71625909036E+03  0.25500000920E-02 0.  1.
    10030    2    1    2    0    0  0.00000000000E+00  0.00000000000E+00 -0.21109214690E+03  0.12214260338E+04  0.12030468244E+04 0.  0.
        3    1    3    3  502    0 -0.95037880787E+02  0.48379339859E+03  0.24430813512E+03  0.55024969458E+03  0.10100000352E+00 0. -1.
       -3    1    3    3    0  502  0.95037880787E+02 -0.48379339859E+03 -0.45540028202E+03  0.67117633925E+03  0.10100000352E+00 0.  1.
</event>
<event>
 5   0  0.1455076E-03  0.1199538E+04  0.7818609E-02  0.9113261E-01
       -1   -1    0    0    0  501  0.00000000000E+00  0.00000000000E+00  0.27585097641E+03  0.27585097646E+03  0.50400001928E-02 0.  1.
        1   -1    0    0  501    0  0.00000000000E+00  0.00000000000E+00 -0.13040474417E+04  0.13040474417E+04  0.50400001928E-02 0. -1.
    10030    2    1    2    0    0  0.00000000000E+00  0.00000000000E+00 -0.10281964653E+04  0.15798984181E+04  0.11995378445E+04 0.  0.
        4    1    3    3  502    0 -0.47867169235E+03 -0.32322250955E+03 -0.72696922740E+03  0.92848546043E+03  0.12699999809E+01 0. -1.
       -4    1    3    3    0  502  0.47867169235E+03  0.32322250955E+03 -0.30122723785E+03  0.65141295770E+03  0.12699999809E+01 0.  1.
</event>
<event>
 5   0  0.2517023E-03  0.1198854E+04  0.7818609E-02  0.9113861E-01
        2   -1    0    0  501    0  0.00000000000E+00  0.00000000000E+00  0.15626210609E+04  0.15626210609E+04  0.25500000920E-02 0. -1.
       -2   -1    0    0    0  501  0.00000000000E+00  0.00000000000E+00 -0.22994216517E+03  0.22994216518E+03  0.25500000920E-02 0.  1.
    10030    2    1    2    0    0  0.00000000000E+00  0.00000000000E+00  0.13326788957E+04  0.17925632261E+04  0.11988535692E+04 0.  0.
        3    1    3    3  502    0 -0.38001043675E+03 -0.38897276937E+03  0.10434363714E+04  0.11766338507E+04  0.10100000352E+00 0. -1.
       -3    1    3    3    0  502  0.38001043675E+03  0.38897276937E+03  0.28924252437E+03  0.61592937538E+03  0.10100000352E+00 0.  1.
</event>
<event>
 5   0  0.2579442E-03  0.1202140E+04  0.7818609E-02  0.9110985E-01
        2   -1    0    0  501    0  0.00000000000E+00  0.00000000000E+00  0.16807628755E+04  0.16807628755E+04  0.25500000920E-02 0.  1.
       -2   -1    0    0    0  501  0.00000000000E+00  0.00000000000E+00 -0.21495319781E+03  0.21495319782E+03  0.25500000920E-02 0. -1.
    10030    2    1    2    0    0  0.00000000000E+00  0.00000000000E+00  0.14658096777E+04  0.18957160733E+04  0.12021403493E+04 0.  0.
        4    1    3    3  502    0  0.15258356554E+03 -0.53901837841E+03  0.38935685217E+03  0.68221912020E+03  0.12699999809E+01 0. -1.
       -4    1    3    3    0  502 -0.15258356554E+03  0.53901837841E+03  0.10764528255E+04  0.12134969531E+04  0.12699999809E+01 0.  1.
</event>
<event>
 5   0  0.2484507E-03  0.1082244E+04  0.7818609E-02  0.9222673E-01
        2   -1    0    0  501    0  0.00000000000E+00  0.00000000000E+00  0.15317977326E+04  0.15317977326E+04  0.25500000920E-02 0.  1.
       -2   -1    0    0    0  501  0.00000000000E+00  0.00000000000E+00 -0.19115632800E+03  0.19115632802E+03  0.25500000920E-02 0. -1.
    10030    2    1    2    0    0  0.00000000000E+00  0.00000000000E+00  0.13406414046E+04  0.17229540606E+04  0.10822436506E+04 0.  0.
        2    1    3    3  502    0  0.20207423532E+03  0.37481972452E+02  0.14672441368E+04  0.14815681732E+04  0.25500000920E-02 0.  1.
       -2    1    3    3    0  502 -0.20207423532E+03 -0.37481972452E+02 -0.12660273220E+03  0.24138588742E+03  0.25500000920E-02 0. -1.
</event>
<event>
 5   0  0.2484507E-03  0.1206836E+04  0.7818609E-02  0.9106894E-01
       -2   -1    0    0    0  501  0.00000000000E+00  0.00000000000E+00  0.25141764564E+03  0.25141764565E+03  0.25500000920E-02 0. -1.
        2   -1    0    0  501    0  0.00000000000E+00  0.00000000000E+00 -0.14482417018E+04  0.14482417018E+04  0.25500000920E-02 0.  1.
    10030    2    1    2    0    0  0.00000000000E+00  0.00000000000E+00 -0.11968240562E+04  0.16996593474E+04  0.12068363916E+04 0.  0.
        2    1    3    3  502    0  0.84135205981E+02 -0.59422066602E+03 -0.68677562200E+03  0.91205136247E+03  0.25500000920E-02 0. -1.
       -2    1    3    3    0  502 -0.84135205981E+02  0.59422066602E+03 -0.51004843415E+03  0.78760798497E+03  0.25500000920E-02 0.  1.
</event>
<event>
 5   0  0.1423024E-03  0.1200584E+04  0.7818609E-02  0.9112346E-01
        1   -1    0    0  501    0  0.00000000000E+00  0.00000000000E+00  0.19040722109E+04  0.19040722109E+04  0.50400001928E-02 0. -1.
       -1   -1    0    0    0  501  0.00000000000E+00  0.00000000000E+00 -0.18925249492E+03  0.18925249498E+03  0.50400001928E-02 0.  1.
    10030    2    1    2    0    0  0.00000000000E+00  0.00000000000E+00  0.17148197160E+04  0.20933247059E+04  0.12005838854E+04 0.  0.
        2    1    3    3  502    0 -0.99227034647E+02  0.44585372544E+03  0.17826270331E+03  0.49031534781E+03  0.25500000920E-02 0.  1.
       -2    1    3    3    0  502  0.99227034647E+02 -0.44585372544E+03  0.15365570127E+04  0.16030093581E+04  0.25500000920E-02 0. -1.
</event>
<event>
 5   0  0.2484507E-03  0.1200088E+04  0.7818609E-02  0.9112779E-01
       -2   -1    0    0    0  501  0.00000000000E+00  0.00000000000E+00  0.27148708645E+03  0.27148708646E+03  0.25500000920E-02 0. -1.
        2   -1    0    0  501    0  0.00000000000E+00  0.00000000000E+00 -0.13262251860E+04  0.13262251860E+04  0.25500000920E-02 0.  1.
    10030    2    1    2    0    0  0.00000000000E+00  0.00000000000E+00 -0.10547380995E+04  0.15977122724E+04  0.12000883496E+04 0.  0.
        2    1    3    3  502    0  0.50399126733E+03 -0.26195081429E+03 -0.78493073292E+03  0.96888682628E+03  0.25500000920E-02 0. -1.
       -2    1    3    3    0  502 -0.50399126733E+03  0.26195081429E+03 -0.26980736659E+03  0.62882544615E+03  0.25500000920E-02 0.  1.
</event>
<event>
 5   0  0.2499890E-03  0.1199089E+04  0.7818609E-02  0.9113655E-01
        2   -1    0    0  501    0  0.00000000000E+00  0.00000000000E+00  0.29601457202E+03  0.29601457203E+03  0.25500000920E-02 0. -1.
       -2   -1    0    0    0  501  0.00000000000E+00  0.00000000000E+00 -0.12143099282E+04  0.12143099282E+04  0.25500000920E-02 0.  1.
    10030    2    1    2    0    0  0.00000000000E+00  0.00000000000E+00 -0.91829535616E+03  0.15103245002E+04  0.11990887101E+04 0.  0.
        5    1    3    3  502    0  0.33749159861E+03 -0.37127853776E+03 -0.87247351218E+03  0.10064692997E+04  0.46999998093E+01 0.  1.
       -5    1    3    3    0  502 -0.33749159861E+03  0.37127853776E+03 -0.45821843984E+02  0.50385520055E+03  0.46999998093E+01 0. -1.
</event>
<event>
 5   0  0.2499890E-03  0.1144181E+04  0.7818609E-02  0.9163169E-01
       -2   -1    0    0    0  501  0.00000000000E+00  0.00000000000E+00  0.16186393182E+03  0.16186393184E+03  0.25500000920E-02 0. -1.
        2   -1    0    0  501    0  0.00000000000E+00  0.00000000000E+00 -0.20219918917E+04  0.20219918917E+04  0.25500000920E-02 0.  1.
    10030    2    1    2    0    0  0.00000000000E+00  0.00000000000E+00 -0.18601279599E+04  0.21838558236E+04  0.11441810306E+04 0.  0.
        5    1    3    3  502    0 -0.80821601742E+02  0.23709366563E+03 -0.19117179324E+04  0.19280645945E+04  0.46999998093E+01 0.  1.
       -5    1    3    3    0  502  0.80821601742E+02 -0.23709366563E+03  0.51589972494E+02  0.25579122904E+03  0.46999998093E+01 0. -1.
</event>
<event>
 5   0  0.2517023E-03  0.1204001E+04  0.7818609E-02  0.9109362E-01
        2   -1    0    0  501    0  0.00000000000E+00  0.00000000000E+00  0.94487948235E+03  0.94487948235E+03  0.25500000920E-02 0. -1.
       -2   -1    0    0    0  501  0.00000000000E+00  0.00000000000E+00 -0.38354592944E+03  0.38354592945E+03  0.25500000920E-02 0.  1.
    10030    2    1    2    0    0  0.00000000000E+00  0.00000000000E+00  0.56133355290E+03  0.13284254118E+04  0.12040011284E+04 0.  0.
        3    1    3    3  502    0  0.46171606346E+03 -0.26936948037E+03  0.58616118632E+03  0.79330106943E+03  0.10100000352E+00 0.  1.
       -3    1    3    3    0  502 -0.46171606346E+03  0.26936948037E+03 -0.24827633421E+02  0.53512434237E+03  0.10100000352E+00 0. -1.
</event>
<event>
 5   0  0.1469851E-03  0.1193959E+04  0.7818609E-02  0.9118161E-01
        1   -1    0    0  501    0  0.00000000000E+00  0.00000000000E+00  0.19792858127E+04  0.19792858127E+04  0.50400001928E-02 0. -1.
       -1   -1    0    0    0  501  0.00000000000E+00  0.00000000000E+00 -0.18005716739E+03  0.18005716746E+03  0.50400001928E-02 0.  1.
    10030    2    1    2    0    0  0.00000000000E+00  0.00000000000E+00  0.17992286453E+04  0.21593429802E+04  0.11939591232E+04 0.  0.
        5    1    3    3  502    0  0.34000197521E+03 -0.31207416740E+03  0.21481607080E+03  0.50907726661E+03  0.46999998093E+01 0.  1.
       -5    1    3    3    0  502 -0.34000197521E+03  0.31207416740E+03  0.15844125745E+04  0.16502657136E+04  0.46999998093E+01 0. -1.
</event>
<event>
 5   0  0.1404833E-03  0.1198881E+04  0.7818609E-02  0.9113836E-01
        1   -1    0    0  501    0  0.00000000000E+00  0.00000000000E+00  0.85721214195E+03  0.85721214197E+03  0.50400001928E-02 0. -1.
       -1   -1    0    0    0  501  0.00000000000E+00  0.00000000000E+00 -0.41918326244E+03  0.41918326247E+03  0.50400001928E-02 0.  1.
    10030    2    1    2    0    0  0.00000000000E+00  0.00000000000E+00  0.43802887952E+03  0.12763954044E+04  0.11988811155E+04 0.  0.
        1    1    3    3  502    0  0.23181676069E+03 -0.50939984368E+03 -0.95811866701E+01  0.55974906024E+03  0.50400001928E-02 0.  1.
       -1    1    3    3    0  502 -0.23181676069E+03  0.50939984368E+03  0.44761006619E+03  0.71664634420E+03  0.50400001928E-02 0. -1.
</event>
<event>
 5   0  0.2517023E-03  0.1187705E+04  0.7818609E-02  0.9123687E-01
       -2   -1    0    0    0  501  0.00000000000E+00  0.00000000000E+00  0.27718519656E+03  0.27718519657E+03  0.25500000920E-02 0.  1.
        2   -1    0    0  501    0  0.00000000000E+00  0.00000000000E+00 -0.12722931798E+04  0.12722931798E+04  0.25500000920E-02 0. -1.
    10030    2    1    2    0    0  0.00000000000E+00  0.00000000000E+00 -0.99510798322E+03  0.15494783763E+04  0.11877050730E+04 0.  0.
        3    1    3    3  502    0  0.25713374280E+03 -0.31911825227E+03  0.63129953486E+02  0.41465602835E+03  0.10100000352E+00 0.  1.
       -3    1    3    3    0  502 -0.25713374280E+03  0.31911825227E+03 -0.10582379367E+04  0.11348223480E+04  0.10100000352E+00 0. -1.
</event>
<event>
 5   0  0.9678750E-04  0.1202993E+04  0.7818609E-02  0.9110240E-01
       -4   -1    0    0    0  501  0.00000000000E+00  0.00000000000E+00  0.82863250489E+03  0.82863347812E+03  0.12699999809E+01 0. -1.
        4   -1    0    0  501    0  0.00000000000E+00  0.00000000000E+00 -0.43661872206E+03  0.43662056909E+03  0.12699999809E+01 0.  1.
    10030    2    1    2    0    0  0.00000000000E+00  0.00000000000E+00  0.39201378284E+03  0.12652540472E+04  0.12029933491E+04 0.  0.
        5    1    3    3  502    0  0.17816334465E+03 -0.44874876152E+03 -0.18124706522E+03  0.51574239403E+03  0.46999998093E+01 0.  1.
       -5    1    3    3    0  502 -0.17816334465E+03  0.44874876152E+03  0.57326084806E+03  0.74951165319E+03  0.46999998093E+01 0. -1.
</event>
<event>
 5   0  0.2579442E-03  0.1201685E+04  0.7818609E-02  0.9111383E-01
       -2   -1    0    0    0  501  0.00000000000E+00  0.00000000000E+00  0.44564978372E+03  0.44564978373E+03  0.25500000920E-02 0. -1.
        2   -1    0    0  501    0  0.00000000000E+00  0.00000000000E+00 -0.81007882337E+03  0.81007882337E+03  0.25500000920E-02 0.  1.
    10030    2    1    2    0    0  0.00000000000E+00  0.00000000000E+00 -0.36442903964E+03  0.12557286071E+04  0.12016845717E+04 0.  0.
        4    1    3    3  502    0  0.46091055017E+03 -0.35899299645E+03 -0.32886617344E+03  0.67042455183E+03  0.12699999809E+01 0. -1.
       -4    1    3    3    0  502 -0.46091055017E+03  0.35899299645E+03 -0.35562866203E+02  0.58530405527E+03  0.12699999809E+01 0.  1.
</event>
<event>
 5   0  0.9678750E-04  0.1199400E+04  0.7818609E-02  0.9113382E-01
        3   -1    0    0  501    0  0.00000000000E+00  0.00000000000E+00  0.36698856926E+03  0.36698858316E+03  0.10100000352E+00 0. -1.
       -3   -1    0    0    0  501  0.00000000000E+00  0.00000000000E+00 -0.97997640657E+03  0.97997641178E+03  0.10100000352E+00 0.  1.
    10030    2    1    2    0    0  0.00000000000E+00  0.00000000000E+00 -0.61298783731E+03  0.13469649949E+04  0.11994001038E+04 0.  0.
        3    1    3    3  502    0 -0.98047077434E+02  0.16760643232E+03 -0.94369473318E+03  0.96346505136E+03  0.10100000352E+00 0.  1.
       -3    1    3    3    0  502  0.98047077434E+02 -0.16760643232E+03  0.33070689587E+03  0.38349994358E+03  0.10100000352E+00 0. -1.
</event>
<event>
 5   0  0.1455076E-03  0.1203751E+04  0.7818609E-02  0.9109580E-01
        1   -1    0    0  501    0  0.00000000000E+00  0.00000000000E+00  0.17252573925E+04  0.17252573925E+04  0.50400001928E-02 0. -1.
       -1   -1    0    0    0  501  0.00000000000E+00  0.00000000000E+00 -0.20997090673E+03  0.20997090679E+03  0.50400001928E-02 0.  1.
    10030    2    1    2    0    0  0.00000000000E+00  0.00000000000E+00  0.15152864857E+04  0.19352282993E+04  0.12037505707E+04 0.  0.
        4    1    3    3  502    0  0.19473499886E+01 -0.49968259146E+03  0.21825825177E+03  0.54527494143E+03  0.12699999809E+01 0.  1.
       -4    1    3    3    0  502 -0.19473499886E+01  0.49968259146E+03  0.12970282340E+04  0.13899533579E+04  0.12699999809E+01 0. -1.
</event>
<event>
 5   0  0.2579442E-03  0.1182396E+04  0.7818609E-02  0.9128406E-01
       -2   -1    0    0    0  501  0.00000000000E+00  0.00000000000E+00  0.63451852583E+03  0.63451852583E+03  0.25500000920E-02 0.  1.
        2   -1    0    0  501    0  0.00000000000E+00  0.00000000000E+00 -0.55083527992E+03  0.55083527992E+03  0.25500000920E-02 0. -1.
    10030    2    1    2    0    0  0.00000000000E+00  0.00000000000E+00  0.83683245907E+02  0.11853538058E+04  0.11823961938E+04 0.  0.
        4    1    3    3  502    0 -0.27256533235E+03  0.50145851114E+02 -0.48167829060E+03  0.55571760393E+03  0.12699999809E+01 0. -1.
       -4    1    3    3    0  502  0.27256533235E+03 -0.50145851114E+02  0.56536153651E+03  0.62963620182E+03  0.12699999809E+01 0.  1.
</event>
<event>
 5   0  0.2580244E-03  0.1193891E+04  0.7818609E-02  0.9118221E-01
       -2   -1    0    0    0  501  0.00000000000E+00  0.00000000000E+00  0.38173512473E+03  0.38173512474E+03  0.25500000920E-02 0. -1.
        2   -1    0    0  501    0  0.00000000000E+00  0.00000000000E+00 -0.93348429037E+03  0.93348429037E+03  0.25500000920E-02 0.  1.
    10030    2    1    2    0    0  0.00000000000E+00  0.00000000000E+00 -0.55174916564E+03  0.13152194151E+04  0.11938906852E+04 0.  0.
        1    1    3    3  502    0  0.22519655430E+02  0.85901935392E+02  0.37441760037E+03  0.38480490755E+03  0.50400001928E-02 0. -1.
       -1    1    3    3    0  502 -0.22519655430E+02 -0.85901935392E+02 -0.92616676601E+03  0.93041450756E+03  0.50400001928E-02 0.  1.
</event>
<event>
 5   0  0.2484507E-03  0.1202669E+04  0.7818609E-02  0.9110524E-01
        2   -1    0    0  501    0  0.00000000000E+00  0.00000000000E+00  0.25952335097E+04  0.25952335097E+04  0.25500000920E-02 0. -1.
       -2   -1    0    0    0  501  0.00000000000E+00  0.00000000000E+00 -0.13933348523E+03  0.13933348526E+03  0.25500000920E-02 0.  1.
    10030    2    1    2    0    0  0.00000000000E+00  0.00000000000E+00  0.24559000244E+04  0.27345669949E+04  0.12026685827E+04 0.  0.
        2    1    3    3  502    0 -0.39488203387E+03 -0.39135629988E+03  0.70691222897E+03  0.89934224498E+03  0.25500000920E-02 0.  1.
       -2    1    3    3    0  502  0.39488203387E+03  0.39135629988E+03  0.17489877955E+04  0.18352247500E+04  0.25500000920E-02 0. -1.
</event>
<event>
 5   0  0.1403154E-03  0.1299253E+04  0.7818609E-02  0.9030158E-01
        1   -1    0    0  501    0  0.00000000000E+00  0.00000000000E+00  0.14752450872E+04  0.14752450872E+04  0.50400001928E-02 0. -1.
       -1   -1    0    0    0  501  0.00000000000E+00  0.00000000000E+00 -0.28606418556E+03  0.28606418560E+03  0.50400001928E-02 0.  1.
    10030    2    1    2    0    0  0.00000000000E+00  0.00000000000E+00  0.11891809017E+04  0.17613092728E+04  0.12992533000E+04 0.  0.
        3    1    3    3  502    0 -0.56058758899E+03 -0.11806953580E+03  0.10098121583E+04  0.11609993391E+04  0.10100000352E+00 0. -1.
       -3    1    3    3    0  502  0.56058758899E+03  0.11806953580E+03  0.17936874338E+03  0.60030993371E+03  0.10100000352E+00 0.  1.
</event>
<event>
 5   0  0.9678750E-04  0.1195425E+04  0.7818609E-02  0.9116871E-01
       -3   -1    0    0    0  501  0.00000000000E+00  0.00000000000E+00  0.30168903414E+03  0.30168905105E+03  0.10100000352E+00 0. -1.
        3   -1    0    0  501    0  0.00000000000E+00  0.00000000000E+00 -0.11841992447E+04  0.11841992491E+04  0.10100000352E+00 0.  1.
    10030    2    1    2    0    0  0.00000000000E+00  0.00000000000E+00 -0.88251021061E+03  0.14858883001E+04  0.11954245140E+04 0.  0.
        1    1    3    3  502    0 -0.24609988771E+03 -0.16804420621E+03  0.20276660545E+03  0.36044182094E+03  0.50400001928E-02 0. -1.
       -1    1    3    3    0  502  0.24609988771E+03  0.16804420621E+03 -0.10852768161E+04  0.11254464792E+04  0.50400001928E-02 0.  1.
</event>
<event>
 5   0  0.1404833E-03  0.1193675E+04  0.7818609E-02  0.9118411E-01
       -1   -1    0    0    0  501  0.00000000000E+00  0.00000000000E+00  0.84982388282E+03  0.84982388283E+03  0.50400001928E-02 0.  1.
        1   -1    0    0  501    0  0.00000000000E+00  0.00000000000E+00 -0.41916328083E+03  0.41916328086E+03  0.50400001928E-02 0. -1.
    10030    2    1    2    0    0  0.00000000000E+00  0.00000000000E+00  0.43066060199E+03  0.12689871637E+04  0.11936749422E+04 0.  0.
        1    1    3    3  502    0  0.23390344664E+03  0.16469250861E+03  0.77219256785E+03  0.82347787257E+03  0.50400001928E-02 0.  1.
       -1    1    3    3    0  502 -0.23390344664E+03 -0.16469250861E+03 -0.34153196587E+03  0.44550929112E+03  0.50400001928E-02 0. -1.
</event>
<event>
 5   0  0.1423024E-03  0.1200940E+04  0.7818609E-02  0.9112034E-01
       -1   -1    0    0    0  501  0.00000000000E+00  0.00000000000E+00  0.42135415014E+03  0.42135415017E+03  0.50400001928E-02 0.  1.
        1   -1    0    0  501    0  0.00000000000E+00  0.00000000000E+00 -0.85572749080E+03  0.85572749082E+03  0.50400001928E-02 0. -1.
    10030    2    1    2    0    0  0.00000000000E+00  0.00000000000E+00 -0.43437334066E+03  0.12770816410E+04  0.12009401811E+04 0.  0.
        2    1    3    3  502    0 -0.26884640609E+03 -0.26614663941E+03 -0.71306929951E+03  0.80720520913E+03  0.25500000920E-02 0. -1.
       -2    1    3    3    0  502  0.26884640609E+03  0.26614663941E+03  0.27869595884E+03  0.46987643186E+03  0.25500000920E-02 0.  1.
</event>
<event>
 5   0  0.2484507E-03  0.1208556E+04  0.7818609E-02  0.9105400E-01
        2   -1    0    0  501    0  0.00000000000E+00  0.00000000000E+00  0.18107948523E+04  0.18107948523E+04  0.25500000920E-02 0. -1.
       -2   -1    0    0    0  501  0.00000000000E+00  0.00000000000E+00 -0.20165298037E+03  0.20165298039E+03  0.25500000920E-02 0.  1.
    10030    2    1    2    0    0  0.00000000000E+00  0.00000000000E+00  0.16091418719E+04  0.20124478326E+04  0.12085564593E+04 0.  0.
        2    1    3    3  502    0 -0.18242579715E+02 -0.35389328857E+03  0.16196167016E+04  0.16579298874E+04  0.25500000920E-02 0. -1.
       -2    1    3    3    0  502  0.18242579715E+02  0.35389328857E+03 -0.10474829759E+02  0.35451794520E+03  0.25500000920E-02 0.  1.
</event>
<event>
 5   0  0.2499890E-03  0.1193774E+04  0.7818609E-02  0.9118324E-01
        2   -1    0    0  501    0  0.00000000000E+00  0.00000000000E+00  0.68697712908E+03  0.68697712908E+03  0.25500000920E-02 0. -1.
       -2   -1    0    0    0  501  0.00000000000E+00  0.00000000000E+00 -0.51861096925E+03  0.51861096926E+03  0.25500000920E-02 0.  1.
    10030    2    1    2    0    0  0.00000000000E+00  0.00000000000E+00  0.16836615983E+03  0.12055880983E+04  0.11937736381E+04 0.  0.
        5    1    3    3  502    0  0.25055543180E+03  0.52651324223E+03  0.21295012572E+03  0.62077698467E+03  0.46999998093E+01 0. -1.
       -5    1    3    3    0  502 -0.25055543180E+03 -0.52651324223E+03 -0.44583965893E+02  0.58481111367E+03  0.46999998093E+01 0.  1.
</event>
<event>
 5   0  0.1404833E-03  0.1150598E+04  0.7818609E-02  0.9157232E-01
        1   -1    0    0  501    0  0.00000000000E+00  0.00000000000E+00  0.19594778658E+04  0.19594778658E+04  0.50400001928E-02 0.  1.
       -1   -1    0    0    0  501  0.00000000000E+00  0.00000000000E+00 -0.16890659003E+03  0.16890659010E+03  0.50400001928E-02 0. -1.
    10030    2    1    2    0    0  0.00000000000E+00  0.00000000000E+00  0.17905712757E+04  0.21283844559E+04  0.11505976267E+04 0.  0.
        1    1    3    3  502    0 -0.13555561693E+03  0.90872332632E+02  0.19157621108E+04  0.19227005933E+04  0.50400001928E-02 0.  1.
       -1    1    3    3    0  502  0.13555561693E+03 -0.90872332632E+02 -0.12519083508E+03  0.20568386260E+03  0.50400001928E-02 0. -1.
</event>
<event>
 5   0  0.2580244E-03  0.1203704E+04  0.7818609E-02  0.9109621E-01
        2   -1    0    0  501    0  0.00000000000E+00  0.00000000000E+00  0.32127524342E+03  0.32127524343E+03  0.25500000920E-02 0.  1.
       -2   -1    0    0    0  501  0.00000000000E+00  0.00000000000E+00 -0.11274625023E+04  0.11274625023E+04  0.25500000920E-02 0. -1.
    10030    2    1    2    0    0  0.00000000000E+00  0.00000000000E+00 -0.80618725888E+03  0.14487377457E+04  0.12037039335E+04 0.  0.
        1    1    3    3  502    0 -0.35107522801E+03 -0.27276936964E+02  0.18435033487E+03  0.39747061904E+03  0.50400001928E-02 0.  1.
       -1    1    3    3    0  502  0.35107522801E+03  0.27276936964E+02 -0.99053759375E+03  0.10512671267E+04  0.50400001928E-02 0. -1.
</event>
<event>
 5   0  0.1404833E-03  0.1169466E+04  0.7818609E-02  0.9140011E-01
       -1   -1    0    0    0  501  0.00000000000E+00  0.00000000000E+00  0.14032367893E+03  0.14032367902E+03  0.50400001928E-02 0. -1.
        1   -1    0    0  501    0  0.00000000000E+00  0.00000000000E+00 -0.24366008163E+04  0.24366008164E+04  0.50400001928E-02 0.  1.
    10030    2    1    2    0    0  0.00000000000E+00  0.00000000000E+00 -0.22962771374E+04  0.25769244954E+04  0.11694661872E+04 0.  0.
        1    1    3    3  502    0 -0.34507154674E+03 -0.46770956115E+03 -0.10072833231E+04  0.11629472469E+04  0.50400001928E-02 0. -1.
       -1    1    3    3    0  502  0.34507154674E+03  0.46770956115E+03 -0.12889938143E+04  0.14139772485E+04  0.50400001928E-02 0.  1.
</event>
<event>
 5   0  0.2499890E-03  0.1205657E+04  0.7818609E-02  0.9107919E-01
       -2   -1    0    0    0  501  0.00000000000E+00  0.00000000000E+00  0.91853636481E+03  0.91853636482E+03  0.25500000920E-02 0. -1.
        2   -1    0    0  501    0  0.00000000000E+00  0.00000000000E+00 -0.39563175997E+03  0.39563175998E+03  0.25500000920E-02 0.  1.
    10030    2    1    2    0    0  0.00000000000E+00  0.00000000000E+00  0.52290460484E+03  0.13141681248E+04  0.12056569307E+04 0.  0.
        5    1    3    3  502    0 -0.36842024118E+03  0.12733745442E+03 -0.23974912827E+03  0.45765711610E+03  0.46999998093E+01 0.  1.
       -5    1    3    3    0  502  0.36842024118E+03 -0.12733745442E+03  0.76265373311E+03  0.85651100871E+03  0.46999998093E+01 0. -1.
</event>
<event>
 5   0  0.2580244E-03  0.1188264E+04  0.7818609E-02  0.9123192E-01
        2   -1    0    0  501    0  0.00000000000E+00  0.00000000000E+00  0.22726680931E+04  0.22726680931E+04  0.25500000920E-02 0.  1.
       -2   -1    0    0    0  501  0.00000000000E+00  0.00000000000E+00 -0.15532079896E+03  0.15532079898E+03  0.25500000920E-02 0. -1.
    10030    2    1    2    0    0  0.00000000000E+00  0.00000000000E+00  0.21173472941E+04  0.24279888920E+04  0.11882636475E+04 0.  0.
        1    1    3    3  502    0 -0.14695280946E+03 -0.10673575608E+03 -0.97205021632E+02  0.20600113128E+03  0.50400001928E-02 0. -1.
       -1    1    3    3    0  502  0.14695280946E+03  0.10673575608E+03  0.22145523157E+04  0.22219877608E+04  0.50400001928E-02 0.  1.
</event>
<event>
 5   0  0.2499890E-03  0.1197889E+04  0.7818609E-02  0.9114706E-01
       -2   -1    0    0    0  501  0.00000000000E+00  0.00000000000E+00  0.10967951074E+04  0.10967951074E+04  0.25500000920E-02 0. -1.
        2   -1    0    0  501    0  0.00000000000E+00  0.00000000000E+00 -0.32707518227E+03  0.32707518228E+03  0.25500000920E-02 0.  1.
    10030    2    1    2    0    0  0.00000000000E+00  0.00000000000E+00  0.76971992511E+03  0.14238702897E+04  0.11978889092E+04 0.  0.
        5    1    3    3  502    0 -0.77371084330E+02  0.88265455054E+02  0.10829681018E+04  0.10893204646E+04  0.46999998093E+01 0. -1.
       -5    1    3    3    0  502  0.77371084330E+02 -0.88265455054E+02 -0.31324817666E+03  0.33454982502E+03  0.46999998093E+01 0.  1.
</event>
<event>
 5   0  0.2499890E-03  0.1218844E+04  0.7818609E-02  0.9096521E-01
        2   -1    0    0  501    0  0.00000000000E+00  0.00000000000E+00  0.10203517290E+04  0.10203517290E+04  0.25500000920E-02 0.  1.
       -2   -1    0    0    0  501  0.00000000000E+00  0.00000000000E+00 -0.36398731278E+03  0.36398731279E+03  0.25500000920E-02 0. -1.
    10030    2    1    2    0    0  0.00000000000E+00  0.00000000000E+00  0.65636441620E+03  0.13843390418E+04  0.12188438521E+04 0.  0.
        5    1    3    3  502    0 -0.13983386327E+02 -0.24283630943E+03  0.96280607329E+03  0.99306728525E+03  0.46999998093E+01 0.  1.
       -5    1    3    3    0  502  0.13983386327E+02  0.24283630943E+03 -0.30644165708E+03  0.39127175654E+03  0.46999998093E+01 0. -1.
</event>
<event>
 5   0  0.9678750E-04  0.1197890E+04  0.7818609E-02  0.9114705E-01
       -4   -1    0    0    0  501  0.00000000000E+00  0.00000000000E+00  0.12312879041E+04  0.12312885591E+04  0.12699999809E+01 0.  1.
        4   -1    0    0  501    0  0.00000000000E+00  0.00000000000E+00 -0.29134759120E+03  0.29135035919E+03  0.12699999809E+01 0. -1.
    10030    2    1    2    0    0  0.00000000000E+00  0.00000000000E+00  0.93994031289E+03  0.15226389182E+04  0.11978904305E+04 0.  0.
        1    1    3    3  502    0 -0.34405635687E+03 -0.23347967599E+03  0.10179424290E+04  0.10995882523E+04  0.50400001928E-02 0.  1.
       -1    1    3    3    0  502  0.34405635687E+03  0.23347967599E+03 -0.78002116128E+02  0.42305066593E+03  0.50400001928E-02 0. -1.
</event>
<event>
 5   0  0.2580244E-03  0.1204195E+04  0.7818609E-02  0.9109192E-01
        2   -1    0    0  501    0  0.00000000000E+00  0.00000000000E+00  0.20470275466E+04  0.20470275466E+04  0.25500000920E-02 0. -1.
       -2   -1    0    0    0  501  0.00000000000E+00  0.00000000000E+00 -0.17709655177E+03  0.17709655179E+03  0.25500000920E-02 0.  1.
    10030    2    1    2    0    0  0.00000000000E+00  0.00000000000E+00  0.18699309948E+04  0.22241240984E+04  0.12041952000E+04 0.  0.
        1    1    3    3  502    0 -0.37669763446E+03 -0.26276439946E+03  0.21588697547E+03  0.50749721539E+03  0.50400001928E-02 0.  1.
       -1    1    3    3    0  502  0.37669763446E+03  0.26276439946E+03  0.16540440194E+04  0.17166268830E+04  0.50400001928E-02 0. -1.
</event>
<event>
 5   0  0.1423024E-03  0.1201685E+04  0.7818609E-02  0.9111383E-01
        1   -1    0    0  501    0  0.00000000000E+00  0.00000000000E+00  0.25031170704E+03  0.25031170709E+03  0.50400001928E-02 0.  1.
       -1   -1    0    0    0  501  0.00000000000E+00  0.00000000000E+00 -0.14422478817E+04  0.14422478818E+04  0.50400001928E-02 0. -1.
    10030    2    1    2    0    0  0.00000000000E+00  0.00000000000E+00 -0.11919361747E+04  0.16925595888E+04  0.12016846996E+04 0.  0.
        2    1    3    3  502    0 -0.19403545363E+03 -0.43662497870E+03 -0.11090920269E+04  0.12076324993E+04  0.25500000920E-02 0. -1.
       -2    1    3    3    0  502  0.19403545363E+03  0.43662497870E+03 -0.82844147791E+02  0.48492708949E+03  0.25500000920E-02 0.  1.
</event>
<event>
 5   0  0.2579442E-03  0.1195916E+04  0.7818609E-02  0.9116438E-01
       -2   -1    0    0    0  501  0.00000000000E+00  0.00000000000E+00  0.10169319685E+04  0.10169319685E+04  0.25500000920E-02 0. -1.
        2   -1    0    0  501    0  0.00000000000E+00  0.00000000000E+00 -0.35160068368E+03  0.35160068369E+03  0.25500000920E-02 0.  1.
    10030    2    1    2    0    0  0.00000000000E+00  0.00000000000E+00  0.66533128483E+03  0.13685326522E+04  0.11959163439E+04 0.  0.
        4    1    3    3  502    0 -0.22317501024E+03 -0.41807780884E+03  0.74992750982E+03  0.88712401745E+03  0.12699999809E+01 0. -1.
       -4    1    3    3    0  502  0.22317501024E+03  0.41807780884E+03 -0.84596224993E+02  0.48140863476E+03  0.12699999809E+01 0.  1.
</event>
<event>
 5   0  0.1403154E-03  0.1215391E+04  0.7818609E-02  0.9099490E-01
        1   -1    0    0  501    0  0.00000000000E+00  0.00000000000E+00  0.27009570704E+04  0.27009570704E+04  0.50400001928E-02 0.  1.
       -1   -1    0    0    0  501  0.00000000000E+00  0.00000000000E+00 -0.13672708540E+03  0.13672708549E+03  0.50400001928E-02 0. -1.
    10030    2    1    2    0    0  0.00000000000E+00  0.00000000000E+00  0.25642299850E+04  0.28376841559E+04  0.12153912755E+04 0.  0.
        3    1    3    3  502    0 -0.18181207231E+03 -0.42397952283E+03  0.35852980167E+03  0.58425841397E+03  0.10100000352E+00 0. -1.
       -3    1    3    3    0  502  0.18181207231E+03  0.42397952283E+03  0.22057001834E+04  0.22534257420E+04  0.10100000352E+00 0.  1.
</event>
<event>
 5   0  0.2517023E-03  0.1205799E+04  0.7818609E-02  0.9107795E-01
        2   -1    0    0  501    0  0.00000000000E+00  0.00000000000E+00  0.86742541879E+03  0.86742541879E+03  0.25500000920E-02 0. -1.
       -2   -1    0    0    0  501  0.00000000000E+00  0.00000000000E+00 -0.41904246769E+03  0.41904246770E+03  0.25500000920E-02 0.  1.
    10030    2    1    2    0    0  0.00000000000E+00  0.00000000000E+00  0.44838295110E+03  0.12864678865E+04  0.12057994660E+04 0.  0.
        3    1    3    3  502    0 -0.33507511775E+03 -0.48674808286E+03  0.35172533329E+03  0.68768433964E+03  0.10100000352E+00 0. -1.
       -3    1    3    3    0  502  0.33507511775E+03  0.48674808286E+03  0.96657617810E+02  0.59878354686E+03  0.10100000352E+00 0.  1.
</event>
<event>
 5   0  0.1455076E-03  0.1220034E+04  0.7818609E-02  0.9095500E-01
       -1   -1    0    0    0  501  0.00000000000E+00  0.00000000000E+00  0.11135514129E+04  0.11135514129E+04  0.50400001928E-02 0.  1.
        1   -1    0    0  501    0  0.00000000000E+00  0.00000000000E+00 -0.33417445560E+03  0.33417445564E+03  0.50400001928E-02 0. -1.
    10030    2    1    2    0    0  0.00000000000E+00  0.00000000000E+00  0.77937695727E+03  0.14477258685E+04  0.12200335032E+04 0.  0.
        4    1    3    3  502    0  0.25817391303E+03 -0.52886071853E+03  0.19919349476E+03  0.62131078393E+03  0.12699999809E+01 0. -1.
       -4    1    3    3    0  502 -0.25817391303E+03  0.52886071853E+03  0.58018346251E+03  0.82641508459E+03  0.12699999809E+01 0.  1.
</event>
<event>
 5   0  0.2580244E-03  0.1200447E+04  0.7818609E-02  0.9112466E-01
        2   -1    0    0  501    0  0.00000000000E+00  0.00000000000E+00  0.34385388875E+03  0.34385388876E+03  0.25500000920E-02 0. -1.
       -2   -1    0    0    0  501  0.00000000000E+00  0.00000000000E+00 -0.10477358224E+04  0.10477358224E+04  0.25500000920E-02 0.  1.
    10030    2    1    2    0    0  0.00000000000E+00  0.00000000000E+00 -0.70388193366E+03  0.13915897112E+04  0.12004466451E+04 0.  0.
        1    1    3    3  502    0 -0.44032320472E+03  0.39536285487E+02  0.11868276299E+03  0.45774801009E+03  0.50400001928E-02 0. -1.
       -1    1    3    3    0  502  0.44032320472E+03 -0.39536285487E+02 -0.82256469665E+03  0.93384170109E+03  0.50400001928E-02 0.  1.
</event>
<event>
 5   0  0.1469851E-03  0.1203225E+04  0.7818609E-02  0.9110038E-01
        1   -1    0    0  501    0  0.00000000000E+00  0.00000000000E+00  0.56642377909E+03  0.56642377911E+03  0.50400001928E-02 0.  1.
       -1   -1    0    0    0  501  0.00000000000E+00  0.00000000000E+00 -0.63898751272E+03  0.63898751274E+03  0.50400001928E-02 0. -1.
    10030    2    1    2    0    0  0.00000000000E+00  0.00000000000E+00 -0.72563733634E+02  0.12054112919E+04  0.12032252021E+04 0.  0.
        5    1    3    3  502    0 -0.52057900403E+03  0.86384673876E+02  0.25312154116E+03  0.58528404721E+03  0.46999998093E+01 0.  1.
       -5    1    3    3    0  502  0.52057900403E+03 -0.86384673876E+02 -0.32568527480E+03  0.62012724464E+03  0.46999998093E+01 0. -1.
</event>
<event>
 5   0  0.1455076E-03  0.1234479E+04  0.7818609E-02  0.9083202E-01
        1   -1    0    0  501    0  0.00000000000E+00  0.00000000000E+00  0.78574893905E+03  0.78574893907E+03  0.50400001928E-02 0. -1.
       -1   -1    0    0    0  501  0.00000000000E+00  0.00000000000E+00 -0.48486771400E+03  0.48486771402E+03  0.50400001928E-02 0.  1.
    10030    2    1    2    0    0  0.00000000000E+00  0.00000000000E+00  0.30088122505E+03  0.12706166531E+04  0.12344785002E+04 0.  0.
        4    1    3    3  502    0  0.17992776638E+02 -0.19624777895E+03  0.75249619287E+03  0.77787470967E+03  0.12699999809E+01 0. -1.
       -4    1    3    3    0  502 -0.17992776638E+02  0.19624777895E+03 -0.45161496781E+03  0.49274194342E+03  0.12699999809E+01 0.  1.
</event>
<event>
 5   0  0.2517023E-03  0.1205213E+04  0.7818609E-02  0.9108306E-01
       -2   -1    0    0    0  501  0.00000000000E+00  0.00000000000E+00  0.10108526336E+04  0.10108526336E+04  0.25500000920E-02 0.  1.
        2   -1    0    0  501    0  0.00000000000E+00  0.00000000000E+00 -0.35923591830E+03  0.35923591830E+03  0.25500000920E-02 0. -1.
    10030    2    1    2    0    0  0.00000000000E+00  0.00000000000E+00  0.65161671533E+03  0.13700885519E+04  0.12052129673E+04 0.  0.
        3    1    3    3  502    0  0.23449816711E+03 -0.31547382572E+03  0.84504377698E+03  0.93199362675E+03  0.10100000352E+00 0.  1.
       -3    1    3    3    0  502 -0.23449816711E+03  0.31547382572E+03 -0.19342706165E+03  0.43809492518E+03  0.10100000352E+00 0. -1.
</event>
<event>
 5   0  0.1469851E-03  0.1193310E+04  0.7818609E-02  0.9118732E-01
       -1   -1    0    0    0  501  0.00000000000E+00  0.00000000000E+00  0.25970641237E+03  0.25970641242E+03  0.50400001928E-02 0. -1.
        1   -1    0    0  501    0  0.00000000000E+00  0.00000000000E+00 -0.13707686816E+04  0.13707686816E+04  0.50400001928E-02 0.  1.
    10030    2    1    2    0    0  0.00000000000E+00  0.00000000000E+00 -0.11110622692E+04  0.16304750940E+04  0.11933103813E+04 0.  0.
        5    1    3    3  502    0 -0.20214424243E+02 -0.44845594484E+03 -0.10925138256E+04  0.11811561737E+04  0.46999998093E+01 0.  1.
       -5    1    3    3    0  502  0.20214424243E+02  0.44845594484E+03 -0.18548443578E+02  0.44931892033E+03  0.46999998093E+01 0. -1.
</event>
<event>
 5   0  0.1403154E-03  0.1203310E+04  0.7818609E-02  0.9109965E-01
        1   -1    0    0  501    0  0.00000000000E+00  0.00000000000E+00  0.65471108380E+03  0.65471108382E+03  0.50400001928E-02 0.  1.
       -1   -1    0    0    0  501  0.00000000000E+00  0.00000000000E+00 -0.55289804837E+03  0.55289804840E+03  0.50400001928E-02 0. -1.
    10030    2    1    2    0    0  0.00000000000E+00  0.00000000000E+00  0.10181303543E+03  0.12076091322E+04  0.12033095703E+04 0.  0.
        3    1    3    3  502    0  0.97253970467E+02  0.48164282316E+03 -0.29753766082E+03  0.57442737895E+03  0.10100000352E+00 0. -1.
       -3    1    3    3    0  502 -0.97253970467E+02 -0.48164282316E+03  0.39935069625E+03  0.63318175327E+03  0.10100000352E+00 0.  1.
</event>
<event>
 5   0  0.1423024E-03  0.1203139E+04  0.7818609E-02  0.9110114E-01
        1   -1    0    0  501    0  0.00000000000E+00  0.00000000000E+00  0.49307180129E+03  0.49307180132E+03  0.50400001928E-02 0. -1.
       -1   -1    0    0    0  501  0.00000000000E+00  0.00000000000E+00 -0.73394135996E+03  0.73394135998E+03  0.50400001928E-02 0.  1.
    10030    2    1    2    0    0  0.00000000000E+00  0.00000000000E+00 -0.24086955867E+03  0.12270131613E+04  0.12031388755E+04 0.  0.
        2    1    3    3  502    0 -0.31847430830E+03  0.39245690688E+03  0.21228663416E+03  0.54819150290E+03  0.25500000920E-02 0. -1.
       -2    1    3    3    0  502  0.31847430830E+03 -0.39245690688E+03 -0.45315619282E+03  0.67882165840E+03  0.25500000920E-02 0.  1.
</event>
<event>
 5   0  0.2484507E-03  0.1201772E+04  0.7818609E-02  0.9111307E-01
        2   -1    0    0  501    0  0.00000000000E+00  0.00000000000E+00  0.94913391768E+03  0.94913391769E+03  0.25500000920E-02 0.  1.
       -2   -1    0    0    0  501  0.00000000000E+00  0.00000000000E+00 -0.38041396137E+03  0.38041396137E+03  0.25500000920E-02 0. -1.
    10030    2    1    2    0    0  0.00000000000E+00  0.00000000000E+00  0.56871995632E+03  0.13295478791E+04  0.12017716813E+04 0.  0.
        2    1    3    3  502    0 -0.22361074972E+03 -0.21657405398E+03  0.85296888344E+03  0.90799890109E+03  0.25500000920E-02 0.  1.
       -2    1    3    3    0  502  0.22361074972E+03  0.21657405398E+03 -0.28424892713E+03  0.42154897797E+03  0.25500000920E-02 0. -1.
</event>
<event>
 5   0  0.1423024E-03  0.1168677E+04  0.7818609E-02  0.9140724E-01
       -1   -1    0    0    0  501  0.00000000000E+00  0.00000000000E+00  0.23523698345E+03  0.23523698350E+03  0.50400001928E-02 0. -1.
        1   -1    0    0  501    0  0.00000000000E+00  0.00000000000E+00 -0.14515211772E+04  0.14515211772E+04  0.50400001928E-02 0.  1.
    10030    2    1    2    0    0  0.00000000000E+00  0.00000000000E+00 -0.12162841937E+04  0.16867581607E+04  0.11686769668E+04 0.  0.
        2    1    3    3  502    0  0.50036903638E+03 -0.21793506587E+03 -0.30681733627E+03  0.62610042592E+03  0.25500000920E-02 0. -1.
       -2    1    3    3    0  502 -0.50036903638E+03  0.21793506587E+03 -0.90946685747E+03  0.10606577348E+04  0.25500000920E-02 0.  1.
</event>
<event>
 5   0  0.1423024E-03  0.1196265E+04  0.7818609E-02  0.9116132E-01
       -1   -1    0    0    0  501  0.00000000000E+00  0.00000000000E+00  0.36711420188E+03  0.36711420192E+03  0.50400001928E-02 0. -1.
        1   -1    0    0  501    0  0.00000000000E+00  0.00000000000E+00 -0.97452709899E+03  0.97452709900E+03  0.50400001928E-02 0.  1.
    10030    2    1    2    0    0  0.00000000000E+00  0.00000000000E+00 -0.60741289711E+03  0.13416413009E+04  0.11962654190E+04 0.  0.
        2    1    3    3  502    0 -0.52052580546E+03 -0.19857006214E+02 -0.63340673663E+03  0.82008872012E+03  0.25500000920E-02 0. -1.
       -2    1    3    3    0  502  0.52052580546E+03  0.19857006214E+02  0.25993839526E+02  0.52155258081E+03  0.25500000920E-02 0.  1.
</event>
<event>
 5   0  0.1403154E-03  0.1223896E+04  0.7818609E-02  0.9092194E-01
       -1   -1    0    0    0  501  0.00000000000E+00  0.00000000000E+00  0.46309917309E+03  0.46309917311E+03  0.50400001928E-02 0.  1.
        1   -1    0    0  501    0  0.00000000000E+00  0.00000000000E+00 -0.80863929815E+03  0.80863929817E+03  0.50400001928E-02 0. -1.
    10030    2    1    2    0    0  0.00000000000E+00  0.00000000000E+00 -0.34554012506E+03  0.12717384713E+04  0.12238957314E+04 0.  0.
        3    1    3    3  502    0 -0.50265636867E+03  0.32384219450E+03 -0.37516599483E+02  0.59911993569E+03  0.10100000352E+00 0. -1.
       -3    1    3    3    0  502  0.50265636867E+03 -0.32384219450E+03 -0.30802352558E+03  0.67261853559E+03  0.10100000352E+00 0.  1.
</event>
<event>
 5   0  0.2580244E-03  0.1196301E+04  0.7818609E-02  0.9116101E-01
       -2   -1    0    0    0  501  0.00000000000E+00  0.00000000000E+00  0.23657211527E+03  0.23657211528E+03  0.25500000920E-02 0. -1.
        2   -1    0    0  501    0  0.00000000000E+00  0.00000000000E+00 -0.15123669926E+04  0.15123669926E+04  0.25500000920E-02 0.  1.
    10030    2    1    2    0    0  0.00000000000E+00  0.00000000000E+00 -0.12757948774E+04  0.17489391079E+04  0.11963007289E+04 0.  0.
        1    1    3    3  502    0  0.28191930134E+03  0.34413044932E+03 -0.12224597992E+04  0.13008890112E+04  0.50400001928E-02 0.  1.
       -1    1    3    3    0  502 -0.28191930134E+03 -0.34413044932E+03 -0.53335078143E+02  0.44805009675E+03  0.50400001928E-02 0. -1.
</event>
<event>
 5   0  0.2579442E-03  0.1215891E+04  0.7818609E-02  0.9099060E-01
        2   -1    0    0  501    0  0.00000000000E+00  0.00000000000E+00  0.53404478162E+03  0.53404478163E+03  0.25500000920E-02 0. -1.
       -2   -1    0    0    0  501  0.00000000000E+00  0.00000000000E+00 -0.69207278572E+03  0.69207278573E+03  0.25500000920E-02 0.  1.
    10030    2    1    2    0    0  0.00000000000E+00  0.00000000000E+00 -0.15802800410E+03  0.12261175674E+04  0.12158912118E+04 0.  0.
        4    1    3    3  502    0  0.14003697208E+03  0.35246774762E+03  0.40011621854E+03  0.55130614716E+03  0.12699999809E+01 0. -1.
       -4    1    3    3    0  502 -0.14003697208E+03 -0.35246774762E+03 -0.55814422264E+03  0.67481142019E+03  0.12699999809E+01 0.  1.
</event>
<event>
 5   0  0.1404833E-03  0.1194490E+04  0.7818609E-02  0.9117693E-01
        1   -1    0    0  501    0  0.00000000000E+00  0.00000000000E+00  0.75952244664E+03  0.75952244666E+03  0.50400001928E-02 0.  1.
       -1   -1    0    0    0  501  0.00000000000E+00  0.00000000000E+00 -0.46963950346E+03  0.46963950349E+03  0.50400001928E-02 0. -1.
    10030    2    1    2    0    0  0.00000000000E+00  0.00000000000E+00  0.28988294318E+03  0.12291619501E+04  0.11944902590E+04 0.  0.
        1    1    3    3  502    0 -0.17995026701E+03 -0.52947568279E+03 -0.70847948298E+02  0.56368965670E+03  0.50400001928E-02 0. -1.
       -1    1    3    3    0  502  0.17995026701E+03  0.52947568279E+03  0.36073089148E+03  0.66547229345E+03  0.50400001928E-02 0.  1.
</event>
<event>
 5   0  0.2580244E-03  0.1206668E+04  0.7818609E-02  0.9107040E-01
       -2   -1    0    0    0  501  0.00000000000E+00  0.00000000000E+00  0.37871207684E+03  0.37871207685E+03  0.25500000920E-02 0. -1.
        2   -1    0    0  501    0  0.00000000000E+00  0.00000000000E+00 -0.96118411909E+03  0.96118411910E+03  0.25500000920E-02 0.  1.
    10030    2    1    2    0    0  0.00000000000E+00  0.00000000000E+00 -0.58247204225E+03  0.13398961959E+04  0.12066681963E+04 0.  0.
        1    1    3    3  502    0  0.15181114691E+02 -0.13478620171E+03 -0.94403445903E+03  0.95372891656E+03  0.50400001928E-02 0.  1.
       -1    1    3    3    0  502 -0.15181114691E+02  0.13478620171E+03  0.36156241678E+03  0.38616727939E+03  0.50400001928E-02 0. -1.
</event>
<event>
 5   0  0.2579442E-03  0.1199928E+04  0.7818609E-02  0.9112920E-01
       -2   -1    0    0    0  501  0.00000000000E+00  0.00000000000E+00  0.91111187621E+03  0.91111187621E+03  0.25500000920E-02 0. -1.
        2   -1    0    0  501    0  0.00000000000E+00  0.00000000000E+00 -0.39507421337E+03  0.39507421338E+03  0.25500000920E-02 0.  1.
    10030    2    1    2    0    0  0.00000000000E+00  0.00000000000E+00  0.51603766284E+03  0.13061860896E+04  0.11999280108E+04 0.  0.
        4    1    3    3  502    0  0.27706881830E+03 -0.28648543395E+03 -0.23015128302E+03  0.46023065947E+03  0.12699999809E+01 0.  1.
       -4    1    3    3    0  502 -0.27706881830E+03  0.28648543395E+03  0.74618894586E+03  0.84595543013E+03  0.12699999809E+01 0. -1.
</event>
<event>
 5   0  0.2499890E-03  0.1171001E+04  0.7818609E-02  0.9138625E-01
        2   -1    0    0  501    0  0.00000000000E+00  0.00000000000E+00  0.79278915543E+03  0.79278915543E+03  0.25500000920E-02 0. -1.
       -2   -1    0    0    0  501  0.00000000000E+00  0.00000000000E+00 -0.43241133773E+03  0.43241133773E+03  0.25500000920E-02 0.  1.
    10030    2    1    2    0    0  0.00000000000E+00  0.00000000000E+00  0.36037781770E+03  0.12252004932E+04  0.11710013138E+04 0.  0.
        5    1    3    3  502    0  0.35057329724E+02 -0.49943045647E+03  0.49776534476E+03  0.70601149116E+03  0.46999998093E+01 0. -1.
       -5    1    3    3    0  502 -0.35057329724E+02  0.49943045647E+03 -0.13738752706E+03  0.51918900200E+03  0.46999998093E+01 0.  1.
</event>
<event>
 5   0  0.2580244E-03  0.1214736E+04  0.7818609E-02  0.9100055E-01
        2   -1    0    0  501    0  0.00000000000E+00  0.00000000000E+00  0.28662184864E+03  0.28662184865E+03  0.25500000920E-02 0. -1.
       -2   -1    0    0    0  501  0.00000000000E+00  0.00000000000E+00 -0.12870463162E+04  0.12870463162E+04  0.25500000920E-02 0.  1.
    10030    2    1    2    0    0  0.00000000000E+00  0.00000000000E+00 -0.10004244676E+04  0.15736681649E+04  0.12147355176E+04 0.  0.
        1    1    3    3  502    0  0.25786079667E+02 -0.12716085554E+03 -0.12688828122E+04  0.12754992733E+04  0.50400001928E-02 0.  1.
       -1    1    3    3    0  502 -0.25786079667E+02  0.12716085554E+03  0.26845834461E+03  0.29816889158E+03  0.50400001928E-02 0. -1.
</event>
<event>
 5   0  0.2499890E-03  0.1199971E+04  0.7818609E-02  0.9112882E-01
       -2   -1    0    0    0  501  0.00000000000E+00  0.00000000000E+00  0.40722331730E+03  0.40722331731E+03  0.25500000920E-02 0.  1.
        2   -1    0    0  501    0  0.00000000000E+00  0.00000000000E+00 -0.88399256611E+03  0.88399256612E+03  0.25500000920E-02 0. -1.
    10030    2    1    2    0    0  0.00000000000E+00  0.00000000000E+00 -0.47676924881E+03  0.12912158834E+04  0.11999706417E+04 0.  0.
        5    1    3    3  502    0 -0.46688833173E+03  0.36248371617E+03 -0.12769819026E+03  0.60473802310E+03  0.46999998093E+01 0.  1.
       -5    1    3    3    0  502  0.46688833173E+03 -0.36248371617E+03 -0.34907105855E+03  0.68647786032E+03  0.46999998093E+01 0. -1.
</event>
<event>
 5   0  0.2580244E-03  0.1215733E+04  0.7818609E-02  0.9099196E-01
       -2   -1    0    0    0  501  0.00000000000E+00  0.00000000000E+00  0.50180729225E+03  0.50180729225E+03  0.25500000920E-02 0. -1.
        2   -1    0    0  501    0  0.00000000000E+00  0.00000000000E+00 -0.73634154932E+03  0.73634154933E+03  0.25500000920E-02 0.  1.
    10030    2    1    2    0    0  0.00000000000E+00  0.00000000000E+00 -0.23453425708E+03  0.12381488416E+04  0.12157327980E+04 0.  0.
        1    1    3    3  502    0 -0.55800804953E+03  0.10022084121E+03  0.10605750827E+03  0.57677152794E+03  0.50400001928E-02 0.  1.
       -1    1    3    3    0  502  0.55800804953E+03 -0.10022084121E+03 -0.34059176535E+03  0.66137731364E+03  0.50400001928E-02 0. -1.
</event>
<event>
 5   0  0.1455076E-03  0.1185151E+04  0.7818609E-02  0.9125954E-01
       -1   -1    0    0    0  501  0.00000000000E+00  0.00000000000E+00  0.46556943675E+03  0.46556943677E+03  0.50400001928E-02 0.  1.
        1   -1    0    0  501    0  0.00000000000E+00  0.00000000000E+00 -0.75422790800E+03  0.75422790802E+03  0.50400001928E-02 0. -1.
    10030    2    1    2    0    0  0.00000000000E+00  0.00000000000E+00 -0.28865847126E+03  0.12197973448E+04  0.11851505598E+04 0.  0.
        4    1    3    3  502    0  0.84858491494E+02 -0.34035002626E+03  0.34723617734E+03  0.49357236522E+03  0.12699999809E+01 0.  1.
       -4    1    3    3    0  502 -0.84858491494E+02  0.34035002626E+03 -0.63589464859E+03  0.72622497958E+03  0.12699999809E+01 0. -1.
</event>
<event>
 5   0  0.1403154E-03  0.1214915E+04  0.7818609E-02  0.9099900E-01
       -1   -1    0    0    0  501  0.00000000000E+00  0.00000000000E+00  0.20210760541E+03  0.20210760548E+03  0.50400001928E-02 0. -1.
        1   -1    0    0  501    0  0.00000000000E+00  0.00000000000E+00 -0.18257837599E+04  0.18257837599E+04  0.50400001928E-02 0.  1.
    10030    2    1    2    0    0  0.00000000000E+00  0.00000000000E+00 -0.16236761545E+04  0.20278913654E+04  0.12149152790E+04 0.  0.
        3    1    3    3  502    0  0.55427557764E+03 -0.14665072441E+03 -0.47685194177E+03  0.74573161090E+03  0.10100000352E+00 0. -1.
       -3    1    3    3    0  502 -0.55427557764E+03  0.14665072441E+03 -0.11468242128E+04  0.12821597545E+04  0.10100000352E+00 0.  1.
</event>
<event>
 5   0  0.2580244E-03  0.1226651E+04  0.7818609E-02  0.9089843E-01
       -2   -1    0    0    0  501  0.00000000000E+00  0.00000000000E+00  0.95384877985E+03  0.95384877985E+03  0.25500000920E-02 0.  1.
        2   -1    0    0  501    0  0.00000000000E+00  0.00000000000E+00 -0.39436902091E+03  0.39436902092E+03  0.25500000920E-02 0. -1.
    10030    2    1    2    0    0  0.00000000000E+00  0.00000000000E+00  0.55947975894E+03  0.13482178008E+04  0.12266513921E+04 0.  0.
        1    1    3    3  502    0  0.38767144100E+03 -0.13213862824E+03 -0.22203300215E+03  0.46588455363E+03  0.50400001928E-02 0. -1.
       -1    1    3    3    0  502 -0.38767144100E+03  0.13213862824E+03  0.78151276109E+03  0.88233324714E+03  0.50400001928E-02 0.  1.
</event>
<event>
 5   0  0.1423024E-03  0.1196010E+04  0.7818609E-02  0.9116356E-01
       -1   -1    0    0    0  501  0.00000000000E+00  0.00000000000E+00  0.56509827124E+03  0.56509827126E+03  0.50400001928E-02 0. -1.
        1   -1    0    0  501    0  0.00000000000E+00  0.00000000000E+00 -0.63282826651E+03  0.63282826653E+03  0.50400001928E-02 0.  1.
    10030    2    1    2    0    0  0.00000000000E+00  0.00000000000E+00 -0.67729995269E+02  0.11979265378E+04  0.11960103000E+04 0.  0.
        2    1    3    3  502    0 -0.11443860662E+03 -0.39868167656E+03  0.39759993641E+03  0.57456851928E+03  0.25500000920E-02 0. -1.
       -2    1    3    3    0  502  0.11443860662E+03  0.39868167656E+03 -0.46532993168E+03  0.62335801851E+03  0.25500000920E-02 0.  1.
</event>
<event>
 5   0  0.2484507E-03  0.1206152E+04  0.7818609E-02  0.9107489E-01
        2   -1    0    0  501    0  0.00000000000E+00  0.00000000000E+00  0.16828958672E+04  0.16828958672E+04  0.25500000920E-02 0.  1.
       -2   -1    0    0    0  501  0.00000000000E+00  0.00000000000E+00 -0.21611602813E+03  0.21611602814E+03  0.25500000920E-02 0. -1.
    10030    2    1    2    0    0  0.00000000000E+00  0.00000000000E+00  0.14667798391E+04  0.18990118953E+04  0.12061521804E+04 0.  0.
        2    1    3    3  502    0  0.15302894380E+03  0.55157434553E+03  0.43445950291E+03  0.71861476186E+03  0.25500000920E-02 0. -1.
       -2    1    3    3    0  502 -0.15302894380E+03 -0.55157434553E+03  0.10323203362E+04  0.11803971335E+04  0.25500000920E-02 0.  1.
</event>
<event>
 5   0  0.1455076E-03  0.1087234E+04  0.7818609E-02  0.9217724E-01
        1   -1    0    0  501    0  0.00000000000E+00  0.00000000000E+00  0.58263167257E+03  0.58263167259E+03  0.50400001928E-02 0.  1.
       -1   -1    0    0    0  501  0.00000000000E+00  0.00000000000E+00 -0.50721498207E+03  0.50721498210E+03  0.50400001928E-02 0. -1.
    10030    2    1    2    0    0  0.00000000000E+00  0.00000000000E+00  0.75416690501E+02  0.10898466547E+04  0.10872341300E+04 0.  0.
        4    1    3    3  502    0  0.22380646176E+02 -0.24058573379E+03 -0.45042740551E+03  0.51114464602E+03  0.12699999809E+01 0. -1.
       -4    1    3    3    0  502 -0.22380646176E+02  0.24058573379E+03  0.52584409601E+03  0.57870200867E+03  0.12699999809E+01 0.  1.
</event>
<event>
 5   0  0.2499890E-03  0.1202081E+04  0.7818609E-02  0.9111037E-01
        2   -1    0    0  501    0  0.00000000000E+00  0.00000000000E+00  0.10466976185E+04  0.10466976185E+04  0.25500000920E-02 0. -1.
       -2   -1    0    0    0  501  0.00000000000E+00  0.00000000000E+00 -0.34513286247E+03  0.34513286248E+03  0.25500000920E-02 0.  1.
    10030    2    1    2    0    0  0.00000000000E+00  0.00000000000E+00  0.70156475604E+03  0.13918304810E+04  0.12020811041E+04 0.  0.
        5    1    3    3  502    0 -0.39734466765E+03 -0.12405059690E+03  0.85275616539E+03  0.94893967305E+03  0.46999998093E+01 0. -1.
       -5    1    3    3    0  502  0.39734466765E+03  0.12405059690E+03 -0.15119140934E+03  0.44289080794E+03  0.46999998093E+01 0.  1.
</event>
<event>
 5   0  0.1455076E-03  0.1174619E+04  0.7818609E-02  0.9135367E-01
       -1   -1    0    0    0  501  0.00000000000E+00  0.00000000000E+00  0.33560472452E+03  0.33560472456E+03  0.50400001928E-02 0. -1.
        1   -1    0    0  501    0  0.00000000000E+00  0.00000000000E+00 -0.10277937536E+04  0.10277937536E+04  0.50400001928E-02 0.  1.
    10030    2    1    2    0    0  0.00000000000E+00  0.00000000000E+00 -0.69218902906E+03  0.13633984782E+04  0.11746189843E+04 0.  0.
        4    1    3    3  502    0 -0.24147839768E+02 -0.58680967126E+03 -0.34778383347E+03  0.68255689592E+03  0.12699999809E+01 0. -1.
       -4    1    3    3    0  502  0.24147839768E+02  0.58680967126E+03 -0.34440519560E+03  0.68084158224E+03  0.12699999809E+01 0.  1.
</event>
<event>
 5   0  0.2580244E-03  0.1197023E+04  0.7818609E-02  0.9115466E-01
       -2   -1    0    0    0  501  0.00000000000E+00  0.00000000000E+00  0.25199453828E+03  0.25199453829E+03  0.25500000920E-02 0. -1.
        2   -1    0    0  501    0  0.00000000000E+00  0.00000000000E+00 -0.14215228887E+04  0.14215228887E+04  0.25500000920E-02 0.  1.
    10030    2    1    2    0    0  0.00000000000E+00  0.00000000000E+00 -0.11695283504E+04  0.16735174270E+04  0.11970229806E+04 0.  0.
        1    1    3    3  502    0 -0.15163364215E+03  0.11965028804E+03  0.20722159928E+03  0.28328385780E+03  0.50400001928E-02 0. -1.
       -1    1    3    3    0  502  0.15163364215E+03 -0.11965028804E+03 -0.13767499497E+04  0.13902335692E+04  0.50400001928E-02 0.  1.
</event>
<event>
 5   0  0.1423024E-03  0.1182472E+04  0.7818609E-02  0.9128339E-01
       -1   -1    0    0    0  501  0.00000000000E+00  0.00000000000E+00  0.40991054380E+03  0.40991054383E+03  0.50400001928E-02 0.  1.
        1   -1    0    0  501    0  0.00000000000E+00  0.00000000000E+00 -0.85277077215E+03  0.85277077216E+03  0.50400001928E-02 0. -1.
    10030    2    1    2    0    0  0.00000000000E+00  0.00000000000E+00 -0.44286022835E+03  0.12626813160E+04  0.11824715320E+04 0.  0.
        2    1    3    3  502    0  0.10627971910E+03  0.36098184111E+03 -0.70838560932E+03  0.80213056282E+03  0.25500000920E-02 0. -1.
       -2    1    3    3    0  502 -0.10627971910E+03 -0.36098184111E+03  0.26552538097E+03  0.46055075318E+03  0.25500000920E-02 0.  1.
</event>
<event>
 5   0  0.1423024E-03  0.1214267E+04  0.7818609E-02  0.9100460E-01
       -1   -1    0    0    0  501  0.00000000000E+00  0.00000000000E+00  0.12477069274E+04  0.12477069274E+04  0.50400001928E-02 0.  1.
        1   -1    0    0  501    0  0.00000000000E+00  0.00000000000E+00 -0.29543076755E+03  0.29543076759E+03  0.50400001928E-02 0. -1.
    10030    2    1    2    0    0  0.00000000000E+00  0.00000000000E+00  0.95227615987E+03  0.15431376950E+04  0.12142668822E+04 0.  0.
        2    1    3    3  502    0  0.44887397154E+02  0.24506014175E+03  0.11797533968E+04  0.12057725444E+04  0.25500000920E-02 0.  1.
       -2    1    3    3    0  502 -0.44887397154E+02 -0.24506014175E+03 -0.22747723697E+03  0.33736515061E+03  0.25500000920E-02 0. -1.
</event>
<event>
 5   0  0.1403154E-03  0.1203634E+04  0.7818609E-02  0.9109681E-01
       -1   -1    0    0    0  501  0.00000000000E+00  0.00000000000E+00  0.69893192847E+03  0.69893192849E+03  0.50400001928E-02 0.  1.
        1   -1    0    0  501    0  0.00000000000E+00  0.00000000000E+00 -0.51819617437E+03  0.51819617440E+03  0.50400001928E-02 0. -1.
    10030    2    1    2    0    0  0.00000000000E+00  0.00000000000E+00  0.18073575410E+03  0.12171281029E+04  0.12036342493E+04 0.  0.
        3    1    3    3  502    0  0.52212176298E+03 -0.13254621929E+03 -0.18097641174E+03  0.56827115660E+03  0.10100000352E+00 0. -1.
       -3    1    3    3    0  502 -0.52212176298E+03  0.13254621929E+03  0.36171216584E+03  0.64885694628E+03  0.10100000352E+00 0.  1.
</event>
<event>
 5   0  0.1469851E-03  0.1186332E+04  0.7818609E-02  0.9124905E-01
        1   -1    0    0  501    0  0.00000000000E+00  0.00000000000E+00  0.26747798791E+03  0.26747798796E+03  0.50400001928E-02 0.  1.
       -1   -1    0    0    0  501  0.00000000000E+00  0.00000000000E+00 -0.13154192884E+04  0.13154192884E+04  0.50400001928E-02 0. -1.
    10030    2    1    2    0    0  0.00000000000E+00  0.00000000000E+00 -0.10479413005E+04  0.15828972763E+04  0.11863316645E+04 0.  0.
        5    1    3    3  502    0 -0.14109743744E+03  0.28031373743E+03  0.14760961196E+03  0.34683564664E+03  0.46999998093E+01 0.  1.
       -5    1    3    3    0  502  0.14109743744E+03 -0.28031373743E+03 -0.11955509124E+04  0.12360616297E+04  0.46999998093E+01 0. -1.
</event>
<event>
 5   0  0.1455076E-03  0.1192733E+04  0.7818609E-02  0.9119242E-01
        1   -1    0    0  501    0  0.00000000000E+00  0.00000000000E+00  0.15381431145E+04  0.15381431145E+04  0.50400001928E-02 0. -1.
       -1   -1    0    0    0  501  0.00000000000E+00  0.00000000000E+00 -0.23122214342E+03  0.23122214347E+03  0.50400001928E-02 0.  1.
    10030    2    1    2    0    0  0.00000000000E+00  0.00000000000E+00  0.13069209711E+04  0.17693652580E+04  0.11927325733E+04 0.  0.
        4    1    3    3  502    0  0.23631820698E+02 -0.77064446431E+02  0.15300227422E+04  0.15321450964E+04  0.12699999809E+01 0. -1.
       -4    1    3    3    0  502 -0.23631820698E+02  0.77064446431E+02 -0.22310177116E+03  0.23722016155E+03  0.12699999809E+01 0.  1.
</event>
<event>
 5   0  0.2579442E-03  0.1203831E+04  0.7818609E-02  0.9109510E-01
       -2   -1    0    0    0  501  0.00000000000E+00  0.00000000000E+00  0.31356863575E+03  0.31356863576E+03  0.25500000920E-02 0.  1.
        2   -1    0    0  501    0  0.00000000000E+00  0.00000000000E+00 -0.11554153194E+04  0.11554153194E+04  0.25500000920E-02 0. -1.
    10030    2    1    2    0    0  0.00000000000E+00  0.00000000000E+00 -0.84184668363E+03  0.14689839551E+04  0.12038305619E+04 0.  0.
        4    1    3    3  502    0  0.31116922335E+03  0.33672538228E+03  0.54961853803E+02  0.46177124954E+03  0.12699999809E+01 0.  1.
       -4    1    3    3    0  502 -0.31116922335E+03 -0.33672538228E+03 -0.89680853743E+03  0.10072127056E+04  0.12699999809E+01 0. -1.
</event>
<event>
 5   0  0.2580244E-03  0.1214950E+04  0.7818609E-02  0.9099870E-01
        2   -1    0    0  501    0  0.00000000000E+00  0.00000000000E+00  0.23503735792E+04  0.23503735792E+04  0.25500000920E-02 0.  1.
       -2   -1    0    0    0  501  0.00000000000E+00  0.00000000000E+00 -0.15700737459E+03  0.15700737461E+03  0.25500000920E-02 0. -1.
    10030    2    1    2    0    0  0.00000000000E+00  0.00000000000E+00  0.21933662046E+04  0.25073809538E+04  0.12149501801E+04 0.  0.
        1    1    3    3  502    0 -0.38486216957E+03  0.46728519913E+03  0.99243422364E+03  0.11624973269E+04  0.50400001928E-02 0.  1.
       -1    1    3    3    0  502  0.38486216957E+03 -0.46728519913E+03  0.12009319810E+04  0.13448836269E+04  0.50400001928E-02 0. -1.
</event>
<event>
 5   0  0.2499890E-03  0.1194404E+04  0.7818609E-02  0.9117769E-01
       -2   -1    0    0    0  501  0.00000000000E+00  0.00000000000E+00  0.32555659487E+03  0.32555659488E+03  0.25500000920E-02 0.  1.
        2   -1    0    0  501    0  0.00000000000E+00  0.00000000000E+00 -0.10955083556E+04  0.10955083556E+04  0.25500000920E-02 0. -1.
    10030    2    1    2    0    0  0.00000000000E+00  0.00000000000E+00 -0.76995176068E+03  0.14210649504E+04  0.11944035665E+04 0.  0.
        5    1    3    3  502    0  0.27736776094E+02 -0.37932052562E+03 -0.93275394340E+03  0.10073258653E+04  0.46999998093E+01 0. -1.
       -5    1    3    3    0  502 -0.27736776094E+02  0.37932052562E+03  0.16280218272E+03  0.41373908517E+03  0.46999998093E+01 0.  1.
</event>
<event>
 5   0  0.2484507E-03  0.1216479E+04  0.7818609E-02  0.9098554E-01
       -2   -1    0    0    0  501  0.00000000000E+00  0.00000000000E+00  0.32223788809E+03  0.32223788810E+03  0.25500000920E-02 0. -1.
        2   -1    0    0  501    0  0.00000000000E+00  0.00000000000E+00 -0.11480811100E+04  0.11480811100E+04  0.25500000920E-02 0.  1.
    10030    2    1    2    0    0  0.00000000000E+00  0.00000000000E+00 -0.82584322189E+03  0.14703189981E+04  0.12164789061E+04 0.  0.
        2    1    3    3  502    0  0.42984487066E+03 -0.34710993803E+03 -0.10547462739E+03  0.56247383845E+03  0.25500000920E-02 0.  1.
       -2    1    3    3    0  502 -0.42984487066E+03  0.34710993803E+03 -0.72036859450E+03  0.90784515963E+03  0.25500000920E-02 0. -1.
</event>
<event>
 5   0  0.1423024E-03  0.1194128E+04  0.7818609E-02  0.9118011E-01
       -1   -1    0    0    0  501  0.00000000000E+00  0.00000000000E+00  0.29675504944E+03  0.29675504949E+03  0.50400001928E-02 0.  1.
        1   -1    0    0  501    0  0.00000000000E+00  0.00000000000E+00 -0.12012791831E+04  0.12012791831E+04  0.50400001928E-02 0. -1.
    10030    2    1    2    0    0  0.00000000000E+00  0.00000000000E+00 -0.90452413368E+03  0.14980342326E+04  0.11941284075E+04 0.  0.
        2    1    3    3  502    0 -0.61298153586E+01  0.65715535906E+02 -0.11966887783E+04  0.11985074628E+04  0.25500000920E-02 0. -1.
       -2    1    3    3    0  502  0.61298153586E+01 -0.65715535906E+02  0.29216464459E+03  0.29952676984E+03  0.25500000920E-02 0.  1.
</event>
<event>
 5   0  0.1404833E-03  0.1235030E+04  0.7818609E-02  0.9082736E-01
       -1   -1    0    0    0  501  0.00000000000E+00  0.00000000000E+00  0.58233873377E+03  0.58233873379E+03  0.50400001928E-02 0. -1.
        1   -1    0    0  501    0  0.00000000000E+00  0.00000000000E+00 -0.65481604129E+03  0.65481604131E+03  0.50400001928E-02 0.  1.
    10030    2    1    2    0    0  0.00000000000E+00  0.00000000000E+00 -0.72477307521E+02  0.12371547751E+04  0.12350299500E+04 0.  0.
        1    1    3    3  502    0  0.21141723975E+03  0.11635900715E+03  0.53314764388E+03  0.58522053793E+03  0.50400001928E-02 0. -1.
       -1    1    3    3    0  502 -0.21141723975E+03 -0.11635900715E+03 -0.60562495140E+03  0.65193423717E+03  0.50400001928E-02 0.  1.
</event>
<event>
 5   0  0.2499890E-03  0.1208547E+04  0.7818609E-02  0.9105408E-01
       -2   -1    0    0    0  501  0.00000000000E+00  0.00000000000E+00  0.31297675104E+03  0.31297675105E+03  0.25500000920E-02 0. -1.
        2   -1    0    0  501    0  0.00000000000E+00  0.00000000000E+00 -0.11666891828E+04  0.11666891828E+04  0.25500000920E-02 0.  1.
    10030    2    1    2    0    0  0.00000000000E+00  0.00000000000E+00 -0.85371243176E+03  0.14796659339E+04  0.12085472104E+04 0.  0.
        5    1    3    3  502    0  0.53229833496E+03  0.11931718967E+03 -0.10865551709E+03  0.55624295101E+03  0.46999998093E+01 0. -1.
       -5    1    3    3    0  502 -0.53229833496E+03 -0.11931718967E+03 -0.74505691468E+03  0.92342298285E+03  0.46999998093E+01 0.  1.
</event>
<event>
 5   0  0.2580244E-03  0.1195939E+04  0.7818609E-02  0.9116418E-01
       -2   -1    0    0    0  501  0.00000000000E+00  0.00000000000E+00  0.24732575931E+03  0.24732575932E+03  0.25500000920E-02 0.  1.
        2   -1    0    0  501    0  0.00000000000E+00  0.00000000000E+00 -0.14457353317E+04  0.14457353317E+04  0.25500000920E-02 0. -1.
    10030    2    1    2    0    0  0.00000000000E+00  0.00000000000E+00 -0.11984095724E+04  0.16930610910E+04  0.11959391100E+04 0.  0.
        1    1    3    3  502    0 -0.26967287304E+03  0.22605997883E+03 -0.12836379178E+04  0.13309969484E+04  0.50400001928E-02 0. -1.
       -1    1    3    3    0  502  0.26967287304E+03 -0.22605997883E+03  0.85228345450E+02  0.36206414263E+03  0.50400001928E-02 0.  1.
</event>
<event>
 5   0  0.1469851E-03  0.1203685E+04  0.7818609E-02  0.9109637E-01
        1   -1    0    0  501    0  0.00000000000E+00  0.00000000000E+00  0.67128387159E+03  0.67128387161E+03  0.50400001928E-02 0.  1.
       -1   -1    0    0    0  501  0.00000000000E+00  0.00000000000E+00 -0.53958447694E+03  0.53958447696E+03  0.50400001928E-02 0. -1.
    10030    2    1    2    0    0  0.00000000000E+00  0.00000000000E+00  0.13169939465E+03  0.12108683486E+04  0.12036849368E+04 0.  0.
        5    1    3    3  502    0 -0.45071189124E+03 -0.39774746817E+03  0.95144085977E+02  0.60862036150E+03  0.46999998093E+01 0.  1.
       -5    1    3    3    0  502  0.45071189124E+03  0.39774746817E+03  0.36555308671E+02  0.60224798707E+03  0.46999998093E+01 0. -1.
</event>
<event>
 5   0  0.1403154E-03  0.1208975E+04  0.7818609E-02  0.9105037E-01
       -1   -1    0    0    0  501  0.00000000000E+00  0.00000000000E+00  0.17169368727E+03  0.17169368734E+03  0.50400001928E-02 0.  1.
        1   -1    0    0  501    0  0.00000000000E+00  0.00000000000E+00 -0.21282397492E+04  0.21282397492E+04  0.50400001928E-02 0. -1.
    10030    2    1    2    0    0  0.00000000000E+00  0.00000000000E+00 -0.19565460619E+04  0.22999334365E+04  0.12089753182E+04 0.  0.
        3    1    3    3  502    0 -0.19997332331E+03 -0.56410483008E+03 -0.11397149324E+04  0.12873048306E+04  0.10100000352E+00 0.  1.
       -3    1    3    3    0  502  0.19997332331E+03  0.56410483008E+03 -0.81683112946E+03  0.10126286060E+04  0.10100000352E+00 0. -1.
</event>
<event>
 5   0  0.2499890E-03  0.1201157E+04  0.7818609E-02  0.9111844E-01
        2   -1    0    0  501    0  0.00000000000E+00  0.00000000000E+00  0.15645358184E+04  0.15645358184E+04  0.25500000920E-02 0.  1.
       -2   -1    0    0    0  501  0.00000000000E+00  0.00000000000E+00 -0.23054424603E+03  0.23054424605E+03  0.25500000920E-02 0. -1.
    10030    2    1    2    0    0  0.00000000000E+00  0.00000000000E+00  0.13339915724E+04  0.17950800644E+04  0.12011573263E+04 0.  0.
        5    1    3    3  502    0 -0.50676623561E+03  0.79524827827E+02  0.11337275365E+04  0.12443859662E+04  0.46999998093E+01 0.  1.
       -5    1    3    3    0  502  0.50676623561E+03 -0.79524827827E+02  0.20026403584E+03  0.55069409825E+03  0.46999998093E+01 0. -1.
</event>
<event>
 5   0  0.1403154E-03  0.1178883E+04  0.7818609E-02  0.9131544E-01
       -1   -1    0    0    0  501  0.00000000000E+00  0.00000000000E+00  0.38301587066E+03  0.38301587070E+03  0.50400001928E-02 0.  1.
        1   -1    0    0  501    0  0.00000000000E+00  0.00000000000E+00 -0.90711905140E+03  0.90711905141E+03  0.50400001928E-02 0. -1.
    10030    2    1    2    0    0  0.00000000000E+00  0.00000000000E+00 -0.52410318073E+03  0.12901349221E+04  0.11788825103E+04 0.  0.
        3    1    3    3  502    0 -0.19563397252E+03 -0.16772126261E+03  0.31810744456E+03  0.40938420783E+03  0.10100000352E+00 0.  1.
       -3    1    3    3    0  502  0.19563397252E+03  0.16772126261E+03 -0.84221062530E+03  0.88075071428E+03  0.10100000352E+00 0. -1.
</event>
<event>
 5   0  0.2499890E-03  0.1236279E+04  0.7818609E-02  0.9081681E-01
        2   -1    0    0  501    0  0.00000000000E+00  0.00000000000E+00  0.54899339619E+03  0.54899339620E+03  0.25500000920E-02 0.  1.
       -2   -1    0    0    0  501  0.00000000000E+00  0.00000000000E+00 -0.69599512669E+03  0.69599512670E+03  0.25500000920E-02 0. -1.
    10030    2    1    2    0    0  0.00000000000E+00  0.00000000000E+00 -0.14700173050E+03  0.12449885229E+04  0.12362794641E+04 0.  0.
        5    1    3    3  502    0  0.16457345005E+03  0.18258522223E+03  0.49763889852E+03  0.55505706658E+03  0.46999998093E+01 0.  1.
       -5    1    3    3    0  502 -0.16457345005E+03 -0.18258522223E+03 -0.64464062902E+03  0.68993145632E+03  0.46999998093E+01 0. -1.
</event>
<event>
 5   0  0.1423024E-03  0.1204174E+04  0.7818609E-02  0.9109211E-01
       -1   -1    0    0    0  501  0.00000000000E+00  0.00000000000E+00  0.55913231436E+03  0.55913231439E+03  0.50400001928E-02 0. -1.
        1   -1    0    0  501    0  0.00000000000E+00  0.00000000000E+00 -0.64834129647E+03  0.64834129649E+03  0.50400001928E-02 0.  1.
    10030    2    1    2    0    0  0.00000000000E+00  0.00000000000E+00 -0.89208982103E+02  0.12074736109E+04  0.12041736912E+04 0.  0.
        2    1    3    3  502    0 -0.11963156485E+03 -0.34341362968E+03  0.43656876038E+03  0.56818739418E+03  0.25500000920E-02 0. -1.
       -2    1    3    3    0  502  0.11963156485E+03  0.34341362968E+03 -0.52577774248E+03  0.63928621669E+03  0.25500000920E-02 0.  1.
</event>
<event>
 5   0  0.2580244E-03  0.1199774E+04  0.7818609E-02  0.9113054E-01
       -2   -1    0    0    0  501  0.00000000000E+00  0.00000000000E+00  0.16107019303E+03  0.16107019306E+03  0.25500000920E-02 0. -1.
        2   -1    0    0  501    0  0.00000000000E+00  0.00000000000E+00 -0.22342092390E+04  0.22342092390E+04  0.25500000920E-02 0.  1.
    10030    2    1    2    0    0  0.00000000000E+00  0.00000000000E+00 -0.20731390460E+04  0.23952794321E+04  0.11997741678E+04 0.  0.
        1    1    3    3  502    0  0.15715862038E+03 -0.88011089431E+02  0.10580655739E+03  0.20890143952E+03  0.50400001928E-02 0. -1.
       -1    1    3    3    0  502 -0.15715862038E+03  0.88011089431E+02 -0.21789456034E+04  0.21863779925E+04  0.50400001928E-02 0.  1.
</event>
<event>
 5   0  0.1423024E-03  0.1202297E+04  0.7818609E-02  0.9110849E-01
        1   -1    0    0  501    0  0.00000000000E+00  0.00000000000E+00  0.48889864613E+03  0.48889864615E+03  0.50400001928E-02 0. -1.
       -1   -1    0    0    0  501  0.00000000000E+00  0.00000000000E+00 -0.73917029866E+03  0.73917029868E+03  0.50400001928E-02 0.  1.
    10030    2    1    2    0    0  0.00000000000E+00  0.00000000000E+00 -0.25027165254E+03  0.12280689448E+04  0.12022967326E+04 0.  0.
        2    1    3    3  502    0 -0.23358296087E+03 -0.54856543828E+03 -0.46715637022E+02  0.59805299968E+03  0.25500000920E-02 0.  1.
       -2    1    3    3    0  502  0.23358296087E+03  0.54856543828E+03 -0.20355601551E+03  0.63001594515E+03  0.25500000920E-02 0. -1.
</event>
<event>
 5   0  0.2579442E-03  0.1203585E+04  0.7818609E-02  0.9109725E-01
       -2   -1    0    0    0  501  0.00000000000E+00  0.00000000000E+00  0.22465021195E+03  0.22465021197E+03  0.25500000920E-02 0.  1.
        2   -1    0    0  501    0  0.00000000000E+00  0.00000000000E+00 -0.16120791493E+04  0.16120791493E+04  0.25500000920E-02 0. -1.
    10030    2    1    2    0    0  0.00000000000E+00  0.00000000000E+00 -0.13874289373E+04  0.18367293612E+04  0.12035845173E+04 0.  0.
        4    1    3    3  502    0  0.53893448535E+03 -0.25509764333E+03 -0.56948315515E+03  0.82452280989E+03  0.12699999809E+01 0.  1.
       -4    1    3    3    0  502 -0.53893448535E+03  0.25509764333E+03 -0.81794578216E+03  0.10122065513E+04  0.12699999809E+01 0. -1.
</event>
<event>
 5   0  0.1455076E-03  0.1212247E+04  0.7818609E-02  0.9102204E-01
        1   -1    0    0  501    0  0.00000000000E+00  0.00000000000E+00  0.23840216267E+03  0.23840216272E+03  0.50400001928E-02 0.  1.
       -1   -1    0    0    0  501  0.00000000000E+00  0.00000000000E+00 -0.15410327545E+04  0.15410327545E+04  0.50400001928E-02 0. -1.
    10030    2    1    2    0    0  0.00000000000E+00  0.00000000000E+00 -0.13026305918E+04  0.17794349172E+04  0.12122467430E+04 0.  0.
        4    1    3    3  502    0  0.11603993716E+03  0.77597780015E+02 -0.15171132951E+04  0.15235225780E+04  0.12699999809E+01 0. -1.
       -4    1    3    3    0  502 -0.11603993716E+03 -0.77597780015E+02  0.21448270328E+03  0.25591233926E+03  0.12699999809E+01 0.  1.
</event>
<event>
 5   0  0.9678750E-04  0.1182122E+04  0.7818609E-02  0.9128650E-01
        4   -1    0    0  501    0  0.00000000000E+00  0.00000000000E+00  0.71532112227E+03  0.71532224966E+03  0.12699999809E+01 0.  1.
       -4   -1    0    0    0  501  0.00000000000E+00  0.00000000000E+00 -0.48838436839E+03  0.48838601965E+03  0.12699999809E+01 0. -1.
    10030    2    1    2    0    0  0.00000000000E+00  0.00000000000E+00  0.22693675388E+03  0.12037082693E+04  0.11821223741E+04 0.  0.
        1    1    3    3  502    0 -0.15657094820E+03 -0.51691620083E+03  0.35792827743E+03  0.64794249152E+03  0.50400001928E-02 0.  1.
       -1    1    3    3    0  502  0.15657094820E+03  0.51691620083E+03 -0.13099152355E+03  0.55576577779E+03  0.50400001928E-02 0. -1.
</event>
<event>
 5   0  0.1403154E-03  0.1184884E+04  0.7818609E-02  0.9126192E-01
       -1   -1    0    0    0  501  0.00000000000E+00  0.00000000000E+00  0.27095094311E+03  0.27095094316E+03  0.50400001928E-02 0.  1.
        1   -1    0    0  501    0  0.00000000000E+00  0.00000000000E+00 -0.12953904050E+04  0.12953904050E+04  0.50400001928E-02 0. -1.
    10030    2    1    2    0    0  0.00000000000E+00  0.00000000000E+00 -0.10244394619E+04  0.15663413482E+04  0.11848835419E+04 0.  0.
        3    1    3    3  502    0  0.37353701210E+02  0.58484720034E+03 -0.39738840759E+03  0.70806716026E+03  0.10100000352E+00 0.  1.
       -3    1    3    3    0  502 -0.37353701210E+02 -0.58484720034E+03 -0.62705105430E+03  0.85827418792E+03  0.10100000352E+00 0. -1.
</event>
<event>
 5   0  0.1423024E-03  0.1206713E+04  0.7818609E-02  0.9107000E-01
       -1   -1    0    0    0  501  0.00000000000E+00  0.00000000000E+00  0.33083895017E+03  0.33083895021E+03  0.50400001928E-02 0.  1.
        1   -1    0    0  501    0  0.00000000000E+00  0.00000000000E+00 -0.11003521233E+04  0.11003521233E+04  0.50400001928E-02 0. -1.
    10030    2    1    2    0    0  0.00000000000E+00  0.00000000000E+00 -0.76951317311E+03  0.14311910735E+04  0.12067134562E+04 0.  0.
        2    1    3    3  502    0  0.47612686606E+02 -0.16547993928E+03  0.30107787031E+03  0.34684068710E+03  0.25500000920E-02 0.  1.
       -2    1    3    3    0  502 -0.47612686606E+02  0.16547993928E+03 -0.10705910434E+04  0.10843503864E+04  0.25500000920E-02 0. -1.
</event>
<event>
 5   0  0.1403154E-03  0.1198754E+04  0.7818609E-02  0.9113948E-01
        1   -1    0    0  501    0  0.00000000000E+00  0.00000000000E+00  0.29623364602E+04  0.29623364602E+04  0.50400001928E-02 0.  1.
       -1   -1    0    0    0  501  0.00000000000E+00  0.00000000000E+00 -0.12127338326E+03  0.12127338337E+03  0.50400001928E-02 0. -1.
    10030    2    1    2    0    0  0.00000000000E+00  0.00000000000E+00  0.28410630769E+04  0.30836098436E+04  0.11987536278E+04 0.  0.
        3    1    3    3  502    0  0.24348306494E+03 -0.16168940668E+03  0.74466307261E+02  0.30161682358E+03  0.10100000352E+00 0. -1.
       -3    1    3    3    0  502 -0.24348306494E+03  0.16168940668E+03  0.27665967697E+04  0.27819930200E+04  0.10100000352E+00 0.  1.
</event>
<event>
 5   0  0.1469851E-03  0.1180063E+04  0.7818609E-02  0.9130488E-01
        1   -1    0    0  501    0  0.00000000000E+00  0.00000000000E+00  0.73557323916E+03  0.73557323917E+03  0.50400001928E-02 0.  1.
       -1   -1    0    0    0  501  0.00000000000E+00  0.00000000000E+00 -0.47328727180E+03  0.47328727182E+03  0.50400001928E-02 0. -1.
    10030    2    1    2    0    0  0.00000000000E+00  0.00000000000E+00  0.26228596736E+03  0.12088605110E+04  0.11800634756E+04 0.  0.
        5    1    3    3  502    0 -0.37518404890E+03 -0.27875893260E+03  0.49999313180E+03  0.68445952027E+03  0.46999998093E+01 0.  1.
       -5    1    3    3    0  502  0.37518404890E+03  0.27875893260E+03 -0.23770716444E+03  0.52440099072E+03  0.46999998093E+01 0. -1.
</event>
<event>
 5   0  0.1469851E-03  0.1219650E+04  0.7818609E-02  0.9095829E-01
       -1   -1    0    0    0  501  0.00000000000E+00  0.00000000000E+00  0.29721174208E+03  0.29721174212E+03  0.50400001928E-02 0. -1.
        1   -1    0    0  501    0  0.00000000000E+00  0.00000000000E+00 -0.12512512950E+04  0.12512512950E+04  0.50400001928E-02 0.  1.
    10030    2    1    2    0    0  0.00000000000E+00  0.00000000000E+00 -0.95403955289E+03  0.15484630371E+04  0.12196500764E+04 0.  0.
        5    1    3    3  502    0 -0.54636994388E+03 -0.16728185142E+03 -0.20661918200E+03  0.60763221586E+03  0.46999998093E+01 0. -1.
       -5    1    3    3    0  502  0.54636994388E+03  0.16728185142E+03 -0.74742037089E+03  0.94083082124E+03  0.46999998093E+01 0.  1.
</event>
<event>
 5   0  0.1469851E-03  0.1007682E+04  0.7818609E-02  0.9300159E-01
        1   -1    0    0  501    0  0.00000000000E+00  0.00000000000E+00  0.96575061841E+03  0.96575061843E+03  0.50400001928E-02 0. -1.
       -1   -1    0    0    0  501  0.00000000000E+00  0.00000000000E+00 -0.26285870291E+03  0.26285870295E+03  0.50400001928E-02 0.  1.
    10030    2    1    2    0    0  0.00000000000E+00  0.00000000000E+00  0.70289191551E+03  0.12286093214E+04  0.10076824002E+04 0.  0.
        5    1    3    3  502    0 -0.41874050705E+03 -0.26825958774E+03  0.25294317988E+03  0.55795085886E+03  0.46999998093E+01 0.  1.
       -5    1    3    3    0  502  0.41874050705E+03  0.26825958774E+03  0.44994873563E+03  0.67065846252E+03  0.46999998093E+01 0. -1.
</event>
<event>
 5   0  0.2579442E-03  0.1200214E+04  0.7818609E-02  0.9112669E-01
        2   -1    0    0  501    0  0.00000000000E+00  0.00000000000E+00  0.66938239703E+03  0.66938239704E+03  0.25500000920E-02 0. -1.
       -2   -1    0    0    0  501  0.00000000000E+00  0.00000000000E+00 -0.53800116818E+03  0.53800116819E+03  0.25500000920E-02 0.  1.
    10030    2    1    2    0    0  0.00000000000E+00  0.00000000000E+00  0.13138122885E+03  0.12073835652E+04  0.12002141668E+04 0.  0.
        4    1    3    3  502    0 -0.24996185977E+03  0.76971224541E+02  0.60902933317E+03  0.66281508908E+03  0.12699999809E+01 0. -1.
       -4    1    3    3    0  502  0.24996185977E+03 -0.76971224541E+02 -0.47764810432E+03  0.54456847615E+03  0.12699999809E+01 0.  1.
</event>
<event>
 5   0  0.1455076E-03  0.1208256E+04  0.7818609E-02  0.9105660E-01
        1   -1    0    0  501    0  0.00000000000E+00  0.00000000000E+00  0.10936020966E+04  0.10936020966E+04  0.50400001928E-02 0. -1.
       -1   -1    0    0    0  501  0.00000000000E+00  0.00000000000E+00 -0.33373271745E+03  0.33373271749E+03  0.50400001928E-02 0.  1.
    10030    2    1    2    0    0  0.00000000000E+00  0.00000000000E+00  0.75986937914E+03  0.14273348141E+04  0.12082562635E+04 0.  0.
        4    1    3    3  502    0  0.25041905887E+02  0.16249931413E+03  0.10666616114E+04  0.10792598066E+04  0.12699999809E+01 0. -1.
       -4    1    3    3    0  502 -0.25041905887E+02 -0.16249931413E+03 -0.30679223224E+03  0.34807500745E+03  0.12699999809E+01 0.  1.
</event>
<event>
 5   0  0.2517023E-03  0.1233971E+04  0.7818609E-02  0.9083631E-01
       -2   -1    0    0    0  501  0.00000000000E+00  0.00000000000E+00  0.42025554717E+03  0.42025554718E+03  0.25500000920E-02 0. -1.
        2   -1    0    0  501    0  0.00000000000E+00  0.00000000000E+00 -0.90580805561E+03  0.90580805561E+03  0.25500000920E-02 0.  1.
    10030    2    1    2    0    0  0.00000000000E+00  0.00000000000E+00 -0.48555250844E+03  0.13260636028E+04  0.12339705994E+04 0.  0.
        3    1    3    3  502    0  0.44788758342E+03 -0.31380362957E+03 -0.54974269751E+03  0.77543087956E+03  0.10100000352E+00 0.  1.
       -3    1    3    3    0  502 -0.44788758342E+03  0.31380362957E+03  0.64190189067E+02  0.55063272323E+03  0.10100000352E+00 0. -1.
</event>
<event>
 5   0  0.2580244E-03  0.1191004E+04  0.7818609E-02  0.9120767E-01
        2   -1    0    0  501    0  0.00000000000E+00  0.00000000000E+00  0.12351914508E+04  0.12351914508E+04  0.25500000920E-02 0.  1.
       -2   -1    0    0    0  501  0.00000000000E+00  0.00000000000E+00 -0.28709946732E+03  0.28709946733E+03  0.25500000920E-02 0. -1.
    10030    2    1    2    0    0  0.00000000000E+00  0.00000000000E+00  0.94809198352E+03  0.15222909182E+04  0.11910042948E+04 0.  0.
        1    1    3    3  502    0 -0.48699307874E+03  0.26543193869E+03  0.19692910886E+03  0.58855538971E+03  0.50400001928E-02 0. -1.
       -1    1    3    3    0  502  0.48699307874E+03 -0.26543193869E+03  0.75116287466E+03  0.93373552846E+03  0.50400001928E-02 0.  1.
</event>
<event>
 5   0  0.1455076E-03  0.1194657E+04  0.7818609E-02  0.9117546E-01
        1   -1    0    0  501    0  0.00000000000E+00  0.00000000000E+00  0.99233435134E+03  0.99233435136E+03  0.50400001928E-02 0. -1.
       -1   -1    0    0    0  501  0.00000000000E+00  0.00000000000E+00 -0.35955768212E+03  0.35955768215E+03  0.50400001928E-02 0.  1.
    10030    2    1    2    0    0  0.00000000000E+00  0.00000000000E+00  0.63277666922E+03  0.13518920335E+04  0.11946571714E+04 0.  0.
        4    1    3    3  502    0  0.32890957195E+03  0.40675402533E+03  0.64273615360E+03  0.82869881120E+03  0.12699999809E+01 0. -1.
       -4    1    3    3    0  502 -0.32890957195E+03 -0.40675402533E+03 -0.99594843790E+01  0.52319322231E+03  0.12699999809E+01 0.  1.
</event>
<event>
 5   0  0.2580244E-03  0.1217861E+04  0.7818609E-02  0.9097365E-01
        2   -1    0    0  501    0  0.00000000000E+00  0.00000000000E+00  0.34043858293E+03  0.34043858294E+03  0.25500000920E-02 0.  1.
       -2   -1    0    0    0  501  0.00000000000E+00  0.00000000000E+00 -0.10891721396E+04  0.10891721396E+04  0.25500000920E-02 0. -1.
    10030    2    1    2    0    0  0.00000000000E+00  0.00000000000E+00 -0.74873355670E+03  0.14296107226E+04  0.12178607799E+04 0.  0.
        1    1    3    3  502    0  0.15204088633E+03  0.25311626141E+03 -0.99951415462E+03  0.10422153416E+04  0.50400001928E-02 0. -1.
       -1    1    3    3    0  502 -0.15204088633E+03 -0.25311626141E+03  0.25078059792E+03  0.38739538101E+03  0.50400001928E-02 0.  1.
</event>
<event>
 5   0  0.2517023E-03  0.1200444E+04  0.7818609E-02  0.9112468E-01
       -2   -1    0    0    0  501  0.00000000000E+00  0.00000000000E+00  0.60784116032E+03  0.60784116032E+03  0.25500000920E-02 0.  1.
        2   -1    0    0  501    0  0.00000000000E+00  0.00000000000E+00 -0.59269787886E+03  0.59269787887E+03  0.25500000920E-02 0. -1.
    10030    2    1    2    0    0  0.00000000000E+00  0.00000000000E+00  0.15143281455E+02  0.12005390392E+04  0.12004435287E+04 0.  0.
        3    1    3    3  502    0 -0.53014092285E+03 -0.20295461306E+02 -0.27317271404E+03  0.59672828467E+03  0.10100000352E+00 0.  1.
       -3    1    3    3    0  502  0.53014092285E+03  0.20295461306E+02  0.28831599549E+03  0.60381075453E+03  0.10100000352E+00 0. -1.
</event>
<event>
 5   0  0.1423024E-03  0.1203225E+04  0.7818609E-02  0.9110039E-01
        1   -1    0    0  501    0  0.00000000000E+00  0.00000000000E+00  0.39604764748E+03  0.39604764751E+03  0.50400001928E-02 0.  1.
       -1   -1    0    0    0  501  0.00000000000E+00  0.00000000000E+00 -0.91387346219E+03  0.91387346221E+03  0.50400001928E-02 0. -1.
    10030    2    1    2    0    0  0.00000000000E+00  0.00000000000E+00 -0.51782581471E+03  0.13099211097E+04  0.12032247252E+04 0.  0.
        2    1    3    3  502    0  0.41542466550E+03  0.25788829615E+03 -0.64049852643E+03  0.80580542835E+03  0.25500000920E-02 0. -1.
       -2    1    3    3    0  502 -0.41542466550E+03 -0.25788829615E+03  0.12267271172E+03  0.50411568137E+03  0.25500000920E-02 0.  1.
</event>
<event>
 5   0  0.2517023E-03  0.1055818E+04  0.7818609E-02  0.9249357E-01
        2   -1    0    0  501    0  0.00000000000E+00  0.00000000000E+00  0.88362007208E+03  0.88362007209E+03  0.25500000920E-02 0. -1.
       -2   -1    0    0    0  501  0.00000000000E+00  0.00000000000E+00 -0.31539366038E+03  0.31539366039E+03  0.25500000920E-02 0.  1.
    10030    2    1    2    0    0  0.00000000000E+00  0.00000000000E+00  0.56822641170E+03  0.11990137325E+04  0.10558184862E+04 0.  0.
        3    1    3    3  502    0  0.31915939142E+03 -0.35438662903E+03  0.54116499670E+03  0.72132666928E+03  0.10100000352E+00 0.  1.
       -3    1    3    3    0  502 -0.31915939142E+03  0.35438662903E+03  0.27061414998E+02  0.47768706320E+03  0.10100000352E+00 0. -1.
</event>
<event>
 5   0  0.1455076E-03  0.1199192E+04  0.7818609E-02  0.9113564E-01
       -1   -1    0    0    0  501  0.00000000000E+00  0.00000000000E+00  0.45186832668E+03  0.45186832671E+03  0.50400001928E-02 0. -1.
        1   -1    0    0  501    0  0.00000000000E+00  0.00000000000E+00 -0.79561939955E+03  0.79561939956E+03  0.50400001928E-02 0.  1.
    10030    2    1    2    0    0  0.00000000000E+00  0.00000000000E+00 -0.34375107287E+03  0.12474877263E+04  0.11991917391E+04 0.  0.
        4    1    3    3  502    0 -0.58621368232E+03  0.10289229279E+03 -0.24746764927E+03  0.64457362309E+03  0.12699999809E+01 0.  1.
       -4    1    3    3    0  502  0.58621368232E+03 -0.10289229279E+03 -0.96283423595E+02  0.60291410318E+03  0.12699999809E+01 0. -1.
</event>
<event>
 5   0  0.9678750E-04  0.1199572E+04  0.7818609E-02  0.9113231E-01
       -4   -1    0    0    0  501  0.00000000000E+00  0.00000000000E+00  0.59681276418E+03  0.59681411544E+03  0.12699999809E+01 0.  1.
        4   -1    0    0  501    0  0.00000000000E+00  0.00000000000E+00 -0.60277143062E+03  0.60277276852E+03  0.12699999809E+01 0. -1.
    10030    2    1    2    0    0  0.00000000000E+00  0.00000000000E+00 -0.59586664343E+01  0.11995868840E+04  0.11995720847E+04 0.  0.
        5    1    3    3  502    0 -0.56989398395E+03  0.15267363797E+02  0.18332637710E+03  0.59886801207E+03  0.46999998093E+01 0.  1.
       -5    1    3    3    0  502  0.56989398395E+03 -0.15267363797E+02 -0.18928504353E+03  0.60071887189E+03  0.46999998093E+01 0. -1.
</event>
<event>
 5   0  0.1455076E-03  0.1205038E+04  0.7818609E-02  0.9108458E-01
       -1   -1    0    0    0  501  0.00000000000E+00  0.00000000000E+00  0.11147968612E+04  0.11147968613E+04  0.50400001928E-02 0.  1.
        1   -1    0    0  501    0  0.00000000000E+00  0.00000000000E+00 -0.32564626618E+03  0.32564626622E+03  0.50400001928E-02 0. -1.
    10030    2    1    2    0    0  0.00000000000E+00  0.00000000000E+00  0.78915059506E+03  0.14404431275E+04  0.12050384815E+04 0.  0.
        4    1    3    3  502    0 -0.24433421990E+02 -0.37830280814E+03 -0.16522375113E+03  0.41353416738E+03  0.12699999809E+01 0. -1.
       -4    1    3    3    0  502  0.24433421990E+02  0.37830280814E+03  0.95437434619E+03  0.10269089601E+04  0.12699999809E+01 0.  1.
</event>
<event>
 5   0  0.2580244E-03  0.1197584E+04  0.7818609E-02  0.9114973E-01
        2   -1    0    0  501    0  0.00000000000E+00  0.00000000000E+00  0.16348886512E+04  0.16348886512E+04  0.25500000920E-02 0.  1.
       -2   -1    0    0    0  501  0.00000000000E+00  0.00000000000E+00 -0.21931287890E+03  0.21931287892E+03  0.25500000920E-02 0. -1.
    10030    2    1    2    0    0  0.00000000000E+00  0.00000000000E+00  0.14155757723E+04  0.18542015301E+04  0.11975844635E+04 0.  0.
        1    1    3    3  502    0 -0.42161767568E+02  0.33073354980E+02  0.16311688498E+04  0.16320487977E+04  0.50400001928E-02 0.  1.
       -1    1    3    3    0  502  0.42161767568E+02 -0.33073354980E+02 -0.21559307748E+03  0.22215273245E+03  0.50400001928E-02 0. -1.
</event>
<event>
 5   0  0.1404833E-03  0.1411249E+04  0.7818609E-02  0.8945716E-01
       -1   -1    0    0    0  501  0.00000000000E+00  0.00000000000E+00  0.73579462389E+03  0.73579462391E+03  0.50400001928E-02 0.  1.
        1   -1    0    0  501    0  0.00000000000E+00  0.00000000000E+00 -0.67669116895E+03  0.67669116897E+03  0.50400001928E-02 0. -1.
    10030    2    1    2    0    0  0.00000000000E+00  0.00000000000E+00  0.59103454945E+02  0.14124857929E+04  0.14112487012E+04 0.  0.
        1    1    3    3  502    0 -0.62219509767E+03  0.29631878643E+03  0.18125689235E+03  0.71259078285E+03  0.50400001928E-02 0. -1.
       -1    1    3    3    0  502  0.62219509767E+03 -0.29631878643E+03 -0.12215343741E+03  0.69989501002E+03  0.50400001928E-02 0.  1.
</event>
<event>
 5   0  0.1423024E-03  0.1202327E+04  0.7818609E-02  0.9110822E-01
       -1   -1    0    0    0  501  0.00000000000E+00  0.00000000000E+00  0.23610749024E+03  0.23610749029E+03  0.50400001928E-02 0. -1.
        1   -1    0    0  501    0  0.00000000000E+00  0.00000000000E+00 -0.15306496146E+04  0.15306496146E+04  0.50400001928E-02 0.  1.
    10030    2    1    2    0    0  0.00000000000E+00  0.00000000000E+00 -0.12945421243E+04  0.17667571049E+04  0.12023274745E+04 0.  0.
        2    1    3    3  502    0  0.16295772066E+02  0.47857740938E+03 -0.11813418531E+04  0.12747040688E+04  0.25500000920E-02 0.  1.
       -2    1    3    3    0  502 -0.16295772066E+02 -0.47857740938E+03 -0.11320027121E+03  0.49205303613E+03  0.25500000920E-02 0. -1.
</event>
<event>
 5   0  0.2484507E-03  0.1168676E+04  0.7818609E-02  0.9140725E-01
        2   -1    0    0  501    0  0.00000000000E+00  0.00000000000E+00  0.12203521552E+04  0.12203521552E+04  0.25500000920E-02 0. -1.
       -2   -1    0    0    0  501  0.00000000000E+00  0.00000000000E+00 -0.27979717705E+03  0.27979717706E+03  0.25500000920E-02 0.  1.
    10030    2    1    2    0    0  0.00000000000E+00  0.00000000000E+00  0.94055497814E+03  0.15001493323E+04  0.11686763248E+04 0.  0.
        2    1    3    3  502    0  0.16315566952E+02  0.56104454100E+03  0.26165716241E+03  0.61927509667E+03  0.25500000920E-02 0. -1.
       -2    1    3    3    0  502 -0.16315566952E+02 -0.56104454100E+03  0.67889781573E+03  0.88087423558E+03  0.25500000920E-02 0.  1.
</event>
<event>
 5   0  0.2484507E-03  0.1165530E+04  0.7818609E-02  0.9143574E-01
        2   -1    0    0  501    0  0.00000000000E+00  0.00000000000E+00  0.10913447402E+04  0.10913447402E+04  0.25500000920E-02 0.  1.
       -2   -1    0    0    0  501  0.00000000000E+00  0.00000000000E+00 -0.31118971470E+03  0.31118971471E+03  0.25500000920E-02 0. -1.
    10030    2    1    2    0    0  0.00000000000E+00  0.00000000000E+00  0.78015502553E+03  0.14025344549E+04  0.11655303657E+04 0.  0.
        2    1    3    3  502    0 -0.52102867047E+03 -0.57886994924E+02  0.69638357704E+03  0.87164893507E+03  0.25500000920E-02 0.  1.
       -2    1    3    3    0  502  0.52102867047E+03  0.57886994924E+02  0.83771448491E+02  0.53088551988E+03  0.25500000920E-02 0. -1.
</event>
<event>
 5   0  0.2499890E-03  0.1202390E+04  0.7818609E-02  0.9110767E-01
       -2   -1    0    0    0  501  0.00000000000E+00  0.00000000000E+00  0.41548115812E+03  0.41548115813E+03  0.25500000920E-02 0.  1.
        2   -1    0    0  501    0  0.00000000000E+00  0.00000000000E+00 -0.86991968379E+03  0.86991968379E+03  0.25500000920E-02 0. -1.
    10030    2    1    2    0    0  0.00000000000E+00  0.00000000000E+00 -0.45443852567E+03  0.12854008419E+04  0.12023896834E+04 0.  0.
        5    1    3    3  502    0 -0.61656251567E+02  0.54662752024E+03  0.32030853338E+02  0.55104555601E+03  0.46999998093E+01 0.  1.
       -5    1    3    3    0  502  0.61656251567E+02 -0.54662752024E+03 -0.48646937900E+03  0.73435528591E+03  0.46999998093E+01 0. -1.
</event>
<event>
 5   0  0.2580244E-03  0.1208752E+04  0.7818609E-02  0.9105231E-01
        2   -1    0    0  501    0  0.00000000000E+00  0.00000000000E+00  0.11064726262E+04  0.11064726262E+04  0.25500000920E-02 0.  1.
       -2   -1    0    0    0  501  0.00000000000E+00  0.00000000000E+00 -0.33012119297E+03  0.33012119298E+03  0.25500000920E-02 0. -1.
    10030    2    1    2    0    0  0.00000000000E+00  0.00000000000E+00  0.77635143323E+03  0.14365938192E+04  0.12087515268E+04 0.  0.
        1    1    3    3  502    0  0.43897240784E+03  0.40159893326E+03  0.26188413050E+03  0.65004751817E+03  0.50400001928E-02 0. -1.
       -1    1    3    3    0  502 -0.43897240784E+03 -0.40159893326E+03  0.51446730273E+03  0.78654630102E+03  0.50400001928E-02 0.  1.
</event>
<event>
 5   0  0.1403154E-03  0.1207224E+04  0.7818609E-02  0.9106556E-01
        1   -1    0    0  501    0  0.00000000000E+00  0.00000000000E+00  0.24873840886E+04  0.24873840887E+04  0.50400001928E-02 0.  1.
       -1   -1    0    0    0  501  0.00000000000E+00  0.00000000000E+00 -0.14647826636E+03  0.14647826644E+03  0.50400001928E-02 0. -1.
    10030    2    1    2    0    0  0.00000000000E+00  0.00000000000E+00  0.23409058223E+04  0.26338623551E+04  0.12072244351E+04 0.  0.
        3    1    3    3  502    0  0.93075957168E+02  0.32137048368E+03  0.74341922934E+02  0.34273729486E+03  0.10100000352E+00 0. -1.
       -3    1    3    3    0  502 -0.93075957168E+02 -0.32137048368E+03  0.22665638994E+04  0.22911250602E+04  0.10100000352E+00 0.  1.
</event>
<event>
 5   0  0.2579442E-03  0.1193253E+04  0.7818609E-02  0.9118783E-01
       -2   -1    0    0    0  501  0.00000000000E+00  0.00000000000E+00  0.29280006382E+03  0.29280006383E+03  0.25500000920E-02 0.  1.
        2   -1    0    0  501    0  0.00000000000E+00  0.00000000000E+00 -0.12157214396E+04  0.12157214396E+04  0.25500000920E-02 0. -1.
    10030    2    1    2    0    0  0.00000000000E+00  0.00000000000E+00 -0.92292137578E+03  0.15085215034E+04  0.11932532256E+04 0.  0.
        4    1    3    3  502    0 -0.96517581217E+02  0.43556360460E+02  0.28082371340E+03  0.30012725789E+03  0.12699999809E+01 0.  1.
       -4    1    3    3    0  502  0.96517581217E+02 -0.43556360460E+02 -0.12037450892E+04  0.12083942455E+04  0.12699999809E+01 0. -1.
</event>
<event>
 5   0  0.2499890E-03  0.1146097E+04  0.7818609E-02  0.9161392E-01
       -2   -1    0    0    0  501  0.00000000000E+00  0.00000000000E+00  0.27441921893E+03  0.27441921894E+03  0.25500000920E-02 0.  1.
        2   -1    0    0  501    0  0.00000000000E+00  0.00000000000E+00 -0.11966521555E+04  0.11966521555E+04  0.25500000920E-02 0. -1.
    10030    2    1    2    0    0  0.00000000000E+00  0.00000000000E+00 -0.92223293656E+03  0.14710713744E+04  0.11460965925E+04 0.  0.
        5    1    3    3  502    0 -0.17942591748E+03 -0.42409859823E+03 -0.89885940274E+03  0.10099621759E+04  0.46999998093E+01 0.  1.
       -5    1    3    3    0  502  0.17942591748E+03  0.42409859823E+03 -0.23373533819E+02  0.46110919852E+03  0.46999998093E+01 0. -1.
</event>
<event>
 5   0  0.2517023E-03  0.1216835E+04  0.7818609E-02  0.9098247E-01
       -2   -1    0    0    0  501  0.00000000000E+00  0.00000000000E+00  0.40506294748E+03  0.40506294749E+03  0.25500000920E-02 0. -1.
        2   -1    0    0  501    0  0.00000000000E+00  0.00000000000E+00 -0.91386318350E+03  0.91386318350E+03  0.25500000920E-02 0.  1.
    10030    2    1    2    0    0  0.00000000000E+00  0.00000000000E+00 -0.50880023602E+03  0.13189261310E+04  0.12168354280E+04 0.  0.
        3    1    3    3  502    0 -0.30415304247E+03  0.51949598463E+03 -0.35004735084E+03  0.69636076090E+03  0.10100000352E+00 0.  1.
       -3    1    3    3    0  502  0.30415304247E+03 -0.51949598463E+03 -0.15875288518E+03  0.62256537010E+03  0.10100000352E+00 0. -1.
</event>
<event>
 5   0  0.1404833E-03  0.1199183E+04  0.7818609E-02  0.9113572E-01
       -1   -1    0    0    0  501  0.00000000000E+00  0.00000000000E+00  0.46934082855E+03  0.46934082858E+03  0.50400001928E-02 0. -1.
        1   -1    0    0  501    0  0.00000000000E+00  0.00000000000E+00 -0.76598918154E+03  0.76598918155E+03  0.50400001928E-02 0.  1.
    10030    2    1    2    0    0  0.00000000000E+00  0.00000000000E+00 -0.29664835299E+03  0.12353300101E+04  0.11991830505E+04 0.  0.
        1    1    3    3  502    0  0.34610705200E+03  0.10956128843E+03  0.34325616035E+03  0.49961841339E+03  0.50400001928E-02 0. -1.
       -1    1    3    3    0  502 -0.34610705200E+03 -0.10956128843E+03 -0.63990451333E+03  0.73571159674E+03  0.50400001928E-02 0.  1.
</event>
<event>
 5   0  0.9678750E-04  0.1196579E+04  0.7818609E-02  0.9115856E-01
        4   -1    0    0  501    0  0.00000000000E+00  0.00000000000E+00  0.83773946938E+03  0.83774043203E+03  0.12699999809E+01 0. -1.
       -4   -1    0    0    0  501  0.00000000000E+00  0.00000000000E+00 -0.42727892643E+03  0.42728081384E+03  0.12699999809E+01 0.  1.
    10030    2    1    2    0    0  0.00000000000E+00  0.00000000000E+00  0.41046054295E+03  0.12650212459E+04  0.11965788295E+04 0.  0.
        3    1    3    3  502    0 -0.40523777915E+03 -0.11403797490E+03 -0.24420701657E+03  0.48668202608E+03  0.10100000352E+00 0.  1.
       -3    1    3    3    0  502  0.40523777915E+03  0.11403797490E+03  0.65466755952E+03  0.77833921979E+03  0.10100000352E+00 0. -1.
</event>
<event>
 5   0  0.1423024E-03  0.1201757E+04  0.7818609E-02  0.9111320E-01
       -1   -1    0    0    0  501  0.00000000000E+00  0.00000000000E+00  0.25915365158E+03  0.25915365163E+03  0.50400001928E-02 0. -1.
        1   -1    0    0  501    0  0.00000000000E+00  0.00000000000E+00 -0.13932078484E+04  0.13932078484E+04  0.50400001928E-02 0.  1.
    10030    2    1    2    0    0  0.00000000000E+00  0.00000000000E+00 -0.11340541968E+04  0.16523615000E+04  0.12017568828E+04 0.  0.
        2    1    3    3  502    0  0.55121926799E+03 -0.18495901470E+03 -0.77556013290E+03  0.96930183032E+03  0.25500000920E-02 0. -1.
       -2    1    3    3    0  502 -0.55121926799E+03  0.18495901470E+03 -0.35849406394E+03  0.68305966972E+03  0.25500000920E-02 0.  1.
</event>
<event>
 5   0  0.2484507E-03  0.1194528E+04  0.7818609E-02  0.9117660E-01
        2   -1    0    0  501    0  0.00000000000E+00  0.00000000000E+00  0.14558800100E+04  0.14558800100E+04  0.25500000920E-02 0.  1.
       -2   -1    0    0    0  501  0.00000000000E+00  0.00000000000E+00 -0.24502303597E+03  0.24502303599E+03  0.25500000920E-02 0. -1.
    10030    2    1    2    0    0  0.00000000000E+00  0.00000000000E+00  0.12108569740E+04  0.17009030460E+04  0.11945277562E+04 0.  0.
        2    1    3    3  502    0  0.20657970088E+02 -0.41298717987E+03 -0.82414365430E+01  0.41358564258E+03  0.25500000920E-02 0. -1.
       -2    1    3    3    0  502 -0.20657970088E+02  0.41298717987E+03  0.12190984105E+04  0.12873174034E+04  0.25500000920E-02 0.  1.
</event>
<event>
 5   0  0.2579442E-03  0.1189312E+04  0.7818609E-02  0.9122264E-01
        2   -1    0    0  501    0  0.00000000000E+00  0.00000000000E+00  0.72614455312E+03  0.72614455313E+03  0.25500000920E-02 0. -1.
       -2   -1    0    0    0  501  0.00000000000E+00  0.00000000000E+00 -0.48697680465E+03  0.48697680466E+03  0.25500000920E-02 0.  1.
    10030    2    1    2    0    0  0.00000000000E+00  0.00000000000E+00  0.23916774847E+03  0.12131213578E+04  0.11893116567E+04 0.  0.
        4    1    3    3  502    0 -0.92141567495E+02  0.24755212258E+03 -0.42385007284E+03  0.49942228525E+03  0.12699999809E+01 0.  1.
       -4    1    3    3    0  502  0.92141567495E+02 -0.24755212258E+03  0.66301782132E+03  0.71369907253E+03  0.12699999809E+01 0. -1.
</event>
<event>
 5   0  0.2499890E-03  0.1280588E+04  0.7818609E-02  0.9045102E-01
       -2   -1    0    0    0  501  0.00000000000E+00  0.00000000000E+00  0.58009789195E+03  0.58009789196E+03  0.25500000920E-02 0.  1.
        2   -1    0    0  501    0  0.00000000000E+00  0.00000000000E+00 -0.70673631337E+03  0.70673631337E+03  0.25500000920E-02 0. -1.
    10030    2    1    2    0    0  0.00000000000E+00  0.00000000000E+00 -0.12663842142E+03  0.12868342053E+04  0.12805877487E+04 0.  0.
        5    1    3    3  502    0 -0.32074723115E+03  0.50315692899E+03 -0.29663373385E+03  0.66637777839E+03  0.46999998093E+01 0. -1.
       -5    1    3    3    0  502  0.32074723115E+03 -0.50315692899E+03  0.16999531243E+03  0.62045642694E+03  0.46999998093E+01 0.  1.
</event>
<event>
 5   0  0.1455076E-03  0.1200614E+04  0.7818609E-02  0.9112319E-01
       -1   -1    0    0    0  501  0.00000000000E+00  0.00000000000E+00  0.18947786757E+03  0.18947786764E+03  0.50400001928E-02 0. -1.
        1   -1    0    0  501    0  0.00000000000E+00  0.00000000000E+00 -0.19019034732E+04  0.19019034732E+04  0.50400001928E-02 0.  1.
    10030    2    1    2    0    0  0.00000000000E+00  0.00000000000E+00 -0.17124256056E+04  0.20913813408E+04  0.12006142003E+04 0.  0.
        4    1    3    3  502    0 -0.26773985166E+03  0.40696899261E+03 -0.24515012308E+03  0.54535179918E+03  0.12699999809E+01 0.  1.
       -4    1    3    3    0  502  0.26773985166E+03 -0.40696899261E+03 -0.14672754825E+04  0.15460295417E+04  0.12699999809E+01 0. -1.
</event>
<event>
 5   0  0.1455076E-03  0.1227374E+04  0.7818609E-02  0.9089228E-01
       -1   -1    0    0    0  501  0.00000000000E+00  0.00000000000E+00  0.93781394091E+03  0.93781394092E+03  0.50400001928E-02 0. -1.
        1   -1    0    0  501    0  0.00000000000E+00  0.00000000000E+00 -0.40158465555E+03  0.40158465558E+03  0.50400001928E-02 0.  1.
    10030    2    1    2    0    0  0.00000000000E+00  0.00000000000E+00  0.53622928536E+03  0.13393985965E+04  0.12273739258E+04 0.  0.
        4    1    3    3  502    0  0.51083487305E+03  0.32879334804E+03  0.36295327456E+03  0.70766801938E+03  0.12699999809E+01 0. -1.
       -4    1    3    3    0  502 -0.51083487305E+03 -0.32879334804E+03  0.17327601081E+03  0.63173057712E+03  0.12699999809E+01 0.  1.
</event>
<event>
 5   0  0.2484507E-03  0.1189197E+04  0.7818609E-02  0.9122365E-01
        2   -1    0    0  501    0  0.00000000000E+00  0.00000000000E+00  0.15010884491E+04  0.15010884491E+04  0.25500000920E-02 0.  1.
       -2   -1    0    0    0  501  0.00000000000E+00  0.00000000000E+00 -0.23552739854E+03  0.23552739856E+03  0.25500000920E-02 0. -1.
    10030    2    1    2    0    0  0.00000000000E+00  0.00000000000E+00  0.12655610506E+04  0.17366158477E+04  0.11891971366E+04 0.  0.
        2    1    3    3  502    0  0.19964902943E+03  0.12600075282E+01  0.14506755504E+04  0.14643499838E+04  0.25500000920E-02 0.  1.
       -2    1    3    3    0  502 -0.19964902943E+03 -0.12600075282E+01 -0.18511449982E+03  0.27226586386E+03  0.25500000920E-02 0. -1.
</event>
<event>
 5   0  0.2580244E-03  0.1194229E+04  0.7818609E-02  0.9117923E-01
        2   -1    0    0  501    0  0.00000000000E+00  0.00000000000E+00  0.61019216958E+03  0.61019216958E+03  0.25500000920E-02 0. -1.
       -2   -1    0    0    0  501  0.00000000000E+00  0.00000000000E+00 -0.58431751144E+03  0.58431751144E+03  0.25500000920E-02 0.  1.
    10030    2    1    2    0    0  0.00000000000E+00  0.00000000000E+00  0.25874658144E+02  0.11945096810E+04  0.11942294085E+04 0.  0.
        1    1    3    3  502    0  0.33713735068E+03 -0.39408719954E+03  0.30894538425E+03  0.60366676614E+03  0.50400001928E-02 0. -1.
       -1    1    3    3    0  502 -0.33713735068E+03  0.39408719954E+03 -0.28307072611E+03  0.59084291489E+03  0.50400001928E-02 0.  1.
</event>
<event>
 5   0  0.2580244E-03  0.1214571E+04  0.7818609E-02  0.9100197E-01
       -2   -1    0    0    0  501  0.00000000000E+00  0.00000000000E+00  0.16972210132E+03  0.16972210134E+03  0.25500000920E-02 0. -1.
        2   -1    0    0  501    0  0.00000000000E+00  0.00000000000E+00 -0.21729378266E+04  0.21729378266E+04  0.25500000920E-02 0.  1.
    10030    2    1    2    0    0  0.00000000000E+00  0.00000000000E+00 -0.20032157253E+04  0.23426599280E+04  0.12145708279E+04 0.  0.
        1    1    3    3  502    0 -0.32752676853E+03 -0.50972077102E+03 -0.92192906187E+03  0.11031963758E+04  0.50400001928E-02 0.  1.
       -1    1    3    3    0  502  0.32752676853E+03  0.50972077102E+03 -0.10812866634E+04  0.12394635521E+04  0.50400001928E-02 0. -1.
</event>
<event>
 5   0  0.1423024E-03  0.1196826E+04  0.7818609E-02  0.9115640E-01
       -1   -1    0    0    0  501  0.00000000000E+00  0.00000000000E+00  0.38662218496E+03  0.38662218500E+03  0.50400001928E-02 0. -1.
        1   -1    0    0  501    0  0.00000000000E+00  0.00000000000E+00 -0.92622193841E+03  0.92622193842E+03  0.50400001928E-02 0.  1.
    10030    2    1    2    0    0  0.00000000000E+00  0.00000000000E+00 -0.53959975344E+03  0.13128441234E+04  0.11968257177E+04 0.  0.
        2    1    3    3  502    0  0.13753927755E+03 -0.13626162382E+03 -0.89091666365E+03  0.91171091063E+03  0.25500000920E-02 0.  1.
       -2    1    3    3    0  502 -0.13753927755E+03  0.13626162382E+03  0.35131691021E+03  0.40113321278E+03  0.25500000920E-02 0. -1.
</event>
<event>
 5   0  0.2499890E-03  0.1200036E+04  0.7818609E-02  0.9112825E-01
        2   -1    0    0  501    0  0.00000000000E+00  0.00000000000E+00  0.10745337101E+04  0.10745337101E+04  0.25500000920E-02 0.  1.
       -2   -1    0    0    0  501  0.00000000000E+00  0.00000000000E+00 -0.33504890529E+03  0.33504890530E+03  0.25500000920E-02 0. -1.
    10030    2    1    2    0    0  0.00000000000E+00  0.00000000000E+00  0.73948480483E+03  0.14095826154E+04  0.12000355716E+04 0.  0.
        5    1    3    3  502    0  0.52971659486E+03  0.22692655704E+03  0.17352883890E+03  0.60185519944E+03  0.46999998093E+01 0. -1.
       -5    1    3    3    0  502 -0.52971659486E+03 -0.22692655704E+03  0.56595596593E+03  0.80772741598E+03  0.46999998093E+01 0.  1.
</event>
<event>
 5   0  0.1455076E-03  0.1120924E+04  0.7818609E-02  0.9185034E-01
        1   -1    0    0  501    0  0.00000000000E+00  0.00000000000E+00  0.13191296656E+04  0.13191296656E+04  0.50400001928E-02 0. -1.
       -1   -1    0    0    0  501  0.00000000000E+00  0.00000000000E+00 -0.23812496251E+03  0.23812496257E+03  0.50400001928E-02 0.  1.
    10030    2    1    2    0    0  0.00000000000E+00  0.00000000000E+00  0.10810047031E+04  0.15572546282E+04  0.11209240870E+04 0.  0.
        4    1    3    3  502    0 -0.24762815647E+03  0.24041236106E+03 -0.72975405842E+02  0.35276738792E+03  0.12699999809E+01 0.  1.
       -4    1    3    3    0  502  0.24762815647E+03 -0.24041236106E+03  0.11539801090E+04  0.12044872403E+04  0.12699999809E+01 0. -1.
</event>
<event>
 5   0  0.1404833E-03  0.1184719E+04  0.7818609E-02  0.9126338E-01
        1   -1    0    0  501    0  0.00000000000E+00  0.00000000000E+00  0.12199779459E+04  0.12199779459E+04  0.50400001928E-02 0.  1.
       -1   -1    0    0    0  501  0.00000000000E+00  0.00000000000E+00 -0.28761972089E+03  0.28761972093E+03  0.50400001928E-02 0. -1.
    10030    2    1    2    0    0  0.00000000000E+00  0.00000000000E+00  0.93235822503E+03  0.15075976669E+04  0.11847188972E+04 0.  0.
        1    1    3    3  502    0  0.31685091679E+03  0.88080487847E+02 -0.16077848151E+03  0.36606337696E+03  0.50400001928E-02 0. -1.
       -1    1    3    3    0  502 -0.31685091679E+03 -0.88080487847E+02  0.10931367065E+04  0.11415342899E+04  0.50400001928E-02 0.  1.
</event>
<event>
 5   0  0.1404833E-03  0.1206915E+04  0.7818609E-02  0.9106825E-01
        1   -1    0    0  501    0  0.00000000000E+00  0.00000000000E+00  0.29405133872E+03  0.29405133876E+03  0.50400001928E-02 0. -1.
       -1   -1    0    0    0  501  0.00000000000E+00  0.00000000000E+00 -0.12384267508E+04  0.12384267508E+04  0.50400001928E-02 0.  1.
    10030    2    1    2    0    0  0.00000000000E+00  0.00000000000E+00 -0.94437541209E+03  0.15324780896E+04  0.12069151487E+04 0.  0.
        1    1    3    3  502    0 -0.77305910120E+02  0.27201409119E+03 -0.11490874614E+04  0.11833722422E+04  0.50400001928E-02 0.  1.
       -1    1    3    3    0  502  0.77305910120E+02 -0.27201409119E+03  0.20471204931E+03  0.34910584742E+03  0.50400001928E-02 0. -1.
</event>
<event>
 5   0  0.1423024E-03  0.1087935E+04  0.7818609E-02  0.9217032E-01
       -1   -1    0    0    0  501  0.00000000000E+00  0.00000000000E+00  0.25029741247E+03  0.25029741252E+03  0.50400001928E-02 0.  1.
        1   -1    0    0  501    0  0.00000000000E+00  0.00000000000E+00 -0.11821952138E+04  0.11821952138E+04  0.50400001928E-02 0. -1.
    10030    2    1    2    0    0  0.00000000000E+00  0.00000000000E+00 -0.93189780134E+03  0.14324926264E+04  0.10879345626E+04 0.  0.
        2    1    3    3  502    0 -0.11124648863E+03 -0.28632070252E+03  0.12517118770E+03  0.33169738039E+03  0.25500000920E-02 0.  1.
       -2    1    3    3    0  502  0.11124648863E+03  0.28632070252E+03 -0.10570689890E+04  0.11007952460E+04  0.25500000920E-02 0. -1.
</event>
<event>
 5   0  0.1404833E-03  0.1189505E+04  0.7818609E-02  0.9122093E-01
        1   -1    0    0  501    0  0.00000000000E+00  0.00000000000E+00  0.52328367873E+03  0.52328367875E+03  0.50400001928E-02 0.  1.
       -1   -1    0    0    0  501  0.00000000000E+00  0.00000000000E+00 -0.67598186404E+03  0.67598186406E+03  0.50400001928E-02 0. -1.
    10030    2    1    2    0    0  0.00000000000E+00  0.00000000000E+00 -0.15269818531E+03  0.11992655428E+04  0.11895045634E+04 0.  0.
        1    1    3    3  502    0 -0.57900198589E+03 -0.55200818446E+01 -0.21331862809E+03  0.61707261167E+03  0.50400001928E-02 0. -1.
       -1    1    3    3    0  502  0.57900198589E+03  0.55200818446E+01  0.60620442775E+02  0.58219293114E+03  0.50400001928E-02 0.  1.
</event>
<event>
 5   0  0.2517023E-03  0.1165292E+04  0.7818609E-02  0.9143791E-01
       -2   -1    0    0    0  501  0.00000000000E+00  0.00000000000E+00  0.30266545426E+03  0.30266545428E+03  0.25500000920E-02 0. -1.
        2   -1    0    0  501    0  0.00000000000E+00  0.00000000000E+00 -0.11216215154E+04  0.11216215154E+04  0.25500000920E-02 0.  1.
    10030    2    1    2    0    0  0.00000000000E+00  0.00000000000E+00 -0.81895606114E+03  0.14242869697E+04  0.11652915266E+04 0.  0.
        3    1    3    3  502    0  0.79243586316E+02  0.44306508226E+02 -0.11129228165E+04  0.11166198182E+04  0.10100000352E+00 0.  1.
       -3    1    3    3    0  502 -0.79243586316E+02 -0.44306508226E+02  0.29396675538E+03  0.30766715150E+03  0.10100000352E+00 0. -1.
</event>
<event>
 5   0  0.1403154E-03  0.1199102E+04  0.7818609E-02  0.9113643E-01
       -1   -1    0    0    0  501  0.00000000000E+00  0.00000000000E+00  0.23900094461E+03  0.23900094466E+03  0.50400001928E-02 0.  1.
        1   -1    0    0  501    0  0.00000000000E+00  0.00000000000E+00 -0.15040154948E+04  0.15040154948E+04  0.50400001928E-02 0. -1.
    10030    2    1    2    0    0  0.00000000000E+00  0.00000000000E+00 -0.12650145502E+04  0.17430164395E+04  0.11991015370E+04 0.  0.
        3    1    3    3  502    0  0.32451798733E+03 -0.30357469770E+03 -0.47458921947E+02  0.44690254045E+03  0.10100000352E+00 0.  1.
       -3    1    3    3    0  502 -0.32451798733E+03  0.30357469770E+03 -0.12175556282E+04  0.12961138990E+04  0.10100000352E+00 0. -1.
</event>
<event>
 5   0  0.2579442E-03  0.1203698E+04  0.7818609E-02  0.9109626E-01
       -2   -1    0    0    0  501  0.00000000000E+00  0.00000000000E+00  0.33327542830E+03  0.33327542831E+03  0.25500000920E-02 0.  1.
        2   -1    0    0  501    0  0.00000000000E+00  0.00000000000E+00 -0.10868553420E+04  0.10868553420E+04  0.25500000920E-02 0. -1.
    10030    2    1    2    0    0  0.00000000000E+00  0.00000000000E+00 -0.75357991374E+03  0.14201307704E+04  0.12036979349E+04 0.  0.
        4    1    3    3  502    0 -0.31145741057E+03  0.48841364539E+03 -0.18412728904E+03  0.60783063354E+03  0.12699999809E+01 0.  1.
       -4    1    3    3    0  502  0.31145741057E+03 -0.48841364539E+03 -0.56945262470E+03  0.81230013682E+03  0.12699999809E+01 0. -1.
</event>
<event>
 5   0  0.2517023E-03  0.1205307E+04  0.7818609E-02  0.9108224E-01
       -2   -1    0    0    0  501  0.00000000000E+00  0.00000000000E+00  0.22331858261E+03  0.22331858262E+03  0.25500000920E-02 0.  1.
        2   -1    0    0  501    0  0.00000000000E+00  0.00000000000E+00 -0.16263368475E+04  0.16263368475E+04  0.25500000920E-02 0. -1.
    10030    2    1    2    0    0  0.00000000000E+00  0.00000000000E+00 -0.14030182649E+04  0.18496554301E+04  0.12053069976E+04 0.  0.
        3    1    3    3  502    0 -0.40520905336E+03 -0.32767243170E+03 -0.23698703258E+03  0.57247398477E+03  0.10100000352E+00 0.  1.
       -3    1    3    3    0  502  0.40520905336E+03  0.32767243170E+03 -0.11660312323E+04  0.12771814454E+04  0.10100000352E+00 0. -1.
</event>
<event>
 5   0  0.2484507E-03  0.1212814E+04  0.7818609E-02  0.9101714E-01
       -2   -1    0    0    0  501  0.00000000000E+00  0.00000000000E+00  0.15655562474E+03  0.15655562476E+03  0.25500000920E-02 0. -1.
        2   -1    0    0  501    0  0.00000000000E+00  0.00000000000E+00 -0.23488747659E+04  0.23488747659E+04  0.25500000920E-02 0.  1.
    10030    2    1    2    0    0  0.00000000000E+00  0.00000000000E+00 -0.21923191412E+04  0.25054303907E+04  0.12128141761E+04 0.  0.
        2    1    3    3  502    0  0.43350023518E+03  0.42200161228E+03 -0.11818775815E+04  0.13277207660E+04  0.25500000920E-02 0.  1.
       -2    1    3    3    0  502 -0.43350023518E+03 -0.42200161228E+03 -0.10104415597E+04  0.11777096247E+04  0.25500000920E-02 0. -1.
</event>
<event>
 5   0  0.1469851E-03  0.1173516E+04  0.7818609E-02  0.9136359E-01
       -1   -1    0    0    0  501  0.00000000000E+00  0.00000000000E+00  0.29446046109E+03  0.29446046113E+03  0.50400001928E-02 0. -1.
        1   -1    0    0  501    0  0.00000000000E+00  0.00000000000E+00 -0.11692064475E+04  0.11692064475E+04  0.50400001928E-02 0.  1.
    10030    2    1    2    0    0  0.00000000000E+00  0.00000000000E+00 -0.87474598640E+03  0.14636669086E+04  0.11735162030E+04 0.  0.
        5    1    3    3  502    0 -0.52579784195E+03 -0.25887416738E+03 -0.40245504314E+03  0.71096508837E+03  0.46999998093E+01 0. -1.
       -5    1    3    3    0  502  0.52579784195E+03  0.25887416738E+03 -0.47229094327E+03  0.75270182026E+03  0.46999998093E+01 0.  1.
</event>
<event>
 5   0  0.1404833E-03  0.1180321E+04  0.7818609E-02  0.9130258E-01
        1   -1    0    0  501    0  0.00000000000E+00  0.00000000000E+00  0.96007751267E+03  0.96007751269E+03  0.50400001928E-02 0.  1.
       -1   -1    0    0    0  501  0.00000000000E+00  0.00000000000E+00 -0.36277236233E+03  0.36277236237E+03  0.50400001928E-02 0. -1.
    10030    2    1    2    0    0  0.00000000000E+00  0.00000000000E+00  0.59730515034E+03  0.13228498751E+04  0.11803212907E+04 0.  0.
        1    1    3    3  502    0  0.49922112301E+03 -0.15467305857E+03  0.60587843668E+03  0.80014633960E+03  0.50400001928E-02 0.  1.
       -1    1    3    3    0  502 -0.49922112301E+03  0.15467305857E+03 -0.85732863441E+01  0.52270353545E+03  0.50400001928E-02 0. -1.
</event>
<event>
 5   0  0.2579442E-03  0.1194288E+04  0.7818609E-02  0.9117871E-01
        2   -1    0    0  501    0  0.00000000000E+00  0.00000000000E+00  0.83311886494E+03  0.83311886494E+03  0.25500000920E-02 0.  1.
       -2   -1    0    0    0  501  0.00000000000E+00  0.00000000000E+00 -0.42800733354E+03  0.42800733355E+03  0.25500000920E-02 0. -1.
    10030    2    1    2    0    0  0.00000000000E+00  0.00000000000E+00  0.40511153139E+03  0.12611261985E+04  0.11942880455E+04 0.  0.
        4    1    3    3  502    0 -0.80804743261E+02 -0.20661670552E+03 -0.38287128265E+03  0.44250638584E+03  0.12699999809E+01 0. -1.
       -4    1    3    3    0  502  0.80804743261E+02  0.20661670552E+03  0.78798281404E+03  0.81861981265E+03  0.12699999809E+01 0.  1.
</event>
<event>
 5   0  0.2579442E-03  0.1258884E+04  0.7818609E-02  0.9062822E-01
        2   -1    0    0  501    0  0.00000000000E+00  0.00000000000E+00  0.16104157236E+04  0.16104157236E+04  0.25500000920E-02 0.  1.
       -2   -1    0    0    0  501  0.00000000000E+00  0.00000000000E+00 -0.24602164881E+03  0.24602164882E+03  0.25500000920E-02 0. -1.
    10030    2    1    2    0    0  0.00000000000E+00  0.00000000000E+00  0.13643940748E+04  0.18564373724E+04  0.12588838415E+04 0.  0.
        4    1    3    3  502    0  0.50423326024E+03 -0.19054078263E+03  0.20289877402E+03  0.57595702616E+03  0.12699999809E+01 0. -1.
       -4    1    3    3    0  502 -0.50423326024E+03  0.19054078263E+03  0.11614953008E+04  0.12804803463E+04  0.12699999809E+01 0.  1.
</event>
<event>
 5   0  0.2499890E-03  0.1210999E+04  0.7818609E-02  0.9103283E-01
       -2   -1    0    0    0  501  0.00000000000E+00  0.00000000000E+00  0.32908836378E+03  0.32908836379E+03  0.25500000920E-02 0. -1.
        2   -1    0    0  501    0  0.00000000000E+00  0.00000000000E+00 -0.11140770640E+04  0.11140770640E+04  0.25500000920E-02 0.  1.
    10030    2    1    2    0    0  0.00000000000E+00  0.00000000000E+00 -0.78498870025E+03  0.14431654278E+04  0.12109992537E+04 0.  0.
        5    1    3    3  502    0 -0.88594393927E+02 -0.46685486927E+02 -0.11041177958E+04  0.11086598659E+04  0.46999998093E+01 0.  1.
       -5    1    3    3    0  502  0.88594393927E+02  0.46685486927E+02  0.31912909554E+03  0.33450556190E+03  0.46999998093E+01 0. -1.
</event>
<event>
 5   0  0.2517023E-03  0.1204791E+04  0.7818609E-02  0.9108673E-01
        2   -1    0    0  501    0  0.00000000000E+00  0.00000000000E+00  0.15635331406E+04  0.15635331406E+04  0.25500000920E-02 0. -1.
       -2   -1    0    0    0  501  0.00000000000E+00  0.00000000000E+00 -0.23208990880E+03  0.23208990882E+03  0.25500000920E-02 0.  1.
    10030    2    1    2    0    0  0.00000000000E+00  0.00000000000E+00  0.13314432318E+04  0.17956230494E+04  0.12047908765E+04 0.  0.
        3    1    3    3  502    0  0.59722526597E+02  0.59876473014E+03  0.62371787085E+03  0.86666601113E+03  0.10100000352E+00 0.  1.
       -3    1    3    3    0  502 -0.59722526597E+02 -0.59876473014E+03  0.70772536094E+03  0.92895703827E+03  0.10100000352E+00 0. -1.
</event>
<event>
 5   0  0.2579442E-03  0.1190181E+04  0.7818609E-02  0.9121494E-01
        2   -1    0    0  501    0  0.00000000000E+00  0.00000000000E+00  0.13715931686E+04  0.13715931686E+04  0.25500000920E-02 0. -1.
       -2   -1    0    0    0  501  0.00000000000E+00  0.00000000000E+00 -0.25819096032E+03  0.25819096033E+03  0.25500000920E-02 0.  1.
    10030    2    1    2    0    0  0.00000000000E+00  0.00000000000E+00  0.11134022083E+04  0.16297841289E+04  0.11901814271E+04 0.  0.
        4    1    3    3  502    0  0.65188960872E+02 -0.33716049219E+03  0.12222209975E+04  0.12695481786E+04  0.12699999809E+01 0. -1.
       -4    1    3    3    0  502 -0.65188960872E+02  0.33716049219E+03 -0.10881878925E+03  0.36023595033E+03  0.12699999809E+01 0.  1.
</event>
<event>
 5   0  0.1469851E-03  0.1200491E+04  0.7818609E-02  0.9112427E-01
       -1   -1    0    0    0  501  0.00000000000E+00  0.00000000000E+00  0.36434820465E+03  0.36434820469E+03  0.50400001928E-02 0.  1.
        1   -1    0    0  501    0  0.00000000000E+00  0.00000000000E+00 -0.98887481575E+03  0.98887481576E+03  0.50400001928E-02 0. -1.
    10030    2    1    2    0    0  0.00000000000E+00  0.00000000000E+00 -0.62452661110E+03  0.13532230205E+04  0.12004911724E+04 0.  0.
        5    1    3    3  502    0  0.42529099965E+02 -0.45542256710E+03 -0.75036694291E+03  0.87880093194E+03  0.46999998093E+01 0. -1.
       -5    1    3    3    0  502 -0.42529099965E+02  0.45542256710E+03  0.12584033181E+03  0.47442208852E+03  0.46999998093E+01 0.  1.
</event>
<event>
 5   0  0.1423024E-03  0.1203163E+04  0.7818609E-02  0.9110093E-01
        1   -1    0    0  501    0  0.00000000000E+00  0.00000000000E+00  0.86715310287E+03  0.86715310288E+03  0.50400001928E-02 0. -1.
       -1   -1    0    0    0  501  0.00000000000E+00  0.00000000000E+00 -0.41734288189E+03  0.41734288192E+03  0.50400001928E-02 0.  1.
    10030    2    1    2    0    0  0.00000000000E+00  0.00000000000E+00  0.44981022098E+03  0.12844959848E+04  0.12031627903E+04 0.  0.
        2    1    3    3  502    0  0.19686357493E+03  0.48179596628E+03  0.54699043766E+03  0.75503719058E+03  0.25500000920E-02 0. -1.
       -2    1    3    3    0  502 -0.19686357493E+03 -0.48179596628E+03 -0.97180216679E+02  0.52945879422E+03  0.25500000920E-02 0.  1.
</event>
<event>
 5   0  0.9678750E-04  0.1209610E+04  0.7818609E-02  0.9104486E-01
        3   -1    0    0  501    0  0.00000000000E+00  0.00000000000E+00  0.14309623166E+03  0.14309626730E+03  0.10100000352E+00 0. -1.
       -3   -1    0    0    0  501  0.00000000000E+00  0.00000000000E+00 -0.25562454721E+04  0.25562454741E+04  0.10100000352E+00 0.  1.
    10030    2    1    2    0    0  0.00000000000E+00  0.00000000000E+00 -0.24131492405E+04  0.26993417414E+04  0.12096100943E+04 0.  0.
        5    1    3    3  502    0 -0.52258703194E+03  0.14317269539E+03 -0.18060828075E+04  0.18856173589E+04  0.46999998093E+01 0.  1.
       -5    1    3    3    0  502  0.52258703194E+03 -0.14317269539E+03 -0.60706643292E+03  0.81372438248E+03  0.46999998093E+01 0. -1.
</event>
<event>
 5   0  0.2579442E-03  0.1207954E+04  0.7818609E-02  0.9105923E-01
        2   -1    0    0  501    0  0.00000000000E+00  0.00000000000E+00  0.72171710196E+03  0.72171710196E+03  0.25500000920E-02 0. -1.
       -2   -1    0    0    0  501  0.00000000000E+00  0.00000000000E+00 -0.50544457534E+03  0.50544457534E+03  0.25500000920E-02 0.  1.
    10030    2    1    2    0    0  0.00000000000E+00  0.00000000000E+00  0.21627252662E+03  0.12271616773E+04  0.12079536318E+04 0.  0.
        4    1    3    3  502    0  0.85507183786E+01  0.30585877046E+03 -0.42087787522E+03  0.52034844191E+03  0.12699999809E+01 0.  1.
       -4    1    3    3    0  502 -0.85507183786E+01 -0.30585877046E+03  0.63715040185E+03  0.70681323539E+03  0.12699999809E+01 0. -1.
</event>
<event>
 5   0  0.2517023E-03  0.1221535E+04  0.7818609E-02  0.9094213E-01
        2   -1    0    0  501    0  0.00000000000E+00  0.00000000000E+00  0.97186095836E+03  0.97186095837E+03  0.25500000920E-02 0. -1.
       -2   -1    0    0    0  501  0.00000000000E+00  0.00000000000E+00 -0.38383783948E+03  0.38383783949E+03  0.25500000920E-02 0.  1.
    10030    2    1    2    0    0  0.00000000000E+00  0.00000000000E+00  0.58802311888E+03  0.13556987979E+04  0.12215351170E+04 0.  0.
        3    1    3    3  502    0 -0.49747768251E+03  0.90857910086E+02 -0.86092213132E+02  0.51298253750E+03  0.10100000352E+00 0.  1.
       -3    1    3    3    0  502  0.49747768251E+03 -0.90857910086E+02  0.67411533201E+03  0.84271626036E+03  0.10100000352E+00 0. -1.
</event>
<event>
 5   0  0.9678750E-04  0.1176207E+04  0.7818609E-02  0.9133942E-01
       -3   -1    0    0    0  501  0.00000000000E+00  0.00000000000E+00  0.97349863226E+03  0.97349863750E+03  0.10100000352E+00 0. -1.
        3   -1    0    0  501    0  0.00000000000E+00  0.00000000000E+00 -0.35528090803E+03  0.35528092238E+03  0.10100000352E+00 0.  1.
    10030    2    1    2    0    0  0.00000000000E+00  0.00000000000E+00  0.61821772424E+03  0.13287795599E+04  0.11762065993E+04 0.  0.
        2    1    3    3  502    0  0.99657939338E+02  0.47613691643E+03  0.68247520927E+03  0.83809932546E+03  0.25500000920E-02 0. -1.
       -2    1    3    3    0  502 -0.99657939338E+02 -0.47613691643E+03 -0.64257485033E+02  0.49068023442E+03  0.25500000920E-02 0.  1.
</event>
<event>
 5   0  0.2484507E-03  0.1195040E+04  0.7818609E-02  0.9117209E-01
       -2   -1    0    0    0  501  0.00000000000E+00  0.00000000000E+00  0.30078506008E+03  0.30078506009E+03  0.25500000920E-02 0.  1.
        2   -1    0    0  501    0  0.00000000000E+00  0.00000000000E+00 -0.11869942487E+04  0.11869942487E+04  0.25500000920E-02 0. -1.
    10030    2    1    2    0    0  0.00000000000E+00  0.00000000000E+00 -0.88620918866E+03  0.14877793088E+04  0.11950399766E+04 0.  0.
        2    1    3    3  502    0 -0.27638455065E+03  0.18529289834E+03  0.17476321271E+03  0.37585111219E+03  0.25500000920E-02 0.  1.
       -2    1    3    3    0  502  0.27638455065E+03 -0.18529289834E+03 -0.10609724014E+04  0.11119281966E+04  0.25500000920E-02 0. -1.
</event>
<event>
 5   0  0.2579442E-03  0.1192998E+04  0.7818609E-02  0.9119008E-01
        2   -1    0    0  501    0  0.00000000000E+00  0.00000000000E+00  0.12588624267E+04  0.12588624267E+04  0.25500000920E-02 0.  1.
       -2   -1    0    0    0  501  0.00000000000E+00  0.00000000000E+00 -0.28264491598E+03  0.28264491600E+03  0.25500000920E-02 0. -1.
    10030    2    1    2    0    0  0.00000000000E+00  0.00000000000E+00  0.97621751075E+03  0.15415073427E+04  0.11929980132E+04 0.  0.
        4    1    3    3  502    0 -0.13850751315E+03  0.48182430439E+03  0.90574927919E+03  0.10352402432E+04  0.12699999809E+01 0.  1.
       -4    1    3    3    0  502  0.13850751315E+03 -0.48182430439E+03  0.70468231558E+02  0.50626709952E+03  0.12699999809E+01 0. -1.
</event>
<event>
 5   0  0.1404833E-03  0.1201931E+04  0.7818609E-02  0.9111168E-01
        1   -1    0    0  501    0  0.00000000000E+00  0.00000000000E+00  0.67596487623E+03  0.67596487625E+03  0.50400001928E-02 0.  1.
       -1   -1    0    0    0  501  0.00000000000E+00  0.00000000000E+00 -0.53428777879E+03  0.53428777881E+03  0.50400001928E-02 0. -1.
    10030    2    1    2    0    0  0.00000000000E+00  0.00000000000E+00  0.14167709745E+03  0.12102526551E+04  0.12019313995E+04 0.  0.
        1    1    3    3  502    0 -0.43922983034E+03 -0.26478585127E+03  0.38625696149E+03  0.64205048962E+03  0.50400001928E-02 0.  1.
       -1    1    3    3    0  502  0.43922983034E+03  0.26478585127E+03 -0.24457986404E+03  0.56820216544E+03  0.50400001928E-02 0. -1.
</event>
<event>
 5   0  0.2484507E-03  0.1237354E+04  0.7818609E-02  0.9080774E-01
        2   -1    0    0  501    0  0.00000000000E+00  0.00000000000E+00  0.64994531896E+03  0.64994531896E+03  0.25500000920E-02 0.  1.
       -2   -1    0    0    0  501  0.00000000000E+00  0.00000000000E+00 -0.58891313813E+03  0.58891313813E+03  0.25500000920E-02 0. -1.
    10030    2    1    2    0    0  0.00000000000E+00  0.00000000000E+00  0.61032180828E+02  0.12388584571E+04  0.12373541731E+04 0.  0.
        2    1    3    3  502    0  0.12990543508E+03 -0.38024793806E+02  0.63493869728E+03  0.64920601994E+03  0.25500000920E-02 0.  1.
       -2    1    3    3    0  502 -0.12990543508E+03  0.38024793806E+02 -0.57390651646E+03  0.58965243716E+03  0.25500000920E-02 0. -1.
</event>
<event>
 5   0  0.1469851E-03  0.1193640E+04  0.7818609E-02  0.9118442E-01
       -1   -1    0    0    0  501  0.00000000000E+00  0.00000000000E+00  0.24095410651E+04  0.24095410652E+04  0.50400001928E-02 0.  1.
        1   -1    0    0  501    0  0.00000000000E+00  0.00000000000E+00 -0.14782658927E+03  0.14782658936E+03  0.50400001928E-02 0. -1.
    10030    2    1    2    0    0  0.00000000000E+00  0.00000000000E+00  0.22617144759E+04  0.25573676545E+04  0.11936402096E+04 0.  0.
        5    1    3    3  502    0  0.63568120837E+02 -0.95664131003E+02  0.23855976400E+04  0.23883657010E+04  0.46999998093E+01 0.  1.
       -5    1    3    3    0  502 -0.63568120837E+02  0.95664131003E+02 -0.12388316408E+03  0.16900195351E+03  0.46999998093E+01 0. -1.
</event>
<event>
 5   0  0.9678750E-04  0.1206242E+04  0.7818609E-02  0.9107411E-01
        3   -1    0    0  501    0  0.00000000000E+00  0.00000000000E+00  0.90820735998E+03  0.90820736560E+03  0.10100000352E+00 0.  1.
       -3   -1    0    0    0  501  0.00000000000E+00  0.00000000000E+00 -0.40051944073E+03  0.40051945346E+03  0.10100000352E+00 0. -1.
    10030    2    1    2    0    0  0.00000000000E+00  0.00000000000E+00  0.50768791926E+03  0.13087268191E+04  0.12062416274E+04 0.  0.
        3    1    3    3  502    0  0.26438787771E+03  0.43437596009E+03 -0.98010672206E+02  0.51787018320E+03  0.10100000352E+00 0. -1.
       -3    1    3    3    0  502 -0.26438787771E+03 -0.43437596009E+03  0.60569859146E+03  0.79085663586E+03  0.10100000352E+00 0.  1.
</event>
<event>
 5   0  0.1404833E-03  0.1205228E+04  0.7818609E-02  0.9108293E-01
       -1   -1    0    0    0  501  0.00000000000E+00  0.00000000000E+00  0.50256875418E+03  0.50256875421E+03  0.50400001928E-02 0.  1.
        1   -1    0    0  501    0  0.00000000000E+00  0.00000000000E+00 -0.72257525392E+03  0.72257525393E+03  0.50400001928E-02 0. -1.
    10030    2    1    2    0    0  0.00000000000E+00  0.00000000000E+00 -0.22000649974E+03  0.12251440081E+04  0.12052281862E+04 0.  0.
        1    1    3    3  502    0  0.26470009145E+03 -0.35579839819E+03 -0.52477154813E+03  0.68705444931E+03  0.50400001928E-02 0. -1.
       -1    1    3    3    0  502 -0.26470009145E+03  0.35579839819E+03  0.30476504839E+03  0.53808955883E+03  0.50400001928E-02 0.  1.
</event>
<event>
 5   0  0.2499890E-03  0.1198620E+04  0.7818609E-02  0.9114066E-01
        2   -1    0    0  501    0  0.00000000000E+00  0.00000000000E+00  0.50164907647E+03  0.50164907648E+03  0.25500000920E-02 0. -1.
       -2   -1    0    0    0  501  0.00000000000E+00  0.00000000000E+00 -0.71598296767E+03  0.71598296768E+03  0.25500000920E-02 0.  1.
    10030    2    1    2    0    0  0.00000000000E+00  0.00000000000E+00 -0.21433389120E+03  0.12176320442E+04  0.11986195301E+04 0.  0.
        5    1    3    3  502    0 -0.36050582344E+03  0.44170038626E+03  0.80386671193E+02  0.57580186424E+03  0.46999998093E+01 0. -1.
       -5    1    3    3    0  502  0.36050582344E+03 -0.44170038626E+03 -0.29472056240E+03  0.64183017992E+03  0.46999998093E+01 0.  1.
</event>
<event>
 5   0  0.1469851E-03  0.1302473E+04  0.7818609E-02  0.9027606E-01
       -1   -1    0    0    0  501  0.00000000000E+00  0.00000000000E+00  0.59915487380E+03  0.59915487382E+03  0.50400001928E-02 0.  1.
        1   -1    0    0  501    0  0.00000000000E+00  0.00000000000E+00 -0.70784551720E+03  0.70784551721E+03  0.50400001928E-02 0. -1.
    10030    2    1    2    0    0  0.00000000000E+00  0.00000000000E+00 -0.10869064339E+03  0.13070003910E+04  0.13024731729E+04 0.  0.
        5    1    3    3  502    0  0.22102967424E+03 -0.37998887506E+03  0.42778419835E+03  0.61340612356E+03  0.46999998093E+01 0.  1.
       -5    1    3    3    0  502 -0.22102967424E+03  0.37998887506E+03 -0.53647484174E+03  0.69359426748E+03  0.46999998093E+01 0. -1.
</event>
<event>
 5   0  0.2517023E-03  0.1203523E+04  0.7818609E-02  0.9109778E-01
        2   -1    0    0  501    0  0.00000000000E+00  0.00000000000E+00  0.31807462533E+04  0.31807462533E+04  0.25500000920E-02 0. -1.
       -2   -1    0    0    0  501  0.00000000000E+00  0.00000000000E+00 -0.11384652645E+03  0.11384652648E+03  0.25500000920E-02 0.  1.
    10030    2    1    2    0    0  0.00000000000E+00  0.00000000000E+00  0.30668997268E+04  0.32945927797E+04  0.12035230160E+04 0.  0.
        3    1    3    3  502    0 -0.28788373401E+03  0.42429830601E+03  0.67121251615E+03  0.84464924603E+03  0.10100000352E+00 0.  1.
       -3    1    3    3    0  502  0.28788373401E+03 -0.42429830601E+03  0.23956872107E+04  0.24499435337E+04  0.10100000352E+00 0. -1.
</event>
<event>
 5   0  0.1404833E-03  0.1206067E+04  0.7818609E-02  0.9107563E-01
        1   -1    0    0  501    0  0.00000000000E+00  0.00000000000E+00  0.13309912962E+04  0.13309912963E+04  0.50400001928E-02 0. -1.
       -1   -1    0    0    0  501  0.00000000000E+00  0.00000000000E+00 -0.27321702113E+03  0.27321702117E+03  0.50400001928E-02 0.  1.
    10030    2    1    2    0    0  0.00000000000E+00  0.00000000000E+00  0.10577742751E+04  0.16042083174E+04  0.12060671244E+04 0.  0.
        1    1    3    3  502    0  0.14266801954E+03 -0.67478016122E+02 -0.24526056212E+03  0.29165080115E+03  0.50400001928E-02 0.  1.
       -1    1    3    3    0  502 -0.14266801954E+03  0.67478016122E+02  0.13030348372E+04  0.13125575163E+04  0.50400001928E-02 0. -1.
</event>
<event>
 5   0  0.1403154E-03  0.1200785E+04  0.7818609E-02  0.9112170E-01
       -1   -1    0    0    0  501  0.00000000000E+00  0.00000000000E+00  0.19009709066E+03  0.19009709073E+03  0.50400001928E-02 0.  1.
        1   -1    0    0  501    0  0.00000000000E+00  0.00000000000E+00 -0.18962475166E+04  0.18962475166E+04  0.50400001928E-02 0. -1.
    10030    2    1    2    0    0  0.00000000000E+00  0.00000000000E+00 -0.17061504260E+04  0.20863446074E+04  0.12007849702E+04 0.  0.
        3    1    3    3  502    0  0.31299683470E+03  0.96232570680E+02  0.21283954548E+02  0.32814744112E+03  0.10100000352E+00 0.  1.
       -3    1    3    3    0  502 -0.31299683470E+03 -0.96232570680E+02 -0.17274343805E+04  0.17581971662E+04  0.10100000352E+00 0. -1.
</event>
<event>
 5   0  0.2517023E-03  0.1197511E+04  0.7818609E-02  0.9115038E-01
        2   -1    0    0  501    0  0.00000000000E+00  0.00000000000E+00  0.89921891331E+03  0.89921891331E+03  0.25500000920E-02 0.  1.
       -2   -1    0    0    0  501  0.00000000000E+00  0.00000000000E+00 -0.39868842376E+03  0.39868842377E+03  0.25500000920E-02 0. -1.
    10030    2    1    2    0    0  0.00000000000E+00  0.00000000000E+00  0.50053048955E+03  0.12979073371E+04  0.11975110374E+04 0.  0.
        3    1    3    3  502    0  0.49939276272E+02  0.50926129366E+03 -0.86714387695E+02  0.51899941404E+03  0.10100000352E+00 0. -1.
       -3    1    3    3    0  502 -0.49939276272E+02 -0.50926129366E+03  0.58724487725E+03  0.77890792305E+03  0.10100000352E+00 0.  1.
</event>
<event>
 5   0  0.2499890E-03  0.1196361E+04  0.7818609E-02  0.9116047E-01
        2   -1    0    0  501    0  0.00000000000E+00  0.00000000000E+00  0.14262680296E+04  0.14262680296E+04  0.25500000920E-02 0. -1.
       -2   -1    0    0    0  501  0.00000000000E+00  0.00000000000E+00 -0.25087862952E+03  0.25087862954E+03  0.25500000920E-02 0.  1.
    10030    2    1    2    0    0  0.00000000000E+00  0.00000000000E+00  0.11753894001E+04  0.16771466591E+04  0.11963614314E+04 0.  0.
        5    1    3    3  502    0  0.31399881406E+03 -0.50351414819E+03  0.48207563937E+03  0.76455265661E+03  0.46999998093E+01 0.  1.
       -5    1    3    3    0  502 -0.31399881406E+03  0.50351414819E+03  0.69331376072E+03  0.91259400253E+03  0.46999998093E+01 0. -1.
</event>
<event>
 5   0  0.2499890E-03  0.1214580E+04  0.7818609E-02  0.9100190E-01
        2   -1    0    0  501    0  0.00000000000E+00  0.00000000000E+00  0.11746288362E+04  0.11746288362E+04  0.25500000920E-02 0. -1.
       -2   -1    0    0    0  501  0.00000000000E+00  0.00000000000E+00 -0.31397226071E+03  0.31397226072E+03  0.25500000920E-02 0.  1.
    10030    2    1    2    0    0  0.00000000000E+00  0.00000000000E+00  0.86065657549E+03  0.14886010969E+04  0.12145795506E+04 0.  0.
        5    1    3    3  502    0 -0.23789645276E+03  0.16867420743E+03  0.10831691790E+04  0.11217500928E+04  0.46999998093E+01 0. -1.
       -5    1    3    3    0  502  0.23789645276E+03 -0.16867420743E+03 -0.22251260348E+03  0.36685100408E+03  0.46999998093E+01 0.  1.
</event>
<event>
 5   0  0.1455076E-03  0.1199933E+04  0.7818609E-02  0.9112915E-01
       -1   -1    0    0    0  501  0.00000000000E+00  0.00000000000E+00  0.35550632631E+03  0.35550632634E+03  0.50400001928E-02 0.  1.
        1   -1    0    0  501    0  0.00000000000E+00  0.00000000000E+00 -0.10125274266E+04  0.10125274266E+04  0.50400001928E-02 0. -1.
    10030    2    1    2    0    0  0.00000000000E+00  0.00000000000E+00 -0.65702110031E+03  0.13680337530E+04  0.11999331744E+04 0.  0.
        4    1    3    3  502    0  0.48577899569E+03  0.22657564184E+03 -0.63578700284E+03  0.83159153435E+03  0.12699999809E+01 0. -1.
       -4    1    3    3    0  502 -0.48577899569E+03 -0.22657564184E+03 -0.21234097477E+02  0.53644221862E+03  0.12699999809E+01 0.  1.
</event>
<event>
 5   0  0.1469851E-03  0.1093121E+04  0.7818609E-02  0.9211923E-01
        1   -1    0    0  501    0  0.00000000000E+00  0.00000000000E+00  0.76941826599E+03  0.76941826600E+03  0.50400001928E-02 0. -1.
       -1   -1    0    0    0  501  0.00000000000E+00  0.00000000000E+00 -0.38825227708E+03  0.38825227712E+03  0.50400001928E-02 0.  1.
    10030    2    1    2    0    0  0.00000000000E+00  0.00000000000E+00  0.38116598890E+03  0.11576705431E+04  0.10931210250E+04 0.  0.
        5    1    3    3  502    0  0.48290484296E+03  0.12908525201E+03  0.42464568342E+03  0.65590101089E+03  0.46999998093E+01 0. -1.
       -5    1    3    3    0  502 -0.48290484296E+03 -0.12908525201E+03 -0.43479694518E+02  0.50176953223E+03  0.46999998093E+01 0.  1.
</event>
<event>
 5   0  0.1455076E-03  0.1189032E+04  0.7818609E-02  0.9122512E-01
       -1   -1    0    0    0  501  0.00000000000E+00  0.00000000000E+00  0.58876368749E+03  0.58876368751E+03  0.50400001928E-02 0. -1.
        1   -1    0    0  501    0  0.00000000000E+00  0.00000000000E+00 -0.60032419638E+03  0.60032419640E+03  0.50400001928E-02 0.  1.
    10030    2    1    2    0    0  0.00000000000E+00  0.00000000000E+00 -0.11560508888E+02  0.11890878839E+04  0.11890316860E+04 0.  0.
        4    1    3    3  502    0  0.34216674712E+03 -0.48617438756E+03 -0.77442010085E+01  0.59456303577E+03  0.12699999809E+01 0.  1.
       -4    1    3    3    0  502 -0.34216674712E+03  0.48617438756E+03 -0.38163078795E+01  0.59452484814E+03  0.12699999809E+01 0. -1.
</event>
<event>
 5   0  0.1404833E-03  0.1229144E+04  0.7818609E-02  0.9087723E-01
        1   -1    0    0  501    0  0.00000000000E+00  0.00000000000E+00  0.96633416340E+03  0.96633416342E+03  0.50400001928E-02 0.  1.
       -1   -1    0    0    0  501  0.00000000000E+00  0.00000000000E+00 -0.39085719154E+03  0.39085719157E+03  0.50400001928E-02 0. -1.
    10030    2    1    2    0    0  0.00000000000E+00  0.00000000000E+00  0.57547697186E+03  0.13571913550E+04  0.12291438601E+04 0.  0.
        1    1    3    3  502    0 -0.54471300509E+03  0.16736840696E+03  0.54187708763E+03  0.78635565725E+03  0.50400001928E-02 0.  1.
       -1    1    3    3    0  502  0.54471300509E+03 -0.16736840696E+03  0.33599884234E+02  0.57083569774E+03  0.50400001928E-02 0. -1.
</event>
<event>
 5   0  0.1455076E-03  0.1205552E+04  0.7818609E-02  0.9108011E-01
        1   -1    0    0  501    0  0.00000000000E+00  0.00000000000E+00  0.11815117135E+04  0.11815117135E+04  0.50400001928E-02 0.  1.
       -1   -1    0    0    0  501  0.00000000000E+00  0.00000000000E+00 -0.30752037792E+03  0.30752037796E+03  0.50400001928E-02 0. -1.
    10030    2    1    2    0    0  0.00000000000E+00  0.00000000000E+00  0.87399133561E+03  0.14890320915E+04  0.12055520374E+04 0.  0.
        4    1    3    3  502    0 -0.50126095666E+03  0.19319339835E+03  0.77469237982E+03  0.94272802657E+03  0.12699999809E+01 0. -1.
       -4    1    3    3    0  502  0.50126095666E+03 -0.19319339835E+03  0.99298955789E+02  0.54630406493E+03  0.12699999809E+01 0.  1.
</event>
<event>
 5   0  0.2517023E-03  0.1199107E+04  0.7818609E-02  0.9113639E-01
        2   -1    0    0  501    0  0.00000000000E+00  0.00000000000E+00  0.82070437164E+03  0.82070437165E+03  0.25500000920E-02 0. -1.
       -2   -1    0    0    0  501  0.00000000000E+00  0.00000000000E+00 -0.43799471871E+03  0.43799471872E+03  0.25500000920E-02 0.  1.
    10030    2    1    2    0    0  0.00000000000E+00  0.00000000000E+00  0.38270965293E+03  0.12586990904E+04  0.11991066348E+04 0.  0.
        3    1    3    3  502    0  0.31039322774E+03  0.30584930634E+03  0.62361660766E+03  0.76077949339E+03  0.10100000352E+00 0. -1.
       -3    1    3    3    0  502 -0.31039322774E+03 -0.30584930634E+03 -0.24090695473E+03  0.49791959697E+03  0.10100000352E+00 0.  1.
</event>
<event>
 5   0  0.2499890E-03  0.1168692E+04  0.7818609E-02  0.9140711E-01
       -2   -1    0    0    0  501  0.00000000000E+00  0.00000000000E+00  0.72930509381E+03  0.72930509382E+03  0.25500000920E-02 0.  1.
        2   -1    0    0  501    0  0.00000000000E+00  0.00000000000E+00 -0.46819930286E+03  0.46819930287E+03  0.25500000920E-02 0. -1.
    10030    2    1    2    0    0  0.00000000000E+00  0.00000000000E+00  0.26110579095E+03  0.11975043967E+04  0.11686918097E+04 0.  0.
        5    1    3    3  502    0 -0.14652766641E+02 -0.50172200814E+03 -0.17598535738E+03  0.53191410306E+03  0.46999998093E+01 0. -1.
       -5    1    3    3    0  502  0.14652766641E+02  0.50172200814E+03  0.43709114833E+03  0.66559029363E+03  0.46999998093E+01 0.  1.
</event>
<event>
 5   0  0.2499890E-03  0.1207334E+04  0.7818609E-02  0.9106461E-01
       -2   -1    0    0    0  501  0.00000000000E+00  0.00000000000E+00  0.22422296066E+03  0.22422296067E+03  0.25500000920E-02 0.  1.
        2   -1    0    0  501    0  0.00000000000E+00  0.00000000000E+00 -0.16252309703E+04  0.16252309703E+04  0.25500000920E-02 0. -1.
    10030    2    1    2    0    0  0.00000000000E+00  0.00000000000E+00 -0.14010080096E+04  0.18494539310E+04  0.12073344192E+04 0.  0.
        5    1    3    3  502    0  0.54046519408E+03  0.16689487129E+03 -0.37759444516E+03  0.68011482787E+03  0.46999998093E+01 0.  1.
       -5    1    3    3    0  502 -0.54046519408E+03 -0.16689487129E+03 -0.10234135645E+04  0.11693391031E+04  0.46999998093E+01 0. -1.
</event>
<event>
 5   0  0.1404833E-03  0.1202202E+04  0.7818609E-02  0.9110932E-01
       -1   -1    0    0    0  501  0.00000000000E+00  0.00000000000E+00  0.28836331709E+03  0.28836331713E+03  0.50400001928E-02 0.  1.
        1   -1    0    0  501    0  0.00000000000E+00  0.00000000000E+00 -0.12530100451E+04  0.12530100451E+04  0.50400001928E-02 0. -1.
    10030    2    1    2    0    0  0.00000000000E+00  0.00000000000E+00 -0.96464672798E+03  0.15413733622E+04  0.12022015355E+04 0.  0.
        1    1    3    3  502    0  0.57522094132E+03 -0.13662110084E+03 -0.34318067873E+03  0.68360619863E+03  0.50400001928E-02 0.  1.
       -1    1    3    3    0  502 -0.57522094132E+03  0.13662110084E+03 -0.62146604925E+03  0.85776716359E+03  0.50400001928E-02 0. -1.
</event>
<event>
 5   0  0.2580244E-03  0.1175797E+04  0.7818609E-02  0.9134309E-01
       -2   -1    0    0    0  501  0.00000000000E+00  0.00000000000E+00  0.74904287542E+03  0.74904287542E+03  0.25500000920E-02 0.  1.
        2   -1    0    0  501    0  0.00000000000E+00  0.00000000000E+00 -0.46142169206E+03  0.46142169207E+03  0.25500000920E-02 0. -1.
    10030    2    1    2    0    0  0.00000000000E+00  0.00000000000E+00  0.28762118335E+03  0.12104645675E+04  0.11757969740E+04 0.  0.
        1    1    3    3  502    0  0.14901555183E+03 -0.20945079617E+03  0.68812395233E+03  0.73456779435E+03  0.50400001928E-02 0.  1.
       -1    1    3    3    0  502 -0.14901555183E+03  0.20945079617E+03 -0.40050276897E+03  0.47589677314E+03  0.50400001928E-02 0. -1.
</event>
<event>
 5   0  0.2580244E-03  0.1191898E+04  0.7818609E-02  0.9119978E-01
       -2   -1    0    0    0  501  0.00000000000E+00  0.00000000000E+00  0.19325667976E+03  0.19325667978E+03  0.25500000920E-02 0.  1.
        2   -1    0    0  501    0  0.00000000000E+00  0.00000000000E+00 -0.18377389188E+04  0.18377389188E+04  0.25500000920E-02 0. -1.
    10030    2    1    2    0    0  0.00000000000E+00  0.00000000000E+00 -0.16444822391E+04  0.20309955986E+04  0.11918981865E+04 0.  0.
        1    1    3    3  502    0  0.42048001571E+03 -0.18748442346E+03 -0.17741360569E+03  0.49338569108E+03  0.50400001928E-02 0.  1.
       -1    1    3    3    0  502 -0.42048001571E+03  0.18748442346E+03 -0.14670686334E+04  0.15376099075E+04  0.50400001928E-02 0. -1.
</event>
<event>
 5   0  0.1403154E-03  0.1203290E+04  0.7818609E-02  0.9109982E-01
        1   -1    0    0  501    0  0.00000000000E+00  0.00000000000E+00  0.83101292180E+03  0.83101292182E+03  0.50400001928E-02 0. -1.
       -1   -1    0    0    0  501  0.00000000000E+00  0.00000000000E+00 -0.43558498867E+03  0.43558498870E+03  0.50400001928E-02 0.  1.
    10030    2    1    2    0    0  0.00000000000E+00  0.00000000000E+00  0.39542793313E+03  0.12665979105E+04  0.12032900800E+04 0.  0.
        3    1    3    3  502    0 -0.93878251224E+02  0.42375588159E+03 -0.24085358877E+03  0.49637952684E+03  0.10100000352E+00 0.  1.
       -3    1    3    3    0  502  0.93878251224E+02 -0.42375588159E+03  0.63628152191E+03  0.77021838368E+03  0.10100000352E+00 0. -1.
</event>
<event>
 5   0  0.2579442E-03  0.1193060E+04  0.7818609E-02  0.9118953E-01
       -2   -1    0    0    0  501  0.00000000000E+00  0.00000000000E+00  0.30066363096E+03  0.30066363097E+03  0.25500000920E-02 0. -1.
        2   -1    0    0  501    0  0.00000000000E+00  0.00000000000E+00 -0.11835425507E+04  0.11835425508E+04  0.25500000920E-02 0.  1.
    10030    2    1    2    0    0  0.00000000000E+00  0.00000000000E+00 -0.88287891979E+03  0.14842061817E+04  0.11930602679E+04 0.  0.
        4    1    3    3  502    0 -0.37516564970E+03 -0.16061218840E+01  0.13552193084E+03  0.39889804584E+03  0.12699999809E+01 0. -1.
       -4    1    3    3    0  502  0.37516564970E+03  0.16061218840E+01 -0.10184008506E+04  0.10853081359E+04  0.12699999809E+01 0.  1.
</event>
<event>
 5   0  0.1423024E-03  0.1209513E+04  0.7818609E-02  0.9104570E-01
        1   -1    0    0  501    0  0.00000000000E+00  0.00000000000E+00  0.11528652593E+04  0.11528652593E+04  0.50400001928E-02 0. -1.
       -1   -1    0    0    0  501  0.00000000000E+00  0.00000000000E+00 -0.31723602915E+03  0.31723602919E+03  0.50400001928E-02 0.  1.
    10030    2    1    2    0    0  0.00000000000E+00  0.00000000000E+00  0.83562923018E+03  0.14701012885E+04  0.12095129549E+04 0.  0.
        2    1    3    3  502    0  0.58034359553E+03  0.59534934603E+02  0.61147687215E+03  0.84513138771E+03  0.25500000920E-02 0. -1.
       -2    1    3    3    0  502 -0.58034359553E+03 -0.59534934603E+02  0.22415235803E+03  0.62496990082E+03  0.25500000920E-02 0.  1.
</event>
<event>
 5   0  0.2484507E-03  0.1188022E+04  0.7818609E-02  0.9123406E-01
       -2   -1    0    0    0  501  0.00000000000E+00  0.00000000000E+00  0.51961268071E+03  0.51961268072E+03  0.25500000920E-02 0.  1.
        2   -1    0    0  501    0  0.00000000000E+00  0.00000000000E+00 -0.67906212378E+03  0.67906212379E+03  0.25500000920E-02 0. -1.
    10030    2    1    2    0    0  0.00000000000E+00  0.00000000000E+00 -0.15944944307E+03  0.11986748045E+04  0.11880223744E+04 0.  0.
        2    1    3    3  502    0  0.50380075997E+03  0.25106695339E+03  0.11171180616E+03  0.57387224055E+03  0.25500000920E-02 0. -1.
       -2    1    3    3    0  502 -0.50380075997E+03 -0.25106695339E+03 -0.27116124923E+03  0.62480256396E+03  0.25500000920E-02 0.  1.
</event>
<event>
 5   0  0.1404833E-03  0.1205436E+04  0.7818609E-02  0.9108112E-01
        1   -1    0    0  501    0  0.00000000000E+00  0.00000000000E+00  0.42165475089E+03  0.42165475092E+03  0.50400001928E-02 0. -1.
       -1   -1    0    0    0  501  0.00000000000E+00  0.00000000000E+00 -0.86153179026E+03  0.86153179028E+03  0.50400001928E-02 0.  1.
    10030    2    1    2    0    0  0.00000000000E+00  0.00000000000E+00 -0.43987703937E+03  0.12831865412E+04  0.12054359750E+04 0.  0.
        1    1    3    3  502    0  0.46053956859E+03  0.16994651980E+03  0.15231767559E+03  0.51398364580E+03  0.50400001928E-02 0. -1.
       -1    1    3    3    0  502 -0.46053956859E+03 -0.16994651980E+03 -0.59219471496E+03  0.76920289540E+03  0.50400001928E-02 0.  1.
</event>
<event>
 5   0  0.2484507E-03  0.1203234E+04  0.7818609E-02  0.9110031E-01
        2   -1    0    0  501    0  0.00000000000E+00  0.00000000000E+00  0.10549959446E+04  0.10549959446E+04  0.25500000920E-02 0.  1.
       -2   -1    0    0    0  501  0.00000000000E+00  0.00000000000E+00 -0.34307506126E+03  0.34307506127E+03  0.25500000920E-02 0. -1.
    10030    2    1    2    0    0  0.00000000000E+00  0.00000000000E+00  0.71192088331E+03  0.13980710058E+04  0.12032336404E+04 0.  0.
        2    1    3    3  502    0 -0.35979611793E+03 -0.47811211947E+03  0.42850750678E+03  0.73597766857E+03  0.25500000920E-02 0. -1.
       -2    1    3    3    0  502  0.35979611793E+03  0.47811211947E+03  0.28341337653E+03  0.66209333728E+03  0.25500000920E-02 0.  1.
</event>
<event>
 5   0  0.2499890E-03  0.1204538E+04  0.7818609E-02  0.9108894E-01
        2   -1    0    0  501    0  0.00000000000E+00  0.00000000000E+00  0.10982910517E+04  0.10982910517E+04  0.25500000920E-02 0.  1.
       -2   -1    0    0    0  501  0.00000000000E+00  0.00000000000E+00 -0.33026577360E+03  0.33026577361E+03  0.25500000920E-02 0. -1.
    10030    2    1    2    0    0  0.00000000000E+00  0.00000000000E+00  0.76802527814E+03  0.14285568254E+04  0.12045379925E+04 0.  0.
        5    1    3    3  502    0  0.31633914430E+03 -0.11350891126E+03  0.97670693260E+03  0.10329246097E+04  0.46999998093E+01 0.  1.
       -5    1    3    3    0  502 -0.31633914430E+03  0.11350891126E+03 -0.20868165446E+03  0.39563221565E+03  0.46999998093E+01 0. -1.
</event>
<event>
 5   0  0.2499890E-03  0.1191892E+04  0.7818609E-02  0.9119983E-01
        2   -1    0    0  501    0  0.00000000000E+00  0.00000000000E+00  0.10481489822E+04  0.10481489822E+04  0.25500000920E-02 0.  1.
       -2   -1    0    0    0  501  0.00000000000E+00  0.00000000000E+00 -0.33883692745E+03  0.33883692746E+03  0.25500000920E-02 0. -1.
    10030    2    1    2    0    0  0.00000000000E+00  0.00000000000E+00  0.70931205471E+03  0.13869859096E+04  0.11918919089E+04 0.  0.
        5    1    3    3  502    0  0.33993417061E+03 -0.24116781140E+03  0.85029858178E+03  0.94696722318E+03  0.46999998093E+01 0.  1.
       -5    1    3    3    0  502 -0.33993417061E+03  0.24116781140E+03 -0.14098652707E+03  0.44001868644E+03  0.46999998093E+01 0. -1.
</event>
<event>
 5   0  0.2499890E-03  0.1199310E+04  0.7818609E-02  0.9113461E-01
        2   -1    0    0  501    0  0.00000000000E+00  0.00000000000E+00  0.55702498167E+03  0.55702498167E+03  0.25500000920E-02 0. -1.
       -2   -1    0    0    0  501  0.00000000000E+00  0.00000000000E+00 -0.64554707438E+03  0.64554707438E+03  0.25500000920E-02 0.  1.
    10030    2    1    2    0    0  0.00000000000E+00  0.00000000000E+00 -0.88522092711E+02  0.12025720561E+04  0.11993095468E+04 0.  0.
        5    1    3    3  502    0  0.44127995318E+03  0.17075190790E+03 -0.41361011506E+03  0.62847404752E+03  0.46999998093E+01 0.  1.
       -5    1    3    3    0  502 -0.44127995318E+03 -0.17075190790E+03  0.32508802235E+03  0.57409800854E+03  0.46999998093E+01 0. -1.
</event>
<event>
 5   0  0.1404833E-03  0.1207439E+04  0.7818609E-02  0.9106370E-01
       -1   -1    0    0    0  501  0.00000000000E+00  0.00000000000E+00  0.62577325982E+03  0.62577325984E+03  0.50400001928E-02 0.  1.
        1   -1    0    0  501    0  0.00000000000E+00  0.00000000000E+00 -0.58244286657E+03  0.58244286659E+03  0.50400001928E-02 0. -1.
    10030    2    1    2    0    0  0.00000000000E+00  0.00000000000E+00  0.43330393246E+02  0.12082161264E+04  0.12074388950E+04 0.  0.
        1    1    3    3  502    0 -0.59823362700E+03  0.78896359416E+01 -0.59204227570E+02  0.60120783380E+03  0.50400001928E-02 0.  1.
       -1    1    3    3    0  502  0.59823362700E+03 -0.78896359416E+01  0.10253462082E+03  0.60700829263E+03  0.50400001928E-02 0. -1.
</event>
<event>
 5   0  0.1404833E-03  0.1194996E+04  0.7818609E-02  0.9117248E-01
        1   -1    0    0  501    0  0.00000000000E+00  0.00000000000E+00  0.11905811030E+04  0.11905811030E+04  0.50400001928E-02 0. -1.
       -1   -1    0    0    0  501  0.00000000000E+00  0.00000000000E+00 -0.29985661310E+03  0.29985661314E+03  0.50400001928E-02 0.  1.
    10030    2    1    2    0    0  0.00000000000E+00  0.00000000000E+00  0.89072448990E+03  0.14904377161E+04  0.11949955936E+04 0.  0.
        1    1    3    3  502    0  0.49466653749E+03 -0.43847637455E+02  0.30976733075E+02  0.49757125785E+03  0.50400001928E-02 0.  1.
       -1    1    3    3    0  502 -0.49466653749E+03  0.43847637455E+02  0.85974775682E+03  0.99286645829E+03  0.50400001928E-02 0. -1.
</event>
<event>
 5   0  0.1403154E-03  0.1197982E+04  0.7818609E-02  0.9114624E-01
        1   -1    0    0  501    0  0.00000000000E+00  0.00000000000E+00  0.61500830240E+03  0.61500830242E+03  0.50400001928E-02 0.  1.
       -1   -1    0    0    0  501  0.00000000000E+00  0.00000000000E+00 -0.58339114744E+03  0.58339114746E+03  0.50400001928E-02 0. -1.
    10030    2    1    2    0    0  0.00000000000E+00  0.00000000000E+00  0.31617154958E+02  0.11983994499E+04  0.11979823025E+04 0.  0.
        3    1    3    3  502    0 -0.49490164001E+03 -0.91031938205E+02 -0.30922908133E+03  0.59062431544E+03  0.10100000352E+00 0. -1.
       -3    1    3    3    0  502  0.49490164001E+03  0.91031938205E+02  0.34084623629E+03  0.60777513444E+03  0.10100000352E+00 0.  1.
</event>
<event>
 5   0  0.2580244E-03  0.1184700E+04  0.7818609E-02  0.9126355E-01
       -2   -1    0    0    0  501  0.00000000000E+00  0.00000000000E+00  0.24115940402E+03  0.24115940403E+03  0.25500000920E-02 0.  1.
        2   -1    0    0  501    0  0.00000000000E+00  0.00000000000E+00 -0.14549655779E+04  0.14549655779E+04  0.25500000920E-02 0. -1.
    10030    2    1    2    0    0  0.00000000000E+00  0.00000000000E+00 -0.12138061739E+04  0.16961249819E+04  0.11847001843E+04 0.  0.
        1    1    3    3  502    0 -0.41349198578E+03 -0.24741925178E+03 -0.11367197333E+03  0.49508910916E+03  0.50400001928E-02 0.  1.
       -1    1    3    3    0  502  0.41349198578E+03  0.24741925178E+03 -0.11001342005E+04  0.12010358728E+04  0.50400001928E-02 0. -1.
</event>
<event>
 5   0  0.1469851E-03  0.1199077E+04  0.7818609E-02  0.9113665E-01
        1   -1    0    0  501    0  0.00000000000E+00  0.00000000000E+00  0.11462264827E+04  0.11462264828E+04  0.50400001928E-02 0. -1.
       -1   -1    0    0    0  501  0.00000000000E+00  0.00000000000E+00 -0.31359121497E+03  0.31359121501E+03  0.50400001928E-02 0.  1.
    10030    2    1    2    0    0  0.00000000000E+00  0.00000000000E+00  0.83263526778E+03  0.14598176978E+04  0.11990772375E+04 0.  0.
        5    1    3    3  502    0 -0.15377491119E+03 -0.41461344189E+03  0.90915740304E+03  0.10110095464E+04  0.46999998093E+01 0. -1.
       -5    1    3    3    0  502  0.15377491119E+03  0.41461344189E+03 -0.76522135259E+02  0.44880815132E+03  0.46999998093E+01 0.  1.
</event>
<event>
 5   0  0.2580244E-03  0.1205045E+04  0.7818609E-02  0.9108452E-01
       -2   -1    0    0    0  501  0.00000000000E+00  0.00000000000E+00  0.82965251329E+03  0.82965251330E+03  0.25500000920E-02 0.  1.
        2   -1    0    0  501    0  0.00000000000E+00  0.00000000000E+00 -0.43757300053E+03  0.43757300054E+03  0.25500000920E-02 0. -1.
    10030    2    1    2    0    0  0.00000000000E+00  0.00000000000E+00  0.39207951277E+03  0.12672255138E+04  0.12050452932E+04 0.  0.
        1    1    3    3  502    0 -0.17913090910E+01  0.37783162716E+03  0.68959043662E+03  0.78631731354E+03  0.50400001928E-02 0.  1.
       -1    1    3    3    0  502  0.17913090910E+01 -0.37783162716E+03 -0.29751092385E+03  0.48090820029E+03  0.50400001928E-02 0. -1.
</event>
<event>
 5   0  0.2517023E-03  0.1200583E+04  0.7818609E-02  0.9112346E-01
        2   -1    0    0  501    0  0.00000000000E+00  0.00000000000E+00  0.67266055171E+03  0.67266055171E+03  0.25500000920E-02 0. -1.
       -2   -1    0    0    0  501  0.00000000000E+00  0.00000000000E+00 -0.53570874500E+03  0.53570874501E+03  0.25500000920E-02 0.  1.
    10030    2    1    2    0    0  0.00000000000E+00  0.00000000000E+00  0.13695180670E+03  0.12083692967E+04  0.12005834248E+04 0.  0.
        3    1    3    3  502    0  0.32209814162E+03  0.19022697737E+03 -0.40405422252E+03  0.55062994895E+03  0.10100000352E+00 0.  1.
       -3    1    3    3    0  502 -0.32209814162E+03 -0.19022697737E+03  0.54100602922E+03  0.65773934777E+03  0.10100000352E+00 0. -1.
</event>
<event>
 5   0  0.2484507E-03  0.1198190E+04  0.7818609E-02  0.9114442E-01
        2   -1    0    0  501    0  0.00000000000E+00  0.00000000000E+00  0.28237074389E+03  0.28237074390E+03  0.25500000920E-02 0.  1.
       -2   -1    0    0    0  501  0.00000000000E+00  0.00000000000E+00 -0.12710772837E+04  0.12710772837E+04  0.25500000920E-02 0. -1.
    10030    2    1    2    0    0  0.00000000000E+00  0.00000000000E+00 -0.98870653981E+03  0.15534480276E+04  0.11981903658E+04 0.  0.
        2    1    3    3  502    0 -0.43307471120E+02 -0.58999533690E+03 -0.37173331194E+03  0.69868139365E+03  0.25500000920E-02 0. -1.
       -2    1    3    3    0  502  0.43307471120E+02  0.58999533690E+03 -0.61697322787E+03  0.85476663396E+03  0.25500000920E-02 0.  1.
</event>
<event>
 5   0  0.1423024E-03  0.1264834E+04  0.7818609E-02  0.9057926E-01
       -1   -1    0    0    0  501  0.00000000000E+00  0.00000000000E+00  0.15700048693E+04  0.15700048693E+04  0.50400001928E-02 0. -1.
        1   -1    0    0  501    0  0.00000000000E+00  0.00000000000E+00 -0.25474541417E+03  0.25474541422E+03  0.50400001928E-02 0.  1.
    10030    2    1    2    0    0  0.00000000000E+00  0.00000000000E+00  0.13152594552E+04  0.18247502836E+04  0.12648344409E+04 0.  0.
        2    1    3    3  502    0 -0.29010347809E+03  0.17723445716E+03 -0.11171125822E+03  0.35784282307E+03  0.25500000920E-02 0.  1.
       -2    1    3    3    0  502  0.29010347809E+03 -0.17723445716E+03  0.14269707134E+04  0.14669074605E+04  0.25500000920E-02 0. -1.
</event>
<event>
 5   0  0.2499890E-03  0.1193991E+04  0.7818609E-02  0.9118132E-01
       -2   -1    0    0    0  501  0.00000000000E+00  0.00000000000E+00  0.28291277013E+03  0.28291277014E+03  0.25500000920E-02 0.  1.
        2   -1    0    0  501    0  0.00000000000E+00  0.00000000000E+00 -0.12597657197E+04  0.12597657197E+04  0.25500000920E-02 0. -1.
    10030    2    1    2    0    0  0.00000000000E+00  0.00000000000E+00 -0.97685294957E+03  0.15426784898E+04  0.11939913056E+04 0.  0.
        5    1    3    3  502    0 -0.56226237990E+03 -0.20007151675E+03 -0.46952016565E+03  0.75936741543E+03  0.46999998093E+01 0. -1.
       -5    1    3    3    0  502  0.56226237990E+03  0.20007151675E+03 -0.50733278392E+03  0.78331107442E+03  0.46999998093E+01 0.  1.
</event>
<event>
 5   0  0.9678750E-04  0.1186378E+04  0.7818609E-02  0.9124864E-01
        3   -1    0    0  501    0  0.00000000000E+00  0.00000000000E+00  0.31865568241E+03  0.31865569842E+03  0.10100000352E+00 0.  1.
       -3   -1    0    0    0  501  0.00000000000E+00  0.00000000000E+00 -0.11042430218E+04  0.11042430264E+04  0.10100000352E+00 0. -1.
    10030    2    1    2    0    0  0.00000000000E+00  0.00000000000E+00 -0.78558733941E+03  0.14228987249E+04  0.11863782337E+04 0.  0.
        4    1    3    3  502    0 -0.83604862189E+02 -0.25378928966E+03  0.24238558103E+03  0.36076468691E+03  0.12699999809E+01 0.  1.
       -4    1    3    3    0  502  0.83604862189E+02  0.25378928966E+03 -0.10279729204E+04  0.10621340379E+04  0.12699999809E+01 0. -1.
</event>
<event>
 5   0  0.2499890E-03  0.1206312E+04  0.7818609E-02  0.9107350E-01
        2   -1    0    0  501    0  0.00000000000E+00  0.00000000000E+00  0.11893274040E+04  0.11893274040E+04  0.25500000920E-02 0. -1.
       -2   -1    0    0    0  501  0.00000000000E+00  0.00000000000E+00 -0.30588479918E+03  0.30588479919E+03  0.25500000920E-02 0.  1.
    10030    2    1    2    0    0  0.00000000000E+00  0.00000000000E+00  0.88344260486E+03  0.14952122032E+04  0.12063120229E+04 0.  0.
        5    1    3    3  502    0  0.98817941792E+01 -0.30852150606E+02  0.11882255238E+04  0.11886763607E+04  0.46999998093E+01 0. -1.
       -5    1    3    3    0  502 -0.98817941792E+01  0.30852150606E+02 -0.30478291897E+03  0.30653584252E+03  0.46999998093E+01 0.  1.
</event>
<event>
 5   0  0.2580244E-03  0.1188843E+04  0.7818609E-02  0.9122678E-01
       -2   -1    0    0    0  501  0.00000000000E+00  0.00000000000E+00  0.18352959012E+03  0.18352959014E+03  0.25500000920E-02 0.  1.
        2   -1    0    0  501    0  0.00000000000E+00  0.00000000000E+00 -0.19252321752E+04  0.19252321752E+04  0.25500000920E-02 0. -1.
    10030    2    1    2    0    0  0.00000000000E+00  0.00000000000E+00 -0.17417025850E+04  0.21087617653E+04  0.11888432563E+04 0.  0.
        1    1    3    3  502    0 -0.37660259790E+03 -0.15753571333E+03 -0.10443714840E+03  0.42137173103E+03  0.50400001928E-02 0.  1.
       -1    1    3    3    0  502  0.37660259790E+03  0.15753571333E+03 -0.16372654367E+04  0.16873900343E+04  0.50400001928E-02 0. -1.
</event>
<event>
 5   0  0.2579442E-03  0.1201183E+04  0.7818609E-02  0.9111822E-01
        2   -1    0    0  501    0  0.00000000000E+00  0.00000000000E+00  0.37659607667E+03  0.37659607668E+03  0.25500000920E-02 0. -1.
       -2   -1    0    0    0  501  0.00000000000E+00  0.00000000000E+00 -0.95781684152E+03  0.95781684153E+03  0.25500000920E-02 0.  1.
    10030    2    1    2    0    0  0.00000000000E+00  0.00000000000E+00 -0.58122076485E+03  0.13344129182E+04  0.12011828582E+04 0.  0.
        4    1    3    3  502    0 -0.28309061219E+03  0.40761709782E+03  0.85162436377E+02  0.50353375917E+03  0.12699999809E+01 0. -1.
       -4    1    3    3    0  502  0.28309061219E+03 -0.40761709782E+03 -0.66638320123E+03  0.83087915904E+03  0.12699999809E+01 0.  1.
</event>
<event>
 5   0  0.1423024E-03  0.1193573E+04  0.7818609E-02  0.9118500E-01
       -1   -1    0    0    0  501  0.00000000000E+00  0.00000000000E+00  0.81274964196E+03  0.81274964197E+03  0.50400001928E-02 0.  1.
        1   -1    0    0  501    0  0.00000000000E+00  0.00000000000E+00 -0.43820922964E+03  0.43820922967E+03  0.50400001928E-02 0. -1.
    10030    2    1    2    0    0  0.00000000000E+00  0.00000000000E+00  0.37454041232E+03  0.12509588716E+04  0.11935734490E+04 0.  0.
        2    1    3    3  502    0 -0.15841792634E+03 -0.31734070495E+03  0.69029668749E+03  0.77608690182E+03  0.25500000920E-02 0.  1.
       -2    1    3    3    0  502  0.15841792634E+03  0.31734070495E+03 -0.31575627517E+03  0.47487196982E+03  0.25500000920E-02 0. -1.
</event>
<event>
 5   0  0.1423024E-03  0.1230051E+04  0.7818609E-02  0.9086952E-01
        1   -1    0    0  501    0  0.00000000000E+00  0.00000000000E+00  0.50807996928E+03  0.50807996931E+03  0.50400001928E-02 0.  1.
       -1   -1    0    0    0  501  0.00000000000E+00  0.00000000000E+00 -0.74448231292E+03  0.74448231294E+03  0.50400001928E-02 0. -1.
    10030    2    1    2    0    0  0.00000000000E+00  0.00000000000E+00 -0.23640234364E+03  0.12525622822E+04  0.12300513009E+04 0.  0.
        2    1    3    3  502    0 -0.42098160850E+03  0.35464374759E+03  0.16115282491E+03  0.57355726426E+03  0.25500000920E-02 0.  1.
       -2    1    3    3    0  502  0.42098160850E+03 -0.35464374759E+03 -0.39755516855E+03  0.67900501799E+03  0.25500000920E-02 0. -1.
</event>
<event>
 5   0  0.2499890E-03  0.1183100E+04  0.7818609E-02  0.9127779E-01
        2   -1    0    0  501    0  0.00000000000E+00  0.00000000000E+00  0.11967901427E+04  0.11967901427E+04  0.25500000920E-02 0. -1.
       -2   -1    0    0    0  501  0.00000000000E+00  0.00000000000E+00 -0.29239147693E+03  0.29239147694E+03  0.25500000920E-02 0.  1.
    10030    2    1    2    0    0  0.00000000000E+00  0.00000000000E+00  0.90439866573E+03  0.14891816196E+04  0.11830997209E+04 0.  0.
        5    1    3    3  502    0  0.15873765339E+03  0.13774175583E+03 -0.24378831542E+03  0.32190878621E+03  0.46999998093E+01 0.  1.
       -5    1    3    3    0  502 -0.15873765339E+03 -0.13774175583E+03  0.11481869812E+04  0.11672728334E+04  0.46999998093E+01 0. -1.
</event>
<event>
 5   0  0.2517023E-03  0.1200178E+04  0.7818609E-02  0.9112701E-01
        2   -1    0    0  501    0  0.00000000000E+00  0.00000000000E+00  0.59060859458E+03  0.59060859459E+03  0.25500000920E-02 0.  1.
       -2   -1    0    0    0  501  0.00000000000E+00  0.00000000000E+00 -0.60972160667E+03  0.60972160668E+03  0.25500000920E-02 0. -1.
    10030    2    1    2    0    0  0.00000000000E+00  0.00000000000E+00 -0.19113012091E+02  0.12003302013E+04  0.12001780221E+04 0.  0.
        3    1    3    3  502    0 -0.19831328792E+03  0.26349636563E+03  0.49185356632E+03  0.59218108359E+03  0.10100000352E+00 0.  1.
       -3    1    3    3    0  502  0.19831328792E+03 -0.26349636563E+03 -0.51096657841E+03  0.60814911767E+03  0.10100000352E+00 0. -1.
</event>
<event>
 5   0  0.1423024E-03  0.1203949E+04  0.7818609E-02  0.9109407E-01
        1   -1    0    0  501    0  0.00000000000E+00  0.00000000000E+00  0.30051835113E+03  0.30051835117E+03  0.50400001928E-02 0.  1.
       -1   -1    0    0    0  501  0.00000000000E+00  0.00000000000E+00 -0.12058275979E+04  0.12058275979E+04  0.50400001928E-02 0. -1.
    10030    2    1    2    0    0  0.00000000000E+00  0.00000000000E+00 -0.90530924681E+03  0.15063459491E+04  0.12039490380E+04 0.  0.
        2    1    3    3  502    0  0.53966391119E+03 -0.23123062364E+03 -0.61896428594E+03  0.85312456630E+03  0.25500000920E-02 0. -1.
       -2    1    3    3    0  502 -0.53966391119E+03  0.23123062364E+03 -0.28634496087E+03  0.65322138282E+03  0.25500000920E-02 0.  1.
</event>
<event>
 5   0  0.2579442E-03  0.1216323E+04  0.7818609E-02  0.9098688E-01
        2   -1    0    0  501    0  0.00000000000E+00  0.00000000000E+00  0.14663548823E+04  0.14663548823E+04  0.25500000920E-02 0. -1.
       -2   -1    0    0    0  501  0.00000000000E+00  0.00000000000E+00 -0.25223131535E+03  0.25223131536E+03  0.25500000920E-02 0.  1.
    10030    2    1    2    0    0  0.00000000000E+00  0.00000000000E+00  0.12141235670E+04  0.17185861977E+04  0.12163233464E+04 0.  0.
        4    1    3    3  502    0  0.52389320914E+02  0.24058940767E+03  0.13927746448E+04  0.14143729098E+04  0.12699999809E+01 0. -1.
       -4    1    3    3    0  502 -0.52389320914E+02 -0.24058940767E+03 -0.17865107778E+03  0.30421328787E+03  0.12699999809E+01 0.  1.
</event>
<event>
 5   0  0.1423024E-03  0.1110874E+04  0.7818609E-02  0.9194658E-01
        1   -1    0    0  501    0  0.00000000000E+00  0.00000000000E+00  0.93780698138E+03  0.93780698139E+03  0.50400001928E-02 0. -1.
       -1   -1    0    0    0  501  0.00000000000E+00  0.00000000000E+00 -0.32896990050E+03  0.32896990054E+03  0.50400001928E-02 0.  1.
    10030    2    1    2    0    0  0.00000000000E+00  0.00000000000E+00  0.60883708087E+03  0.12667768819E+04  0.11108740152E+04 0.  0.
        2    1    3    3  502    0  0.13942637770E+03  0.27728965459E+03  0.82969576294E+03  0.88584667206E+03  0.25500000920E-02 0. -1.
       -2    1    3    3    0  502 -0.13942637770E+03 -0.27728965459E+03 -0.22085868207E+03  0.38093020988E+03  0.25500000920E-02 0.  1.
</event>
<event>
 5   0  0.1403154E-03  0.1206148E+04  0.7818609E-02  0.9107492E-01
       -1   -1    0    0    0  501  0.00000000000E+00  0.00000000000E+00  0.72592525050E+03  0.72592525052E+03  0.50400001928E-02 0. -1.
        1   -1    0    0  501    0  0.00000000000E+00  0.00000000000E+00 -0.50101374953E+03  0.50101374955E+03  0.50400001928E-02 0.  1.
    10030    2    1    2    0    0  0.00000000000E+00  0.00000000000E+00  0.22491150097E+03  0.12269390001E+04  0.12061484679E+04 0.  0.
        3    1    3    3  502    0 -0.24797451554E+03  0.30381504071E+02  0.67081064370E+03  0.71582213297E+03  0.10100000352E+00 0. -1.
       -3    1    3    3    0  502  0.24797451554E+03 -0.30381504071E+02 -0.44589914273E+03  0.51111686710E+03  0.10100000352E+00 0.  1.
</event>
<event>
 5   0  0.2580244E-03  0.1234028E+04  0.7818609E-02  0.9083582E-01
        2   -1    0    0  501    0  0.00000000000E+00  0.00000000000E+00  0.78697837101E+03  0.78697837102E+03  0.25500000920E-02 0.  1.
       -2   -1    0    0    0  501  0.00000000000E+00  0.00000000000E+00 -0.48375709774E+03  0.48375709775E+03  0.25500000920E-02 0. -1.
    10030    2    1    2    0    0  0.00000000000E+00  0.00000000000E+00  0.30322127328E+03  0.12707354688E+04  0.12340281565E+04 0.  0.
        1    1    3    3  502    0 -0.50279732481E+03  0.15048815983E+03 -0.18246937721E+03  0.55564998850E+03  0.50400001928E-02 0. -1.
       -1    1    3    3    0  502  0.50279732481E+03 -0.15048815983E+03  0.48569065049E+03  0.71508548026E+03  0.50400001928E-02 0.  1.
</event>
<event>
 5   0  0.1423024E-03  0.1198247E+04  0.7818609E-02  0.9114392E-01
        1   -1    0    0  501    0  0.00000000000E+00  0.00000000000E+00  0.10893118981E+04  0.10893118981E+04  0.50400001928E-02 0. -1.
       -1   -1    0    0    0  501  0.00000000000E+00  0.00000000000E+00 -0.32951898397E+03  0.32951898401E+03  0.50400001928E-02 0.  1.
    10030    2    1    2    0    0  0.00000000000E+00  0.00000000000E+00  0.75979291411E+03  0.14188308821E+04  0.11982469694E+04 0.  0.
        2    1    3    3  502    0  0.29429340894E+03 -0.51511997848E+03  0.28088689254E+03  0.65639519284E+03  0.25500000920E-02 0. -1.
       -2    1    3    3    0  502 -0.29429340894E+03  0.51511997848E+03  0.47890602157E+03  0.76243568927E+03  0.25500000920E-02 0.  1.
</event>
<event>
 5   0  0.2580244E-03  0.1256935E+04  0.7818609E-02  0.9064431E-01
       -2   -1    0    0    0  501  0.00000000000E+00  0.00000000000E+00  0.36967069100E+03  0.36967069100E+03  0.25500000920E-02 0. -1.
        2   -1    0    0  501    0  0.00000000000E+00  0.00000000000E+00 -0.10684404362E+04  0.10684404362E+04  0.25500000920E-02 0.  1.
    10030    2    1    2    0    0  0.00000000000E+00  0.00000000000E+00 -0.69876974521E+03  0.14381111272E+04  0.12569345478E+04 0.  0.
        1    1    3    3  502    0 -0.27884549223E+03  0.53525233722E+03 -0.14884572578E+03  0.62161477069E+03  0.50400001928E-02 0. -1.
       -1    1    3    3    0  502  0.27884549223E+03 -0.53525233722E+03 -0.54992401943E+03  0.81649635652E+03  0.50400001928E-02 0.  1.
</event>
<event>
 5   0  0.2517023E-03  0.1240268E+04  0.7818609E-02  0.9078323E-01
        2   -1    0    0  501    0  0.00000000000E+00  0.00000000000E+00  0.79852208028E+03  0.79852208028E+03  0.25500000920E-02 0. -1.
       -2   -1    0    0    0  501  0.00000000000E+00  0.00000000000E+00 -0.48159708969E+03  0.48159708970E+03  0.25500000920E-02 0.  1.
    10030    2    1    2    0    0  0.00000000000E+00  0.00000000000E+00  0.31692499059E+03  0.12801191700E+04  0.12402675678E+04 0.  0.
        3    1    3    3  502    0 -0.45415990336E+02 -0.57182257754E+03  0.40166522997E+03  0.70027040458E+03  0.10100000352E+00 0. -1.
       -3    1    3    3    0  502  0.45415990336E+02  0.57182257754E+03 -0.84740239388E+02  0.57984876540E+03  0.10100000352E+00 0.  1.
</event>
<event>
 5   0  0.1404833E-03  0.1200123E+04  0.7818609E-02  0.9112749E-01
        1   -1    0    0  501    0  0.00000000000E+00  0.00000000000E+00  0.10197127925E+04  0.10197127925E+04  0.50400001928E-02 0.  1.
       -1   -1    0    0    0  501  0.00000000000E+00  0.00000000000E+00 -0.35311280385E+03  0.35311280389E+03  0.50400001928E-02 0. -1.
    10030    2    1    2    0    0  0.00000000000E+00  0.00000000000E+00  0.66659998867E+03  0.13728255964E+04  0.12001227326E+04 0.  0.
        1    1    3    3  502    0  0.16302074163E+03  0.57159574252E+03  0.23913652815E+03  0.64069004533E+03  0.50400001928E-02 0. -1.
       -1    1    3    3    0  502 -0.16302074163E+03 -0.57159574252E+03  0.42746346052E+03  0.73213555109E+03  0.50400001928E-02 0.  1.
</event>
<event>
 5   0  0.1404833E-03  0.1204344E+04  0.7818609E-02  0.9109063E-01
        1   -1    0    0  501    0  0.00000000000E+00  0.00000000000E+00  0.16911741206E+04  0.16911741207E+04  0.50400001928E-02 0. -1.
       -1   -1    0    0    0  501  0.00000000000E+00  0.00000000000E+00 -0.21441382529E+03  0.21441382535E+03  0.50400001928E-02 0.  1.
    10030    2    1    2    0    0  0.00000000000E+00  0.00000000000E+00  0.14767602954E+04  0.19055879460E+04  0.12043439916E+04 0.  0.
        1    1    3    3  502    0  0.13515629305E+03  0.23254847260E+03  0.15908437699E+04  0.16134218035E+04  0.50400001928E-02 0. -1.
       -1    1    3    3    0  502 -0.13515629305E+03 -0.23254847260E+03 -0.11408347454E+03  0.29216614254E+03  0.50400001928E-02 0.  1.
</event>
<event>
 5   0  0.2580244E-03  0.1212931E+04  0.7818609E-02  0.9101613E-01
       -2   -1    0    0    0  501  0.00000000000E+00  0.00000000000E+00  0.40933759604E+03  0.40933759605E+03  0.25500000920E-02 0.  1.
        2   -1    0    0  501    0  0.00000000000E+00  0.00000000000E+00 -0.89852579897E+03  0.89852579898E+03  0.25500000920E-02 0. -1.
    10030    2    1    2    0    0  0.00000000000E+00  0.00000000000E+00 -0.48918820294E+03  0.13078633950E+04  0.12129309800E+04 0.  0.
        1    1    3    3  502    0  0.39296400960E+03 -0.36875986886E+01  0.25347429367E+03  0.46763610725E+03  0.50400001928E-02 0.  1.
       -1    1    3    3    0  502 -0.39296400960E+03  0.36875986886E+01 -0.74266249661E+03  0.84022728777E+03  0.50400001928E-02 0. -1.
</event>
<event>
 5   0  0.1423024E-03  0.1196832E+04  0.7818609E-02  0.9115634E-01
        1   -1    0    0  501    0  0.00000000000E+00  0.00000000000E+00  0.67915351702E+03  0.67915351704E+03  0.50400001928E-02 0.  1.
       -1   -1    0    0    0  501  0.00000000000E+00  0.00000000000E+00 -0.52727672293E+03  0.52727672295E+03  0.50400001928E-02 0. -1.
    10030    2    1    2    0    0  0.00000000000E+00  0.00000000000E+00  0.15187679409E+03  0.12064302400E+04  0.11968322202E+04 0.  0.
        2    1    3    3  502    0 -0.11539242069E+03 -0.95156286173E+01 -0.51587799524E+03  0.52871170209E+03  0.25500000920E-02 0. -1.
       -2    1    3    3    0  502  0.11539242069E+03  0.95156286173E+01  0.66775478934E+03  0.67771853791E+03  0.25500000920E-02 0.  1.
</event>
<event>
 5   0  0.1404833E-03  0.1183350E+04  0.7818609E-02  0.9127556E-01
        1   -1    0    0  501    0  0.00000000000E+00  0.00000000000E+00  0.18368328808E+04  0.18368328808E+04  0.50400001928E-02 0.  1.
       -1   -1    0    0    0  501  0.00000000000E+00  0.00000000000E+00 -0.19058855793E+03  0.19058855800E+03  0.50400001928E-02 0. -1.
    10030    2    1    2    0    0  0.00000000000E+00  0.00000000000E+00  0.16462443229E+04  0.20274214388E+04  0.11833500412E+04 0.  0.
        1    1    3    3  502    0 -0.20523536528E+03  0.65568651700E+01  0.17738278091E+04  0.17856734427E+04  0.50400001928E-02 0.  1.
       -1    1    3    3    0  502  0.20523536528E+03 -0.65568651700E+01 -0.12758348622E+03  0.24174799611E+03  0.50400001928E-02 0. -1.
</event>
<event>
 5   0  0.2517023E-03  0.1339701E+04  0.7818609E-02  0.8998662E-01
        2   -1    0    0  501    0  0.00000000000E+00  0.00000000000E+00  0.76728141969E+03  0.76728141970E+03  0.25500000920E-02 0. -1.
       -2   -1    0    0    0  501  0.00000000000E+00  0.00000000000E+00 -0.58479112099E+03  0.58479112099E+03  0.25500000920E-02 0.  1.
    10030    2    1    2    0    0  0.00000000000E+00  0.00000000000E+00  0.18249029871E+03  0.13520725407E+04  0.13397005061E+04 0.  0.
        3    1    3    3  502    0 -0.30895151433E+03  0.50220905788E+03  0.41203960349E+03  0.71933415119E+03  0.10100000352E+00 0.  1.
       -3    1    3    3    0  502  0.30895151433E+03 -0.50220905788E+03 -0.22954930479E+03  0.63273838950E+03  0.10100000352E+00 0. -1.
</event>
<event>
 5   0  0.1455076E-03  0.1196379E+04  0.7818609E-02  0.9116032E-01
       -1   -1    0    0    0  501  0.00000000000E+00  0.00000000000E+00  0.30505984665E+03  0.30505984669E+03  0.50400001928E-02 0. -1.
        1   -1    0    0  501    0  0.00000000000E+00  0.00000000000E+00 -0.11729856488E+04  0.11729856488E+04  0.50400001928E-02 0.  1.
    10030    2    1    2    0    0  0.00000000000E+00  0.00000000000E+00 -0.86792580214E+03  0.14780454955E+04  0.11963792412E+04 0.  0.
        4    1    3    3  502    0  0.39167276230E+03 -0.43655046014E+03 -0.57933161188E+03  0.82438497463E+03  0.12699999809E+01 0. -1.
       -4    1    3    3    0  502 -0.39167276230E+03  0.43655046014E+03 -0.28859419026E+03  0.65366052086E+03  0.12699999809E+01 0.  1.
</event>
<event>
 5   0  0.1455076E-03  0.1197061E+04  0.7818609E-02  0.9115432E-01
        1   -1    0    0  501    0  0.00000000000E+00  0.00000000000E+00  0.22016542496E+04  0.22016542496E+04  0.50400001928E-02 0.  1.
       -1   -1    0    0    0  501  0.00000000000E+00  0.00000000000E+00 -0.16271358595E+03  0.16271358603E+03  0.50400001928E-02 0. -1.
    10030    2    1    2    0    0  0.00000000000E+00  0.00000000000E+00  0.20389406636E+04  0.23643678356E+04  0.11970614990E+04 0.  0.
        4    1    3    3  502    0  0.47351705471E+03 -0.23976002854E+03  0.15658899407E+04  0.16533953525E+04  0.12699999809E+01 0.  1.
       -4    1    3    3    0  502 -0.47351705471E+03  0.23976002854E+03  0.47305072293E+03  0.71097248312E+03  0.12699999809E+01 0. -1.
</event>
<event>
 5   0  0.1455076E-03  0.1183210E+04  0.7818609E-02  0.9127681E-01
       -1   -1    0    0    0  501  0.00000000000E+00  0.00000000000E+00  0.37321133110E+03  0.37321133113E+03  0.50400001928E-02 0.  1.
        1   -1    0    0  501    0  0.00000000000E+00  0.00000000000E+00 -0.93779667104E+03  0.93779667105E+03  0.50400001928E-02 0. -1.
    10030    2    1    2    0    0  0.00000000000E+00  0.00000000000E+00 -0.56458533994E+03  0.13110080022E+04  0.11832097767E+04 0.  0.
        4    1    3    3  502    0  0.56632779466E+03 -0.75645517862E+01 -0.47166297602E+03  0.73705628639E+03  0.12699999809E+01 0. -1.
       -4    1    3    3    0  502 -0.56632779466E+03  0.75645517862E+01 -0.92922363916E+02  0.57395171580E+03  0.12699999809E+01 0.  1.
</event>
<event>
 5   0  0.2484507E-03  0.1199564E+04  0.7818609E-02  0.9113238E-01
        2   -1    0    0  501    0  0.00000000000E+00  0.00000000000E+00  0.74294433380E+03  0.74294433381E+03  0.25500000920E-02 0. -1.
       -2   -1    0    0    0  501  0.00000000000E+00  0.00000000000E+00 -0.48420667965E+03  0.48420667966E+03  0.25500000920E-02 0.  1.
    10030    2    1    2    0    0  0.00000000000E+00  0.00000000000E+00  0.25873765415E+03  0.12271510135E+04  0.11995642693E+04 0.  0.
        2    1    3    3  502    0  0.32762979831E+03 -0.20637465736E+02  0.64288027544E+03  0.72184640907E+03  0.25500000920E-02 0. -1.
       -2    1    3    3    0  502 -0.32762979831E+03  0.20637465736E+02 -0.38414262129E+03  0.50530460440E+03  0.25500000920E-02 0.  1.
</event>
<event>
 5   0  0.2579442E-03  0.1201108E+04  0.7818609E-02  0.9111887E-01
        2   -1    0    0  501    0  0.00000000000E+00  0.00000000000E+00  0.46408563870E+03  0.46408563871E+03  0.25500000920E-02 0. -1.
       -2   -1    0    0    0  501  0.00000000000E+00  0.00000000000E+00 -0.77715183380E+03  0.77715183381E+03  0.25500000920E-02 0.  1.
    10030    2    1    2    0    0  0.00000000000E+00  0.00000000000E+00 -0.31306619510E+03  0.12412374725E+04  0.12011078306E+04 0.  0.
        4    1    3    3  502    0  0.18460886199E+03  0.50356091361E+03 -0.43576315803E+03  0.69104643001E+03  0.12699999809E+01 0. -1.
       -4    1    3    3    0  502 -0.18460886199E+03 -0.50356091361E+03  0.12269696294E+03  0.55019104250E+03  0.12699999809E+01 0.  1.
</event>
<event>
 5   0  0.2517023E-03  0.1207641E+04  0.7818609E-02  0.9106194E-01
       -2   -1    0    0    0  501  0.00000000000E+00  0.00000000000E+00  0.10796055286E+04  0.10796055286E+04  0.25500000920E-02 0. -1.
        2   -1    0    0  501    0  0.00000000000E+00  0.00000000000E+00 -0.33771529219E+03  0.33771529220E+03  0.25500000920E-02 0.  1.
    10030    2    1    2    0    0  0.00000000000E+00  0.00000000000E+00  0.74189023638E+03  0.14173208208E+04  0.12076411661E+04 0.  0.
        3    1    3    3  502    0  0.42979857347E+03 -0.19215891978E+03  0.81467474048E+03  0.94092869400E+03  0.10100000352E+00 0. -1.
       -3    1    3    3    0  502 -0.42979857347E+03  0.19215891978E+03 -0.72784504107E+02  0.47639212677E+03  0.10100000352E+00 0.  1.
</event>
<event>
 5   0  0.1403154E-03  0.1182087E+04  0.7818609E-02  0.9128681E-01
       -1   -1    0    0    0  501  0.00000000000E+00  0.00000000000E+00  0.19979968198E+03  0.19979968204E+03  0.50400001928E-02 0. -1.
        1   -1    0    0  501    0  0.00000000000E+00  0.00000000000E+00 -0.17484145137E+04  0.17484145137E+04  0.50400001928E-02 0.  1.
    10030    2    1    2    0    0  0.00000000000E+00  0.00000000000E+00 -0.15486148317E+04  0.19482141958E+04  0.11820874145E+04 0.  0.
        3    1    3    3  502    0  0.32209981759E+03  0.44711788876E+02 -0.15877231597E+04  0.16206826582E+04  0.10100000352E+00 0.  1.
       -3    1    3    3    0  502 -0.32209981759E+03 -0.44711788876E+02  0.39108327997E+02  0.32753153753E+03  0.10100000352E+00 0. -1.
</event>
<event>
 5   0  0.2499890E-03  0.1203202E+04  0.7818609E-02  0.9110059E-01
        2   -1    0    0  501    0  0.00000000000E+00  0.00000000000E+00  0.10775585799E+04  0.10775585799E+04  0.25500000920E-02 0.  1.
       -2   -1    0    0    0  501  0.00000000000E+00  0.00000000000E+00 -0.33587361295E+03  0.33587361296E+03  0.25500000920E-02 0. -1.
    10030    2    1    2    0    0  0.00000000000E+00  0.00000000000E+00  0.74168496699E+03  0.14134321929E+04  0.12032015516E+04 0.  0.
        5    1    3    3  502    0  0.15510262464E+02 -0.59268033062E+03  0.25109611255E+03  0.64388033848E+03  0.46999998093E+01 0. -1.
       -5    1    3    3    0  502 -0.15510262464E+02  0.59268033062E+03  0.49058885444E+03  0.76955185442E+03  0.46999998093E+01 0.  1.
</event>
<event>
 5   0  0.2484507E-03  0.1210888E+04  0.7818609E-02  0.9103380E-01
        2   -1    0    0  501    0  0.00000000000E+00  0.00000000000E+00  0.17597243780E+04  0.17597243780E+04  0.25500000920E-02 0. -1.
       -2   -1    0    0    0  501  0.00000000000E+00  0.00000000000E+00 -0.20830659699E+03  0.20830659701E+03  0.25500000920E-02 0.  1.
    10030    2    1    2    0    0  0.00000000000E+00  0.00000000000E+00  0.15514177810E+04  0.19680309750E+04  0.12108876031E+04 0.  0.
        2    1    3    3  502    0  0.20620361121E+03  0.26792822852E+03 -0.40590512855E+02  0.34051880220E+03  0.25500000920E-02 0.  1.
       -2    1    3    3    0  502 -0.20620361121E+03 -0.26792822852E+03  0.15920082939E+04  0.16275121728E+04  0.25500000920E-02 0. -1.
</event>
<event>
 5   0  0.1403154E-03  0.1221411E+04  0.7818609E-02  0.9094319E-01
       -1   -1    0    0    0  501  0.00000000000E+00  0.00000000000E+00  0.84883903292E+03  0.84883903294E+03  0.50400001928E-02 0.  1.
        1   -1    0    0  501    0  0.00000000000E+00  0.00000000000E+00 -0.43937797881E+03  0.43937797884E+03  0.50400001928E-02 0. -1.
    10030    2    1    2    0    0  0.00000000000E+00  0.00000000000E+00  0.40946105411E+03  0.12882170118E+04  0.12214109524E+04 0.  0.
        3    1    3    3  502    0 -0.33096703256E+03  0.22496565037E+03 -0.28181752003E+03  0.48945872684E+03  0.10100000352E+00 0. -1.
       -3    1    3    3    0  502  0.33096703256E+03 -0.22496565037E+03  0.69127857414E+03  0.79875828494E+03  0.10100000352E+00 0.  1.
</event>
<event>
 5   0  0.2499890E-03  0.1113061E+04  0.7818609E-02  0.9192554E-01
        2   -1    0    0  501    0  0.00000000000E+00  0.00000000000E+00  0.59866834982E+03  0.59866834983E+03  0.25500000920E-02 0. -1.
       -2   -1    0    0    0  501  0.00000000000E+00  0.00000000000E+00 -0.51735854268E+03  0.51735854269E+03  0.25500000920E-02 0.  1.
    10030    2    1    2    0    0  0.00000000000E+00  0.00000000000E+00  0.81309807140E+02  0.11160268925E+04  0.11130609777E+04 0.  0.
        5    1    3    3  502    0 -0.17273945417E+03 -0.27355816772E+02  0.57037776780E+03  0.59660719719E+03  0.46999998093E+01 0. -1.
       -5    1    3    3    0  502  0.17273945417E+03  0.27355816772E+02 -0.48906796066E+03  0.51941969532E+03  0.46999998093E+01 0.  1.
</event>
<event>
 5   0  0.1469851E-03  0.1189230E+04  0.7818609E-02  0.9122336E-01
        1   -1    0    0  501    0  0.00000000000E+00  0.00000000000E+00  0.73561969610E+03  0.73561969612E+03  0.50400001928E-02 0. -1.
       -1   -1    0    0    0  501  0.00000000000E+00  0.00000000000E+00 -0.48063852054E+03  0.48063852057E+03  0.50400001928E-02 0.  1.
    10030    2    1    2    0    0  0.00000000000E+00  0.00000000000E+00  0.25498117556E+03  0.12162582167E+04  0.11892302762E+04 0.  0.
        5    1    3    3  502    0  0.29968073812E+01  0.12926121778E+03 -0.46606812490E+03  0.48369311585E+03  0.46999998093E+01 0.  1.
       -5    1    3    3    0  502 -0.29968073812E+01 -0.12926121778E+03  0.72104930046E+03  0.73256510084E+03  0.46999998093E+01 0. -1.
</event>
<event>
 5   0  0.2499890E-03  0.1193501E+04  0.7818609E-02  0.9118564E-01
        2   -1    0    0  501    0  0.00000000000E+00  0.00000000000E+00  0.16224118226E+04  0.16224118226E+04  0.25500000920E-02 0.  1.
       -2   -1    0    0    0  501  0.00000000000E+00  0.00000000000E+00 -0.21949492536E+03  0.21949492537E+03  0.25500000920E-02 0. -1.
    10030    2    1    2    0    0  0.00000000000E+00  0.00000000000E+00  0.14029168973E+04  0.18419067480E+04  0.11935010045E+04 0.  0.
        5    1    3    3  502    0 -0.29417853845E+03 -0.44500630068E+03  0.11141740308E+04  0.12353046106E+04  0.46999998093E+01 0.  1.
       -5    1    3    3    0  502  0.29417853845E+03  0.44500630068E+03  0.28874286647E+03  0.60660213737E+03  0.46999998093E+01 0. -1.
</event>
<event>
 5   0  0.2580244E-03  0.1208374E+04  0.7818609E-02  0.9105558E-01
        2   -1    0    0  501    0  0.00000000000E+00  0.00000000000E+00  0.15475679206E+04  0.15475679206E+04  0.25500000920E-02 0. -1.
       -2   -1    0    0    0  501  0.00000000000E+00  0.00000000000E+00 -0.23588117972E+03  0.23588117973E+03  0.25500000920E-02 0.  1.
    10030    2    1    2    0    0  0.00000000000E+00  0.00000000000E+00  0.13116867408E+04  0.17834491003E+04  0.12083743572E+04 0.  0.
        1    1    3    3  502    0 -0.18113289302E+02 -0.22150858464E+03  0.14850461345E+04  0.15015845517E+04  0.50400001928E-02 0. -1.
       -1    1    3    3    0  502  0.18113289302E+02  0.22150858464E+03 -0.17335939369E+03  0.28186454854E+03  0.50400001928E-02 0.  1.
</event>
<event>
 5   0  0.2579442E-03  0.1209661E+04  0.7818609E-02  0.9104442E-01
        2   -1    0    0  501    0  0.00000000000E+00  0.00000000000E+00  0.11340115018E+04  0.11340115019E+04  0.25500000920E-02 0.  1.
       -2   -1    0    0    0  501  0.00000000000E+00  0.00000000000E+00 -0.32258934654E+03  0.32258934655E+03  0.25500000920E-02 0. -1.
    10030    2    1    2    0    0  0.00000000000E+00  0.00000000000E+00  0.81142215530E+03  0.14566008484E+04  0.12096611581E+04 0.  0.
        4    1    3    3  502    0 -0.11759116494E+03 -0.59288835705E+03  0.43193065910E+03  0.74290644981E+03  0.12699999809E+01 0. -1.
       -4    1    3    3    0  502  0.11759116494E+03  0.59288835705E+03  0.37949149621E+03  0.71369439860E+03  0.12699999809E+01 0.  1.
</event>
<event>
 5   0  0.1403154E-03  0.1192967E+04  0.7818609E-02  0.9119035E-01
        1   -1    0    0  501    0  0.00000000000E+00  0.00000000000E+00  0.17501352118E+03  0.17501352126E+03  0.50400001928E-02 0. -1.
       -1   -1    0    0    0  501  0.00000000000E+00  0.00000000000E+00 -0.20329434767E+04  0.20329434767E+04  0.50400001928E-02 0.  1.
    10030    2    1    2    0    0  0.00000000000E+00  0.00000000000E+00 -0.18579299555E+04  0.22079569980E+04  0.11929670512E+04 0.  0.
        3    1    3    3  502    0  0.32943839488E+03 -0.14007522661E+03 -0.45909018807E+02  0.36091324905E+03  0.10100000352E+00 0. -1.
       -3    1    3    3    0  502 -0.32943839488E+03  0.14007522661E+03 -0.18120209367E+04  0.18470437489E+04  0.10100000352E+00 0.  1.
</event>
<event>
 5   0  0.1455076E-03  0.1198776E+04  0.7818609E-02  0.9113928E-01
        1   -1    0    0  501    0  0.00000000000E+00  0.00000000000E+00  0.33691229404E+03  0.33691229408E+03  0.50400001928E-02 0. -1.
       -1   -1    0    0    0  501  0.00000000000E+00  0.00000000000E+00 -0.10663492647E+04  0.10663492647E+04  0.50400001928E-02 0.  1.
    10030    2    1    2    0    0  0.00000000000E+00  0.00000000000E+00 -0.72943697067E+03  0.14032615588E+04  0.11987763379E+04 0.  0.
        4    1    3    3  502    0 -0.19241806331E+03  0.37292003167E+03  0.13627056650E+03  0.44120895425E+03  0.12699999809E+01 0. -1.
       -4    1    3    3    0  502  0.19241806331E+03 -0.37292003167E+03 -0.86570753717E+03  0.96205260455E+03  0.12699999809E+01 0.  1.
</event>
<event>
 5   0  0.2580244E-03  0.1203074E+04  0.7818609E-02  0.9110170E-01
       -2   -1    0    0    0  501  0.00000000000E+00  0.00000000000E+00  0.51476621210E+03  0.51476621210E+03  0.25500000920E-02 0. -1.
        2   -1    0    0  501    0  0.00000000000E+00  0.00000000000E+00 -0.70293425472E+03  0.70293425473E+03  0.25500000920E-02 0.  1.
    10030    2    1    2    0    0  0.00000000000E+00  0.00000000000E+00 -0.18816804263E+03  0.12177004668E+04  0.12030740686E+04 0.  0.
        1    1    3    3  502    0 -0.21530289525E+03  0.28132407639E+03 -0.58615107125E+03  0.68488805729E+03  0.50400001928E-02 0.  1.
       -1    1    3    3    0  502  0.21530289525E+03 -0.28132407639E+03  0.39798302863E+03  0.53281240954E+03  0.50400001928E-02 0. -1.
</event>
<event>
 5   0  0.1404833E-03  0.1195716E+04  0.7818609E-02  0.9116614E-01
       -1   -1    0    0    0  501  0.00000000000E+00  0.00000000000E+00  0.10081625907E+04  0.10081625907E+04  0.50400001928E-02 0.  1.
        1   -1    0    0  501    0  0.00000000000E+00  0.00000000000E+00 -0.35454038820E+03  0.35454038824E+03  0.50400001928E-02 0. -1.
    10030    2    1    2    0    0  0.00000000000E+00  0.00000000000E+00  0.65362220253E+03  0.13627029790E+04  0.11957162813E+04 0.  0.
        1    1    3    3  502    0  0.33323640822E+03 -0.49515445615E+03  0.28716952935E+03  0.66233735953E+03  0.50400001928E-02 0. -1.
       -1    1    3    3    0  502 -0.33323640822E+03  0.49515445615E+03  0.36645267318E+03  0.70036561946E+03  0.50400001928E-02 0.  1.
</event>
<event>
 5   0  0.2579442E-03  0.1199525E+04  0.7818609E-02  0.9113272E-01
        2   -1    0    0  501    0  0.00000000000E+00  0.00000000000E+00  0.74161683626E+03  0.74161683627E+03  0.25500000920E-02 0.  1.
       -2   -1    0    0    0  501  0.00000000000E+00  0.00000000000E+00 -0.48504193081E+03  0.48504193082E+03  0.25500000920E-02 0. -1.
    10030    2    1    2    0    0  0.00000000000E+00  0.00000000000E+00  0.25657490545E+03  0.12266587671E+04  0.11995253431E+04 0.  0.
        4    1    3    3  502    0  0.21959443249E+03 -0.52027911811E+03  0.33485057833E+03  0.65653529854E+03  0.12699999809E+01 0.  1.
       -4    1    3    3    0  502 -0.21959443249E+03  0.52027911811E+03 -0.78275672880E+02  0.57012346854E+03  0.12699999809E+01 0. -1.
</event>
<event>
 5   0  0.2499890E-03  0.1177968E+04  0.7818609E-02  0.9132362E-01
       -2   -1    0    0    0  501  0.00000000000E+00  0.00000000000E+00  0.14593591893E+03  0.14593591895E+03  0.25500000920E-02 0.  1.
        2   -1    0    0  501    0  0.00000000000E+00  0.00000000000E+00 -0.23770865996E+04  0.23770865996E+04  0.25500000920E-02 0. -1.
    10030    2    1    2    0    0  0.00000000000E+00  0.00000000000E+00 -0.22311506807E+04  0.25230225186E+04  0.11779682803E+04 0.  0.
        5    1    3    3  502    0  0.28726467281E+03  0.49206913538E+03 -0.79625254683E+03  0.97912881408E+03  0.46999998093E+01 0.  1.
       -5    1    3    3    0  502 -0.28726467281E+03 -0.49206913538E+03 -0.14348981339E+04  0.15438937045E+04  0.46999998093E+01 0. -1.
</event>
<event>
 5   0  0.2499890E-03  0.1193957E+04  0.7818609E-02  0.9118163E-01
        2   -1    0    0  501    0  0.00000000000E+00  0.00000000000E+00  0.84693941025E+03  0.84693941025E+03  0.25500000920E-02 0.  1.
       -2   -1    0    0    0  501  0.00000000000E+00  0.00000000000E+00 -0.42078941295E+03  0.42078941295E+03  0.25500000920E-02 0. -1.
    10030    2    1    2    0    0  0.00000000000E+00  0.00000000000E+00  0.42614999730E+03  0.12677288232E+04  0.11939566780E+04 0.  0.
        5    1    3    3  502    0 -0.14953299387E+03 -0.24620852174E+03 -0.34209116396E+03  0.44724401269E+03  0.46999998093E+01 0. -1.
       -5    1    3    3    0  502  0.14953299387E+03  0.24620852174E+03  0.76824116126E+03  0.82048481052E+03  0.46999998093E+01 0.  1.
</event>
<event>
 5   0  0.1455076E-03  0.1205342E+04  0.7818609E-02  0.9108194E-01
        1   -1    0    0  501    0  0.00000000000E+00  0.00000000000E+00  0.84714239619E+03  0.84714239620E+03  0.50400001928E-02 0. -1.
       -1   -1    0    0    0  501  0.00000000000E+00  0.00000000000E+00 -0.42874979394E+03  0.42874979397E+03  0.50400001928E-02 0.  1.
    10030    2    1    2    0    0  0.00000000000E+00  0.00000000000E+00  0.41839260225E+03  0.12758921902E+04  0.12053416575E+04 0.  0.
        4    1    3    3  502    0 -0.36043374091E+03  0.48284852640E+03  0.22238909963E+03  0.64227229862E+03  0.12699999809E+01 0.  1.
       -4    1    3    3    0  502  0.36043374091E+03 -0.48284852640E+03  0.19600350262E+03  0.63361989156E+03  0.12699999809E+01 0. -1.
</event>
<event>
 5   0  0.1455076E-03  0.1193427E+04  0.7818609E-02  0.9118629E-01
        1   -1    0    0  501    0  0.00000000000E+00  0.00000000000E+00  0.61272222430E+03  0.61272222432E+03  0.50400001928E-02 0. -1.
       -1   -1    0    0    0  501  0.00000000000E+00  0.00000000000E+00 -0.58112319372E+03  0.58112319374E+03  0.50400001928E-02 0.  1.
    10030    2    1    2    0    0  0.00000000000E+00  0.00000000000E+00  0.31599030587E+02  0.11938454181E+04  0.11934271589E+04 0.  0.
        4    1    3    3  502    0  0.37869748941E+02  0.25236487735E+02  0.61098239175E+03  0.61267617395E+03  0.12699999809E+01 0. -1.
       -4    1    3    3    0  502 -0.37869748941E+02 -0.25236487735E+02 -0.57938336117E+03  0.58116924411E+03  0.12699999809E+01 0.  1.
</event>
<event>
 5   0  0.9678750E-04  0.1273975E+04  0.7818609E-02  0.9050462E-01
       -3   -1    0    0    0  501  0.00000000000E+00  0.00000000000E+00  0.52204349225E+03  0.52204350202E+03  0.10100000352E+00 0.  1.
        3   -1    0    0  501    0  0.00000000000E+00  0.00000000000E+00 -0.77723998104E+03  0.77723998760E+03  0.10100000352E+00 0. -1.
    10030    2    1    2    0    0  0.00000000000E+00  0.00000000000E+00 -0.25519648879E+03  0.12992834896E+04  0.12739750149E+04 0.  0.
        5    1    3    3  502    0  0.15689925883E+03  0.29933959949E+03  0.42304372112E+03  0.54148836851E+03  0.46999998093E+01 0.  1.
       -5    1    3    3    0  502 -0.15689925883E+03 -0.29933959949E+03 -0.67824020992E+03  0.75779512112E+03  0.46999998093E+01 0. -1.
</event>
<event>
 5   0  0.1404833E-03  0.1208290E+04  0.7818609E-02  0.9105631E-01
        1   -1    0    0  501    0  0.00000000000E+00  0.00000000000E+00  0.10922555328E+04  0.10922555328E+04  0.50400001928E-02 0. -1.
       -1   -1    0    0    0  501  0.00000000000E+00  0.00000000000E+00 -0.33416296812E+03  0.33416296816E+03  0.50400001928E-02 0.  1.
    10030    2    1    2    0    0  0.00000000000E+00  0.00000000000E+00  0.75809256472E+03  0.14264185010E+04  0.12082902811E+04 0.  0.
        1    1    3    3  502    0  0.50057116849E+03 -0.16538966635E+03  0.72738380779E+03  0.89833871135E+03  0.50400001928E-02 0. -1.
       -1    1    3    3    0  502 -0.50057116849E+03  0.16538966635E+03  0.30708756933E+02  0.52807978965E+03  0.50400001928E-02 0.  1.
</event>
<event>
 5   0  0.2499890E-03  0.1216229E+04  0.7818609E-02  0.9098769E-01
        2   -1    0    0  501    0  0.00000000000E+00  0.00000000000E+00  0.90266712666E+03  0.90266712666E+03  0.25500000920E-02 0. -1.
       -2   -1    0    0    0  501  0.00000000000E+00  0.00000000000E+00 -0.40967831532E+03  0.40967831533E+03  0.25500000920E-02 0.  1.
    10030    2    1    2    0    0  0.00000000000E+00  0.00000000000E+00  0.49298881134E+03  0.13123454420E+04  0.12162288399E+04 0.  0.
        5    1    3    3  502    0 -0.56454624944E+03 -0.98572915216E+02  0.46591681218E+03  0.73859979233E+03  0.46999998093E+01 0. -1.
       -5    1    3    3    0  502  0.56454624944E+03  0.98572915216E+02  0.27071999165E+02  0.57374564966E+03  0.46999998093E+01 0.  1.
</event>
<event>
 5   0  0.2579442E-03  0.1206135E+04  0.7818609E-02  0.9107503E-01
        2   -1    0    0  501    0  0.00000000000E+00  0.00000000000E+00  0.80095327213E+03  0.80095327213E+03  0.25500000920E-02 0.  1.
       -2   -1    0    0    0  501  0.00000000000E+00  0.00000000000E+00 -0.45407218399E+03  0.45407218399E+03  0.25500000920E-02 0. -1.
    10030    2    1    2    0    0  0.00000000000E+00  0.00000000000E+00  0.34688108814E+03  0.12550254561E+04  0.12061353184E+04 0.  0.
        4    1    3    3  502    0 -0.59716886948E+03  0.80894015688E+02  0.19749666299E+03  0.63416168699E+03  0.12699999809E+01 0. -1.
       -4    1    3    3    0  502  0.59716886948E+03 -0.80894015688E+02  0.14938442516E+03  0.62086376914E+03  0.12699999809E+01 0.  1.
</event>
<event>
 5   0  0.2580244E-03  0.1202079E+04  0.7818609E-02  0.9111039E-01
       -2   -1    0    0    0  501  0.00000000000E+00  0.00000000000E+00  0.16784313106E+03  0.16784313107E+03  0.25500000920E-02 0. -1.
        2   -1    0    0  501    0  0.00000000000E+00  0.00000000000E+00 -0.21522974142E+04  0.21522974142E+04  0.25500000920E-02 0.  1.
    10030    2    1    2    0    0  0.00000000000E+00  0.00000000000E+00 -0.19844542832E+04  0.23201405453E+04  0.12020787611E+04 0.  0.
        1    1    3    3  502    0 -0.26247138532E+02  0.37001944253E+03 -0.79457889096E+02  0.37936375196E+03  0.50400001928E-02 0. -1.
       -1    1    3    3    0  502  0.26247138532E+02 -0.37001944253E+03 -0.19049963941E+04  0.19407767933E+04  0.50400001928E-02 0.  1.
</event>
<event>
 5   0  0.2580244E-03  0.1201995E+04  0.7818609E-02  0.9111112E-01
        2   -1    0    0  501    0  0.00000000000E+00  0.00000000000E+00  0.13290587570E+04  0.13290587570E+04  0.25500000920E-02 0.  1.
       -2   -1    0    0    0  501  0.00000000000E+00  0.00000000000E+00 -0.27176985306E+03  0.27176985307E+03  0.25500000920E-02 0. -1.
    10030    2    1    2    0    0  0.00000000000E+00  0.00000000000E+00  0.10572889039E+04  0.16008286100E+04  0.12019951799E+04 0.  0.
        1    1    3    3  502    0 -0.76999198439E+02 -0.49545068229E+03  0.87339271885E+02  0.50894833096E+03  0.50400001928E-02 0. -1.
       -1    1    3    3    0  502  0.76999198439E+02  0.49545068229E+03  0.96994963204E+03  0.10918802791E+04  0.50400001928E-02 0.  1.
</event>
<event>
 5   0  0.1423024E-03  0.1222229E+04  0.7818609E-02  0.9093619E-01
       -1   -1    0    0    0  501  0.00000000000E+00  0.00000000000E+00  0.59210167698E+03  0.59210167700E+03  0.50400001928E-02 0.  1.
        1   -1    0    0  501    0  0.00000000000E+00  0.00000000000E+00 -0.63073742733E+03  0.63073742735E+03  0.50400001928E-02 0. -1.
    10030    2    1    2    0    0  0.00000000000E+00  0.00000000000E+00 -0.38635750354E+02  0.12228391043E+04  0.12222286013E+04 0.  0.
        2    1    3    3  502    0 -0.15343601003E+03 -0.52752535075E+03  0.24846312661E+03  0.60295897883E+03  0.25500000920E-02 0.  1.
       -2    1    3    3    0  502  0.15343601003E+03  0.52752535075E+03 -0.28709887696E+03  0.61988012552E+03  0.25500000920E-02 0. -1.
</event>
<event>
 5   0  0.1469851E-03  0.1197204E+04  0.7818609E-02  0.9115307E-01
        1   -1    0    0  501    0  0.00000000000E+00  0.00000000000E+00  0.96193393208E+03  0.96193393209E+03  0.50400001928E-02 0. -1.
       -1   -1    0    0    0  501  0.00000000000E+00  0.00000000000E+00 -0.37250419377E+03  0.37250419381E+03  0.50400001928E-02 0.  1.
    10030    2    1    2    0    0  0.00000000000E+00  0.00000000000E+00  0.58942973831E+03  0.13344381259E+04  0.11972041160E+04 0.  0.
        5    1    3    3  502    0 -0.51183546960E+02  0.49073498069E+03 -0.83046869106E+02  0.50035932011E+03  0.46999998093E+01 0.  1.
       -5    1    3    3    0  502  0.51183546960E+02 -0.49073498069E+03  0.67247660741E+03  0.83407880579E+03  0.46999998093E+01 0. -1.
</event>
<event>
 5   0  0.2499890E-03  0.1193534E+04  0.7818609E-02  0.9118535E-01
       -2   -1    0    0    0  501  0.00000000000E+00  0.00000000000E+00  0.12409104077E+04  0.12409104077E+04  0.25500000920E-02 0.  1.
        2   -1    0    0  501    0  0.00000000000E+00  0.00000000000E+00 -0.28699168107E+03  0.28699168108E+03  0.25500000920E-02 0. -1.
    10030    2    1    2    0    0  0.00000000000E+00  0.00000000000E+00  0.95391872659E+03  0.15279020887E+04  0.11935341871E+04 0.  0.
        5    1    3    3  502    0  0.11101908338E+03 -0.15991961833E+03 -0.24517353630E+03  0.31310010236E+03  0.46999998093E+01 0. -1.
       -5    1    3    3    0  502 -0.11101908338E+03  0.15991961833E+03  0.11990922629E+04  0.12148019864E+04  0.46999998093E+01 0.  1.
</event>
<event>
 5   0  0.1455076E-03  0.1184717E+04  0.7818609E-02  0.9126340E-01
        1   -1    0    0  501    0  0.00000000000E+00  0.00000000000E+00  0.51346801866E+03  0.51346801868E+03  0.50400001928E-02 0. -1.
       -1   -1    0    0    0  501  0.00000000000E+00  0.00000000000E+00 -0.68336967412E+03  0.68336967414E+03  0.50400001928E-02 0.  1.
    10030    2    1    2    0    0  0.00000000000E+00  0.00000000000E+00 -0.16990165546E+03  0.11968376928E+04  0.11847167976E+04 0.  0.
        4    1    3    3  502    0 -0.10741800391E+03 -0.78844860187E+02 -0.66803158047E+03  0.68119229661E+03  0.12699999809E+01 0.  1.
       -4    1    3    3    0  502  0.10741800391E+03  0.78844860187E+02  0.49812992502E+03  0.51564539622E+03  0.12699999809E+01 0. -1.
</event>
<event>
 5   0  0.2484507E-03  0.1208672E+04  0.7818609E-02  0.9105299E-01
        2   -1    0    0  501    0  0.00000000000E+00  0.00000000000E+00  0.12801729039E+04  0.12801729039E+04  0.25500000920E-02 0.  1.
       -2   -1    0    0    0  501  0.00000000000E+00  0.00000000000E+00 -0.28529130729E+03  0.28529130731E+03  0.25500000920E-02 0. -1.
    10030    2    1    2    0    0  0.00000000000E+00  0.00000000000E+00  0.99488159660E+03  0.15654642112E+04  0.12086723317E+04 0.  0.
        2    1    3    3  502    0  0.17450733552E+03  0.11063543676E+03  0.12330024456E+04  0.12501952011E+04  0.25500000920E-02 0.  1.
       -2    1    3    3    0  502 -0.17450733552E+03 -0.11063543676E+03 -0.23812084898E+03  0.31526901012E+03  0.25500000920E-02 0. -1.
</event>
<event>
 5   0  0.1404833E-03  0.1219406E+04  0.7818609E-02  0.9096038E-01
       -1   -1    0    0    0  501  0.00000000000E+00  0.00000000000E+00  0.44240333916E+03  0.44240333919E+03  0.50400001928E-02 0. -1.
        1   -1    0    0  501    0  0.00000000000E+00  0.00000000000E+00 -0.84026841888E+03  0.84026841889E+03  0.50400001928E-02 0.  1.
    10030    2    1    2    0    0  0.00000000000E+00  0.00000000000E+00 -0.39786507972E+03  0.12826717581E+04  0.12194056820E+04 0.  0.
        1    1    3    3  502    0  0.58859419114E+03 -0.63479979802E+02 -0.35232259365E+03  0.68891511792E+03  0.50400001928E-02 0.  1.
       -1    1    3    3    0  502 -0.58859419114E+03  0.63479979802E+02 -0.45542486072E+02  0.59375664016E+03  0.50400001928E-02 0. -1.
</event>
<event>
 5   0  0.2517023E-03  0.1190128E+04  0.7818609E-02  0.9121541E-01
        2   -1    0    0  501    0  0.00000000000E+00  0.00000000000E+00  0.78221736958E+03  0.78221736958E+03  0.25500000920E-02 0.  1.
       -2   -1    0    0    0  501  0.00000000000E+00  0.00000000000E+00 -0.45268924159E+03  0.45268924159E+03  0.25500000920E-02 0. -1.
    10030    2    1    2    0    0  0.00000000000E+00  0.00000000000E+00  0.32952812799E+03  0.12349066112E+04  0.11901283759E+04 0.  0.
        3    1    3    3  502    0  0.42289945388E+03  0.31785815489E+03  0.44745467197E+03  0.69288776031E+03  0.10100000352E+00 0.  1.
       -3    1    3    3    0  502 -0.42289945388E+03 -0.31785815489E+03 -0.11792654398E+03  0.54201885087E+03  0.10100000352E+00 0. -1.
</event>
<event>
 5   0  0.2499890E-03  0.1199537E+04  0.7818609E-02  0.9113262E-01
       -2   -1    0    0    0  501  0.00000000000E+00  0.00000000000E+00  0.15527495184E+03  0.15527495187E+03  0.25500000920E-02 0. -1.
        2   -1    0    0  501    0  0.00000000000E+00  0.00000000000E+00 -0.23166795567E+04  0.23166795567E+04  0.25500000920E-02 0.  1.
    10030    2    1    2    0    0  0.00000000000E+00  0.00000000000E+00 -0.21614046048E+04  0.24719545086E+04  0.11995370884E+04 0.  0.
        5    1    3    3  502    0  0.56416324691E+03  0.10345510147E+02 -0.14995636197E+04  0.16022173193E+04  0.46999998093E+01 0.  1.
       -5    1    3    3    0  502 -0.56416324691E+03 -0.10345510147E+02 -0.66184098510E+03  0.86973718921E+03  0.46999998093E+01 0. -1.
</event>
<event>
 5   0  0.1404833E-03  0.1343743E+04  0.7818609E-02  0.8995578E-01
        1   -1    0    0  501    0  0.00000000000E+00  0.00000000000E+00  0.82882724514E+03  0.82882724516E+03  0.50400001928E-02 0.  1.
       -1   -1    0    0    0  501  0.00000000000E+00  0.00000000000E+00 -0.54463826328E+03  0.54463826330E+03  0.50400001928E-02 0. -1.
    10030    2    1    2    0    0  0.00000000000E+00  0.00000000000E+00  0.28418898186E+03  0.13734655085E+04  0.13437425816E+04 0.  0.
        1    1    3    3  502    0 -0.37829279584E+03  0.14480499860E+03  0.68998973841E+03  0.80009984761E+03  0.50400001928E-02 0.  1.
       -1    1    3    3    0  502  0.37829279584E+03 -0.14480499860E+03 -0.40580075655E+03  0.57336566085E+03  0.50400001928E-02 0. -1.
</event>
<event>
 5   0  0.1455076E-03  0.1191345E+04  0.7818609E-02  0.9120466E-01
        1   -1    0    0  501    0  0.00000000000E+00  0.00000000000E+00  0.74367553319E+03  0.74367553321E+03  0.50400001928E-02 0. -1.
       -1   -1    0    0    0  501  0.00000000000E+00  0.00000000000E+00 -0.47712426235E+03  0.47712426238E+03  0.50400001928E-02 0.  1.
    10030    2    1    2    0    0  0.00000000000E+00  0.00000000000E+00  0.26655127084E+03  0.12207997956E+04  0.11913448539E+04 0.  0.
        4    1    3    3  502    0  0.36579094360E+03  0.43616106891E+03 -0.46517560735E+02  0.57114357985E+03  0.12699999809E+01 0. -1.
       -4    1    3    3    0  502 -0.36579094360E+03 -0.43616106891E+03  0.31306883157E+03  0.64965621574E+03  0.12699999809E+01 0.  1.
</event>
<event>
 5   0  0.1469851E-03  0.1217762E+04  0.7818609E-02  0.9097450E-01
        1   -1    0    0  501    0  0.00000000000E+00  0.00000000000E+00  0.73193885419E+03  0.73193885420E+03  0.50400001928E-02 0.  1.
       -1   -1    0    0    0  501  0.00000000000E+00  0.00000000000E+00 -0.50651242581E+03  0.50651242583E+03  0.50400001928E-02 0. -1.
    10030    2    1    2    0    0  0.00000000000E+00  0.00000000000E+00  0.22542642838E+03  0.12384512800E+04  0.12177620861E+04 0.  0.
        5    1    3    3  502    0 -0.35573965927E+03  0.38412514076E+03  0.42881738691E+03  0.67676382162E+03  0.46999998093E+01 0.  1.
       -5    1    3    3    0  502  0.35573965927E+03 -0.38412514076E+03 -0.20339095852E+03  0.56168745842E+03  0.46999998093E+01 0. -1.
</event>
<event>
 5   0  0.1469851E-03  0.1235930E+04  0.7818609E-02  0.9081976E-01
       -1   -1    0    0    0  501  0.00000000000E+00  0.00000000000E+00  0.32327644853E+03  0.32327644857E+03  0.50400001928E-02 0. -1.
        1   -1    0    0  501    0  0.00000000000E+00  0.00000000000E+00 -0.11812816183E+04  0.11812816183E+04  0.50400001928E-02 0.  1.
    10030    2    1    2    0    0  0.00000000000E+00  0.00000000000E+00 -0.85800516972E+03  0.15045580668E+04  0.12359296522E+04 0.  0.
        5    1    3    3  502    0  0.60503447018E+03 -0.11649105599E+02 -0.58132224021E+03  0.83914244841E+03  0.46999998093E+01 0.  1.
       -5    1    3    3    0  502 -0.60503447018E+03  0.11649105599E+02 -0.27668292951E+03  0.66541561843E+03  0.46999998093E+01 0. -1.
</event>
<event>
 5   0  0.2499890E-03  0.1201006E+04  0.7818609E-02  0.9111976E-01
        2   -1    0    0  501    0  0.00000000000E+00  0.00000000000E+00  0.18434187229E+04  0.18434187229E+04  0.25500000920E-02 0. -1.
       -2   -1    0    0    0  501  0.00000000000E+00  0.00000000000E+00 -0.19561695648E+03  0.19561695650E+03  0.25500000920E-02 0.  1.
    10030    2    1    2    0    0  0.00000000000E+00  0.00000000000E+00  0.16478017664E+04  0.20390356794E+04  0.12010061784E+04 0.  0.
        5    1    3    3  502    0  0.82453772894E+02 -0.46428502655E+02 -0.18284783727E+03  0.20593603890E+03  0.46999998093E+01 0.  1.
       -5    1    3    3    0  502 -0.82453772894E+02  0.46428502655E+02  0.18306496037E+04  0.18330996405E+04  0.46999998093E+01 0. -1.
</event>
<event>
 5   0  0.2499890E-03  0.1201687E+04  0.7818609E-02  0.9111382E-01
        2   -1    0    0  501    0  0.00000000000E+00  0.00000000000E+00  0.20337682707E+04  0.20337682707E+04  0.25500000920E-02 0.  1.
       -2   -1    0    0    0  501  0.00000000000E+00  0.00000000000E+00 -0.17750925716E+03  0.17750925717E+03  0.25500000920E-02 0. -1.
    10030    2    1    2    0    0  0.00000000000E+00  0.00000000000E+00  0.18562590135E+04  0.22112775278E+04  0.12016866396E+04 0.  0.
        5    1    3    3  502    0 -0.16497401631E+03 -0.37280816831E+03  0.11598484126E+03  0.42388315585E+03  0.46999998093E+01 0. -1.
       -5    1    3    3    0  502  0.16497401631E+03  0.37280816831E+03  0.17402741723E+04  0.17873943720E+04  0.46999998093E+01 0.  1.
</event>
<event>
 5   0  0.2517023E-03  0.1168889E+04  0.7818609E-02  0.9140532E-01
       -2   -1    0    0    0  501  0.00000000000E+00  0.00000000000E+00  0.14281077566E+03  0.14281077569E+03  0.25500000920E-02 0.  1.
        2   -1    0    0  501    0  0.00000000000E+00  0.00000000000E+00 -0.23918054261E+04  0.23918054261E+04  0.25500000920E-02 0. -1.
    10030    2    1    2    0    0  0.00000000000E+00  0.00000000000E+00 -0.22489946505E+04  0.25346162018E+04  0.11688893672E+04 0.  0.
        3    1    3    3  502    0  0.26324583398E+03 -0.52064135670E+03 -0.10490761707E+04  0.12003860269E+04  0.10100000352E+00 0.  1.
       -3    1    3    3    0  502 -0.26324583398E+03  0.52064135670E+03 -0.11999184798E+04  0.13342301750E+04  0.10100000352E+00 0. -1.
</event>
<event>
 5   0  0.2499890E-03  0.1200471E+04  0.7818609E-02  0.9112444E-01
        2   -1    0    0  501    0  0.00000000000E+00  0.00000000000E+00  0.93472104696E+03  0.93472104696E+03  0.25500000920E-02 0. -1.
       -2   -1    0    0    0  501  0.00000000000E+00  0.00000000000E+00 -0.38544405991E+03  0.38544405992E+03  0.25500000920E-02 0.  1.
    10030    2    1    2    0    0  0.00000000000E+00  0.00000000000E+00  0.54927698705E+03  0.13201651069E+04  0.12004710329E+04 0.  0.
        5    1    3    3  502    0 -0.21027590886E+03 -0.31530199006E+03  0.78647958078E+03  0.87304268152E+03  0.46999998093E+01 0. -1.
       -5    1    3    3    0  502  0.21027590886E+03  0.31530199006E+03 -0.23720259373E+03  0.44712242535E+03  0.46999998093E+01 0.  1.
</event>
<event>
 5   0  0.1423024E-03  0.1201260E+04  0.7818609E-02  0.9111754E-01
        1   -1    0    0  501    0  0.00000000000E+00  0.00000000000E+00  0.51024808296E+03  0.51024808299E+03  0.50400001928E-02 0. -1.
       -1   -1    0    0    0  501  0.00000000000E+00  0.00000000000E+00 -0.70702172033E+03  0.70702172034E+03  0.50400001928E-02 0.  1.
    10030    2    1    2    0    0  0.00000000000E+00  0.00000000000E+00 -0.19677363736E+03  0.12172698033E+04  0.12012601341E+04 0.  0.
        2    1    3    3  502    0 -0.22922262963E+03 -0.89815317422E+02 -0.65354475219E+03  0.69837708174E+03  0.25500000920E-02 0.  1.
       -2    1    3    3    0  502  0.22922262963E+03  0.89815317422E+02  0.45677111483E+03  0.51889272160E+03  0.25500000920E-02 0. -1.
</event>
<event>
 5   0  0.2517023E-03  0.1198423E+04  0.7818609E-02  0.9114238E-01
        2   -1    0    0  501    0  0.00000000000E+00  0.00000000000E+00  0.18533916645E+04  0.18533916645E+04  0.25500000920E-02 0. -1.
       -2   -1    0    0    0  501  0.00000000000E+00  0.00000000000E+00 -0.19372843576E+03  0.19372843578E+03  0.25500000920E-02 0.  1.
    10030    2    1    2    0    0  0.00000000000E+00  0.00000000000E+00  0.16596632287E+04  0.20471201003E+04  0.11984234110E+04 0.  0.
        3    1    3    3  502    0  0.55915978915E+03  0.21488219343E+03  0.80445893748E+03  0.10029896406E+04  0.10100000352E+00 0. -1.
       -3    1    3    3    0  502 -0.55915978915E+03 -0.21488219343E+03  0.85520429125E+03  0.10441304597E+04  0.10100000352E+00 0.  1.
</event>
<event>
 5   0  0.2484507E-03  0.1205720E+04  0.7818609E-02  0.9107865E-01
       -2   -1    0    0    0  501  0.00000000000E+00  0.00000000000E+00  0.46701184503E+03  0.46701184504E+03  0.25500000920E-02 0. -1.
        2   -1    0    0  501    0  0.00000000000E+00  0.00000000000E+00 -0.77822438998E+03  0.77822438999E+03  0.25500000920E-02 0.  1.
    10030    2    1    2    0    0  0.00000000000E+00  0.00000000000E+00 -0.31121254495E+03  0.12452362350E+04  0.12057197157E+04 0.  0.
        2    1    3    3  502    0 -0.33270672294E+03 -0.21264028848E+02 -0.67435724300E+03  0.75226565361E+03  0.25500000920E-02 0.  1.
       -2    1    3    3    0  502  0.33270672294E+03  0.21264028848E+02  0.36314469805E+03  0.49297058141E+03  0.25500000920E-02 0. -1.
</event>
<event>
 5   0  0.2517023E-03  0.1197379E+04  0.7818609E-02  0.9115153E-01
       -2   -1    0    0    0  501  0.00000000000E+00  0.00000000000E+00  0.72168891440E+03  0.72168891440E+03  0.25500000920E-02 0.  1.
        2   -1    0    0  501    0  0.00000000000E+00  0.00000000000E+00 -0.49665352962E+03  0.49665352962E+03  0.25500000920E-02 0. -1.
    10030    2    1    2    0    0  0.00000000000E+00  0.00000000000E+00  0.22503538478E+03  0.12183424440E+04  0.11973793829E+04 0.  0.
        3    1    3    3  502    0 -0.32497831583E+03  0.11267828616E+02  0.62400267403E+03  0.70364566162E+03  0.10100000352E+00 0.  1.
       -3    1    3    3    0  502  0.32497831583E+03 -0.11267828616E+02 -0.39896728925E+03  0.51469678240E+03  0.10100000352E+00 0. -1.
</event>
<event>
 5   0  0.1423024E-03  0.1206240E+04  0.7818609E-02  0.9107412E-01
       -1   -1    0    0    0  501  0.00000000000E+00  0.00000000000E+00  0.85145550159E+03  0.85145550161E+03  0.50400001928E-02 0. -1.
        1   -1    0    0  501    0  0.00000000000E+00  0.00000000000E+00 -0.42721422928E+03  0.42721422930E+03  0.50400001928E-02 0.  1.
    10030    2    1    2    0    0  0.00000000000E+00  0.00000000000E+00  0.42424127232E+03  0.12786697309E+04  0.12062402844E+04 0.  0.
        2    1    3    3  502    0 -0.19947038668E+03 -0.37965937872E+03 -0.23739898916E+03  0.49019175745E+03  0.25500000920E-02 0.  1.
       -2    1    3    3    0  502  0.19947038668E+03  0.37965937872E+03  0.66164026148E+03  0.78847797346E+03  0.25500000920E-02 0. -1.
</event>
<event>
 5   0  0.2484507E-03  0.1162511E+04  0.7818609E-02  0.9146319E-01
       -2   -1    0    0    0  501  0.00000000000E+00  0.00000000000E+00  0.57523893262E+03  0.57523893263E+03  0.25500000920E-02 0. -1.
        2   -1    0    0  501    0  0.00000000000E+00  0.00000000000E+00 -0.58733507941E+03  0.58733507942E+03  0.25500000920E-02 0.  1.
    10030    2    1    2    0    0  0.00000000000E+00  0.00000000000E+00 -0.12096146792E+02  0.11625740120E+04  0.11625110824E+04 0.  0.
        2    1    3    3  502    0 -0.12727304088E+03 -0.50800788916E+03  0.24613131967E+03  0.57866317397E+03  0.25500000920E-02 0. -1.
       -2    1    3    3    0  502  0.12727304088E+03  0.50800788916E+03 -0.25822746646E+03  0.58391083807E+03  0.25500000920E-02 0.  1.
</event>
<event>
 5   0  0.1455076E-03  0.1195527E+04  0.7818609E-02  0.9116780E-01
        1   -1    0    0  501    0  0.00000000000E+00  0.00000000000E+00  0.82935278618E+03  0.82935278620E+03  0.50400001928E-02 0. -1.
       -1   -1    0    0    0  501  0.00000000000E+00  0.00000000000E+00 -0.43084365311E+03  0.43084365314E+03  0.50400001928E-02 0.  1.
    10030    2    1    2    0    0  0.00000000000E+00  0.00000000000E+00  0.39850913307E+03  0.12601964393E+04  0.11955273048E+04 0.  0.
        4    1    3    3  502    0  0.51644128414E+03  0.21549537081E+03 -0.22280274299E+02  0.56004274688E+03  0.12699999809E+01 0. -1.
       -4    1    3    3    0  502 -0.51644128414E+03 -0.21549537081E+03  0.42078940737E+03  0.70015369246E+03  0.12699999809E+01 0.  1.
</event>
<event>
 5   0  0.1455076E-03  0.1198692E+04  0.7818609E-02  0.9114002E-01
        1   -1    0    0  501    0  0.00000000000E+00  0.00000000000E+00  0.48460234115E+03  0.48460234117E+03  0.50400001928E-02 0.  1.
       -1   -1    0    0    0  501  0.00000000000E+00  0.00000000000E+00 -0.74125824023E+03  0.74125824024E+03  0.50400001928E-02 0. -1.
    10030    2    1    2    0    0  0.00000000000E+00  0.00000000000E+00 -0.25665589908E+03  0.12258605814E+04  0.11986917513E+04 0.  0.
        4    1    3    3  502    0  0.13242452355E+03  0.40499185670E+03  0.30272182612E+03  0.52268228910E+03  0.12699999809E+01 0.  1.
       -4    1    3    3    0  502 -0.13242452355E+03 -0.40499185670E+03 -0.55937772520E+03  0.70317829231E+03  0.12699999809E+01 0. -1.
</event>
<event>
 5   0  0.2579442E-03  0.1200858E+04  0.7818609E-02  0.9112106E-01
       -2   -1    0    0    0  501  0.00000000000E+00  0.00000000000E+00  0.43645491865E+03  0.43645491866E+03  0.25500000920E-02 0. -1.
        2   -1    0    0  501    0  0.00000000000E+00  0.00000000000E+00 -0.82600719349E+03  0.82600719349E+03  0.25500000920E-02 0.  1.
    10030    2    1    2    0    0  0.00000000000E+00  0.00000000000E+00 -0.38955227483E+03  0.12624621122E+04  0.12008578641E+04 0.  0.
        4    1    3    3  502    0 -0.18030347567E+03  0.40234541720E+03  0.23371364274E+03  0.49901388536E+03  0.12699999809E+01 0. -1.
       -4    1    3    3    0  502  0.18030347567E+03 -0.40234541720E+03 -0.62326591757E+03  0.76344822679E+03  0.12699999809E+01 0.  1.
</event>
<event>
 5   0  0.1403154E-03  0.1204848E+04  0.7818609E-02  0.9108624E-01
       -1   -1    0    0    0  501  0.00000000000E+00  0.00000000000E+00  0.43625419596E+03  0.43625419599E+03  0.50400001928E-02 0.  1.
        1   -1    0    0  501    0  0.00000000000E+00  0.00000000000E+00 -0.83188748155E+03  0.83188748156E+03  0.50400001928E-02 0. -1.
    10030    2    1    2    0    0  0.00000000000E+00  0.00000000000E+00 -0.39563328558E+03  0.12681416776E+04  0.12048475496E+04 0.  0.
        3    1    3    3  502    0  0.40697969564E+03 -0.10219499927E+02  0.26955712895E+03  0.48826014256E+03  0.10100000352E+00 0.  1.
       -3    1    3    3    0  502 -0.40697969564E+03  0.10219499927E+02 -0.66519041453E+03  0.77988153500E+03  0.10100000352E+00 0. -1.
</event>
<event>
 5   0  0.9678750E-04  0.1192036E+04  0.7818609E-02  0.9119857E-01
        4   -1    0    0  501    0  0.00000000000E+00  0.00000000000E+00  0.52153841871E+03  0.52153996499E+03  0.12699999809E+01 0.  1.
       -4   -1    0    0    0  501  0.00000000000E+00  0.00000000000E+00 -0.68113014378E+03  0.68113132777E+03  0.12699999809E+01 0. -1.
    10030    2    1    2    0    0  0.00000000000E+00  0.00000000000E+00 -0.15959172508E+03  0.12026712928E+04  0.11920355363E+04 0.  0.
        3    1    3    3  502    0  0.23867527967E+03  0.36794887283E+03  0.32739513246E+03  0.54730233427E+03  0.10100000352E+00 0.  1.
       -3    1    3    3    0  502 -0.23867527967E+03 -0.36794887283E+03 -0.48698685754E+03  0.65536895849E+03  0.10100000352E+00 0. -1.
</event>
<event>
 5   0  0.2517023E-03  0.1204773E+04  0.7818609E-02  0.9108689E-01
        2   -1    0    0  501    0  0.00000000000E+00  0.00000000000E+00  0.16950488879E+04  0.16950488879E+04  0.25500000920E-02 0. -1.
       -2   -1    0    0    0  501  0.00000000000E+00  0.00000000000E+00 -0.21407596935E+03  0.21407596937E+03  0.25500000920E-02 0.  1.
    10030    2    1    2    0    0  0.00000000000E+00  0.00000000000E+00  0.14809729186E+04  0.19091248573E+04  0.12047725658E+04 0.  0.
        3    1    3    3  502    0  0.50822703046E+03 -0.25998453771E+03  0.43574770706E+03  0.71816624033E+03  0.10100000352E+00 0.  1.
       -3    1    3    3    0  502 -0.50822703046E+03  0.25998453771E+03  0.10452252115E+04  0.11909586170E+04  0.10100000352E+00 0. -1.
</event>
<event>
 5   0  0.2517023E-03  0.1202471E+04  0.7818609E-02  0.9110696E-01
        2   -1    0    0  501    0  0.00000000000E+00  0.00000000000E+00  0.88273074482E+03  0.88273074483E+03  0.25500000920E-02 0.  1.
       -2   -1    0    0    0  501  0.00000000000E+00  0.00000000000E+00 -0.40950689500E+03  0.40950689500E+03  0.25500000920E-02 0. -1.
    10030    2    1    2    0    0  0.00000000000E+00  0.00000000000E+00  0.47322384983E+03  0.12922376398E+04  0.12024713326E+04 0.  0.
        3    1    3    3  502    0  0.91791066258E+02  0.59418742475E+03  0.23676641578E+03  0.64617539524E+03  0.10100000352E+00 0. -1.
       -3    1    3    3    0  502 -0.91791066258E+02 -0.59418742475E+03  0.23645743405E+03  0.64606224459E+03  0.10100000352E+00 0.  1.
</event>
<event>
 5   0  0.2484507E-03  0.1169906E+04  0.7818609E-02  0.9139613E-01
       -2   -1    0    0    0  501  0.00000000000E+00  0.00000000000E+00  0.34698546778E+03  0.34698546779E+03  0.25500000920E-02 0. -1.
        2   -1    0    0  501    0  0.00000000000E+00  0.00000000000E+00 -0.98612278280E+03  0.98612278280E+03  0.25500000920E-02 0.  1.
    10030    2    1    2    0    0  0.00000000000E+00  0.00000000000E+00 -0.63913731501E+03  0.13331082506E+04  0.11699064494E+04 0.  0.
        2    1    3    3  502    0  0.55604107765E+03 -0.10031399515E+03 -0.49210300241E+03  0.74927294269E+03  0.25500000920E-02 0.  1.
       -2    1    3    3    0  502 -0.55604107765E+03  0.10031399515E+03 -0.14703431260E+03  0.58383530790E+03  0.25500000920E-02 0. -1.
</event>
<event>
 5   0  0.1404833E-03  0.1191114E+04  0.7818609E-02  0.9120670E-01
        1   -1    0    0  501    0  0.00000000000E+00  0.00000000000E+00  0.53691142631E+03  0.53691142633E+03  0.50400001928E-02 0.  1.
       -1   -1    0    0    0  501  0.00000000000E+00  0.00000000000E+00 -0.66060827440E+03  0.66060827442E+03  0.50400001928E-02 0. -1.
    10030    2    1    2    0    0  0.00000000000E+00  0.00000000000E+00 -0.12369684809E+03  0.11975197008E+04  0.11911139842E+04 0.  0.
        1    1    3    3  502    0 -0.36782190761E+03  0.46594941760E+03 -0.10992100180E+03  0.60372546918E+03  0.50400001928E-02 0.  1.
       -1    1    3    3    0  502  0.36782190761E+03 -0.46594941760E+03 -0.13775846296E+02  0.59379423157E+03  0.50400001928E-02 0. -1.
</event>
<event>
 5   0  0.2579442E-03  0.1203620E+04  0.7818609E-02  0.9109694E-01
       -2   -1    0    0    0  501  0.00000000000E+00  0.00000000000E+00  0.41421507349E+03  0.41421507350E+03  0.25500000920E-02 0.  1.
        2   -1    0    0  501    0  0.00000000000E+00  0.00000000000E+00 -0.87436496267E+03  0.87436496267E+03  0.25500000920E-02 0. -1.
    10030    2    1    2    0    0  0.00000000000E+00  0.00000000000E+00 -0.46014988918E+03  0.12885800362E+04  0.12036197859E+04 0.  0.
        4    1    3    3  502    0  0.84561190766E+02  0.52752025027E+03  0.66509278515E+02  0.53838026195E+03  0.12699999809E+01 0.  1.
       -4    1    3    3    0  502 -0.84561190766E+02 -0.52752025027E+03 -0.52665916769E+03  0.75019977422E+03  0.12699999809E+01 0. -1.
</event>
<event>
 5   0  0.1403154E-03  0.1208343E+04  0.7818609E-02  0.9105585E-01
        1   -1    0    0  501    0  0.00000000000E+00  0.00000000000E+00  0.37234623722E+03  0.37234623726E+03  0.50400001928E-02 0. -1.
       -1   -1    0    0    0  501  0.00000000000E+00  0.00000000000E+00 -0.98033301144E+03  0.98033301145E+03  0.50400001928E-02 0.  1.
    10030    2    1    2    0    0  0.00000000000E+00  0.00000000000E+00 -0.60798677421E+03  0.13526792487E+04  0.12083431765E+04 0.  0.
        3    1    3    3  502    0  0.16508661203E+03  0.14932850659E+03 -0.93275215199E+03  0.95894691177E+03  0.10100000352E+00 0.  1.
       -3    1    3    3    0  502 -0.16508661203E+03 -0.14932850659E+03  0.32476537777E+03  0.39373233694E+03  0.10100000352E+00 0. -1.
</event>
<event>
 5   0  0.2517023E-03  0.1193826E+04  0.7818609E-02  0.9118277E-01
        2   -1    0    0  501    0  0.00000000000E+00  0.00000000000E+00  0.50376036093E+03  0.50376036093E+03  0.25500000920E-02 0. -1.
       -2   -1    0    0    0  501  0.00000000000E+00  0.00000000000E+00 -0.70729144964E+03  0.70729144964E+03  0.25500000920E-02 0.  1.
    10030    2    1    2    0    0  0.00000000000E+00  0.00000000000E+00 -0.20353108871E+03  0.12110518106E+04  0.11938264463E+04 0.  0.
        3    1    3    3  502    0 -0.58275869443E+03 -0.43598029175E+02 -0.22516320371E+03  0.62626429132E+03  0.10100000352E+00 0.  1.
       -3    1    3    3    0  502  0.58275869443E+03  0.43598029175E+02  0.21632115005E+02  0.58478751926E+03  0.10100000352E+00 0. -1.
</event>
<event>
 5   0  0.2517023E-03  0.1216147E+04  0.7818609E-02  0.9098840E-01
       -2   -1    0    0    0  501  0.00000000000E+00  0.00000000000E+00  0.47752805703E+03  0.47752805704E+03  0.25500000920E-02 0. -1.
        2   -1    0    0  501    0  0.00000000000E+00  0.00000000000E+00 -0.77430664806E+03  0.77430664807E+03  0.25500000920E-02 0.  1.
    10030    2    1    2    0    0  0.00000000000E+00  0.00000000000E+00 -0.29677859103E+03  0.12518347051E+04  0.12161466181E+04 0.  0.
        3    1    3    3  502    0 -0.54728602596E+03  0.24637883440E+03 -0.47910149504E+02  0.60209626878E+03  0.10100000352E+00 0. -1.
       -3    1    3    3    0  502  0.54728602596E+03 -0.24637883440E+03 -0.24886844153E+03  0.64973843633E+03  0.10100000352E+00 0.  1.
</event>
<event>
 5   0  0.1455076E-03  0.1018984E+04  0.7818609E-02  0.9287965E-01
        1   -1    0    0  501    0  0.00000000000E+00  0.00000000000E+00  0.13099436492E+04  0.13099436493E+04  0.50400001928E-02 0. -1.
       -1   -1    0    0    0  501  0.00000000000E+00  0.00000000000E+00 -0.19816276063E+03  0.19816276069E+03  0.50400001928E-02 0.  1.
    10030    2    1    2    0    0  0.00000000000E+00  0.00000000000E+00  0.11117808886E+04  0.15081064099E+04  0.10189839054E+04 0.  0.
        4    1    3    3  502    0  0.49156931440E+03 -0.13073750958E+03  0.51279826293E+03  0.72228551047E+03  0.12699999809E+01 0. -1.
       -4    1    3    3    0  502 -0.49156931440E+03  0.13073750958E+03  0.59898262568E+03  0.78582089947E+03  0.12699999809E+01 0.  1.
</event>
<event>
 5   0  0.1404833E-03  0.1176069E+04  0.7818609E-02  0.9134065E-01
       -1   -1    0    0    0  501  0.00000000000E+00  0.00000000000E+00  0.68495049292E+03  0.68495049294E+03  0.50400001928E-02 0. -1.
        1   -1    0    0  501    0  0.00000000000E+00  0.00000000000E+00 -0.50483136363E+03  0.50483136366E+03  0.50400001928E-02 0.  1.
    10030    2    1    2    0    0  0.00000000000E+00  0.00000000000E+00  0.18011912929E+03  0.11897818566E+04  0.11760688609E+04 0.  0.
        1    1    3    3  502    0  0.41997753332E+03  0.31044789228E+03 -0.18332360112E+03  0.55350389797E+03  0.50400001928E-02 0.  1.
       -1    1    3    3    0  502 -0.41997753332E+03 -0.31044789228E+03  0.36344273041E+03  0.63627795862E+03  0.50400001928E-02 0. -1.
</event>
<event>
 5   0  0.2580244E-03  0.1203654E+04  0.7818609E-02  0.9109664E-01
       -2   -1    0    0    0  501  0.00000000000E+00  0.00000000000E+00  0.15704361298E+03  0.15704361300E+03  0.25500000920E-02 0.  1.
        2   -1    0    0  501    0  0.00000000000E+00  0.00000000000E+00 -0.23063382532E+04  0.23063382532E+04  0.25500000920E-02 0. -1.
    10030    2    1    2    0    0  0.00000000000E+00  0.00000000000E+00 -0.21492946403E+04  0.24633818662E+04  0.12036539238E+04 0.  0.
        1    1    3    3  502    0 -0.17311445759E+02 -0.37065899741E+03 -0.20443663784E+04  0.20777684346E+04  0.50400001928E-02 0. -1.
       -1    1    3    3    0  502  0.17311445759E+02  0.37065899741E+03 -0.10492826183E+03  0.38561343166E+03  0.50400001928E-02 0.  1.
</event>
<event>
 5   0  0.1455076E-03  0.1218947E+04  0.7818609E-02  0.9096432E-01
        1   -1    0    0  501    0  0.00000000000E+00  0.00000000000E+00  0.95858282135E+03  0.95858282136E+03  0.50400001928E-02 0. -1.
       -1   -1    0    0    0  501  0.00000000000E+00  0.00000000000E+00 -0.38750730652E+03  0.38750730656E+03  0.50400001928E-02 0.  1.
    10030    2    1    2    0    0  0.00000000000E+00  0.00000000000E+00  0.57107551483E+03  0.13460901279E+04  0.12189468359E+04 0.  0.
        4    1    3    3  502    0 -0.16367204932E+03 -0.20427342814E+03 -0.32227208603E+03  0.41518319271E+03  0.12699999809E+01 0.  1.
       -4    1    3    3    0  502  0.16367204932E+03  0.20427342814E+03  0.89334760086E+03  0.93090693521E+03  0.12699999809E+01 0. -1.
</event>
<event>
 5   0  0.2499890E-03  0.1201966E+04  0.7818609E-02  0.9111138E-01
        2   -1    0    0  501    0  0.00000000000E+00  0.00000000000E+00  0.20492375912E+04  0.20492375912E+04  0.25500000920E-02 0. -1.
       -2   -1    0    0    0  501  0.00000000000E+00  0.00000000000E+00 -0.17625109018E+03  0.17625109020E+03  0.25500000920E-02 0.  1.
    10030    2    1    2    0    0  0.00000000000E+00  0.00000000000E+00  0.18729865010E+04  0.22254886814E+04  0.12019656559E+04 0.  0.
        5    1    3    3  502    0  0.31846706243E+03  0.44133590272E+03  0.14083987855E+04  0.15099032677E+04  0.46999998093E+01 0. -1.
       -5    1    3    3    0  502 -0.31846706243E+03 -0.44133590272E+03  0.46458771558E+03  0.71558541373E+03  0.46999998093E+01 0.  1.
</event>
<event>
 5   0  0.1423024E-03  0.1210170E+04  0.7818609E-02  0.9104001E-01
        1   -1    0    0  501    0  0.00000000000E+00  0.00000000000E+00  0.73129268756E+03  0.73129268757E+03  0.50400001928E-02 0. -1.
       -1   -1    0    0    0  501  0.00000000000E+00  0.00000000000E+00 -0.50065813778E+03  0.50065813780E+03  0.50400001928E-02 0.  1.
    10030    2    1    2    0    0  0.00000000000E+00  0.00000000000E+00  0.23063454978E+03  0.12319508254E+04  0.12101696330E+04 0.  0.
        2    1    3    3  502    0  0.66523810527E+02 -0.62449934614E+01  0.72752568728E+03  0.73058746429E+03  0.25500000920E-02 0. -1.
       -2    1    3    3    0  502 -0.66523810527E+02  0.62449934614E+01 -0.49689113750E+03  0.50136336109E+03  0.25500000920E-02 0.  1.
</event>
<event>
 5   0  0.1469851E-03  0.1195119E+04  0.7818609E-02  0.9117140E-01
        1   -1    0    0  501    0  0.00000000000E+00  0.00000000000E+00  0.15412876183E+04  0.15412876183E+04  0.50400001928E-02 0.  1.
       -1   -1    0    0    0  501  0.00000000000E+00  0.00000000000E+00 -0.23167463074E+03  0.23167463080E+03  0.50400001928E-02 0. -1.
    10030    2    1    2    0    0  0.00000000000E+00  0.00000000000E+00  0.13096129876E+04  0.17729622491E+04  0.11951188056E+04 0.  0.
        5    1    3    3  502    0 -0.28348396338E+03  0.93974378430E+02  0.14225974566E+04  0.14536161649E+04  0.46999998093E+01 0.  1.
       -5    1    3    3    0  502  0.28348396338E+03 -0.93974378430E+02 -0.11298446901E+03  0.31934608426E+03  0.46999998093E+01 0. -1.
</event>
<event>
 5   0  0.1404833E-03  0.1314236E+04  0.7818609E-02  0.9018351E-01
        1   -1    0    0  501    0  0.00000000000E+00  0.00000000000E+00  0.75952251035E+03  0.75952251036E+03  0.50400001928E-02 0. -1.
       -1   -1    0    0    0  501  0.00000000000E+00  0.00000000000E+00 -0.56852081320E+03  0.56852081322E+03  0.50400001928E-02 0.  1.
    10030    2    1    2    0    0  0.00000000000E+00  0.00000000000E+00  0.19100169714E+03  0.13280433236E+04  0.13142364403E+04 0.  0.
        1    1    3    3  502    0 -0.33440843719E+03  0.12477287068E+03 -0.46202642167E+03  0.58383703759E+03  0.50400001928E-02 0.  1.
       -1    1    3    3    0  502  0.33440843719E+03 -0.12477287068E+03  0.65302811881E+03  0.74420628599E+03  0.50400001928E-02 0. -1.
</event>
<event>
 5   0  0.2499890E-03  0.1198930E+04  0.7818609E-02  0.9113794E-01
       -2   -1    0    0    0  501  0.00000000000E+00  0.00000000000E+00  0.25816649267E+03  0.25816649269E+03  0.25500000920E-02 0.  1.
        2   -1    0    0  501    0  0.00000000000E+00  0.00000000000E+00 -0.13919634275E+04  0.13919634275E+04  0.25500000920E-02 0. -1.
    10030    2    1    2    0    0  0.00000000000E+00  0.00000000000E+00 -0.11337969348E+04  0.16501299202E+04  0.11989300497E+04 0.  0.
        5    1    3    3  502    0  0.58680384930E+03 -0.76681729188E+02 -0.69831782574E+03  0.91536261715E+03  0.46999998093E+01 0.  1.
       -5    1    3    3    0  502 -0.58680384930E+03  0.76681729188E+02 -0.43547910907E+03  0.73476730301E+03  0.46999998093E+01 0. -1.
</event>
<event>
 5   0  0.1423024E-03  0.1205043E+04  0.7818609E-02  0.9108454E-01
        1   -1    0    0  501    0  0.00000000000E+00  0.00000000000E+00  0.13483328291E+04  0.13483328291E+04  0.50400001928E-02 0. -1.
       -1   -1    0    0    0  501  0.00000000000E+00  0.00000000000E+00 -0.26924506641E+03  0.26924506645E+03  0.50400001928E-02 0.  1.
    10030    2    1    2    0    0  0.00000000000E+00  0.00000000000E+00  0.10790877627E+04  0.16175778956E+04  0.12050426750E+04 0.  0.
        2    1    3    3  502    0  0.99790597670E+02 -0.44509905233E+03  0.10679568483E+04  0.11612937439E+04  0.25500000920E-02 0. -1.
       -2    1    3    3    0  502 -0.99790597670E+02  0.44509905233E+03  0.11130914351E+02  0.45628415163E+03  0.25500000920E-02 0.  1.
</event>
<event>
 5   0  0.1403154E-03  0.1192217E+04  0.7818609E-02  0.9119696E-01
       -1   -1    0    0    0  501  0.00000000000E+00  0.00000000000E+00  0.19089093394E+03  0.19089093400E+03  0.50400001928E-02 0.  1.
        1   -1    0    0  501    0  0.00000000000E+00  0.00000000000E+00 -0.18615094142E+04  0.18615094142E+04  0.50400001928E-02 0. -1.
    10030    2    1    2    0    0  0.00000000000E+00  0.00000000000E+00 -0.16706184803E+04  0.20524003482E+04  0.11922168774E+04 0.  0.
        3    1    3    3  502    0 -0.34251835261E+03 -0.28797310639E+03 -0.15132782037E+04  0.15780552157E+04  0.10100000352E+00 0. -1.
       -3    1    3    3    0  502  0.34251835261E+03  0.28797310639E+03 -0.15734027656E+03  0.47434513248E+03  0.10100000352E+00 0.  1.
</event>
<event>
 5   0  0.2517023E-03  0.1135499E+04  0.7818609E-02  0.9171266E-01
       -2   -1    0    0    0  501  0.00000000000E+00  0.00000000000E+00  0.44915735178E+03  0.44915735179E+03  0.25500000920E-02 0. -1.
        2   -1    0    0  501    0  0.00000000000E+00  0.00000000000E+00 -0.71765439894E+03  0.71765439894E+03  0.25500000920E-02 0.  1.
    10030    2    1    2    0    0  0.00000000000E+00  0.00000000000E+00 -0.26849704715E+03  0.11668117507E+04  0.11354994484E+04 0.  0.
        3    1    3    3  502    0  0.25571743741E+03 -0.19124202890E+03 -0.61663469527E+03  0.69440858219E+03  0.10100000352E+00 0.  1.
       -3    1    3    3    0  502 -0.25571743741E+03  0.19124202890E+03  0.34813764811E+03  0.47240316854E+03  0.10100000352E+00 0. -1.
</event>
<event>
 5   0  0.2499890E-03  0.1181137E+04  0.7818609E-02  0.9129529E-01
       -2   -1    0    0    0  501  0.00000000000E+00  0.00000000000E+00  0.61434742578E+03  0.61434742578E+03  0.25500000920E-02 0. -1.
        2   -1    0    0  501    0  0.00000000000E+00  0.00000000000E+00 -0.56771000201E+03  0.56771000202E+03  0.25500000920E-02 0.  1.
    10030    2    1    2    0    0  0.00000000000E+00  0.00000000000E+00  0.46637423763E+02  0.11820574278E+04  0.11811370426E+04 0.  0.
        5    1    3    3  502    0  0.35852091805E+03  0.28806441042E+03 -0.34741662345E+03  0.57640155575E+03  0.46999998093E+01 0.  1.
       -5    1    3    3    0  502 -0.35852091805E+03 -0.28806441042E+03  0.39405404721E+03  0.60565587205E+03  0.46999998093E+01 0. -1.
</event>
<event>
 5   0  0.2580244E-03  0.1232778E+04  0.7818609E-02  0.9084640E-01
       -2   -1    0    0    0  501  0.00000000000E+00  0.00000000000E+00  0.49910413184E+03  0.49910413185E+03  0.25500000920E-02 0. -1.
        2   -1    0    0  501    0  0.00000000000E+00  0.00000000000E+00 -0.76123499890E+03  0.76123499890E+03  0.25500000920E-02 0.  1.
    10030    2    1    2    0    0  0.00000000000E+00  0.00000000000E+00 -0.26213086706E+03  0.12603391307E+04  0.12327782173E+04 0.  0.
        1    1    3    3  502    0 -0.10093815590E+03 -0.24080481322E+03  0.43977234747E+03  0.51144421691E+03  0.50400001928E-02 0. -1.
       -1    1    3    3    0  502  0.10093815590E+03  0.24080481322E+03 -0.70190321452E+03  0.74889491384E+03  0.50400001928E-02 0.  1.
</event>
<event>
 5   0  0.1455076E-03  0.1232922E+04  0.7818609E-02  0.9084518E-01
       -1   -1    0    0    0  501  0.00000000000E+00  0.00000000000E+00  0.29871064402E+03  0.29871064406E+03  0.50400001928E-02 0. -1.
        1   -1    0    0  501    0  0.00000000000E+00  0.00000000000E+00 -0.12722154435E+04  0.12722154435E+04  0.50400001928E-02 0.  1.
    10030    2    1    2    0    0  0.00000000000E+00  0.00000000000E+00 -0.97350479947E+03  0.15709260876E+04  0.12329222108E+04 0.  0.
        4    1    3    3  502    0  0.45704367531E+03  0.39561207053E+03 -0.64083932431E+03  0.88095089760E+03  0.12699999809E+01 0.  1.
       -4    1    3    3    0  502 -0.45704367531E+03 -0.39561207053E+03 -0.33266547516E+03  0.68997518996E+03  0.12699999809E+01 0. -1.
</event>
<event>
 5   0  0.1403154E-03  0.1197880E+04  0.7818609E-02  0.9114714E-01
       -1   -1    0    0    0  501  0.00000000000E+00  0.00000000000E+00  0.47126786956E+03  0.47126786959E+03  0.50400001928E-02 0.  1.
        1   -1    0    0  501    0  0.00000000000E+00  0.00000000000E+00 -0.76120053061E+03  0.76120053063E+03  0.50400001928E-02 0. -1.
    10030    2    1    2    0    0  0.00000000000E+00  0.00000000000E+00 -0.28993266105E+03  0.12324684002E+04  0.11978803820E+04 0.  0.
        3    1    3    3  502    0  0.48484908338E+03  0.33909214520E+03 -0.49180252563E+02  0.59370095506E+03  0.10100000352E+00 0.  1.
       -3    1    3    3    0  502 -0.48484908338E+03 -0.33909214520E+03 -0.24075240849E+03  0.63876744516E+03  0.10100000352E+00 0. -1.
</event>
<event>
 5   0  0.1404833E-03  0.1181669E+04  0.7818609E-02  0.9129054E-01
        1   -1    0    0  501    0  0.00000000000E+00  0.00000000000E+00  0.13209746127E+04  0.13209746127E+04  0.50400001928E-02 0. -1.
       -1   -1    0    0    0  501  0.00000000000E+00  0.00000000000E+00 -0.26426368864E+03  0.26426368869E+03  0.50400001928E-02 0.  1.
    10030    2    1    2    0    0  0.00000000000E+00  0.00000000000E+00  0.10567109241E+04  0.15852383014E+04  0.11816693680E+04 0.  0.
        1    1    3    3  502    0 -0.37822498701E+03  0.31780605073E+03  0.93588124190E+02  0.50280569179E+03  0.50400001928E-02 0.  1.
       -1    1    3    3    0  502  0.37822498701E+03 -0.31780605073E+03  0.96312279989E+03  0.10824326096E+04  0.50400001928E-02 0. -1.
</event>
<event>
 5   0  0.2484507E-03  0.1192869E+04  0.7818609E-02  0.9119122E-01
        2   -1    0    0  501    0  0.00000000000E+00  0.00000000000E+00  0.20834625701E+04  0.20834625701E+04  0.25500000920E-02 0. -1.
       -2   -1    0    0    0  501  0.00000000000E+00  0.00000000000E+00 -0.17074164735E+03  0.17074164737E+03  0.25500000920E-02 0.  1.
    10030    2    1    2    0    0  0.00000000000E+00  0.00000000000E+00  0.19127209228E+04  0.22542042175E+04  0.11928685283E+04 0.  0.
        2    1    3    3  502    0 -0.45534168051E+03 -0.65862426047E+02  0.16736132929E+04  0.17357002505E+04  0.25500000920E-02 0. -1.
       -2    1    3    3    0  502  0.45534168051E+03  0.65862426047E+02  0.23910762983E+03  0.51850396703E+03  0.25500000920E-02 0.  1.
</event>
<event>
 5   0  0.1404833E-03  0.1222015E+04  0.7818609E-02  0.9093802E-01
        1   -1    0    0  501    0  0.00000000000E+00  0.00000000000E+00  0.58368135391E+03  0.58368135393E+03  0.50400001928E-02 0.  1.
       -1   -1    0    0    0  501  0.00000000000E+00  0.00000000000E+00 -0.63961302939E+03  0.63961302941E+03  0.50400001928E-02 0. -1.
    10030    2    1    2    0    0  0.00000000000E+00  0.00000000000E+00 -0.55931675480E+02  0.12232943833E+04  0.12220150555E+04 0.  0.
        1    1    3    3  502    0 -0.42016933141E+03 -0.10521794290E+03 -0.45936608636E+03  0.63137174778E+03  0.50400001928E-02 0. -1.
       -1    1    3    3    0  502  0.42016933141E+03  0.10521794290E+03  0.40343441088E+03  0.59192263555E+03  0.50400001928E-02 0.  1.
</event>
<event>
 5   0  0.9678750E-04  0.1246615E+04  0.7818609E-02  0.9073005E-01
       -4   -1    0    0    0  501  0.00000000000E+00  0.00000000000E+00  0.39558190449E+03  0.39558394313E+03  0.12699999809E+01 0.  1.
        4   -1    0    0  501    0  0.00000000000E+00  0.00000000000E+00 -0.98212385402E+03  0.98212467514E+03  0.12699999809E+01 0. -1.
    10030    2    1    2    0    0  0.00000000000E+00  0.00000000000E+00 -0.58654194952E+03  0.13777086183E+04  0.12466152487E+04 0.  0.
        1    1    3    3  502    0  0.14507379686E+03 -0.32941019846E+03  0.26911828034E+03  0.44942422523E+03  0.50400001928E-02 0.  1.
       -1    1    3    3    0  502 -0.14507379686E+03  0.32941019846E+03 -0.85566022986E+03  0.92828439305E+03  0.50400001928E-02 0. -1.
</event>
<event>
 5   0  0.1455076E-03  0.1194506E+04  0.7818609E-02  0.9117679E-01
       -1   -1    0    0    0  501  0.00000000000E+00  0.00000000000E+00  0.90188233892E+03  0.90188233894E+03  0.50400001928E-02 0.  1.
        1   -1    0    0  501    0  0.00000000000E+00  0.00000000000E+00 -0.39551817740E+03  0.39551817743E+03  0.50400001928E-02 0. -1.
    10030    2    1    2    0    0  0.00000000000E+00  0.00000000000E+00  0.50636416153E+03  0.12974005164E+04  0.11945055194E+04 0.  0.
        4    1    3    3  502    0 -0.23738298815E+02 -0.30761541888E+03  0.80862202463E+03  0.86548364767E+03  0.12699999809E+01 0.  1.
       -4    1    3    3    0  502  0.23738298815E+02  0.30761541888E+03 -0.30225786310E+03  0.43191686870E+03  0.12699999809E+01 0. -1.
</event>
<event>
 5   0  0.2517023E-03  0.1191054E+04  0.7818609E-02  0.9120723E-01
       -2   -1    0    0    0  501  0.00000000000E+00  0.00000000000E+00  0.65574933644E+03  0.65574933645E+03  0.25500000920E-02 0.  1.
        2   -1    0    0  501    0  0.00000000000E+00  0.00000000000E+00 -0.54083537228E+03  0.54083537229E+03  0.25500000920E-02 0. -1.
    10030    2    1    2    0    0  0.00000000000E+00  0.00000000000E+00  0.11491396416E+03  0.11965847087E+04  0.11910540483E+04 0.  0.
        3    1    3    3  502    0  0.33875059590E+02 -0.17477020405E+03  0.62839181091E+03  0.65312205759E+03  0.10100000352E+00 0.  1.
       -3    1    3    3    0  502 -0.33875059590E+02  0.17477020405E+03 -0.51347784675E+03  0.54346265115E+03  0.10100000352E+00 0. -1.
</event>
<event>
 5   0  0.2517023E-03  0.1200917E+04  0.7818609E-02  0.9112054E-01
        2   -1    0    0  501    0  0.00000000000E+00  0.00000000000E+00  0.11802477794E+04  0.11802477794E+04  0.25500000920E-02 0.  1.
       -2   -1    0    0    0  501  0.00000000000E+00  0.00000000000E+00 -0.30548704715E+03  0.30548704716E+03  0.25500000920E-02 0. -1.
    10030    2    1    2    0    0  0.00000000000E+00  0.00000000000E+00  0.87476073227E+03  0.14857348266E+04  0.12009169980E+04 0.  0.
        3    1    3    3  502    0  0.21408527335E+03 -0.26078264302E+03 -0.17711973557E+03  0.38106626995E+03  0.10100000352E+00 0. -1.
       -3    1    3    3    0  502 -0.21408527335E+03  0.26078264302E+03  0.10518804678E+04  0.11046685566E+04  0.10100000352E+00 0.  1.
</event>
<event>
 5   0  0.1423024E-03  0.1202543E+04  0.7818609E-02  0.9110633E-01
        1   -1    0    0  501    0  0.00000000000E+00  0.00000000000E+00  0.30023398792E+04  0.30023398792E+04  0.50400001928E-02 0. -1.
       -1   -1    0    0    0  501  0.00000000000E+00  0.00000000000E+00 -0.12041529661E+03  0.12041529671E+03  0.50400001928E-02 0.  1.
    10030    2    1    2    0    0  0.00000000000E+00  0.00000000000E+00  0.28819245826E+04  0.31227551759E+04  0.12025433834E+04 0.  0.
        2    1    3    3  502    0  0.25100325857E+03 -0.29482376986E+03  0.24642675184E+03  0.45896605007E+03  0.25500000920E-02 0.  1.
       -2    1    3    3    0  502 -0.25100325857E+03  0.29482376986E+03  0.26354978308E+04  0.26637891259E+04  0.25500000920E-02 0. -1.
</event>
<event>
 5   0  0.9678750E-04  0.1199975E+04  0.7818609E-02  0.9112879E-01
        3   -1    0    0  501    0  0.00000000000E+00  0.00000000000E+00  0.54621629153E+03  0.54621630086E+03  0.10100000352E+00 0.  1.
       -3   -1    0    0    0  501  0.00000000000E+00  0.00000000000E+00 -0.65905192340E+03  0.65905193114E+03  0.10100000352E+00 0. -1.
    10030    2    1    2    0    0  0.00000000000E+00  0.00000000000E+00 -0.11283563187E+03  0.12052682320E+04  0.11999748461E+04 0.  0.
        1    1    3    3  502    0  0.28684341697E+03  0.38984960003E+03  0.29972076482E+03  0.56929288894E+03  0.50400001928E-02 0.  1.
       -1    1    3    3    0  502 -0.28684341697E+03 -0.38984960003E+03 -0.41255639670E+03  0.63597534306E+03  0.50400001928E-02 0. -1.
</event>
<event>
 5   0  0.1469851E-03  0.1191054E+04  0.7818609E-02  0.9120723E-01
        1   -1    0    0  501    0  0.00000000000E+00  0.00000000000E+00  0.11929961624E+04  0.11929961625E+04  0.50400001928E-02 0. -1.
       -1   -1    0    0    0  501  0.00000000000E+00  0.00000000000E+00 -0.29727875142E+03  0.29727875146E+03  0.50400001928E-02 0.  1.
    10030    2    1    2    0    0  0.00000000000E+00  0.00000000000E+00  0.89571741103E+03  0.14902749139E+04  0.11910540032E+04 0.  0.
        5    1    3    3  502    0  0.26003283196E+03  0.12727004800E+03  0.10989947865E+04  0.11364974129E+04  0.46999998093E+01 0. -1.
       -5    1    3    3    0  502 -0.26003283196E+03 -0.12727004800E+03 -0.20327737549E+03  0.35377750098E+03  0.46999998093E+01 0.  1.
</event>
<event>
 5   0  0.2499890E-03  0.1208861E+04  0.7818609E-02  0.9105135E-01
        2   -1    0    0  501    0  0.00000000000E+00  0.00000000000E+00  0.15096318609E+04  0.15096318609E+04  0.25500000920E-02 0.  1.
       -2   -1    0    0    0  501  0.00000000000E+00  0.00000000000E+00 -0.24200363600E+03  0.24200363601E+03  0.25500000920E-02 0. -1.
    10030    2    1    2    0    0  0.00000000000E+00  0.00000000000E+00  0.12676282249E+04  0.17516354969E+04  0.12088612813E+04 0.  0.
        5    1    3    3  502    0  0.27291779714E+03  0.45919659327E+03  0.10435719012E+04  0.11723523525E+04  0.46999998093E+01 0.  1.
       -5    1    3    3    0  502 -0.27291779714E+03 -0.45919659327E+03  0.22405632366E+03  0.57928314445E+03  0.46999998093E+01 0. -1.
</event>
<event>
 5   0  0.2580244E-03  0.1242929E+04  0.7818609E-02  0.9076089E-01
       -2   -1    0    0    0  501  0.00000000000E+00  0.00000000000E+00  0.41467771793E+03  0.41467771793E+03  0.25500000920E-02 0. -1.
        2   -1    0    0  501    0  0.00000000000E+00  0.00000000000E+00 -0.93136996027E+03  0.93136996028E+03  0.25500000920E-02 0.  1.
    10030    2    1    2    0    0  0.00000000000E+00  0.00000000000E+00 -0.51669224235E+03  0.13460476782E+04  0.12429293941E+04 0.  0.
        1    1    3    3  502    0  0.52625838391E+03 -0.72621393102E+02  0.90893564731E+02  0.53896511344E+03  0.50400001928E-02 0. -1.
       -1    1    3    3    0  502 -0.52625838391E+03  0.72621393102E+02 -0.60758580708E+03  0.80708256477E+03  0.50400001928E-02 0.  1.
</event>
<event>
 5   0  0.1469851E-03  0.1256242E+04  0.7818609E-02  0.9065004E-01
       -1   -1    0    0    0  501  0.00000000000E+00  0.00000000000E+00  0.35762552920E+03  0.35762552924E+03  0.50400001928E-02 0. -1.
        1   -1    0    0  501    0  0.00000000000E+00  0.00000000000E+00 -0.11032089523E+04  0.11032089523E+04  0.50400001928E-02 0.  1.
    10030    2    1    2    0    0  0.00000000000E+00  0.00000000000E+00 -0.74558342313E+03  0.14608344816E+04  0.12562415141E+04 0.  0.
        5    1    3    3  502    0 -0.27748815055E+02 -0.27043020035E+03 -0.10312331440E+04  0.10664738053E+04  0.46999998093E+01 0.  1.
       -5    1    3    3    0  502  0.27748815055E+02  0.27043020035E+03  0.28564972087E+03  0.39436067633E+03  0.46999998093E+01 0. -1.
</event>
<event>
 5   0  0.1455076E-03  0.1199045E+04  0.7818609E-02  0.9113692E-01
       -1   -1    0    0    0  501  0.00000000000E+00  0.00000000000E+00  0.22008352043E+03  0.22008352049E+03  0.50400001928E-02 0.  1.
        1   -1    0    0  501    0  0.00000000000E+00  0.00000000000E+00 -0.16331414640E+04  0.16331414640E+04  0.50400001928E-02 0. -1.
    10030    2    1    2    0    0  0.00000000000E+00  0.00000000000E+00 -0.14130579436E+04  0.18532249845E+04  0.11990454917E+04 0.  0.
        4    1    3    3  502    0 -0.16971129294E+03  0.91689873312E+02 -0.15838664460E+04  0.15955699569E+04  0.12699999809E+01 0. -1.
       -4    1    3    3    0  502  0.16971129294E+03 -0.91689873312E+02  0.17080850244E+03  0.25765502755E+03  0.12699999809E+01 0.  1.
</event>
<event>
 5   0  0.2579442E-03  0.1189886E+04  0.7818609E-02  0.9121755E-01
        2   -1    0    0  501    0  0.00000000000E+00  0.00000000000E+00  0.37380053767E+03  0.37380053768E+03  0.25500000920E-02 0. -1.
       -2   -1    0    0    0  501  0.00000000000E+00  0.00000000000E+00 -0.94691519248E+03  0.94691519249E+03  0.25500000920E-02 0.  1.
    10030    2    1    2    0    0  0.00000000000E+00  0.00000000000E+00 -0.57311465481E+03  0.13207157302E+04  0.11898863947E+04 0.  0.
        4    1    3    3  502    0  0.46868298018E+03  0.35711725395E+03 -0.19530256156E+03  0.62075854600E+03  0.12699999809E+01 0. -1.
       -4    1    3    3    0  502 -0.46868298018E+03 -0.35711725395E+03 -0.37781209325E+03  0.69995718417E+03  0.12699999809E+01 0.  1.
</event>
<event>
 5   0  0.2517023E-03  0.1353169E+04  0.7818609E-02  0.8988433E-01
       -2   -1    0    0    0  501  0.00000000000E+00  0.00000000000E+00  0.56416932679E+03  0.56416932680E+03  0.25500000920E-02 0. -1.
        2   -1    0    0  501    0  0.00000000000E+00  0.00000000000E+00 -0.81139949790E+03  0.81139949790E+03  0.25500000920E-02 0.  1.
    10030    2    1    2    0    0  0.00000000000E+00  0.00000000000E+00 -0.24723017111E+03  0.13755688247E+04  0.13531691816E+04 0.  0.
        3    1    3    3  502    0 -0.41264526256E+03 -0.53618128294E+03 -0.12314109692E+03  0.68769922265E+03  0.10100000352E+00 0.  1.
       -3    1    3    3    0  502  0.41264526256E+03  0.53618128294E+03 -0.12408907419E+03  0.68786960205E+03  0.10100000352E+00 0. -1.
</event>
<event>
 5   0  0.2499890E-03  0.1198691E+04  0.7818609E-02  0.9114003E-01
       -2   -1    0    0    0  501  0.00000000000E+00  0.00000000000E+00  0.32945873696E+03  0.32945873697E+03  0.25500000920E-02 0. -1.
        2   -1    0    0  501    0  0.00000000000E+00  0.00000000000E+00 -0.10903185649E+04  0.10903185649E+04  0.25500000920E-02 0.  1.
    10030    2    1    2    0    0  0.00000000000E+00  0.00000000000E+00 -0.76085982792E+03  0.14197773019E+04  0.11986909148E+04 0.  0.
        5    1    3    3  502    0  0.39346361053E+03 -0.41744488807E+03 -0.58598753223E+03  0.82004714822E+03  0.46999998093E+01 0. -1.
       -5    1    3    3    0  502 -0.39346361053E+03  0.41744488807E+03 -0.17487229570E+03  0.59973015364E+03  0.46999998093E+01 0.  1.
</event>
<event>
 5   0  0.2499890E-03  0.1196778E+04  0.7818609E-02  0.9115682E-01
        2   -1    0    0  501    0  0.00000000000E+00  0.00000000000E+00  0.10373716256E+04  0.10373716256E+04  0.25500000920E-02 0. -1.
       -2   -1    0    0    0  501  0.00000000000E+00  0.00000000000E+00 -0.34516965948E+03  0.34516965949E+03  0.25500000920E-02 0.  1.
    10030    2    1    2    0    0  0.00000000000E+00  0.00000000000E+00  0.69220196614E+03  0.13825412851E+04  0.11967776916E+04 0.  0.
        5    1    3    3  502    0  0.37438288437E+03  0.29440257626E+03  0.76455804798E+03  0.90078106094E+03  0.46999998093E+01 0. -1.
       -5    1    3    3    0  502 -0.37438288437E+03 -0.29440257626E+03 -0.72356081844E+02  0.48176022417E+03  0.46999998093E+01 0.  1.
</event>
<event>
 5   0  0.2499890E-03  0.1213567E+04  0.7818609E-02  0.9101063E-01
       -2   -1    0    0    0  501  0.00000000000E+00  0.00000000000E+00  0.85493339936E+03  0.85493339936E+03  0.25500000920E-02 0.  1.
        2   -1    0    0  501    0  0.00000000000E+00  0.00000000000E+00 -0.43066078711E+03  0.43066078711E+03  0.25500000920E-02 0. -1.
    10030    2    1    2    0    0  0.00000000000E+00  0.00000000000E+00  0.42427261225E+03  0.12855941865E+04  0.12135671233E+04 0.  0.
        5    1    3    3  502    0  0.17220862311E+03  0.10732299021E+03  0.81790586258E+03  0.84271354809E+03  0.46999998093E+01 0.  1.
       -5    1    3    3    0  502 -0.17220862311E+03 -0.10732299021E+03 -0.39363325032E+03  0.44288063839E+03  0.46999998093E+01 0. -1.
</event>
<event>
 5   0  0.1469851E-03  0.1189833E+04  0.7818609E-02  0.9121802E-01
       -1   -1    0    0    0  501  0.00000000000E+00  0.00000000000E+00  0.35726760369E+03  0.35726760372E+03  0.50400001928E-02 0.  1.
        1   -1    0    0  501    0  0.00000000000E+00  0.00000000000E+00 -0.99064600042E+03  0.99064600043E+03  0.50400001928E-02 0. -1.
    10030    2    1    2    0    0  0.00000000000E+00  0.00000000000E+00 -0.63337839673E+03  0.13479136042E+04  0.11898331357E+04 0.  0.
        5    1    3    3  502    0  0.10111950913E+03 -0.57196164666E+03 -0.17100175669E+03  0.60549894398E+03  0.46999998093E+01 0.  1.
       -5    1    3    3    0  502 -0.10111950913E+03  0.57196164666E+03 -0.46237664005E+03  0.74241466017E+03  0.46999998093E+01 0. -1.
</event>
<event>
 5   0  0.2580244E-03  0.1203676E+04  0.7818609E-02  0.9109645E-01
       -2   -1    0    0    0  501  0.00000000000E+00  0.00000000000E+00  0.76152356893E+03  0.76152356893E+03  0.25500000920E-02 0. -1.
        2   -1    0    0  501    0  0.00000000000E+00  0.00000000000E+00 -0.47563694772E+03  0.47563694773E+03  0.25500000920E-02 0.  1.
    10030    2    1    2    0    0  0.00000000000E+00  0.00000000000E+00  0.28588662121E+03  0.12371605167E+04  0.12036756140E+04 0.  0.
        1    1    3    3  502    0 -0.18295706278E+03  0.29241982013E+03 -0.36395598115E+03  0.50144450766E+03  0.50400001928E-02 0.  1.
       -1    1    3    3    0  502  0.18295706278E+03 -0.29241982013E+03  0.64984260236E+03  0.73571600900E+03  0.50400001928E-02 0. -1.
</event>
<event>
 5   0  0.1423024E-03  0.1203354E+04  0.7818609E-02  0.9109926E-01
        1   -1    0    0  501    0  0.00000000000E+00  0.00000000000E+00  0.24749330737E+03  0.24749330742E+03  0.50400001928E-02 0. -1.
       -1   -1    0    0    0  501  0.00000000000E+00  0.00000000000E+00 -0.14627264127E+04  0.14627264127E+04  0.50400001928E-02 0.  1.
    10030    2    1    2    0    0  0.00000000000E+00  0.00000000000E+00 -0.12152331053E+04  0.17102197201E+04  0.12033536433E+04 0.  0.
        2    1    3    3  502    0 -0.29288956033E+03 -0.45920431944E+03 -0.97096358591E+03  0.11132938456E+04  0.25500000920E-02 0.  1.
       -2    1    3    3    0  502  0.29288956033E+03  0.45920431944E+03 -0.24426951943E+03  0.59692587452E+03  0.25500000920E-02 0. -1.
</event>
<event>
 5   0  0.1423024E-03  0.1173042E+04  0.7818609E-02  0.9136786E-01
       -1   -1    0    0    0  501  0.00000000000E+00  0.00000000000E+00  0.99977900601E+03  0.99977900602E+03  0.50400001928E-02 0. -1.
        1   -1    0    0  501    0  0.00000000000E+00  0.00000000000E+00 -0.34408283995E+03  0.34408283999E+03  0.50400001928E-02 0.  1.
    10030    2    1    2    0    0  0.00000000000E+00  0.00000000000E+00  0.65569616606E+03  0.13438618460E+04  0.11730418573E+04 0.  0.
        2    1    3    3  502    0  0.99829325687E+02 -0.54696340439E+03  0.54178176581E+03  0.77631330130E+03  0.25500000920E-02 0. -1.
       -2    1    3    3    0  502 -0.99829325687E+02  0.54696340439E+03  0.11391440025E+03  0.56754854471E+03  0.25500000920E-02 0.  1.
</event>
<event>
 5   0  0.1403154E-03  0.1202445E+04  0.7818609E-02  0.9110720E-01
       -1   -1    0    0    0  501  0.00000000000E+00  0.00000000000E+00  0.42497987562E+03  0.42497987565E+03  0.50400001928E-02 0. -1.
        1   -1    0    0  501    0  0.00000000000E+00  0.00000000000E+00 -0.85055370522E+03  0.85055370524E+03  0.50400001928E-02 0.  1.
    10030    2    1    2    0    0  0.00000000000E+00  0.00000000000E+00 -0.42557382960E+03  0.12755335809E+04  0.12024445233E+04 0.  0.
        3    1    3    3  502    0  0.73370389720E+02  0.43699910323E+02  0.41851336848E+03  0.42713738545E+03  0.10100000352E+00 0. -1.
       -3    1    3    3    0  502 -0.73370389720E+02 -0.43699910323E+02 -0.84408719809E+03  0.84839619543E+03  0.10100000352E+00 0.  1.
</event>
<event>
 5   0  0.2580244E-03  0.1225725E+04  0.7818609E-02  0.9090633E-01
        2   -1    0    0  501    0  0.00000000000E+00  0.00000000000E+00  0.56547686980E+03  0.56547686981E+03  0.25500000920E-02 0.  1.
       -2   -1    0    0    0  501  0.00000000000E+00  0.00000000000E+00 -0.66421868304E+03  0.66421868305E+03  0.25500000920E-02 0. -1.
    10030    2    1    2    0    0  0.00000000000E+00  0.00000000000E+00 -0.98741813241E+02  0.12296955529E+04  0.12257247681E+04 0.  0.
        1    1    3    3  502    0 -0.39024257457E+03 -0.34242934472E+03 -0.37608395913E+03  0.64108210666E+03  0.50400001928E-02 0. -1.
       -1    1    3    3    0  502  0.39024257457E+03  0.34242934472E+03  0.27734214589E+03  0.58861344620E+03  0.50400001928E-02 0.  1.
</event>
<event>
 5   0  0.1455076E-03  0.1202496E+04  0.7818609E-02  0.9110674E-01
        1   -1    0    0  501    0  0.00000000000E+00  0.00000000000E+00  0.47205664512E+03  0.47205664515E+03  0.50400001928E-02 0.  1.
       -1   -1    0    0    0  501  0.00000000000E+00  0.00000000000E+00 -0.76579662864E+03  0.76579662866E+03  0.50400001928E-02 0. -1.
    10030    2    1    2    0    0  0.00000000000E+00  0.00000000000E+00 -0.29373998352E+03  0.12378532738E+04  0.12024963823E+04 0.  0.
        4    1    3    3  502    0 -0.20568276218E+03 -0.27273111892E+03  0.36246095897E+03  0.49806347142E+03  0.12699999809E+01 0.  1.
       -4    1    3    3    0  502  0.20568276218E+03  0.27273111892E+03 -0.65620094249E+03  0.73978980239E+03  0.12699999809E+01 0. -1.
</event>
<event>
 5   0  0.1455076E-03  0.1096544E+04  0.7818609E-02  0.9208567E-01
        1   -1    0    0  501    0  0.00000000000E+00  0.00000000000E+00  0.26578744919E+04  0.26578744919E+04  0.50400001928E-02 0.  1.
       -1   -1    0    0    0  501  0.00000000000E+00  0.00000000000E+00 -0.11309867415E+03  0.11309867426E+03  0.50400001928E-02 0. -1.
    10030    2    1    2    0    0  0.00000000000E+00  0.00000000000E+00  0.25447758178E+04  0.27709731662E+04  0.10965438090E+04 0.  0.
        4    1    3    3  502    0  0.10311870262E+03 -0.21403113153E+02 -0.87293936112E+02  0.13679694538E+03  0.12699999809E+01 0. -1.
       -4    1    3    3    0  502 -0.10311870262E+03  0.21403113153E+02  0.26320697539E+04  0.26341762208E+04  0.12699999809E+01 0.  1.
</event>
<event>
 5   0  0.1469851E-03  0.1206468E+04  0.7818609E-02  0.9107214E-01
       -1   -1    0    0    0  501  0.00000000000E+00  0.00000000000E+00  0.63488749076E+03  0.63488749078E+03  0.50400001928E-02 0.  1.
        1   -1    0    0  501    0  0.00000000000E+00  0.00000000000E+00 -0.57315841833E+03  0.57315841836E+03  0.50400001928E-02 0. -1.
    10030    2    1    2    0    0  0.00000000000E+00  0.00000000000E+00  0.61729072427E+02  0.12080459091E+04  0.12064677535E+04 0.  0.
        5    1    3    3  502    0  0.20821081236E+03 -0.56345164225E+03  0.86068536020E+02  0.60684378420E+03  0.46999998093E+01 0. -1.
       -5    1    3    3    0  502 -0.20821081236E+03  0.56345164225E+03 -0.24339463593E+02  0.60120212493E+03  0.46999998093E+01 0.  1.
</event>
<event>
 5   0  0.2484507E-03  0.1197708E+04  0.7818609E-02  0.9114865E-01
        2   -1    0    0  501    0  0.00000000000E+00  0.00000000000E+00  0.12125182164E+04  0.12125182164E+04  0.25500000920E-02 0. -1.
       -2   -1    0    0    0  501  0.00000000000E+00  0.00000000000E+00 -0.29576970671E+03  0.29576970672E+03  0.25500000920E-02 0.  1.
    10030    2    1    2    0    0  0.00000000000E+00  0.00000000000E+00  0.91674850969E+03  0.15082879231E+04  0.11977080734E+04 0.  0.
        2    1    3    3  502    0  0.58068377127E+03 -0.19118380867E+02  0.64115677061E+03  0.86524052101E+03  0.25500000920E-02 0. -1.
       -2    1    3    3    0  502 -0.58068377127E+03  0.19118380867E+02  0.27559173908E+03  0.64304740211E+03  0.25500000920E-02 0.  1.
</event>
<event>
 5   0  0.2579442E-03  0.1185976E+04  0.7818609E-02  0.9125221E-01
        2   -1    0    0  501    0  0.00000000000E+00  0.00000000000E+00  0.17867766029E+04  0.17867766029E+04  0.25500000920E-02 0.  1.
       -2   -1    0    0    0  501  0.00000000000E+00  0.00000000000E+00 -0.19679841949E+03  0.19679841951E+03  0.25500000920E-02 0. -1.
    10030    2    1    2    0    0  0.00000000000E+00  0.00000000000E+00  0.15899781834E+04  0.19835750224E+04  0.11859760730E+04 0.  0.
        4    1    3    3  502    0  0.39480396493E+03 -0.26571770386E+03  0.13866876362E+04  0.14660764926E+04  0.12699999809E+01 0.  1.
       -4    1    3    3    0  502 -0.39480396493E+03  0.26571770386E+03  0.20329054720E+03  0.51749852980E+03  0.12699999809E+01 0. -1.
</event>
<event>
 5   0  0.2499890E-03  0.1191158E+04  0.7818609E-02  0.9120631E-01
        2   -1    0    0  501    0  0.00000000000E+00  0.00000000000E+00  0.17426387389E+04  0.17426387389E+04  0.25500000920E-02 0. -1.
       -2   -1    0    0    0  501  0.00000000000E+00  0.00000000000E+00 -0.20355021106E+03  0.20355021108E+03  0.25500000920E-02 0.  1.
    10030    2    1    2    0    0  0.00000000000E+00  0.00000000000E+00  0.15390885278E+04  0.19461889500E+04  0.11911582315E+04 0.  0.
        5    1    3    3  502    0 -0.38196601934E+03  0.81013801578E+02  0.34794362288E+02  0.39203828081E+03  0.46999998093E+01 0.  1.
       -5    1    3    3    0  502  0.38196601934E+03 -0.81013801578E+02  0.15042941655E+04  0.15541506691E+04  0.46999998093E+01 0. -1.
</event>
<event>
 5   0  0.2517023E-03  0.1199091E+04  0.7818609E-02  0.9113652E-01
       -2   -1    0    0    0  501  0.00000000000E+00  0.00000000000E+00  0.60008535619E+03  0.60008535619E+03  0.25500000920E-02 0. -1.
        2   -1    0    0  501    0  0.00000000000E+00  0.00000000000E+00 -0.59900659020E+03  0.59900659021E+03  0.25500000920E-02 0.  1.
    10030    2    1    2    0    0  0.00000000000E+00  0.00000000000E+00  0.10787659888E+01  0.11990919464E+04  0.11990914611E+04 0.  0.
        3    1    3    3  502    0  0.31699203124E+03 -0.38920782794E+03 -0.32731497284E+03  0.59925101823E+03  0.10100000352E+00 0.  1.
       -3    1    3    3    0  502 -0.31699203124E+03  0.38920782794E+03  0.32839373883E+03  0.59984092817E+03  0.10100000352E+00 0. -1.
</event>
<event>
 5   0  0.2499890E-03  0.1186410E+04  0.7818609E-02  0.9124836E-01
       -2   -1    0    0    0  501  0.00000000000E+00  0.00000000000E+00  0.50148402583E+03  0.50148402584E+03  0.25500000920E-02 0.  1.
        2   -1    0    0  501    0  0.00000000000E+00  0.00000000000E+00 -0.70170123997E+03  0.70170123998E+03  0.25500000920E-02 0. -1.
    10030    2    1    2    0    0  0.00000000000E+00  0.00000000000E+00 -0.20021721414E+03  0.12031852658E+04  0.11864096472E+04 0.  0.
        5    1    3    3  502    0 -0.26676266955E+03  0.31654899939E+03  0.33075676279E+03  0.52989406206E+03  0.46999998093E+01 0.  1.
       -5    1    3    3    0  502  0.26676266955E+03 -0.31654899939E+03 -0.53097397693E+03  0.67329120375E+03  0.46999998093E+01 0. -1.
</event>
<event>
 5   0  0.2484507E-03  0.1207847E+04  0.7818609E-02  0.9106016E-01
       -2   -1    0    0    0  501  0.00000000000E+00  0.00000000000E+00  0.49183634200E+03  0.49183634200E+03  0.25500000920E-02 0.  1.
        2   -1    0    0  501    0  0.00000000000E+00  0.00000000000E+00 -0.74155443577E+03  0.74155443577E+03  0.25500000920E-02 0. -1.
    10030    2    1    2    0    0  0.00000000000E+00  0.00000000000E+00 -0.24971809377E+03  0.12333907778E+04  0.12078467139E+04 0.  0.
        2    1    3    3  502    0 -0.36804784303E+03 -0.45204771249E+03  0.36330686847E+02  0.58406015781E+03  0.25500000920E-02 0.  1.
       -2    1    3    3    0  502  0.36804784303E+03  0.45204771249E+03 -0.28604878062E+03  0.64933061997E+03  0.25500000920E-02 0. -1.
</event>
<event>
 5   0  0.1404833E-03  0.1214182E+04  0.7818609E-02  0.9100533E-01
       -1   -1    0    0    0  501  0.00000000000E+00  0.00000000000E+00  0.32255256652E+03  0.32255256656E+03  0.50400001928E-02 0. -1.
        1   -1    0    0  501    0  0.00000000000E+00  0.00000000000E+00 -0.11426332873E+04  0.11426332873E+04  0.50400001928E-02 0.  1.
    10030    2    1    2    0    0  0.00000000000E+00  0.00000000000E+00 -0.82008072075E+03  0.14651858538E+04  0.12141816988E+04 0.  0.
        1    1    3    3  502    0  0.54361500503E+03  0.18570050277E+03 -0.64699358191E+03  0.86521826465E+03  0.50400001928E-02 0.  1.
       -1    1    3    3    0  502 -0.54361500503E+03 -0.18570050277E+03 -0.17308713885E+03  0.59996758920E+03  0.50400001928E-02 0. -1.
</event>
<event>
 5   0  0.1455076E-03  0.1139783E+04  0.7818609E-02  0.9167261E-01
        1   -1    0    0  501    0  0.00000000000E+00  0.00000000000E+00  0.10867417615E+04  0.10867417615E+04  0.50400001928E-02 0. -1.
       -1   -1    0    0    0  501  0.00000000000E+00  0.00000000000E+00 -0.29885322631E+03  0.29885322636E+03  0.50400001928E-02 0.  1.
    10030    2    1    2    0    0  0.00000000000E+00  0.00000000000E+00  0.78788853522E+03  0.13855949879E+04  0.11397829296E+04 0.  0.
        4    1    3    3  502    0  0.79773840140E+01  0.29966320353E+03 -0.19526243140E+03  0.35775788492E+03  0.12699999809E+01 0.  1.
       -4    1    3    3    0  502 -0.79773840140E+01 -0.29966320353E+03  0.98315096662E+03  0.10278371030E+04  0.12699999809E+01 0. -1.
</event>
<event>
 5   0  0.2579442E-03  0.1183758E+04  0.7818609E-02  0.9127193E-01
        2   -1    0    0  501    0  0.00000000000E+00  0.00000000000E+00  0.15347482619E+04  0.15347482619E+04  0.25500000920E-02 0. -1.
       -2   -1    0    0    0  501  0.00000000000E+00  0.00000000000E+00 -0.22825947818E+03  0.22825947820E+03  0.25500000920E-02 0.  1.
    10030    2    1    2    0    0  0.00000000000E+00  0.00000000000E+00  0.13064887837E+04  0.17630077401E+04  0.11837581466E+04 0.  0.
        4    1    3    3  502    0 -0.53771804532E+03 -0.23082986494E+03  0.78558636477E+03  0.97957678220E+03  0.12699999809E+01 0. -1.
       -4    1    3    3    0  502  0.53771804532E+03  0.23082986494E+03  0.52090241892E+03  0.78343095787E+03  0.12699999809E+01 0.  1.
</event>
<event>
 5   0  0.2579442E-03  0.1207442E+04  0.7818609E-02  0.9106368E-01
       -2   -1    0    0    0  501  0.00000000000E+00  0.00000000000E+00  0.11622872078E+04  0.11622872078E+04  0.25500000920E-02 0. -1.
        2   -1    0    0  501    0  0.00000000000E+00  0.00000000000E+00 -0.31358765524E+03  0.31358765525E+03  0.25500000920E-02 0.  1.
    10030    2    1    2    0    0  0.00000000000E+00  0.00000000000E+00  0.84869955260E+03  0.14758748631E+04  0.12074417919E+04 0.  0.
        4    1    3    3  502    0 -0.28805690904E+03  0.10940638080E+03 -0.21023186999E+03  0.37302223937E+03  0.12699999809E+01 0.  1.
       -4    1    3    3    0  502  0.28805690904E+03 -0.10940638080E+03  0.10589314226E+04  0.11028526237E+04  0.12699999809E+01 0. -1.
</event>
<event>
 5   0  0.1423024E-03  0.1170295E+04  0.7818609E-02  0.9139262E-01
        1   -1    0    0  501    0  0.00000000000E+00  0.00000000000E+00  0.43736324220E+03  0.43736324223E+03  0.50400001928E-02 0.  1.
       -1   -1    0    0    0  501  0.00000000000E+00  0.00000000000E+00 -0.78286825210E+03  0.78286825211E+03  0.50400001928E-02 0. -1.
    10030    2    1    2    0    0  0.00000000000E+00  0.00000000000E+00 -0.34550500990E+03  0.12202314943E+04  0.11702953422E+04 0.  0.
        2    1    3    3  502    0 -0.12056400354E+02  0.37541009641E+03  0.29507945834E+03  0.47765048311E+03  0.25500000920E-02 0.  1.
       -2    1    3    3    0  502  0.12056400354E+02 -0.37541009641E+03 -0.64058446824E+03  0.74258101123E+03  0.25500000920E-02 0. -1.
</event>
<event>
 5   0  0.1423024E-03  0.1197867E+04  0.7818609E-02  0.9114726E-01
       -1   -1    0    0    0  501  0.00000000000E+00  0.00000000000E+00  0.19412489811E+03  0.19412489818E+03  0.50400001928E-02 0.  1.
        1   -1    0    0  501    0  0.00000000000E+00  0.00000000000E+00 -0.18478886908E+04  0.18478886908E+04  0.50400001928E-02 0. -1.
    10030    2    1    2    0    0  0.00000000000E+00  0.00000000000E+00 -0.16537637927E+04  0.20420135890E+04  0.11978667771E+04 0.  0.
        2    1    3    3  502    0  0.33187711690E+03  0.10036234732E+03  0.56481733325E+01  0.34676638151E+03  0.25500000920E-02 0.  1.
       -2    1    3    3    0  502 -0.33187711690E+03 -0.10036234732E+03 -0.16594119660E+04  0.16952472075E+04  0.25500000920E-02 0. -1.
</event>
<event>
 5   0  0.2484507E-03  0.1201067E+04  0.7818609E-02  0.9111923E-01
       -2   -1    0    0    0  501  0.00000000000E+00  0.00000000000E+00  0.66850542917E+03  0.66850542918E+03  0.25500000920E-02 0.  1.
        2   -1    0    0  501    0  0.00000000000E+00  0.00000000000E+00 -0.53947285901E+03  0.53947285901E+03  0.25500000920E-02 0. -1.
    10030    2    1    2    0    0  0.00000000000E+00  0.00000000000E+00  0.12903257017E+03  0.12079782882E+04  0.12010670841E+04 0.  0.
        2    1    3    3  502    0 -0.57170224986E+03  0.16367040663E+03  0.14871822201E+03  0.61298333914E+03  0.25500000920E-02 0. -1.
       -2    1    3    3    0  502  0.57170224986E+03 -0.16367040663E+03 -0.19685651839E+02  0.59499494905E+03  0.25500000920E-02 0.  1.
</event>
<event>
 5   0  0.2517023E-03  0.1193356E+04  0.7818609E-02  0.9118692E-01
       -2   -1    0    0    0  501  0.00000000000E+00  0.00000000000E+00  0.32288369280E+03  0.32288369281E+03  0.25500000920E-02 0.  1.
        2   -1    0    0  501    0  0.00000000000E+00  0.00000000000E+00 -0.11026401773E+04  0.11026401773E+04  0.25500000920E-02 0. -1.
    10030    2    1    2    0    0  0.00000000000E+00  0.00000000000E+00 -0.77975648451E+03  0.14255238701E+04  0.11933558267E+04 0.  0.
        3    1    3    3  502    0 -0.43958351142E+03  0.32504274359E+03 -0.67541849020E+03  0.86895143465E+03  0.10100000352E+00 0. -1.
       -3    1    3    3    0  502  0.43958351142E+03 -0.32504274359E+03 -0.10433799431E+03  0.55657243547E+03  0.10100000352E+00 0.  1.
</event>
<event>
 5   0  0.2484507E-03  0.1194519E+04  0.7818609E-02  0.9117668E-01
        2   -1    0    0  501    0  0.00000000000E+00  0.00000000000E+00  0.94913099115E+03  0.94913099115E+03  0.25500000920E-02 0. -1.
       -2   -1    0    0    0  501  0.00000000000E+00  0.00000000000E+00 -0.37583731076E+03  0.37583731077E+03  0.25500000920E-02 0.  1.
    10030    2    1    2    0    0  0.00000000000E+00  0.00000000000E+00  0.57329368039E+03  0.13249683019E+04  0.11945188810E+04 0.  0.
        2    1    3    3  502    0 -0.11521338865E+02  0.52154659387E+03  0.60922436921E+03  0.80205855327E+03  0.25500000920E-02 0. -1.
       -2    1    3    3    0  502  0.11521338865E+02 -0.52154659387E+03 -0.35930688816E+02  0.52290974865E+03  0.25500000920E-02 0.  1.
</event>
<event>
 5   0  0.2580244E-03  0.1199583E+04  0.7818609E-02  0.9113221E-01
       -2   -1    0    0    0  501  0.00000000000E+00  0.00000000000E+00  0.25212257395E+03  0.25212257396E+03  0.25500000920E-02 0.  1.
        2   -1    0    0  501    0  0.00000000000E+00  0.00000000000E+00 -0.14268852981E+04  0.14268852981E+04  0.25500000920E-02 0. -1.
    10030    2    1    2    0    0  0.00000000000E+00  0.00000000000E+00 -0.11747627242E+04  0.16790078721E+04  0.11995832511E+04 0.  0.
        1    1    3    3  502    0  0.24123926048E+03 -0.23248602852E+03 -0.12837085092E+04  0.13267078318E+04  0.50400001928E-02 0. -1.
       -1    1    3    3    0  502 -0.24123926048E+03  0.23248602852E+03  0.10894578509E+03  0.35230004026E+03  0.50400001928E-02 0.  1.
</event>
<event>
 5   0  0.1403154E-03  0.1213246E+04  0.7818609E-02  0.9101341E-01
        1   -1    0    0  501    0  0.00000000000E+00  0.00000000000E+00  0.16289926326E+04  0.16289926326E+04  0.50400001928E-02 0. -1.
       -1   -1    0    0    0  501  0.00000000000E+00  0.00000000000E+00 -0.22590130792E+03  0.22590130798E+03  0.50400001928E-02 0.  1.
    10030    2    1    2    0    0  0.00000000000E+00  0.00000000000E+00  0.14030913247E+04  0.18548939406E+04  0.12132461685E+04 0.  0.
        3    1    3    3  502    0 -0.25544790454E+03  0.24565474510E+03 -0.51166615109E+02  0.35807529714E+03  0.10100000352E+00 0.  1.
       -3    1    3    3    0  502  0.25544790454E+03 -0.24565474510E+03  0.14542579398E+04  0.14968186435E+04  0.10100000352E+00 0. -1.
</event>
<event>
 5   0  0.2499890E-03  0.1189217E+04  0.7818609E-02  0.9122347E-01
        2   -1    0    0  501    0  0.00000000000E+00  0.00000000000E+00  0.45117477824E+03  0.45117477825E+03  0.25500000920E-02 0. -1.
       -2   -1    0    0    0  501  0.00000000000E+00  0.00000000000E+00 -0.78364208042E+03  0.78364208043E+03  0.25500000920E-02 0.  1.
    10030    2    1    2    0    0  0.00000000000E+00  0.00000000000E+00 -0.33246730218E+03  0.12348168587E+04  0.11892174601E+04 0.  0.
        5    1    3    3  502    0  0.16220323653E+03  0.20245772161E+03 -0.72176074632E+03  0.76698088888E+03  0.46999998093E+01 0.  1.
       -5    1    3    3    0  502 -0.16220323653E+03 -0.20245772161E+03  0.38929344414E+03  0.46783596979E+03  0.46999998093E+01 0. -1.
</event>
<event>
 5   0  0.2579442E-03  0.1179666E+04  0.7818609E-02  0.9130843E-01
       -2   -1    0    0    0  501  0.00000000000E+00  0.00000000000E+00  0.37354361367E+03  0.37354361367E+03  0.25500000920E-02 0. -1.
        2   -1    0    0  501    0  0.00000000000E+00  0.00000000000E+00 -0.93135841720E+03  0.93135841720E+03  0.25500000920E-02 0.  1.
    10030    2    1    2    0    0  0.00000000000E+00  0.00000000000E+00 -0.55781480353E+03  0.13049020309E+04  0.11796660354E+04 0.  0.
        4    1    3    3  502    0  0.25032765525E+03 -0.92730629821E+02 -0.86070928067E+03  0.90115757968E+03  0.12699999809E+01 0.  1.
       -4    1    3    3    0  502 -0.25032765525E+03  0.92730629821E+02  0.30289447714E+03  0.40374445119E+03  0.12699999809E+01 0. -1.
</event>
<event>
 5   0  0.2484507E-03  0.1201339E+04  0.7818609E-02  0.9111685E-01
       -2   -1    0    0    0  501  0.00000000000E+00  0.00000000000E+00  0.22761683798E+03  0.22761683799E+03  0.25500000920E-02 0.  1.
        2   -1    0    0  501    0  0.00000000000E+00  0.00000000000E+00 -0.15851372597E+04  0.15851372597E+04  0.25500000920E-02 0. -1.
    10030    2    1    2    0    0  0.00000000000E+00  0.00000000000E+00 -0.13575204217E+04  0.18127540977E+04  0.12013391375E+04 0.  0.
        2    1    3    3  502    0  0.39265389943E+03 -0.96676541303E+02 -0.13489770594E+04  0.14082835457E+04  0.25500000920E-02 0. -1.
       -2    1    3    3    0  502 -0.39265389943E+03  0.96676541303E+02 -0.85433623386E+01  0.40447055199E+03  0.25500000920E-02 0.  1.
</event>
<event>
 5   0  0.1403154E-03  0.1202708E+04  0.7818609E-02  0.9110490E-01
       -1   -1    0    0    0  501  0.00000000000E+00  0.00000000000E+00  0.19333308798E+03  0.19333308804E+03  0.50400001928E-02 0. -1.
        1   -1    0    0  501    0  0.00000000000E+00  0.00000000000E+00 -0.18704846556E+04  0.18704846556E+04  0.50400001928E-02 0.  1.
    10030    2    1    2    0    0  0.00000000000E+00  0.00000000000E+00 -0.16771515676E+04  0.20638177437E+04  0.12027079023E+04 0.  0.
        3    1    3    3  502    0 -0.36512577859E+03  0.20667695682E+03 -0.15778295936E+04  0.16326599264E+04  0.10100000352E+00 0.  1.
       -3    1    3    3    0  502  0.36512577859E+03 -0.20667695682E+03 -0.99321974067E+02  0.43115781728E+03  0.10100000352E+00 0. -1.
</event>
<event>
 5   0  0.1469851E-03  0.1205401E+04  0.7818609E-02  0.9108142E-01
        1   -1    0    0  501    0  0.00000000000E+00  0.00000000000E+00  0.78203841903E+03  0.78203841904E+03  0.50400001928E-02 0.  1.
       -1   -1    0    0    0  501  0.00000000000E+00  0.00000000000E+00 -0.46448834738E+03  0.46448834741E+03  0.50400001928E-02 0. -1.
    10030    2    1    2    0    0  0.00000000000E+00  0.00000000000E+00  0.31755007164E+03  0.12465267665E+04  0.12054007348E+04 0.  0.
        5    1    3    3  502    0 -0.56685430471E+03  0.88967722432E+02  0.34941937640E+03  0.67182962796E+03  0.46999998093E+01 0.  1.
       -5    1    3    3    0  502  0.56685430471E+03 -0.88967722432E+02 -0.31869304754E+02  0.57469713849E+03  0.46999998093E+01 0. -1.
</event>
<event>
 5   0  0.2580244E-03  0.1256158E+04  0.7818609E-02  0.9065074E-01
        2   -1    0    0  501    0  0.00000000000E+00  0.00000000000E+00  0.99418294723E+03  0.99418294723E+03  0.25500000920E-02 0. -1.
       -2   -1    0    0    0  501  0.00000000000E+00  0.00000000000E+00 -0.39679119681E+03  0.39679119682E+03  0.25500000920E-02 0.  1.
    10030    2    1    2    0    0  0.00000000000E+00  0.00000000000E+00  0.59739175041E+03  0.13909741441E+04  0.12561576995E+04 0.  0.
        1    1    3    3  502    0  0.57390026158E+03 -0.72137539039E+02  0.27643957736E+02  0.57907643986E+03  0.50400001928E-02 0.  1.
       -1    1    3    3    0  502 -0.57390026158E+03  0.72137539039E+02  0.56974779268E+03  0.81189770419E+03  0.50400001928E-02 0. -1.
</event>
<event>
 5   0  0.2499890E-03  0.1200504E+04  0.7818609E-02  0.9112416E-01
        2   -1    0    0  501    0  0.00000000000E+00  0.00000000000E+00  0.12193487428E+04  0.12193487428E+04  0.25500000920E-02 0.  1.
       -2   -1    0    0    0  501  0.00000000000E+00  0.00000000000E+00 -0.29548750756E+03  0.29548750757E+03  0.25500000920E-02 0. -1.
    10030    2    1    2    0    0  0.00000000000E+00  0.00000000000E+00  0.92386123523E+03  0.15148362504E+04  0.12005037624E+04 0.  0.
        5    1    3    3  502    0  0.49626181524E+03  0.88422816093E+02  0.50747304025E+02  0.50664757232E+03  0.46999998093E+01 0. -1.
       -5    1    3    3    0  502 -0.49626181524E+03 -0.88422816093E+02  0.87311393121E+03  0.10081886780E+04  0.46999998093E+01 0.  1.
</event>
<event>
 5   0  0.2499890E-03  0.1166724E+04  0.7818609E-02  0.9142492E-01
       -2   -1    0    0    0  501  0.00000000000E+00  0.00000000000E+00  0.25969571388E+03  0.25969571389E+03  0.25500000920E-02 0.  1.
        2   -1    0    0  501    0  0.00000000000E+00  0.00000000000E+00 -0.13104227274E+04  0.13104227274E+04  0.25500000920E-02 0. -1.
    10030    2    1    2    0    0  0.00000000000E+00  0.00000000000E+00 -0.10507270135E+04  0.15701184413E+04  0.11667239017E+04 0.  0.
        5    1    3    3  502    0  0.56006684991E+03  0.15955669173E+03 -0.57111625694E+03  0.81567707041E+03  0.46999998093E+01 0. -1.
       -5    1    3    3    0  502 -0.56006684991E+03 -0.15955669173E+03 -0.47961075654E+03  0.75444137084E+03  0.46999998093E+01 0.  1.
</event>
<event>
 5   0  0.1455076E-03  0.1194097E+04  0.7818609E-02  0.9118039E-01
        1   -1    0    0  501    0  0.00000000000E+00  0.00000000000E+00  0.92147653907E+03  0.92147653909E+03  0.50400001928E-02 0. -1.
       -1   -1    0    0    0  501  0.00000000000E+00  0.00000000000E+00 -0.38684325507E+03  0.38684325510E+03  0.50400001928E-02 0.  1.
    10030    2    1    2    0    0  0.00000000000E+00  0.00000000000E+00  0.53463328401E+03  0.13083197942E+04  0.11940971215E+04 0.  0.
        4    1    3    3  502    0 -0.36403738392E+03 -0.38961221921E+03  0.56160683684E+03  0.77441897596E+03  0.12699999809E+01 0.  1.
       -4    1    3    3    0  502  0.36403738392E+03  0.38961221921E+03 -0.26973552831E+02  0.53390081822E+03  0.12699999809E+01 0. -1.
</event>
<event>
 5   0  0.1455076E-03  0.1196778E+04  0.7818609E-02  0.9115681E-01
       -1   -1    0    0    0  501  0.00000000000E+00  0.00000000000E+00  0.97609253516E+03  0.97609253517E+03  0.50400001928E-02 0.  1.
        1   -1    0    0  501    0  0.00000000000E+00  0.00000000000E+00 -0.36683985322E+03  0.36683985326E+03  0.50400001928E-02 0. -1.
    10030    2    1    2    0    0  0.00000000000E+00  0.00000000000E+00  0.60925268193E+03  0.13429323884E+04  0.11967784128E+04 0.  0.
        4    1    3    3  502    0 -0.33782984484E+03  0.48002846782E+02 -0.24696837698E+03  0.42122235160E+03  0.12699999809E+01 0. -1.
       -4    1    3    3    0  502  0.33782984484E+03 -0.48002846782E+02  0.85622105891E+03  0.92171003682E+03  0.12699999809E+01 0.  1.
</event>
<event>
 5   0  0.1423024E-03  0.1187461E+04  0.7818609E-02  0.9123903E-01
       -1   -1    0    0    0  501  0.00000000000E+00  0.00000000000E+00  0.34355713346E+03  0.34355713350E+03  0.50400001928E-02 0.  1.
        1   -1    0    0  501    0  0.00000000000E+00  0.00000000000E+00 -0.10260761568E+04  0.10260761569E+04  0.50400001928E-02 0. -1.
    10030    2    1    2    0    0  0.00000000000E+00  0.00000000000E+00 -0.68251902337E+03  0.13696332904E+04  0.11874607921E+04 0.  0.
        2    1    3    3  502    0  0.55235863649E+03  0.43651116785E+02 -0.95200161267E+02  0.56219974566E+03  0.25500000920E-02 0.  1.
       -2    1    3    3    0  502 -0.55235863649E+03 -0.43651116785E+02 -0.58731886211E+03  0.80743354470E+03  0.25500000920E-02 0. -1.
</event>
<event>
 5   0  0.2580244E-03  0.1061854E+04  0.7818609E-02  0.9243191E-01
       -2   -1    0    0    0  501  0.00000000000E+00  0.00000000000E+00  0.58555986754E+03  0.58555986754E+03  0.25500000920E-02 0.  1.
        2   -1    0    0  501    0  0.00000000000E+00  0.00000000000E+00 -0.48139105940E+03  0.48139105941E+03  0.25500000920E-02 0. -1.
    10030    2    1    2    0    0  0.00000000000E+00  0.00000000000E+00  0.10416880813E+03  0.10669509270E+04  0.10618536340E+04 0.  0.
        1    1    3    3  502    0 -0.77207421158E+02 -0.42286377106E+02 -0.47400719500E+03  0.48211196263E+03  0.50400001928E-02 0. -1.
       -1    1    3    3    0  502  0.77207421158E+02  0.42286377106E+02  0.57817600313E+03  0.58483896433E+03  0.50400001928E-02 0.  1.
</event>
<event>
 5   0  0.2499890E-03  0.1208486E+04  0.7818609E-02  0.9105461E-01
        2   -1    0    0  501    0  0.00000000000E+00  0.00000000000E+00  0.92473233238E+03  0.92473233238E+03  0.25500000920E-02 0. -1.
       -2   -1    0    0    0  501  0.00000000000E+00  0.00000000000E+00 -0.39482724728E+03  0.39482724728E+03  0.25500000920E-02 0.  1.
    10030    2    1    2    0    0  0.00000000000E+00  0.00000000000E+00  0.52990508510E+03  0.13195595797E+04  0.12084858647E+04 0.  0.
        5    1    3    3  502    0 -0.28010486221E+03  0.39386316527E+03 -0.13100729594E+03  0.50077133342E+03  0.46999998093E+01 0.  1.
       -5    1    3    3    0  502  0.28010486221E+03 -0.39386316527E+03  0.66091238104E+03  0.81878824625E+03  0.46999998093E+01 0. -1.
</event>
<event>
 5   0  0.2517023E-03  0.1197615E+04  0.7818609E-02  0.9114947E-01
       -2   -1    0    0    0  501  0.00000000000E+00  0.00000000000E+00  0.53359932898E+03  0.53359932898E+03  0.25500000920E-02 0. -1.
        2   -1    0    0  501    0  0.00000000000E+00  0.00000000000E+00 -0.67198429314E+03  0.67198429315E+03  0.25500000920E-02 0.  1.
    10030    2    1    2    0    0  0.00000000000E+00  0.00000000000E+00 -0.13838496417E+03  0.12055836221E+04  0.11976149096E+04 0.  0.
        3    1    3    3  502    0 -0.77652495737E+02  0.55174947077E+03  0.15161369808E+03  0.57744619856E+03  0.10100000352E+00 0. -1.
       -3    1    3    3    0  502  0.77652495737E+02 -0.55174947077E+03 -0.28999866224E+03  0.62813742357E+03  0.10100000352E+00 0.  1.
</event>
<event>
 5   0  0.1455076E-03  0.1197914E+04  0.7818609E-02  0.9114684E-01
        1   -1    0    0  501    0  0.00000000000E+00  0.00000000000E+00  0.10112847390E+04  0.10112847390E+04  0.50400001928E-02 0. -1.
       -1   -1    0    0    0  501  0.00000000000E+00  0.00000000000E+00 -0.35474648819E+03  0.35474648823E+03  0.50400001928E-02 0.  1.
    10030    2    1    2    0    0  0.00000000000E+00  0.00000000000E+00  0.65653825077E+03  0.13660312272E+04  0.11979143705E+04 0.  0.
        4    1    3    3  502    0 -0.47838150904E+03 -0.24713404540E+02  0.73829830200E+03  0.88008273258E+03  0.12699999809E+01 0. -1.
       -4    1    3    3    0  502  0.47838150904E+03  0.24713404540E+02 -0.81760051224E+02  0.48594849463E+03  0.12699999809E+01 0.  1.
</event>
<event>
 5   0  0.2580244E-03  0.1201495E+04  0.7818609E-02  0.9111549E-01
       -2   -1    0    0    0  501  0.00000000000E+00  0.00000000000E+00  0.30096473791E+03  0.30096473792E+03  0.25500000920E-02 0. -1.
        2   -1    0    0  501    0  0.00000000000E+00  0.00000000000E+00 -0.11991352125E+04  0.11991352125E+04  0.25500000920E-02 0.  1.
    10030    2    1    2    0    0  0.00000000000E+00  0.00000000000E+00 -0.89817047458E+03  0.15000999504E+04  0.12014947606E+04 0.  0.
        1    1    3    3  502    0 -0.22568401739E+03  0.42922500303E+03 -0.63767629575E+01  0.48498251728E+03  0.50400001928E-02 0. -1.
       -1    1    3    3    0  502  0.22568401739E+03 -0.42922500303E+03 -0.89179371162E+03  0.10151174331E+04  0.50400001928E-02 0.  1.
</event>
<event>
 5   0  0.1455076E-03  0.1199463E+04  0.7818609E-02  0.9113327E-01
       -1   -1    0    0    0  501  0.00000000000E+00  0.00000000000E+00  0.45179888130E+03  0.45179888133E+03  0.50400001928E-02 0.  1.
        1   -1    0    0  501    0  0.00000000000E+00  0.00000000000E+00 -0.79610112420E+03  0.79610112421E+03  0.50400001928E-02 0. -1.
    10030    2    1    2    0    0  0.00000000000E+00  0.00000000000E+00 -0.34430224290E+03  0.12479000055E+04  0.11994625419E+04 0.  0.
        4    1    3    3  502    0  0.26562748160E+03 -0.22768382093E+03  0.33463174972E+03  0.48412591556E+03  0.12699999809E+01 0.  1.
       -4    1    3    3    0  502 -0.26562748160E+03  0.22768382093E+03 -0.67893399262E+03  0.76377408998E+03  0.12699999809E+01 0. -1.
</event>
<event>
 5   0  0.2517023E-03  0.1072700E+04  0.7818609E-02  0.9232217E-01
        2   -1    0    0  501    0  0.00000000000E+00  0.00000000000E+00  0.96021705430E+03  0.96021705431E+03  0.25500000920E-02 0.  1.
       -2   -1    0    0    0  501  0.00000000000E+00  0.00000000000E+00 -0.29958979260E+03  0.29958979261E+03  0.25500000920E-02 0. -1.
    10030    2    1    2    0    0  0.00000000000E+00  0.00000000000E+00  0.66062726171E+03  0.12598068469E+04  0.10726998241E+04 0.  0.
        3    1    3    3  502    0 -0.14674645646E+03  0.17352010398E+03  0.90088113001E+03  0.92910202324E+03  0.10100000352E+00 0.  1.
       -3    1    3    3    0  502  0.14674645646E+03 -0.17352010398E+03 -0.24025386831E+03  0.33070482368E+03  0.10100000352E+00 0. -1.
</event>
<event>
 5   0  0.2579442E-03  0.1200899E+04  0.7818609E-02  0.9112070E-01
        2   -1    0    0  501    0  0.00000000000E+00  0.00000000000E+00  0.70080317043E+03  0.70080317043E+03  0.25500000920E-02 0. -1.
       -2   -1    0    0    0  501  0.00000000000E+00  0.00000000000E+00 -0.51446611236E+03  0.51446611237E+03  0.25500000920E-02 0.  1.
    10030    2    1    2    0    0  0.00000000000E+00  0.00000000000E+00  0.18633705806E+03  0.12152692828E+04  0.12008988011E+04 0.  0.
        4    1    3    3  502    0  0.15539434703E+03 -0.19400871679E+03  0.64629042996E+03  0.69244474006E+03  0.12699999809E+01 0. -1.
       -4    1    3    3    0  502 -0.15539434703E+03  0.19400871679E+03 -0.45995337189E+03  0.52282454274E+03  0.12699999809E+01 0.  1.
</event>
<event>
 5   0  0.1404833E-03  0.1188887E+04  0.7818609E-02  0.9122639E-01
        1   -1    0    0  501    0  0.00000000000E+00  0.00000000000E+00  0.23005053502E+03  0.23005053508E+03  0.50400001928E-02 0. -1.
       -1   -1    0    0    0  501  0.00000000000E+00  0.00000000000E+00 -0.15360245939E+04  0.15360245939E+04  0.50400001928E-02 0.  1.
    10030    2    1    2    0    0  0.00000000000E+00  0.00000000000E+00 -0.13059740589E+04  0.17660751290E+04  0.11888873449E+04 0.  0.
        1    1    3    3  502    0 -0.21111213467E+03 -0.36381540342E+03 -0.12769498996E+04  0.13444445051E+04  0.50400001928E-02 0.  1.
       -1    1    3    3    0  502  0.21111213467E+03  0.36381540342E+03 -0.29024159295E+02  0.42163062391E+03  0.50400001928E-02 0. -1.
</event>
<event>
 5   0  0.2580244E-03  0.1231835E+04  0.7818609E-02  0.9085439E-01
       -2   -1    0    0    0  501  0.00000000000E+00  0.00000000000E+00  0.26547927323E+03  0.26547927324E+03  0.25500000920E-02 0.  1.
        2   -1    0    0  501    0  0.00000000000E+00  0.00000000000E+00 -0.14289423118E+04  0.14289423118E+04  0.25500000920E-02 0. -1.
    10030    2    1    2    0    0  0.00000000000E+00  0.00000000000E+00 -0.11634630385E+04  0.16944215850E+04  0.12318353241E+04 0.  0.
        1    1    3    3  502    0 -0.78834137790E+02  0.58260029915E+03 -0.83430685778E+03  0.10206399281E+04  0.50400001928E-02 0. -1.
       -1    1    3    3    0  502  0.78834137790E+02 -0.58260029915E+03 -0.32915618076E+03  0.67378165692E+03  0.50400001928E-02 0.  1.
</event>
<event>
 5   0  0.1469851E-03  0.1210164E+04  0.7818609E-02  0.9104006E-01
       -1   -1    0    0    0  501  0.00000000000E+00  0.00000000000E+00  0.20564668047E+03  0.20564668053E+03  0.50400001928E-02 0. -1.
        1   -1    0    0  501    0  0.00000000000E+00  0.00000000000E+00 -0.17803561059E+04  0.17803561059E+04  0.50400001928E-02 0.  1.
    10030    2    1    2    0    0  0.00000000000E+00  0.00000000000E+00 -0.15747094254E+04  0.19860027864E+04  0.12101641596E+04 0.  0.
        5    1    3    3  502    0 -0.37055838661E+03  0.29789369118E+03 -0.14015042400E+04  0.14799629704E+04  0.46999998093E+01 0.  1.
       -5    1    3    3    0  502  0.37055838661E+03 -0.29789369118E+03 -0.17320518545E+03  0.50603981602E+03  0.46999998093E+01 0. -1.
</event>
<event>
 5   0  0.1469851E-03  0.1195571E+04  0.7818609E-02  0.9116742E-01
       -1   -1    0    0    0  501  0.00000000000E+00  0.00000000000E+00  0.71030617171E+03  0.71030617173E+03  0.50400001928E-02 0.  1.
        1   -1    0    0  501    0  0.00000000000E+00  0.00000000000E+00 -0.50308917886E+03  0.50308917889E+03  0.50400001928E-02 0. -1.
    10030    2    1    2    0    0  0.00000000000E+00  0.00000000000E+00  0.20721699285E+03  0.12133953506E+04  0.11955707402E+04 0.  0.
        5    1    3    3  502    0 -0.57562030946E+03  0.16105630771E+03  0.11059471020E+03  0.60789074252E+03  0.46999998093E+01 0.  1.
       -5    1    3    3    0  502  0.57562030946E+03 -0.16105630771E+03  0.96622282650E+02  0.60550460809E+03  0.46999998093E+01 0. -1.
</event>
<event>
 5   0  0.1455076E-03  0.1200655E+04  0.7818609E-02  0.9112284E-01
       -1   -1    0    0    0  501  0.00000000000E+00  0.00000000000E+00  0.10577527797E+04  0.10577527797E+04  0.50400001928E-02 0. -1.
        1   -1    0    0  501    0  0.00000000000E+00  0.00000000000E+00 -0.34071569765E+03  0.34071569769E+03  0.50400001928E-02 0.  1.
    10030    2    1    2    0    0  0.00000000000E+00  0.00000000000E+00  0.71703708207E+03  0.13984684774E+04  0.12006547819E+04 0.  0.
        4    1    3    3  502    0 -0.50132672261E+03  0.20862346343E+03  0.65670290496E+03  0.85212238005E+03  0.12699999809E+01 0. -1.
       -4    1    3    3    0  502  0.50132672261E+03 -0.20862346343E+03  0.60334177111E+02  0.54634609738E+03  0.12699999809E+01 0.  1.
</event>
<event>
 5   0  0.1403154E-03  0.1196531E+04  0.7818609E-02  0.9115898E-01
       -1   -1    0    0    0  501  0.00000000000E+00  0.00000000000E+00  0.17675829437E+03  0.17675829444E+03  0.50400001928E-02 0.  1.
        1   -1    0    0  501    0  0.00000000000E+00  0.00000000000E+00 -0.20249208124E+04  0.20249208124E+04  0.50400001928E-02 0. -1.
    10030    2    1    2    0    0  0.00000000000E+00  0.00000000000E+00 -0.18481625181E+04  0.22016791069E+04  0.11965309008E+04 0.  0.
        3    1    3    3  502    0  0.50610399918E+03 -0.28154501315E+03 -0.12001668646E+04  0.13325949743E+04  0.10100000352E+00 0. -1.
       -3    1    3    3    0  502 -0.50610399918E+03  0.28154501315E+03 -0.64799565347E+03  0.86908413260E+03  0.10100000352E+00 0.  1.
</event>
<event>
 5   0  0.1403154E-03  0.1216613E+04  0.7818609E-02  0.9098439E-01
        1   -1    0    0  501    0  0.00000000000E+00  0.00000000000E+00  0.22437149892E+04  0.22437149892E+04  0.50400001928E-02 0. -1.
       -1   -1    0    0    0  501  0.00000000000E+00  0.00000000000E+00 -0.16492137472E+03  0.16492137479E+03  0.50400001928E-02 0.  1.
    10030    2    1    2    0    0  0.00000000000E+00  0.00000000000E+00  0.20787936145E+04  0.24086363640E+04  0.12166126098E+04 0.  0.
        3    1    3    3  502    0 -0.55834132597E+03  0.55049343053E+02  0.57399440044E+03  0.80264877026E+03  0.10100000352E+00 0.  1.
       -3    1    3    3    0  502  0.55834132597E+03 -0.55049343053E+02  0.15047992140E+04  0.16059875937E+04  0.10100000352E+00 0. -1.
</event>
<event>
 5   0  0.1455076E-03  0.1204569E+04  0.7818609E-02  0.9108867E-01
       -1   -1    0    0    0  501  0.00000000000E+00  0.00000000000E+00  0.68073004081E+03  0.68073004083E+03  0.50400001928E-02 0.  1.
        1   -1    0    0  501    0  0.00000000000E+00  0.00000000000E+00 -0.53287857303E+03  0.53287857305E+03  0.50400001928E-02 0. -1.
    10030    2    1    2    0    0  0.00000000000E+00  0.00000000000E+00  0.14785146778E+03  0.12136086139E+04  0.12045687241E+04 0.  0.
        4    1    3    3  502    0  0.56050485367E+03  0.22003145845E+03  0.86879368176E+02  0.60838242185E+03  0.12699999809E+01 0.  1.
       -4    1    3    3    0  502 -0.56050485367E+03 -0.22003145845E+03  0.60972099604E+02  0.60522619204E+03  0.12699999809E+01 0. -1.
</event>
<event>
 5   0  0.1403154E-03  0.1201341E+04  0.7818609E-02  0.9111684E-01
       -1   -1    0    0    0  501  0.00000000000E+00  0.00000000000E+00  0.45123974961E+03  0.45123974964E+03  0.50400001928E-02 0. -1.
        1   -1    0    0  501    0  0.00000000000E+00  0.00000000000E+00 -0.79958618085E+03  0.79958618086E+03  0.50400001928E-02 0.  1.
    10030    2    1    2    0    0  0.00000000000E+00  0.00000000000E+00 -0.34834643124E+03  0.12508259305E+04  0.12013410308E+04 0.  0.
        3    1    3    3  502    0  0.47316489800E+03 -0.33740390211E+03 -0.33234743860E+03  0.66946340004E+03  0.10100000352E+00 0. -1.
       -3    1    3    3    0  502 -0.47316489800E+03  0.33740390211E+03 -0.15998992644E+02  0.58136253046E+03  0.10100000352E+00 0.  1.
</event>
<event>
 5   0  0.1404833E-03  0.1248338E+04  0.7818609E-02  0.9071568E-01
       -1   -1    0    0    0  501  0.00000000000E+00  0.00000000000E+00  0.92626030437E+03  0.92626030439E+03  0.50400001928E-02 0. -1.
        1   -1    0    0  501    0  0.00000000000E+00  0.00000000000E+00 -0.42060173591E+03  0.42060173594E+03  0.50400001928E-02 0.  1.
    10030    2    1    2    0    0  0.00000000000E+00  0.00000000000E+00  0.50565856846E+03  0.13468620403E+04  0.12483376017E+04 0.  0.
        1    1    3    3  502    0  0.94933644033E+02  0.44209960079E+03 -0.21138698494E+03  0.49914818563E+03  0.50400001928E-02 0.  1.
       -1    1    3    3    0  502 -0.94933644033E+02 -0.44209960079E+03  0.71704555340E+03  0.84771385470E+03  0.50400001928E-02 0. -1.
</event>
<event>
 5   0  0.1469851E-03  0.1192947E+04  0.7818609E-02  0.9119053E-01
        1   -1    0    0  501    0  0.00000000000E+00  0.00000000000E+00  0.10291412124E+04  0.10291412124E+04  0.50400001928E-02 0.  1.
       -1   -1    0    0    0  501  0.00000000000E+00  0.00000000000E+00 -0.34570629533E+03  0.34570629537E+03  0.50400001928E-02 0. -1.
    10030    2    1    2    0    0  0.00000000000E+00  0.00000000000E+00  0.68343491710E+03  0.13748475078E+04  0.11929469325E+04 0.  0.
        5    1    3    3  502    0  0.32651879784E+03  0.27194469452E+03 -0.14066126201E+03  0.44763391611E+03  0.46999998093E+01 0. -1.
       -5    1    3    3    0  502 -0.32651879784E+03 -0.27194469452E+03  0.82409617911E+03  0.92721359170E+03  0.46999998093E+01 0.  1.
</event>
<event>
 5   0  0.2517023E-03  0.1208403E+04  0.7818609E-02  0.9105533E-01
        2   -1    0    0  501    0  0.00000000000E+00  0.00000000000E+00  0.95785593950E+03  0.95785593950E+03  0.25500000920E-02 0.  1.
       -2   -1    0    0    0  501  0.00000000000E+00  0.00000000000E+00 -0.38112114859E+03  0.38112114859E+03  0.25500000920E-02 0. -1.
    10030    2    1    2    0    0  0.00000000000E+00  0.00000000000E+00  0.57673479091E+03  0.13389770881E+04  0.12084025089E+04 0.  0.
        3    1    3    3  502    0  0.11619909498E+03 -0.33586958905E+03  0.82978439180E+03  0.90269195056E+03  0.10100000352E+00 0.  1.
       -3    1    3    3    0  502 -0.11619909498E+03  0.33586958905E+03 -0.25304960089E+03  0.43628513754E+03  0.10100000352E+00 0. -1.
</event>
<event>
 5   0  0.2484507E-03  0.1256565E+04  0.7818609E-02  0.9064737E-01
        2   -1    0    0  501    0  0.00000000000E+00  0.00000000000E+00  0.92122248870E+03  0.92122248870E+03  0.25500000920E-02 0.  1.
       -2   -1    0    0    0  501  0.00000000000E+00  0.00000000000E+00 -0.42849488012E+03  0.42849488013E+03  0.25500000920E-02 0. -1.
    10030    2    1    2    0    0  0.00000000000E+00  0.00000000000E+00  0.49272760857E+03  0.13497173688E+04  0.12565653503E+04 0.  0.
        2    1    3    3  502    0  0.11148792816E+03 -0.61424828687E+03  0.17034586424E+03  0.64710758728E+03  0.25500000920E-02 0. -1.
       -2    1    3    3    0  502 -0.11148792816E+03  0.61424828687E+03  0.32238174434E+03  0.70260978155E+03  0.25500000920E-02 0.  1.
</event>
<event>
 5   0  0.1469851E-03  0.1211476E+04  0.7818609E-02  0.9102871E-01
       -1   -1    0    0    0  501  0.00000000000E+00  0.00000000000E+00  0.18465004204E+04  0.18465004204E+04  0.50400001928E-02 0.  1.
        1   -1    0    0  501    0  0.00000000000E+00  0.00000000000E+00 -0.19871013811E+03  0.19871013818E+03  0.50400001928E-02 0. -1.
    10030    2    1    2    0    0  0.00000000000E+00  0.00000000000E+00  0.16477902823E+04  0.20452105586E+04  0.12114757177E+04 0.  0.
        5    1    3    3  502    0  0.42129583436E+03  0.16945520072E+03  0.14715939963E+03  0.47737115957E+03  0.46999998093E+01 0. -1.
       -5    1    3    3    0  502 -0.42129583436E+03 -0.16945520072E+03  0.15006308827E+04  0.15678393990E+04  0.46999998093E+01 0.  1.
</event>
<event>
 5   0  0.2517023E-03  0.1213436E+04  0.7818609E-02  0.9101176E-01
        2   -1    0    0  501    0  0.00000000000E+00  0.00000000000E+00  0.75920808625E+03  0.75920808626E+03  0.25500000920E-02 0.  1.
       -2   -1    0    0    0  501  0.00000000000E+00  0.00000000000E+00 -0.48485637650E+03  0.48485637651E+03  0.25500000920E-02 0. -1.
    10030    2    1    2    0    0  0.00000000000E+00  0.00000000000E+00  0.27435170975E+03  0.12440644628E+04  0.12134362476E+04 0.  0.
        3    1    3    3  502    0 -0.29091782399E+03  0.95638088939E+02  0.67415848147E+03  0.74045222176E+03  0.10100000352E+00 0.  1.
       -3    1    3    3    0  502  0.29091782399E+03 -0.95638088939E+02 -0.39980677172E+03  0.50361224100E+03  0.10100000352E+00 0. -1.
</event>
<event>
 5   0  0.2580244E-03  0.1220377E+04  0.7818609E-02  0.9095205E-01
       -2   -1    0    0    0  501  0.00000000000E+00  0.00000000000E+00  0.26698043513E+03  0.26698043514E+03  0.25500000920E-02 0.  1.
        2   -1    0    0  501    0  0.00000000000E+00  0.00000000000E+00 -0.13945977259E+04  0.13945977259E+04  0.25500000920E-02 0. -1.
    10030    2    1    2    0    0  0.00000000000E+00  0.00000000000E+00 -0.11276172907E+04  0.16615781610E+04  0.12203774952E+04 0.  0.
        1    1    3    3  502    0  0.52198846665E+03  0.16896325744E+03 -0.20022771993E+03  0.58404767060E+03  0.50400001928E-02 0.  1.
       -1    1    3    3    0  502 -0.52198846665E+03 -0.16896325744E+03 -0.92738957081E+03  0.10775304904E+04  0.50400001928E-02 0. -1.
</event>
<event>
 5   0  0.2579442E-03  0.1204829E+04  0.7818609E-02  0.9108640E-01
       -2   -1    0    0    0  501  0.00000000000E+00  0.00000000000E+00  0.46143787185E+03  0.46143787186E+03  0.25500000920E-02 0. -1.
        2   -1    0    0  501    0  0.00000000000E+00  0.00000000000E+00 -0.78646141262E+03  0.78646141262E+03  0.25500000920E-02 0.  1.
    10030    2    1    2    0    0  0.00000000000E+00  0.00000000000E+00 -0.32502354077E+03  0.12478992845E+04  0.12048287522E+04 0.  0.
        4    1    3    3  502    0  0.10974175076E+03 -0.25056188292E+03  0.39340333424E+03  0.47915791272E+03  0.12699999809E+01 0. -1.
       -4    1    3    3    0  502 -0.10974175076E+03  0.25056188292E+03 -0.71842687500E+03  0.76874137176E+03  0.12699999809E+01 0.  1.
</event>
<event>
 5   0  0.2484507E-03  0.1333652E+04  0.7818609E-02  0.9003297E-01
        2   -1    0    0  501    0  0.00000000000E+00  0.00000000000E+00  0.37422286576E+03  0.37422286577E+03  0.25500000920E-02 0. -1.
       -2   -1    0    0    0  501  0.00000000000E+00  0.00000000000E+00 -0.11882133645E+04  0.11882133645E+04  0.25500000920E-02 0.  1.
    10030    2    1    2    0    0  0.00000000000E+00  0.00000000000E+00 -0.81399049878E+03  0.15624362303E+04  0.13336515443E+04 0.  0.
        2    1    3    3  502    0 -0.19775687272E+03  0.44698637092E+03  0.12441750808E+03  0.50436525735E+03  0.25500000920E-02 0. -1.
       -2    1    3    3    0  502  0.19775687272E+03 -0.44698637092E+03 -0.93840800686E+03  0.10580709730E+04  0.25500000920E-02 0.  1.
</event>
<event>
 5   0  0.1469851E-03  0.1183175E+04  0.7818609E-02  0.9127712E-01
        1   -1    0    0  501    0  0.00000000000E+00  0.00000000000E+00  0.15410986172E+04  0.15410986172E+04  0.50400001928E-02 0. -1.
       -1   -1    0    0    0  501  0.00000000000E+00  0.00000000000E+00 -0.22709509474E+03  0.22709509479E+03  0.50400001928E-02 0.  1.
    10030    2    1    2    0    0  0.00000000000E+00  0.00000000000E+00  0.13140035225E+04  0.17681937120E+04  0.11831752812E+04 0.  0.
        5    1    3    3  502    0 -0.13364555321E+03 -0.52053629317E+03  0.28749313964E+03  0.60950271676E+03  0.46999998093E+01 0. -1.
       -5    1    3    3    0  502  0.13364555321E+03  0.52053629317E+03  0.10265103828E+04  0.11586909952E+04  0.46999998093E+01 0.  1.
</event>
<event>
 5   0  0.2484507E-03  0.1195035E+04  0.7818609E-02  0.9117213E-01
       -2   -1    0    0    0  501  0.00000000000E+00  0.00000000000E+00  0.20833306995E+03  0.20833306997E+03  0.25500000920E-02 0. -1.
        2   -1    0    0  501    0  0.00000000000E+00  0.00000000000E+00 -0.17137334025E+04  0.17137334025E+04  0.25500000920E-02 0.  1.
    10030    2    1    2    0    0  0.00000000000E+00  0.00000000000E+00 -0.15054003326E+04  0.19220664725E+04  0.11950352980E+04 0.  0.
        2    1    3    3  502    0 -0.11425630996E+03 -0.93812086899E+02  0.17845405999E+03  0.23173489929E+03  0.25500000920E-02 0. -1.
       -2    1    3    3    0  502  0.11425630996E+03  0.93812086899E+02 -0.16838543926E+04  0.16903315732E+04  0.25500000920E-02 0.  1.
</event>
<event>
 5   0  0.1469851E-03  0.1198261E+04  0.7818609E-02  0.9114380E-01
        1   -1    0    0  501    0  0.00000000000E+00  0.00000000000E+00  0.94885646985E+03  0.94885646986E+03  0.50400001928E-02 0. -1.
       -1   -1    0    0    0  501  0.00000000000E+00  0.00000000000E+00 -0.37830500802E+03  0.37830500806E+03  0.50400001928E-02 0.  1.
    10030    2    1    2    0    0  0.00000000000E+00  0.00000000000E+00  0.57055146182E+03  0.13271614779E+04  0.11982606636E+04 0.  0.
        5    1    3    3  502    0  0.21059698586E+03  0.39373666102E+03 -0.15713763575E+03  0.47338565171E+03  0.46999998093E+01 0.  1.
       -5    1    3    3    0  502 -0.21059698586E+03 -0.39373666102E+03  0.72768909758E+03  0.85377582620E+03  0.46999998093E+01 0. -1.
</event>
<event>
 5   0  0.1423024E-03  0.1257652E+04  0.7818609E-02  0.9063839E-01
        1   -1    0    0  501    0  0.00000000000E+00  0.00000000000E+00  0.11480733032E+04  0.11480733032E+04  0.50400001928E-02 0.  1.
       -1   -1    0    0    0  501  0.00000000000E+00  0.00000000000E+00 -0.34442217765E+03  0.34442217769E+03  0.50400001928E-02 0. -1.
    10030    2    1    2    0    0  0.00000000000E+00  0.00000000000E+00  0.80365112556E+03  0.14924954809E+04  0.12576516326E+04 0.  0.
        2    1    3    3  502    0 -0.33513133543E+03 -0.29261578228E+02  0.10323060992E+04  0.10857371387E+04  0.25500000920E-02 0.  1.
       -2    1    3    3    0  502  0.33513133543E+03  0.29261578228E+02 -0.22865497366E+03  0.40675834218E+03  0.25500000920E-02 0. -1.
</event>
<event>
 5   0  0.1423024E-03  0.1186228E+04  0.7818609E-02  0.9124998E-01
       -1   -1    0    0    0  501  0.00000000000E+00  0.00000000000E+00  0.29313153424E+03  0.29313153429E+03  0.50400001928E-02 0. -1.
        1   -1    0    0  501    0  0.00000000000E+00  0.00000000000E+00 -0.12000891323E+04  0.12000891323E+04  0.50400001928E-02 0.  1.
    10030    2    1    2    0    0  0.00000000000E+00  0.00000000000E+00 -0.90695759802E+03  0.14932206666E+04  0.11862275812E+04 0.  0.
        2    1    3    3  502    0 -0.13816223037E+02 -0.14047295168E+03  0.27168098415E+03  0.30616024453E+03  0.25500000920E-02 0. -1.
       -2    1    3    3    0  502  0.13816223037E+02  0.14047295168E+03 -0.11786385822E+04  0.11870604220E+04  0.25500000920E-02 0.  1.
</event>
<event>
 5   0  0.1455076E-03  0.1195004E+04  0.7818609E-02  0.9117240E-01
       -1   -1    0    0    0  501  0.00000000000E+00  0.00000000000E+00  0.38058629880E+03  0.38058629883E+03  0.50400001928E-02 0. -1.
        1   -1    0    0  501    0  0.00000000000E+00  0.00000000000E+00 -0.93804975828E+03  0.93804975830E+03  0.50400001928E-02 0.  1.
    10030    2    1    2    0    0  0.00000000000E+00  0.00000000000E+00 -0.55746345948E+03  0.13186360571E+04  0.11950044111E+04 0.  0.
        4    1    3    3  502    0  0.41261630143E+03  0.28289912062E+03  0.81751240106E+02  0.50692110117E+03  0.12699999809E+01 0. -1.
       -4    1    3    3    0  502 -0.41261630143E+03 -0.28289912062E+03 -0.63921469959E+03  0.81171495596E+03  0.12699999809E+01 0.  1.
</event>
<event>
 5   0  0.2580244E-03  0.1202976E+04  0.7818609E-02  0.9110256E-01
        2   -1    0    0  501    0  0.00000000000E+00  0.00000000000E+00  0.18486595389E+04  0.18486595389E+04  0.25500000920E-02 0.  1.
       -2   -1    0    0    0  501  0.00000000000E+00  0.00000000000E+00 -0.19570269469E+03  0.19570269471E+03  0.25500000920E-02 0. -1.
    10030    2    1    2    0    0  0.00000000000E+00  0.00000000000E+00  0.16529568442E+04  0.20443622336E+04  0.12029757327E+04 0.  0.
        1    1    3    3  502    0 -0.26483754303E+03  0.48224618112E+03  0.41338503849E+03  0.68817693472E+03  0.50400001928E-02 0. -1.
       -1    1    3    3    0  502  0.26483754303E+03 -0.48224618112E+03  0.12395718057E+04  0.13561852989E+04  0.50400001928E-02 0.  1.
</event>
<event>
 5   0  0.2579442E-03  0.1203989E+04  0.7818609E-02  0.9109373E-01
        2   -1    0    0  501    0  0.00000000000E+00  0.00000000000E+00  0.83599316809E+03  0.83599316809E+03  0.25500000920E-02 0.  1.
       -2   -1    0    0    0  501  0.00000000000E+00  0.00000000000E+00 -0.43349291230E+03  0.43349291230E+03  0.25500000920E-02 0. -1.
    10030    2    1    2    0    0  0.00000000000E+00  0.00000000000E+00  0.40250025579E+03  0.12694860804E+04  0.12039885599E+04 0.  0.
        4    1    3    3  502    0  0.58936886198E+03 -0.12201481427E+03  0.21425947367E+03  0.63886775262E+03  0.12699999809E+01 0.  1.
       -4    1    3    3    0  502 -0.58936886198E+03  0.12201481427E+03  0.18824078212E+03  0.63061832778E+03  0.12699999809E+01 0. -1.
</event>
<event>
 5   0  0.1403154E-03  0.1201846E+04  0.7818609E-02  0.9111242E-01
        1   -1    0    0  501    0  0.00000000000E+00  0.00000000000E+00  0.68770177672E+03  0.68770177674E+03  0.50400001928E-02 0. -1.
       -1   -1    0    0    0  501  0.00000000000E+00  0.00000000000E+00 -0.52509459150E+03  0.52509459153E+03  0.50400001928E-02 0.  1.
    10030    2    1    2    0    0  0.00000000000E+00  0.00000000000E+00  0.16260718521E+03  0.12127963683E+04  0.12018460526E+04 0.  0.
        3    1    3    3  502    0  0.13318707745E+03 -0.37206081326E+03  0.53813175020E+03  0.66764798895E+03  0.10100000352E+00 0. -1.
       -3    1    3    3    0  502 -0.13318707745E+03  0.37206081326E+03 -0.37552456499E+03  0.54514837932E+03  0.10100000352E+00 0.  1.
</event>
<event>
 5   0  0.2517023E-03  0.1293408E+04  0.7818609E-02  0.9034809E-01
        2   -1    0    0  501    0  0.00000000000E+00  0.00000000000E+00  0.10133015912E+04  0.10133015912E+04  0.25500000920E-02 0. -1.
       -2   -1    0    0    0  501  0.00000000000E+00  0.00000000000E+00 -0.41273577782E+03  0.41273577782E+03  0.25500000920E-02 0.  1.
    10030    2    1    2    0    0  0.00000000000E+00  0.00000000000E+00  0.60056581343E+03  0.14260373691E+04  0.12934076240E+04 0.  0.
        3    1    3    3  502    0 -0.32510990377E+03  0.18965463011E+03  0.88009938187E+03  0.95720439845E+03  0.10100000352E+00 0. -1.
       -3    1    3    3    0  502  0.32510990377E+03 -0.18965463011E+03 -0.27953356844E+03  0.46883297062E+03  0.10100000352E+00 0.  1.
</event>
<event>
 5   0  0.1403154E-03  0.1197811E+04  0.7818609E-02  0.9114775E-01
       -1   -1    0    0    0  501  0.00000000000E+00  0.00000000000E+00  0.28148894246E+04  0.28148894246E+04  0.50400001928E-02 0.  1.
        1   -1    0    0  501    0  0.00000000000E+00  0.00000000000E+00 -0.12742520370E+03  0.12742520380E+03  0.50400001928E-02 0. -1.
    10030    2    1    2    0    0  0.00000000000E+00  0.00000000000E+00  0.26874642209E+04  0.29423146284E+04  0.11978111011E+04 0.  0.
        3    1    3    3  502    0  0.60041566942E+02 -0.57156462026E+03  0.17576698710E+04  0.18492415987E+04  0.10100000352E+00 0.  1.
       -3    1    3    3    0  502 -0.60041566942E+02  0.57156462026E+03  0.92979434991E+03  0.10930730297E+04  0.10100000352E+00 0. -1.
</event>
<event>
 5   0  0.1423024E-03  0.1202470E+04  0.7818609E-02  0.9110697E-01
       -1   -1    0    0    0  501  0.00000000000E+00  0.00000000000E+00  0.68697791363E+03  0.68697791365E+03  0.50400001928E-02 0. -1.
        1   -1    0    0  501    0  0.00000000000E+00  0.00000000000E+00 -0.52619400483E+03  0.52619400485E+03  0.50400001928E-02 0.  1.
    10030    2    1    2    0    0  0.00000000000E+00  0.00000000000E+00  0.16078390880E+03  0.12131719185E+04  0.12024702235E+04 0.  0.
        2    1    3    3  502    0 -0.67540282187E+02 -0.55432656336E+03  0.30518430960E+03  0.63637810411E+03  0.25500000920E-02 0. -1.
       -2    1    3    3    0  502  0.67540282187E+02  0.55432656336E+03 -0.14440040080E+03  0.57679381439E+03  0.25500000920E-02 0.  1.
</event>
<event>
 5   0  0.2484507E-03  0.1241459E+04  0.7818609E-02  0.9077322E-01
        2   -1    0    0  501    0  0.00000000000E+00  0.00000000000E+00  0.88982016072E+03  0.88982016072E+03  0.25500000920E-02 0. -1.
       -2   -1    0    0    0  501  0.00000000000E+00  0.00000000000E+00 -0.43301473705E+03  0.43301473706E+03  0.25500000920E-02 0.  1.
    10030    2    1    2    0    0  0.00000000000E+00  0.00000000000E+00  0.45680542366E+03  0.13228348978E+04  0.12414592106E+04 0.  0.
        2    1    3    3  502    0 -0.21134882219E+02 -0.51225594076E+03  0.60127221025E+03  0.79017789321E+03  0.25500000920E-02 0. -1.
       -2    1    3    3    0  502  0.21134882219E+02  0.51225594076E+03 -0.14446678659E+03  0.53265700457E+03  0.25500000920E-02 0.  1.
</event>
<event>
 5   0  0.1469851E-03  0.1193750E+04  0.7818609E-02  0.9118344E-01
       -1   -1    0    0    0  501  0.00000000000E+00  0.00000000000E+00  0.34750081849E+03  0.34750081853E+03  0.50400001928E-02 0. -1.
        1   -1    0    0  501    0  0.00000000000E+00  0.00000000000E+00 -0.10252061881E+04  0.10252061881E+04  0.50400001928E-02 0.  1.
    10030    2    1    2    0    0  0.00000000000E+00  0.00000000000E+00 -0.67770536957E+03  0.13727070066E+04  0.11937503751E+04 0.  0.
        5    1    3    3  502    0 -0.91031482999E+02  0.54421017438E+03 -0.77171546906E+02  0.55716154071E+03  0.46999998093E+01 0. -1.
       -5    1    3    3    0  502  0.91031482999E+02 -0.54421017438E+03 -0.60053382267E+03  0.81554546590E+03  0.46999998093E+01 0.  1.
</event>
<event>
 5   0  0.1404833E-03  0.1213178E+04  0.7818609E-02  0.9101399E-01
       -1   -1    0    0    0  501  0.00000000000E+00  0.00000000000E+00  0.80353962060E+03  0.80353962062E+03  0.50400001928E-02 0.  1.
        1   -1    0    0  501    0  0.00000000000E+00  0.00000000000E+00 -0.45791190383E+03  0.45791190385E+03  0.50400001928E-02 0. -1.
    10030    2    1    2    0    0  0.00000000000E+00  0.00000000000E+00  0.34562771678E+03  0.12614515245E+04  0.12131782350E+04 0.  0.
        1    1    3    3  502    0 -0.38803056265E+03 -0.30098496574E+03  0.54305923060E+03  0.73217005887E+03  0.50400001928E-02 0.  1.
       -1    1    3    3    0  502  0.38803056265E+03  0.30098496574E+03 -0.19743151382E+03  0.52928146560E+03  0.50400001928E-02 0. -1.
</event>
<event>
 5   0  0.2579442E-03  0.1195814E+04  0.7818609E-02  0.9116529E-01
        2   -1    0    0  501    0  0.00000000000E+00  0.00000000000E+00  0.13476904941E+04  0.13476904941E+04  0.25500000920E-02 0.  1.
       -2   -1    0    0    0  501  0.00000000000E+00  0.00000000000E+00 -0.26526322139E+03  0.26526322140E+03  0.25500000920E-02 0. -1.
    10030    2    1    2    0    0  0.00000000000E+00  0.00000000000E+00  0.10824272727E+04  0.16129537155E+04  0.11958139018E+04 0.  0.
        4    1    3    3  502    0 -0.27521935835E+03  0.95676874861E+02  0.12454433447E+04  0.12790740781E+04  0.12699999809E+01 0.  1.
       -4    1    3    3    0  502  0.27521935835E+03 -0.95676874861E+02 -0.16301607202E+03  0.33387963734E+03  0.12699999809E+01 0. -1.
</event>
<event>
 5   0  0.1404833E-03  0.1080902E+04  0.7818609E-02  0.9224008E-01
        1   -1    0    0  501    0  0.00000000000E+00  0.00000000000E+00  0.92014210510E+03  0.92014210511E+03  0.50400001928E-02 0. -1.
       -1   -1    0    0    0  501  0.00000000000E+00  0.00000000000E+00 -0.31743724250E+03  0.31743724254E+03  0.50400001928E-02 0.  1.
    10030    2    1    2    0    0  0.00000000000E+00  0.00000000000E+00  0.60270486259E+03  0.12375793477E+04  0.10809021650E+04 0.  0.
        1    1    3    3  502    0  0.14445935125E+03  0.10101171040E+03  0.88630387604E+03  0.90366278584E+03  0.50400001928E-02 0. -1.
       -1    1    3    3    0  502 -0.14445935125E+03 -0.10101171040E+03 -0.28359901344E+03  0.33391656181E+03  0.50400001928E-02 0.  1.
</event>
<event>
 5   0  0.2579442E-03  0.1199833E+04  0.7818609E-02  0.9113003E-01
       -2   -1    0    0    0  501  0.00000000000E+00  0.00000000000E+00  0.19773621253E+03  0.19773621254E+03  0.25500000920E-02 0. -1.
        2   -1    0    0  501    0  0.00000000000E+00  0.00000000000E+00 -0.18201006124E+04  0.18201006124E+04  0.25500000920E-02 0.  1.
    10030    2    1    2    0    0  0.00000000000E+00  0.00000000000E+00 -0.16223643999E+04  0.20178368250E+04  0.11998329909E+04 0.  0.
        4    1    3    3  502    0  0.68623586215E+02 -0.26493227653E+03 -0.17089987019E+04  0.17307733774E+04  0.12699999809E+01 0.  1.
       -4    1    3    3    0  502 -0.68623586215E+02  0.26493227653E+03  0.86634302067E+02  0.28706344756E+03  0.12699999809E+01 0. -1.
</event>
<event>
 5   0  0.2499890E-03  0.1198008E+04  0.7818609E-02  0.9114602E-01
       -2   -1    0    0    0  501  0.00000000000E+00  0.00000000000E+00  0.58786433508E+03  0.58786433509E+03  0.25500000920E-02 0. -1.
        2   -1    0    0  501    0  0.00000000000E+00  0.00000000000E+00 -0.61035451774E+03  0.61035451774E+03  0.25500000920E-02 0.  1.
    10030    2    1    2    0    0  0.00000000000E+00  0.00000000000E+00 -0.22490182655E+02  0.11982188528E+04  0.11980077675E+04 0.  0.
        5    1    3    3  502    0  0.11995822915E+03 -0.28022197778E+03 -0.52696102877E+03  0.60878924877E+03  0.46999998093E+01 0.  1.
       -5    1    3    3    0  502 -0.11995822915E+03  0.28022197778E+03  0.50447084612E+03  0.58942960407E+03  0.46999998093E+01 0. -1.
</event>
<event>
 5   0  0.1455076E-03  0.1186704E+04  0.7818609E-02  0.9124575E-01
       -1   -1    0    0    0  501  0.00000000000E+00  0.00000000000E+00  0.34381588205E+03  0.34381588208E+03  0.50400001928E-02 0.  1.
        1   -1    0    0  501    0  0.00000000000E+00  0.00000000000E+00 -0.10239971225E+04  0.10239971226E+04  0.50400001928E-02 0. -1.
    10030    2    1    2    0    0  0.00000000000E+00  0.00000000000E+00 -0.68018124050E+03  0.13678130046E+04  0.11867037944E+04 0.  0.
        4    1    3    3  502    0  0.40009220816E+03  0.11275351067E+03 -0.82812180287E+03  0.92659293246E+03  0.12699999809E+01 0. -1.
       -4    1    3    3    0  502 -0.40009220816E+03 -0.11275351067E+03  0.14794056237E+03  0.44122007218E+03  0.12699999809E+01 0.  1.
</event>
<event>
 5   0  0.2499890E-03  0.1198360E+04  0.7818609E-02  0.9114293E-01
       -2   -1    0    0    0  501  0.00000000000E+00  0.00000000000E+00  0.15345795309E+03  0.15345795311E+03  0.25500000920E-02 0. -1.
        2   -1    0    0  501    0  0.00000000000E+00  0.00000000000E+00 -0.23395110849E+04  0.23395110849E+04  0.25500000920E-02 0.  1.
    10030    2    1    2    0    0  0.00000000000E+00  0.00000000000E+00 -0.21860531318E+04  0.24929690380E+04  0.11983598497E+04 0.  0.
        5    1    3    3  502    0  0.55630852296E+02 -0.45684901692E+03 -0.18911440682E+04  0.19463436985E+04  0.46999998093E+01 0.  1.
       -5    1    3    3    0  502 -0.55630852296E+02  0.45684901692E+03 -0.29490906357E+03  0.54662533948E+03  0.46999998093E+01 0. -1.
</event>
<event>
 5   0  0.9678750E-04  0.1223631E+04  0.7818609E-02  0.9092420E-01
        4   -1    0    0  501    0  0.00000000000E+00  0.00000000000E+00  0.31845175680E+03  0.31845428920E+03  0.12699999809E+01 0. -1.
       -4   -1    0    0    0  501  0.00000000000E+00  0.00000000000E+00 -0.11754240734E+04  0.11754247595E+04  0.12699999809E+01 0.  1.
    10030    2    1    2    0    0  0.00000000000E+00  0.00000000000E+00 -0.85697231664E+03  0.14938790487E+04  0.12236310967E+04 0.  0.
        5    1    3    3  502    0 -0.58954981905E+03  0.43559137057E+02 -0.62086239894E+03  0.85729726232E+03  0.46999998093E+01 0. -1.
       -5    1    3    3    0  502  0.58954981905E+03 -0.43559137057E+02 -0.23610991770E+03  0.63658178642E+03  0.46999998093E+01 0.  1.
</event>
<event>
 5   0  0.2484507E-03  0.1197721E+04  0.7818609E-02  0.9114854E-01
       -2   -1    0    0    0  501  0.00000000000E+00  0.00000000000E+00  0.56744922591E+03  0.56744922592E+03  0.25500000920E-02 0. -1.
        2   -1    0    0  501    0  0.00000000000E+00  0.00000000000E+00 -0.63201075074E+03  0.63201075074E+03  0.25500000920E-02 0.  1.
    10030    2    1    2    0    0  0.00000000000E+00  0.00000000000E+00 -0.64561524825E+02  0.11994599767E+04  0.11977211884E+04 0.  0.
        2    1    3    3  502    0  0.53821985659E+03 -0.22190598037E+03  0.10831940053E+03  0.59216211522E+03  0.25500000920E-02 0. -1.
       -2    1    3    3    0  502 -0.53821985659E+03  0.22190598037E+03 -0.17288092536E+03  0.60729786145E+03  0.25500000920E-02 0.  1.
</event>
<event>
 5   0  0.1403154E-03  0.1196711E+04  0.7818609E-02  0.9115740E-01
        1   -1    0    0  501    0  0.00000000000E+00  0.00000000000E+00  0.15370348194E+04  0.15370348194E+04  0.50400001928E-02 0. -1.
       -1   -1    0    0    0  501  0.00000000000E+00  0.00000000000E+00 -0.23293510914E+03  0.23293510919E+03  0.50400001928E-02 0.  1.
    10030    2    1    2    0    0  0.00000000000E+00  0.00000000000E+00  0.13040997103E+04  0.17699699286E+04  0.11967111154E+04 0.  0.
        3    1    3    3  502    0 -0.31085531829E+03  0.23649509565E+03 -0.18373425339E+02  0.39102244455E+03  0.10100000352E+00 0.  1.
       -3    1    3    3    0  502  0.31085531829E+03 -0.23649509565E+03  0.13224731356E+04  0.13789474840E+04  0.10100000352E+00 0. -1.
</event>
</LesHouchesEvents>
