<LesHouchesEvents version="3.0">
<header>
<!--
#*********************************************************************
#                                                                    *
#                        MadGraph5_aMC@NLO                           *
#                                                                    *
#                           Going Beyond                             *
#                                                                    *
#                   http://madgraph.hep.uiuc.edu                     *
#                   http://madgraph.phys.ucl.ac.be                   *
#                   http://amcatnlo.cern.ch                          *
#                                                                    *
#                     The MadGraph5_aMC@NLO team                     *
#                                                                    *
#....................................................................*
#                                                                    *
# This file contains all the information necessary to reproduce      *
# the events generated:                                              *
#                                                                    *
# 1. software version                                                *
# 2. proc_card          : code generation info including model       *
# 3. param_card         : model primary parameters in the LH format  *
# 4. run_card           : running parameters (collider and cuts)     *
# 5. pythia_card        : present only if pythia has been run        *
# 6. pgs_card           : present only if pgs has been run           *
# 7. delphes_cards      : present only if delphes has been run       *
#                                                                    *
#                                                                    *
#*********************************************************************
-->
<MGVersion>
#5.2.2.3
</MGVersion>
<MG5ProcCard>
#************************************************************
#*                     MadGraph5_aMC@NLO                    *
#*                                                          *
#*                *                       *                 *
#*                  *        * *        *                   *
#*                    * * * * 5 * * * *                     *
#*                  *        * *        *                   *
#*                *                       *                 *
#*                                                          *
#*                                                          *
#*         VERSION 2.2.3                 2015-02-10         *
#*                                                          *
#*    The MadGraph5_aMC@NLO Development Team - Find us at   *
#*    https://server06.fynu.ucl.ac.be/projects/madgraph     *
#*                                                          *
#************************************************************
#*                                                          *
#*               Command File for MadGraph5_aMC@NLO         *
#*                                                          *
#*     run as ./bin/mg5_aMC  filename                       *
#*                                                          *
#************************************************************
set group_subprocesses Auto
set ignore_six_quark_processes False
set loop_optimized_output True
set gauge unitary
set complex_mass_scheme False
import model sm
define p = g u c d s u~ c~ d~ s~
define j = g u c d s u~ c~ d~ s~
define l+ = e+ mu+
define l- = e- mu-
define vl = ve vm vt
define vl~ = ve~ vm~ vt~
import model Zprime_UFO
generate p p > zph, zph > j j
add process p p > zph, zph > b b~
output Dijet_signal
</MG5ProcCard>
<MGProcCard>
#*********************************************************************
#                        MadGraph/MadEvent                           *
#                   http://madgraph.hep.uiuc.edu                     *
#                                                                    *
#                          proc_card.dat                             *
#*********************************************************************
#                                                                    *
#            This Files is generated by MADGRAPH 5                   *
#                                                                    *
# WARNING: This Files is generated for MADEVENT (compatibility issue)*
#          This files is NOT a valid MG4 proc_card.dat               *
#          Running this in MG4 will NEVER reproduce the result of MG5*
#                                                                    *
#*********************************************************************
#*********************************************************************
# Process(es) requested : mg2 input                                  *
#*********************************************************************
# Begin PROCESS # This is TAG. Do not modify this line
p p > zph , zph > j j           #Process
# Be carefull the coupling are here in MG5 convention
          
end_coup           # End the couplings input

done               # this tells MG there are no more procs
# End PROCESS  # This is TAG. Do not modify this line
#*********************************************************************
# Model information                                                  *
#*********************************************************************
# Begin MODEL  # This is TAG. Do not modify this line
Zprime_UFO
# End   MODEL  # This is TAG. Do not modify this line
#*********************************************************************
# Start multiparticle definitions                                    *
#*********************************************************************
# Begin MULTIPARTICLES # This is TAG. Do not modify this line

# End  MULTIPARTICLES # This is TAG. Do not modify this line
</MGProcCard>
<MGRunCard>
#*********************************************************************
#                       MadGraph5_aMC@NLO                            *
#                                                                    *
#                     run_card.dat MadEvent                          *
#                                                                    *
#  This file is used to set the parameters of the run.               *
#                                                                    *
#  Some notation/conventions:                                        *
#                                                                    *
#   Lines starting with a '# ' are info or comments                  *
#                                                                    *
#   mind the format:   value    = variable     ! comment             *
#*********************************************************************
#
#*******************                                                 
# Running parameters
#*******************                                                 
#                                                                    
#*********************************************************************
# Tag name for the run (one word)                                    *
#*********************************************************************
  tag_1     = run_tag ! name of the run 
#*********************************************************************
# Run to generate the grid pack                                      *
#*********************************************************************
  .false.     = gridpack  !True = setting up the grid pack
#*********************************************************************
# Number of events and rnd seed                                      *
# Warning: Do not generate more than 1M events in a single run       *
# If you want to run Pythia, avoid more than 50k events in a run.    *
#*********************************************************************
  2000 = nevents ! Number of unweighted events requested 
 786 = iseed   ! rnd seed (0=assigned automatically=default))
#*********************************************************************
# Collider type and energy                                           *
# lpp: 0=No PDF, 1=proton, -1=antiproton, 2=photon from proton,      *
#                                         3=photon from electron     *
#*********************************************************************
        1     = lpp1    ! beam 1 type 
        1     = lpp2    ! beam 2 type
     4000     = ebeam1  ! beam 1 total energy in GeV
     4000     = ebeam2  ! beam 2 total energy in GeV
#*********************************************************************
# Beam polarization from -100 (left-handed) to 100 (right-handed)    *
#*********************************************************************
        0     = polbeam1 ! beam polarization for beam 1
        0     = polbeam2 ! beam polarization for beam 2
#*********************************************************************
# PDF CHOICE: this automatically fixes also alpha_s and its evol.    *
#*********************************************************************
 'nn23lo1'    = pdlabel     ! PDF set                                     
 230000    = lhaid     ! if pdlabel=lhapdf, this is the lhapdf number
#*********************************************************************
# Renormalization and factorization scales                           *
#*********************************************************************
 F        = fixed_ren_scale  ! if .true. use fixed ren scale
 F        = fixed_fac_scale  ! if .true. use fixed fac scale
 91.1880  = scale            ! fixed ren scale
 91.1880  = dsqrt_q2fact1    ! fixed fact scale for pdf1
 91.1880  = dsqrt_q2fact2    ! fixed fact scale for pdf2
 1        = scalefact        ! scale factor for event-by-event scales
#*********************************************************************
# Matching - Warning! ickkw > 1 is still beta
#*********************************************************************
 0        = ickkw            ! 0 no matching, 1 MLM, 2 CKKW matching
 1        = highestmult      ! for ickkw=2, highest mult group
 1        = ktscheme         ! for ickkw=1, 1 Durham kT, 2 Pythia pTE
 1        = alpsfact         ! scale factor for QCD emission vx
 F        = chcluster        ! cluster only according to channel diag
 T        = pdfwgt           ! for ickkw=1, perform pdf reweighting
 5        = asrwgtflavor     ! highest quark flavor for a_s reweight
 T        = clusinfo         ! include clustering tag in output
 3.0      = lhe_version       ! Change the way clustering information pass to shower.        
#*********************************************************************
#**********************************************************
#
#**********************************************************
# Automatic ptj and mjj cuts if xqcut > 0
# (turn off for VBF and single top processes)
#**********************************************************
   T  = auto_ptj_mjj  ! Automatic setting of ptj and mjj
#**********************************************************
#                                                                    
#**********************************
# BW cutoff (M+/-bwcutoff*Gamma)
#**********************************
  15  = bwcutoff      ! (M+/-bwcutoff*Gamma)
#**********************************************************
# Apply pt/E/eta/dr/mij cuts on decay products or not
# (note that etmiss/ptll/ptheavy/ht/sorted cuts always apply)
#**********************************************************
   T  = cut_decays    ! Cut decay products 
#*************************************************************
# Number of helicities to sum per event (0 = all helicities)
# 0 gives more stable result, but longer run time (needed for
# long decay chains e.g.).
# Use >=2 if most helicities contribute, e.g. pure QCD.
#*************************************************************
   0  = nhel          ! Number of helicities used per event
#*******************                                                 
# Standard Cuts
#*******************                                                 
#                                                                    
#*********************************************************************
# Minimum and maximum pt's (for max, -1 means no cut)                *
#*********************************************************************
 20  = ptj       ! minimum pt for the jets 
  0  = ptb       ! minimum pt for the b 
 10  = pta       ! minimum pt for the photons 
 10  = ptl       ! minimum pt for the charged leptons 
  0  = misset    ! minimum missing Et (sum of neutrino's momenta)
  0  = ptheavy   ! minimum pt for one heavy final state
 1.0 = ptonium   ! minimum pt for the quarkonium states
 -1  = ptjmax    ! maximum pt for the jets
 -1  = ptbmax    ! maximum pt for the b
 -1  = ptamax    ! maximum pt for the photons
 -1  = ptlmax    ! maximum pt for the charged leptons
 -1  = missetmax ! maximum missing Et (sum of neutrino's momenta)
#*********************************************************************
# Minimum and maximum E's (in the center of mass frame)              *
#*********************************************************************
  0  = ej     ! minimum E for the jets 
  0  = eb     ! minimum E for the b 
  0  = ea     ! minimum E for the photons 
  0  = el     ! minimum E for the charged leptons 
 -1   = ejmax ! maximum E for the jets
 -1   = ebmax ! maximum E for the b
 -1   = eamax ! maximum E for the photons
 -1   = elmax ! maximum E for the charged leptons
#*********************************************************************
# Maximum and minimum absolute rapidity (for max, -1 means no cut)   *
#*********************************************************************
   5  = etaj    ! max rap for the jets 
  -1  = etab    ! max rap for the b
 2.5  = etaa    ! max rap for the photons 
 2.5  = etal    ! max rap for the charged leptons 
 0.6  = etaonium ! max rap for the quarkonium states
   0  = etajmin ! min rap for the jets
   0  = etabmin ! min rap for the b
   0  = etaamin ! min rap for the photons
   0  = etalmin ! main rap for the charged leptons
#*********************************************************************
# Minimum and maximum DeltaR distance                                *
#*********************************************************************
 0.4 = drjj    ! min distance between jets 
 0   = drbb    ! min distance between b's 
 0.4 = drll    ! min distance between leptons 
 0.4 = draa    ! min distance between gammas 
 0   = drbj    ! min distance between b and jet 
 0.4 = draj    ! min distance between gamma and jet 
 0.4 = drjl    ! min distance between jet and lepton 
 0   = drab    ! min distance between gamma and b 
 0   = drbl    ! min distance between b and lepton 
 0.4 = dral    ! min distance between gamma and lepton 
 -1  = drjjmax ! max distance between jets
 -1  = drbbmax ! max distance between b's
 -1  = drllmax ! max distance between leptons
 -1  = draamax ! max distance between gammas
 -1  = drbjmax ! max distance between b and jet
 -1  = drajmax ! max distance between gamma and jet
 -1  = drjlmax ! max distance between jet and lepton
 -1  = drabmax ! max distance between gamma and b
 -1  = drblmax ! max distance between b and lepton
 -1  = dralmax ! maxdistance between gamma and lepton
#*********************************************************************
# Minimum and maximum invariant mass for pairs                       *
# WARNING: for four lepton final state mmll cut require to have      *
#          different lepton masses for each flavor!                  *           
#*********************************************************************
 0   = mmjj    ! min invariant mass of a jet pair 
 0   = mmbb    ! min invariant mass of a b pair 
 0   = mmaa    ! min invariant mass of gamma gamma pair
 0   = mmll    ! min invariant mass of l+l- (same flavour) lepton pair
 -1  = mmjjmax ! max invariant mass of a jet pair
 -1  = mmbbmax ! max invariant mass of a b pair
 -1  = mmaamax ! max invariant mass of gamma gamma pair
 -1  = mmllmax ! max invariant mass of l+l- (same flavour) lepton pair
#*********************************************************************
# Minimum and maximum invariant mass for all letpons                 *
#*********************************************************************
 0   = mmnl    ! min invariant mass for all letpons (l+- and vl) 
 -1  = mmnlmax ! max invariant mass for all letpons (l+- and vl) 
#*********************************************************************
# Minimum and maximum pt for 4-momenta sum of leptons                *
#*********************************************************************
 0   = ptllmin  ! Minimum pt for 4-momenta sum of leptons(l and vl)
 -1  = ptllmax  ! Maximum pt for 4-momenta sum of leptons(l and vl)
#*********************************************************************
# Inclusive cuts                                                     *
#*********************************************************************
 0  = xptj ! minimum pt for at least one jet  
 0  = xptb ! minimum pt for at least one b 
 0  = xpta ! minimum pt for at least one photon 
 0  = xptl ! minimum pt for at least one charged lepton 
#*********************************************************************
# Control the pt's of the jets sorted by pt                          *
#*********************************************************************
 0   = ptj1min ! minimum pt for the leading jet in pt
 0   = ptj2min ! minimum pt for the second jet in pt
 0   = ptj3min ! minimum pt for the third jet in pt
 0   = ptj4min ! minimum pt for the fourth jet in pt
 -1  = ptj1max ! maximum pt for the leading jet in pt 
 -1  = ptj2max ! maximum pt for the second jet in pt
 -1  = ptj3max ! maximum pt for the third jet in pt
 -1  = ptj4max ! maximum pt for the fourth jet in pt
 0   = cutuse  ! reject event if fails any (0) / all (1) jet pt cuts
#*********************************************************************
# Control the pt's of leptons sorted by pt                           *
#*********************************************************************
 0   = ptl1min ! minimum pt for the leading lepton in pt
 0   = ptl2min ! minimum pt for the second lepton in pt
 0   = ptl3min ! minimum pt for the third lepton in pt
 0   = ptl4min ! minimum pt for the fourth lepton in pt
 -1  = ptl1max ! maximum pt for the leading lepton in pt 
 -1  = ptl2max ! maximum pt for the second lepton in pt
 -1  = ptl3max ! maximum pt for the third lepton in pt
 -1  = ptl4max ! maximum pt for the fourth lepton in pt
#*********************************************************************
# Control the Ht(k)=Sum of k leading jets                            *
#*********************************************************************
 0   = htjmin ! minimum jet HT=Sum(jet pt)
 -1  = htjmax ! maximum jet HT=Sum(jet pt)
 0   = ihtmin  !inclusive Ht for all partons (including b)
 -1  = ihtmax  !inclusive Ht for all partons (including b)
 0   = ht2min ! minimum Ht for the two leading jets
 0   = ht3min ! minimum Ht for the three leading jets
 0   = ht4min ! minimum Ht for the four leading jets
 -1  = ht2max ! maximum Ht for the two leading jets
 -1  = ht3max ! maximum Ht for the three leading jets
 -1  = ht4max ! maximum Ht for the four leading jets
#***********************************************************************
# Photon-isolation cuts, according to hep-ph/9801442                   *
# When ptgmin=0, all the other parameters are ignored                  *
# When ptgmin>0, pta and draj are not going to be used                 *
#***********************************************************************
   0 = ptgmin ! Min photon transverse momentum
 0.4 = R0gamma ! Radius of isolation code
 1.0 = xn ! n parameter of eq.(3.4) in hep-ph/9801442
 1.0 = epsgamma ! epsilon_gamma parameter of eq.(3.4) in hep-ph/9801442
 .true. = isoEM ! isolate photons from EM energy (photons and leptons)
#*********************************************************************
# WBF cuts                                                           *
#*********************************************************************
 0   = xetamin ! minimum rapidity for two jets in the WBF case  
 0   = deltaeta ! minimum rapidity for two jets in the WBF case 
#*********************************************************************
# KT DURHAM CUT                                                      *
#*********************************************************************
 -1    =  ktdurham        
 0.4  =  dparameter 
#*********************************************************************
# maximal pdg code for quark to be considered as a light jet         *
# (otherwise b cuts are applied)                                     *
#*********************************************************************
 4 = maxjetflavor    ! Maximum jet pdg code
#*********************************************************************
# Jet measure cuts                                                   *
#*********************************************************************
 0   = xqcut   ! minimum kt jet measure between partons
#*********************************************************************
#
#*********************************************************************
# Store info for systematics studies                                 *
# WARNING: If use_syst is T, matched Pythia output is                *
#          meaningful ONLY if plotted taking matchscale              *
#          reweighting into account!                                 *
#*********************************************************************
   F  = use_syst      ! Enable systematics studies
#
#**************************************
# Parameter of the systematics study
#  will be used by SysCalc (if installed)
#**************************************                                  
#
0.5 1 2 = sys_scalefact  # factorization/renormalization scale factor
0.5 1 2 = sys_alpsfact  # \alpha_s emission scale factors
30 50 = sys_matchscale # variation of merging scale
# PDF sets and number of members (0 or none for all members).
CT10nlo.LHgrid = sys_pdf # matching scales
# MSTW2008nlo68cl.LHgrid 1  = sys_pdf
</MGRunCard>
<slha>
######################################################################
## PARAM_CARD AUTOMATICALY GENERATED BY MG5 FOLLOWING UFO MODEL   ####
######################################################################
##                                                                  ##
##  Width set on Auto will be computed following the information    ##
##        present in the decay.py files of the model.               ##
##        See  arXiv:1402.1178 for more details.                    ##
##                                                                  ##
######################################################################

###################################
## INFORMATION FOR CKMBLOCK
###################################
Block ckmblock 
    1 2.277360e-01 # cabi 

###################################
## INFORMATION FOR FRBLOCK
###################################
Block frblock 
    1 2.000000e-01 # gz 

###################################
## INFORMATION FOR MASS
###################################
Block mass 
    1 5.040000e-03 # MD 
    2 2.550000e-03 # MU 
    3 1.010000e-01 # MS 
    4 1.270000e+00 # MC 
    5 4.700000e+00 # MB 
    6 1.720000e+02 # MT 
   11 5.110000e-04 # Me 
   13 1.056600e-01 # MM 
   15 1.777000e+00 # MTA 
   23 9.118760e+01 # MZ 
   25 1.200000e+02 # MH 
  10030 3.700000e+03 # MZph 
  10031 3.000000e+02 # MZpl 
## Dependent parameters, given by model restrictions.
## Those values should be edited following the 
## analytical expression. MG5 ignores those values 
## but they are important for interfacing the output of MG5
## to external program such as Pythia.
  12 0.000000 # ve : 0.0 
  14 0.000000 # vm : 0.0 
  16 0.000000 # vt : 0.0 
  21 0.000000 # g : 0.0 
  22 0.000000 # a : 0.0 
  24 79.824360 # w+ : cmath.sqrt(MZ__exp__2/2. + cmath.sqrt(MZ__exp__4/4. - (aEW*cmath.pi*MZ__exp__2)/(Gf*sqrt__2))) 

###################################
## INFORMATION FOR SMINPUTS
###################################
Block sminputs 
    1 1.279000e+02 # aEWM1 
    2 1.166370e-05 # Gf 
    3 1.184000e-01 # aS 

###################################
## INFORMATION FOR YUKAWA
###################################
Block yukawa 
    1 5.040000e-03 # ymdo 
    2 2.550000e-03 # ymup 
    3 1.010000e-01 # yms 
    4 1.270000e+00 # ymc 
    5 4.700000e+00 # ymb 
    6 1.720000e+02 # ymt 
   11 5.110000e-04 # yme 
   13 1.056600e-01 # ymm 
   15 1.777000e+00 # ymtau 

###################################
## INFORMATION FOR DECAY
###################################
DECAY   6 1.508336e+00 # WT 
DECAY  23 2.495200e+00 # WZ 
DECAY  24 2.085000e+00 # WW 
DECAY  25 5.753088e-03 # WH 
## Dependent parameters, given by model restrictions.
## Those values should be edited following the 
## analytical expression. MG5 ignores those values 
## but they are important for interfacing the output of MG5
## to external program such as Pythia.
DECAY  1 0.000000 # d : 0.0 
DECAY  2 0.000000 # u : 0.0 
DECAY  3 0.000000 # s : 0.0 
DECAY  4 0.000000 # c : 0.0 
DECAY  5 0.000000 # b : 0.0 
DECAY  11 0.000000 # e- : 0.0 
DECAY  12 0.000000 # ve : 0.0 
DECAY  13 0.000000 # mu- : 0.0 
DECAY  14 0.000000 # vm : 0.0 
DECAY  15 0.000000 # ta- : 0.0 
DECAY  16 0.000000 # vt : 0.0 
DECAY  21 0.000000 # g : 0.0 
DECAY  22 0.000000 # a : 0.0 
DECAY  10030 0.308725 # zph : (gz__exp__2*MZph*(5 + cmath.sqrt(1 - (4*MT__exp__2)/MZph__exp__2)))/(144.*cmath.pi) 
DECAY  10031 0.132629 # zpl : (5*gz__exp__2*MZpl)/(144.*cmath.pi) 
#===========================================================
# QUANTUM NUMBERS OF NEW STATE(S) (NON SM PDG CODE)
#===========================================================

Block QNUMBERS 10030  # zph 
        1 0  # 3 times electric charge
        2 3  # number of spin states (2S+1)
        3 1  # colour rep (1: singlet, 3: triplet, 8: octet)
        4 0  # Particle/Antiparticle distinction (0=own anti)
Block QNUMBERS 10031  # zpl 
        1 0  # 3 times electric charge
        2 3  # number of spin states (2S+1)
        3 1  # colour rep (1: singlet, 3: triplet, 8: octet)
        4 0  # Particle/Antiparticle distinction (0=own anti)
</slha>
## END BANNER##
<MGGenerationInfo>
#  Number of Events        :         3904
#  Integrated weight (pb)  :  0.45713E-05
#  Max wgt                 :  0.18561E-08
#  Average wgt             :  0.11709E-08
</MGGenerationInfo>
</header>
<init>
     2212     2212  0.40000000000E+04  0.40000000000E+04 0 0  247000  247000 2   1
  0.45746166210E-05  0.11287183267E-07  0.18561070000E-08   0
</init>
<event>
 5   0  0.1725865E-08  0.3700778E+04  0.7818609E-02  0.8067789E-01
       -2   -1    0    0    0  501  0.00000000000E+00  0.00000000000E+00  0.28660797564E+04  0.28660797565E+04  0.25500000920E-02 0.  1.
        2   -1    0    0  501    0  0.00000000000E+00  0.00000000000E+00 -0.11946420571E+04  0.11946420571E+04  0.25500000920E-02 0. -1.
    10030    2    1    2    0    0  0.00000000000E+00  0.00000000000E+00  0.16714376994E+04  0.40607218135E+04  0.37007779809E+04 0.  0.
        1    1    3    3  502    0  0.15735980652E+04 -0.60855640769E+03  0.19532937037E+01  0.16871738463E+04  0.50400001928E-02 0. -1.
       -1    1    3    3    0  502 -0.15735980652E+04  0.60855640769E+03  0.16694844057E+04  0.23735479673E+04  0.50400001928E-02 0.  1.
</event>
<event>
 5   0  0.1725865E-08  0.3700105E+04  0.7818609E-02  0.8067939E-01
       -2   -1    0    0    0  501  0.00000000000E+00  0.00000000000E+00  0.25664729136E+04  0.25664729136E+04  0.25500000920E-02 0. -1.
        2   -1    0    0  501    0  0.00000000000E+00  0.00000000000E+00 -0.13336177661E+04  0.13336177661E+04  0.25500000920E-02 0.  1.
    10030    2    1    2    0    0  0.00000000000E+00  0.00000000000E+00  0.12328551475E+04  0.39000906797E+04  0.37001047951E+04 0.  0.
        1    1    3    3  502    0  0.74890738478E+03 -0.11654127741E+04 -0.67608057479E+03  0.15414714232E+04  0.50400001928E-02 0.  1.
       -1    1    3    3    0  502 -0.74890738478E+03  0.11654127741E+04  0.19089357223E+04  0.23586192564E+04  0.50400001928E-02 0. -1.
</event>
<event>
 5   0  0.1757996E-08  0.3702012E+04  0.7818609E-02  0.8067516E-01
       -2   -1    0    0    0  501  0.00000000000E+00  0.00000000000E+00  0.17117520249E+04  0.17117520249E+04  0.25500000920E-02 0. -1.
        2   -1    0    0  501    0  0.00000000000E+00  0.00000000000E+00 -0.20015883018E+04  0.20015883018E+04  0.25500000920E-02 0.  1.
    10030    2    1    2    0    0  0.00000000000E+00  0.00000000000E+00 -0.28983627685E+03  0.37133403267E+04  0.37020117929E+04 0.  0.
        3    1    3    3  502    0 -0.76712880056E+03 -0.30412810938E+03  0.15170293533E+04  0.17269506572E+04  0.10100000352E+00 0. -1.
       -3    1    3    3    0  502  0.76712880056E+03  0.30412810938E+03 -0.18068656301E+04  0.19863896695E+04  0.10100000352E+00 0.  1.
</event>
<event>
 5   0  0.1725865E-08  0.3701285E+04  0.7818609E-02  0.8067677E-01
       -2   -1    0    0    0  501  0.00000000000E+00  0.00000000000E+00  0.24833312218E+04  0.24833312218E+04  0.25500000920E-02 0.  1.
        2   -1    0    0  501    0  0.00000000000E+00  0.00000000000E+00 -0.13791465046E+04  0.13791465046E+04  0.25500000920E-02 0. -1.
    10030    2    1    2    0    0  0.00000000000E+00  0.00000000000E+00  0.11041847172E+04  0.38624777264E+04  0.37012849522E+04 0.  0.
        1    1    3    3  502    0  0.12786678288E+04  0.61594809016E+03 -0.68727229106E+03  0.15769358479E+04  0.50400001928E-02 0. -1.
       -1    1    3    3    0  502 -0.12786678288E+04 -0.61594809016E+03  0.17914570082E+04  0.22855418785E+04  0.50400001928E-02 0.  1.
</event>
<event>
 5   0  0.1757996E-08  0.3701057E+04  0.7818609E-02  0.8067728E-01
        2   -1    0    0  501    0  0.00000000000E+00  0.00000000000E+00  0.16933654487E+04  0.16933654487E+04  0.25500000920E-02 0.  1.
       -2   -1    0    0    0  501  0.00000000000E+00  0.00000000000E+00 -0.20222784646E+04  0.20222784646E+04  0.25500000920E-02 0. -1.
    10030    2    1    2    0    0  0.00000000000E+00  0.00000000000E+00 -0.32891301590E+03  0.37156439133E+04  0.37010574055E+04 0.  0.
        3    1    3    3  502    0  0.82264361460E+02 -0.32107160960E+03 -0.19922366895E+04  0.20196191326E+04  0.10100000352E+00 0. -1.
       -3    1    3    3    0  502 -0.82264361460E+02  0.32107160960E+03  0.16633236736E+04  0.16960247807E+04  0.10100000352E+00 0.  1.
</event>
<event>
 5   0  0.5714125E-09  0.3696196E+04  0.7818609E-02  0.8068805E-01
        1   -1    0    0  501    0  0.00000000000E+00  0.00000000000E+00  0.32318133719E+04  0.32318133719E+04  0.50400001928E-02 0. -1.
       -1   -1    0    0    0  501  0.00000000000E+00  0.00000000000E+00 -0.10568268200E+04  0.10568268200E+04  0.50400001928E-02 0.  1.
    10030    2    1    2    0    0  0.00000000000E+00  0.00000000000E+00  0.21749865520E+04  0.42886401919E+04  0.36961964496E+04 0.  0.
        1    1    3    3  502    0  0.17177194781E+04 -0.67731064910E+03  0.11785377614E+04  0.21904933636E+04  0.50400001928E-02 0. -1.
       -1    1    3    3    0  502 -0.17177194781E+04  0.67731064910E+03  0.99644879058E+03  0.20981468283E+04  0.50400001928E-02 0.  1.
</event>
<event>
 5   0  0.5714125E-09  0.3698012E+04  0.7818609E-02  0.8068402E-01
       -1   -1    0    0    0  501  0.00000000000E+00  0.00000000000E+00  0.26921958830E+04  0.26921958830E+04  0.50400001928E-02 0.  1.
        1   -1    0    0  501    0  0.00000000000E+00  0.00000000000E+00 -0.12699016845E+04  0.12699016845E+04  0.50400001928E-02 0. -1.
    10030    2    1    2    0    0  0.00000000000E+00  0.00000000000E+00  0.14222941985E+04  0.39620975674E+04  0.36980124860E+04 0.  0.
        3    1    3    3  502    0 -0.97916775393E+03 -0.12521236414E+04 -0.30089335784E+03  0.16177515034E+04  0.10100000352E+00 0. -1.
       -3    1    3    3    0  502  0.97916775393E+03  0.12521236414E+04  0.17231875563E+04  0.23443460641E+04  0.10100000352E+00 0.  1.
</event>
<event>
 5   0  0.1725865E-08  0.3699334E+04  0.7818609E-02  0.8068109E-01
       -2   -1    0    0    0  501  0.00000000000E+00  0.00000000000E+00  0.17350549275E+04  0.17350549275E+04  0.25500000920E-02 0.  1.
        2   -1    0    0  501    0  0.00000000000E+00  0.00000000000E+00 -0.19718497609E+04  0.19718497609E+04  0.25500000920E-02 0. -1.
    10030    2    1    2    0    0  0.00000000000E+00  0.00000000000E+00 -0.23679483340E+03  0.37069046884E+04  0.36993338016E+04 0.  0.
        1    1    3    3  502    0 -0.46340805360E+03  0.15761339746E+04  0.73323741260E+03  0.17990504255E+04  0.50400001928E-02 0. -1.
       -1    1    3    3    0  502  0.46340805360E+03 -0.15761339746E+04 -0.97003224599E+03  0.19078542629E+04  0.50400001928E-02 0.  1.
</event>
<event>
 5   0  0.5714125E-09  0.3709230E+04  0.7818609E-02  0.8065919E-01
       -1   -1    0    0    0  501  0.00000000000E+00  0.00000000000E+00  0.17960475709E+04  0.17960475709E+04  0.50400001928E-02 0.  1.
        1   -1    0    0  501    0  0.00000000000E+00  0.00000000000E+00 -0.19150924536E+04  0.19150924537E+04  0.50400001928E-02 0. -1.
    10030    2    1    2    0    0  0.00000000000E+00  0.00000000000E+00 -0.11904488278E+03  0.37111400245E+04  0.37092301893E+04 0.  0.
        2    1    3    3  502    0  0.17228877841E+04 -0.32422366397E+03 -0.66492394527E+03  0.18749899077E+04  0.25500000920E-02 0. -1.
       -2    1    3    3    0  502 -0.17228877841E+04  0.32422366397E+03  0.54587906249E+03  0.18361501169E+04  0.25500000920E-02 0.  1.
</event>
<event>
 5   0  0.1725865E-08  0.3697591E+04  0.7818609E-02  0.8068496E-01
       -2   -1    0    0    0  501  0.00000000000E+00  0.00000000000E+00  0.15945733752E+04  0.15945733752E+04  0.25500000920E-02 0. -1.
        2   -1    0    0  501    0  0.00000000000E+00  0.00000000000E+00 -0.21435480235E+04  0.21435480235E+04  0.25500000920E-02 0.  1.
    10030    2    1    2    0    0  0.00000000000E+00  0.00000000000E+00 -0.54897464830E+03  0.37381213987E+04  0.36975908950E+04 0.  0.
        1    1    3    3  502    0 -0.31122914674E+03  0.13121486128E+03  0.15631177239E+04  0.15991929028E+04  0.50400001928E-02 0. -1.
       -1    1    3    3    0  502  0.31122914674E+03 -0.13121486128E+03 -0.21120923722E+04  0.21389284958E+04  0.50400001928E-02 0.  1.
</event>
<event>
 5   0  0.1740290E-08  0.3701095E+04  0.7818609E-02  0.8067719E-01
        2   -1    0    0  501    0  0.00000000000E+00  0.00000000000E+00  0.19148306493E+04  0.19148306493E+04  0.25500000920E-02 0.  1.
       -2   -1    0    0    0  501  0.00000000000E+00  0.00000000000E+00 -0.17884226821E+04  0.17884226821E+04  0.25500000920E-02 0. -1.
    10030    2    1    2    0    0  0.00000000000E+00  0.00000000000E+00  0.12640796725E+03  0.37032533315E+04  0.37010952788E+04 0.  0.
        5    1    3    3  502    0 -0.72123242695E+03 -0.44881783942E+03  0.17082096850E+04  0.19077777870E+04  0.46999998093E+01 0.  1.
       -5    1    3    3    0  502  0.72123242695E+03  0.44881783942E+03 -0.15818017177E+04  0.17954755445E+04  0.46999998093E+01 0. -1.
</event>
<event>
 5   0  0.1740290E-08  0.3699670E+04  0.7818609E-02  0.8068035E-01
        2   -1    0    0  501    0  0.00000000000E+00  0.00000000000E+00  0.27894015832E+04  0.27894015832E+04  0.25500000920E-02 0. -1.
       -2   -1    0    0    0  501  0.00000000000E+00  0.00000000000E+00 -0.12267469277E+04  0.12267469277E+04  0.25500000920E-02 0.  1.
    10030    2    1    2    0    0  0.00000000000E+00  0.00000000000E+00  0.15626546554E+04  0.40161485109E+04  0.36996701595E+04 0.  0.
        5    1    3    3  502    0 -0.17356710000E+04 -0.10651271694E+03  0.96515340705E+02  0.17416188102E+04  0.46999998093E+01 0.  1.
       -5    1    3    3    0  502  0.17356710000E+04  0.10651271694E+03  0.14661393147E+04  0.22745297007E+04  0.46999998093E+01 0. -1.
</event>
<event>
 5   0  0.5714125E-09  0.3698496E+04  0.7818609E-02  0.8068295E-01
        1   -1    0    0  501    0  0.00000000000E+00  0.00000000000E+00  0.18708451985E+04  0.18708451985E+04  0.50400001928E-02 0. -1.
       -1   -1    0    0    0  501  0.00000000000E+00  0.00000000000E+00 -0.18279003355E+04  0.18279003355E+04  0.50400001928E-02 0.  1.
    10030    2    1    2    0    0  0.00000000000E+00  0.00000000000E+00  0.42944862928E+02  0.36987455340E+04  0.36984962166E+04 0.  0.
        5    1    3    3  502    0 -0.11168605789E+04 -0.64545130082E+03  0.13465944094E+04  0.18647583028E+04  0.46999998093E+01 0. -1.
       -5    1    3    3    0  502  0.11168605789E+04  0.64545130082E+03 -0.13036495465E+04  0.18339872312E+04  0.46999998093E+01 0.  1.
</event>
<event>
 5   0  0.5714125E-09  0.3699596E+04  0.7818609E-02  0.8068051E-01
       -1   -1    0    0    0  501  0.00000000000E+00  0.00000000000E+00  0.17082086003E+04  0.17082086003E+04  0.50400001928E-02 0. -1.
        1   -1    0    0  501    0  0.00000000000E+00  0.00000000000E+00 -0.20031230425E+04  0.20031230425E+04  0.50400001928E-02 0.  1.
    10030    2    1    2    0    0  0.00000000000E+00  0.00000000000E+00 -0.29491444216E+03  0.37113316428E+04  0.36995956583E+04 0.  0.
        1    1    3    3  502    0  0.49109072322E+03  0.18175925834E+03  0.16323030606E+04  0.17142403006E+04  0.50400001928E-02 0. -1.
       -1    1    3    3    0  502 -0.49109072322E+03 -0.18175925834E+03 -0.19272175027E+04  0.19970913423E+04  0.50400001928E-02 0.  1.
</event>
<event>
 5   0  0.5714125E-09  0.3700369E+04  0.7818609E-02  0.8067880E-01
       -1   -1    0    0    0  501  0.00000000000E+00  0.00000000000E+00  0.31002691535E+04  0.31002691535E+04  0.50400001928E-02 0. -1.
        1   -1    0    0  501    0  0.00000000000E+00  0.00000000000E+00 -0.11041566174E+04  0.11041566174E+04  0.50400001928E-02 0.  1.
    10030    2    1    2    0    0  0.00000000000E+00  0.00000000000E+00  0.19961125361E+04  0.42044257709E+04  0.37003690095E+04 0.  0.
        3    1    3    3  502    0  0.17086714914E+04  0.12972384119E+03  0.20530814557E+03  0.17258441370E+04  0.10100000352E+00 0. -1.
       -3    1    3    3    0  502 -0.17086714914E+04 -0.12972384119E+03  0.17908043905E+04  0.24785816339E+04  0.10100000352E+00 0.  1.
</event>
<event>
 5   0  0.5714125E-09  0.3697713E+04  0.7818609E-02  0.8068469E-01
        1   -1    0    0  501    0  0.00000000000E+00  0.00000000000E+00  0.26067297333E+04  0.26067297333E+04  0.50400001928E-02 0.  1.
       -1   -1    0    0    0  501  0.00000000000E+00  0.00000000000E+00 -0.13113253810E+04  0.13113253811E+04  0.50400001928E-02 0. -1.
    10030    2    1    2    0    0  0.00000000000E+00  0.00000000000E+00  0.12954043523E+04  0.39180551144E+04  0.36977132722E+04 0.  0.
        3    1    3    3  502    0  0.70071690936E+03 -0.12035341932E+04 -0.64080824147E+03  0.15330146620E+04  0.10100000352E+00 0. -1.
       -3    1    3    3    0  502 -0.70071690936E+03  0.12035341932E+04  0.19362125938E+04  0.23850404524E+04  0.10100000352E+00 0.  1.
</event>
<event>
 5   0  0.1725865E-08  0.3699780E+04  0.7818609E-02  0.8068011E-01
       -2   -1    0    0    0  501  0.00000000000E+00  0.00000000000E+00  0.12603542784E+04  0.12603542784E+04  0.25500000920E-02 0.  1.
        2   -1    0    0  501    0  0.00000000000E+00  0.00000000000E+00 -0.27151836115E+04  0.27151836116E+04  0.25500000920E-02 0. -1.
    10030    2    1    2    0    0  0.00000000000E+00  0.00000000000E+00 -0.14548293331E+04  0.39755378900E+04  0.36997801456E+04 0.  0.
        1    1    3    3  502    0 -0.11900429539E+03 -0.17748091043E+04 -0.18163634244E+03  0.17880439424E+04  0.50400001928E-02 0.  1.
       -1    1    3    3    0  502  0.11900429539E+03  0.17748091043E+04 -0.12731929907E+04  0.21874939476E+04  0.50400001928E-02 0. -1.
</event>
<event>
 5   0  0.5714125E-09  0.3701178E+04  0.7818609E-02  0.8067701E-01
       -1   -1    0    0    0  501  0.00000000000E+00  0.00000000000E+00  0.12910999317E+04  0.12910999317E+04  0.50400001928E-02 0.  1.
        1   -1    0    0  501    0  0.00000000000E+00  0.00000000000E+00 -0.26525282379E+04  0.26525282379E+04  0.50400001928E-02 0. -1.
    10030    2    1    2    0    0  0.00000000000E+00  0.00000000000E+00 -0.13614283063E+04  0.39436281696E+04  0.37011776649E+04 0.  0.
        4    1    3    3  502    0 -0.16123926032E+04 -0.90759589025E+03 -0.71664568995E+03  0.19842184518E+04  0.12699999809E+01 0. -1.
       -4    1    3    3    0  502  0.16123926032E+04  0.90759589025E+03 -0.64478261632E+03  0.19594097178E+04  0.12699999809E+01 0.  1.
</event>
<event>
 5   0  0.5714125E-09  0.3701718E+04  0.7818609E-02  0.8067581E-01
       -1   -1    0    0    0  501  0.00000000000E+00  0.00000000000E+00  0.16582042310E+04  0.16582042310E+04  0.50400001928E-02 0. -1.
        1   -1    0    0  501    0  0.00000000000E+00  0.00000000000E+00 -0.20658965449E+04  0.20658965449E+04  0.50400001928E-02 0.  1.
    10030    2    1    2    0    0  0.00000000000E+00  0.00000000000E+00 -0.40769231396E+03  0.37241007759E+04  0.37017176508E+04 0.  0.
        1    1    3    3  502    0 -0.39355688415E+03  0.13527821606E+04 -0.14114256635E+04  0.19942489811E+04  0.50400001928E-02 0.  1.
       -1    1    3    3    0  502  0.39355688415E+03 -0.13527821606E+04  0.10037333495E+04  0.17298517948E+04  0.50400001928E-02 0. -1.
</event>
<event>
 5   0  0.1856107E-08  0.3697677E+04  0.7818609E-02  0.8068477E-01
        2   -1    0    0  501    0  0.00000000000E+00  0.00000000000E+00  0.12359771464E+04  0.12359771464E+04  0.25500000920E-02 0.  1.
       -2   -1    0    0    0  501  0.00000000000E+00  0.00000000000E+00 -0.27655877648E+04  0.27655877648E+04  0.25500000920E-02 0. -1.
    10030    2    1    2    0    0  0.00000000000E+00  0.00000000000E+00 -0.15296106184E+04  0.40015649111E+04  0.36976767157E+04 0.  0.
        2    1    3    3  502    0 -0.11998110853E+04 -0.63200027785E+03 -0.21247584180E+04  0.25206287562E+04  0.25500000920E-02 0. -1.
       -2    1    3    3    0  502  0.11998110853E+04  0.63200027785E+03  0.59514779959E+03  0.14809361550E+04  0.25500000920E-02 0.  1.
</event>
<event>
 5   0  0.5714125E-09  0.3701125E+04  0.7818609E-02  0.8067713E-01
        1   -1    0    0  501    0  0.00000000000E+00  0.00000000000E+00  0.11215151715E+04  0.11215151716E+04  0.50400001928E-02 0. -1.
       -1   -1    0    0    0  501  0.00000000000E+00  0.00000000000E+00 -0.30535309023E+04  0.30535309023E+04  0.50400001928E-02 0.  1.
    10030    2    1    2    0    0  0.00000000000E+00  0.00000000000E+00 -0.19320157308E+04  0.41750460739E+04  0.37011248202E+04 0.  0.
        3    1    3    3  502    0 -0.29732024732E+03  0.11474940454E+04  0.63702690902E+03  0.13457136422E+04  0.10100000352E+00 0. -1.
       -3    1    3    3    0  502  0.29732024732E+03 -0.11474940454E+04 -0.25690426398E+04  0.28293324317E+04  0.10100000352E+00 0.  1.
</event>
<event>
 5   0  0.1757996E-08  0.3700489E+04  0.7818609E-02  0.8067853E-01
       -2   -1    0    0    0  501  0.00000000000E+00  0.00000000000E+00  0.20721132571E+04  0.20721132571E+04  0.25500000920E-02 0. -1.
        2   -1    0    0  501    0  0.00000000000E+00  0.00000000000E+00 -0.16521322667E+04  0.16521322667E+04  0.25500000920E-02 0.  1.
    10030    2    1    2    0    0  0.00000000000E+00  0.00000000000E+00  0.41998099036E+03  0.37242455238E+04  0.37004892500E+04 0.  0.
        3    1    3    3  502    0 -0.14515585324E+03  0.11257898217E+04  0.16805114010E+04  0.20279525447E+04  0.10100000352E+00 0. -1.
       -3    1    3    3    0  502  0.14515585324E+03 -0.11257898217E+04 -0.12605304107E+04  0.16962929791E+04  0.10100000352E+00 0.  1.
</event>
<event>
 5   0  0.5714125E-09  0.3699184E+04  0.7818609E-02  0.8068143E-01
        1   -1    0    0  501    0  0.00000000000E+00  0.00000000000E+00  0.12890229637E+04  0.12890229637E+04  0.50400001928E-02 0.  1.
       -1   -1    0    0    0  501  0.00000000000E+00  0.00000000000E+00 -0.26539405584E+04  0.26539405584E+04  0.50400001928E-02 0. -1.
    10030    2    1    2    0    0  0.00000000000E+00  0.00000000000E+00 -0.13649175946E+04  0.39429635221E+04  0.36991838690E+04 0.  0.
        1    1    3    3  502    0  0.59468088823E+03  0.42723500976E+03 -0.24928642142E+04  0.25981814992E+04  0.50400001928E-02 0. -1.
       -1    1    3    3    0  502 -0.59468088823E+03 -0.42723500976E+03  0.11279466196E+04  0.13447820229E+04  0.50400001928E-02 0.  1.
</event>
<event>
 5   0  0.1856107E-08  0.3697937E+04  0.7818609E-02  0.8068419E-01
        2   -1    0    0  501    0  0.00000000000E+00  0.00000000000E+00  0.19483718389E+04  0.19483718389E+04  0.25500000920E-02 0.  1.
       -2   -1    0    0    0  501  0.00000000000E+00  0.00000000000E+00 -0.17546365512E+04  0.17546365512E+04  0.25500000920E-02 0. -1.
    10030    2    1    2    0    0  0.00000000000E+00  0.00000000000E+00  0.19373528767E+03  0.37030083901E+04  0.36979369621E+04 0.  0.
        2    1    3    3  502    0  0.73641462582E+03 -0.88209711243E+03  0.15473992122E+04  0.19273936128E+04  0.25500000920E-02 0.  1.
       -2    1    3    3    0  502 -0.73641462582E+03  0.88209711243E+03 -0.13536639245E+04  0.17756147773E+04  0.25500000920E-02 0. -1.
</event>
<event>
 5   0  0.5714125E-09  0.3697165E+04  0.7818609E-02  0.8068590E-01
        1   -1    0    0  501    0  0.00000000000E+00  0.00000000000E+00  0.27455206812E+04  0.27455206812E+04  0.50400001928E-02 0.  1.
       -1   -1    0    0    0  501  0.00000000000E+00  0.00000000000E+00 -0.12446662387E+04  0.12446662387E+04  0.50400001928E-02 0. -1.
    10030    2    1    2    0    0  0.00000000000E+00  0.00000000000E+00  0.15008544425E+04  0.39901869199E+04  0.36971648054E+04 0.  0.
        2    1    3    3  502    0 -0.34425029902E+03 -0.32584036489E+03  0.26788182372E+04  0.27204314658E+04  0.25500000920E-02 0.  1.
       -2    1    3    3    0  502  0.34425029902E+03  0.32584036489E+03 -0.11779637947E+04  0.12697554542E+04  0.25500000920E-02 0. -1.
</event>
<event>
 5   0  0.1757996E-08  0.3698044E+04  0.7818609E-02  0.8068395E-01
        2   -1    0    0  501    0  0.00000000000E+00  0.00000000000E+00  0.15703399387E+04  0.15703399387E+04  0.25500000920E-02 0. -1.
       -2   -1    0    0    0  501  0.00000000000E+00  0.00000000000E+00 -0.21771611182E+04  0.21771611182E+04  0.25500000920E-02 0.  1.
    10030    2    1    2    0    0  0.00000000000E+00  0.00000000000E+00 -0.60682117943E+03  0.37475010569E+04  0.36980443788E+04 0.  0.
        3    1    3    3  502    0  0.10253075533E+04  0.28417677590E+03 -0.18358752974E+04  0.21218977677E+04  0.10100000352E+00 0.  1.
       -3    1    3    3    0  502 -0.10253075533E+04 -0.28417677590E+03  0.12290541179E+04  0.16256032892E+04  0.10100000352E+00 0. -1.
</event>
<event>
 5   0  0.1740290E-08  0.3711935E+04  0.7818609E-02  0.8065322E-01
        2   -1    0    0  501    0  0.00000000000E+00  0.00000000000E+00  0.21288516943E+04  0.21288516943E+04  0.25500000920E-02 0. -1.
       -2   -1    0    0    0  501  0.00000000000E+00  0.00000000000E+00 -0.16180625108E+04  0.16180625108E+04  0.25500000920E-02 0.  1.
    10030    2    1    2    0    0  0.00000000000E+00  0.00000000000E+00  0.51078918349E+03  0.37469142051E+04  0.37119348688E+04 0.  0.
        5    1    3    3  502    0  0.39385549465E+03  0.97475879449E+03  0.17992899554E+04  0.20839249726E+04  0.46999998093E+01 0. -1.
       -5    1    3    3    0  502 -0.39385549465E+03 -0.97475879449E+03 -0.12885007719E+04  0.16629892324E+04  0.46999998093E+01 0.  1.
</event>
<event>
 5   0  0.5714125E-09  0.3697796E+04  0.7818609E-02  0.8068450E-01
       -1   -1    0    0    0  501  0.00000000000E+00  0.00000000000E+00  0.21005701283E+04  0.21005701283E+04  0.50400001928E-02 0.  1.
        1   -1    0    0  501    0  0.00000000000E+00  0.00000000000E+00 -0.16273790333E+04  0.16273790333E+04  0.50400001928E-02 0. -1.
    10030    2    1    2    0    0  0.00000000000E+00  0.00000000000E+00  0.47319109500E+03  0.37279491616E+04  0.36977959840E+04 0.  0.
        2    1    3    3  502    0  0.75876296699E+03 -0.16802002658E+04  0.37784373603E+03  0.18819033084E+04  0.25500000920E-02 0. -1.
       -2    1    3    3    0  502 -0.75876296699E+03  0.16802002658E+04  0.95347358975E+02  0.18460458532E+04  0.25500000920E-02 0.  1.
</event>
<event>
 5   0  0.1757996E-08  0.3701763E+04  0.7818609E-02  0.8067571E-01
       -2   -1    0    0    0  501  0.00000000000E+00  0.00000000000E+00  0.14836694389E+04  0.14836694389E+04  0.25500000920E-02 0.  1.
        2   -1    0    0  501    0  0.00000000000E+00  0.00000000000E+00 -0.23089796101E+04  0.23089796101E+04  0.25500000920E-02 0. -1.
    10030    2    1    2    0    0  0.00000000000E+00  0.00000000000E+00 -0.82531017121E+03  0.37926490490E+04  0.37017630840E+04 0.  0.
        3    1    3    3  502    0  0.61596200190E+02 -0.11710710980E+04 -0.18797910709E+04  0.22155848187E+04  0.10100000352E+00 0. -1.
       -3    1    3    3    0  502 -0.61596200190E+02  0.11710710980E+04  0.10544808997E+04  0.15770642303E+04  0.10100000352E+00 0.  1.
</event>
<event>
 5   0  0.1725865E-08  0.3699613E+04  0.7818609E-02  0.8068048E-01
       -2   -1    0    0    0  501  0.00000000000E+00  0.00000000000E+00  0.13652262355E+04  0.13652262355E+04  0.25500000920E-02 0.  1.
        2   -1    0    0  501    0  0.00000000000E+00  0.00000000000E+00 -0.25063861904E+04  0.25063861904E+04  0.25500000920E-02 0. -1.
    10030    2    1    2    0    0  0.00000000000E+00  0.00000000000E+00 -0.11411599549E+04  0.38716124259E+04  0.36996130519E+04 0.  0.
        1    1    3    3  502    0  0.24285731716E+03  0.69814756946E+03 -0.23451138324E+04  0.24588510715E+04  0.50400001928E-02 0. -1.
       -1    1    3    3    0  502 -0.24285731716E+03 -0.69814756946E+03  0.12039538774E+04  0.14127613543E+04  0.50400001928E-02 0.  1.
</event>
<event>
 5   0  0.5714125E-09  0.3699416E+04  0.7818609E-02  0.8068091E-01
       -1   -1    0    0    0  501  0.00000000000E+00  0.00000000000E+00  0.25039645558E+04  0.25039645558E+04  0.50400001928E-02 0.  1.
        1   -1    0    0  501    0  0.00000000000E+00  0.00000000000E+00 -0.13664010799E+04  0.13664010799E+04  0.50400001928E-02 0. -1.
    10030    2    1    2    0    0  0.00000000000E+00  0.00000000000E+00  0.11375634759E+04  0.38703656357E+04  0.36994161016E+04 0.  0.
        5    1    3    3  502    0  0.10267493103E+04 -0.12052982706E+04 -0.43167048281E+03  0.16411336213E+04  0.46999998093E+01 0.  1.
       -5    1    3    3    0  502 -0.10267493103E+04  0.12052982706E+04  0.15692339587E+04  0.22292320145E+04  0.46999998093E+01 0. -1.
</event>
<event>
 5   0  0.1757996E-08  0.3702165E+04  0.7818609E-02  0.8067482E-01
       -2   -1    0    0    0  501  0.00000000000E+00  0.00000000000E+00  0.17522506122E+04  0.17522506122E+04  0.25500000920E-02 0. -1.
        2   -1    0    0  501    0  0.00000000000E+00  0.00000000000E+00 -0.19554885609E+04  0.19554885609E+04  0.25500000920E-02 0.  1.
    10030    2    1    2    0    0  0.00000000000E+00  0.00000000000E+00 -0.20323794865E+03  0.37077391731E+04  0.37021647872E+04 0.  0.
        3    1    3    3  502    0  0.89061327952E+03  0.70488647400E+03 -0.15654795043E+04  0.19341104010E+04  0.10100000352E+00 0.  1.
       -3    1    3    3    0  502 -0.89061327952E+03 -0.70488647400E+03  0.13622415556E+04  0.17736287720E+04  0.10100000352E+00 0. -1.
</event>
<event>
 5   0  0.5714125E-09  0.3701057E+04  0.7818609E-02  0.8067728E-01
       -1   -1    0    0    0  501  0.00000000000E+00  0.00000000000E+00  0.16740532965E+04  0.16740532965E+04  0.50400001928E-02 0. -1.
        1   -1    0    0  501    0  0.00000000000E+00  0.00000000000E+00 -0.20456070238E+04  0.20456070238E+04  0.50400001928E-02 0.  1.
    10030    2    1    2    0    0  0.00000000000E+00  0.00000000000E+00 -0.37155372731E+03  0.37196603203E+04  0.37010567040E+04 0.  0.
        4    1    3    3  502    0  0.49921336001E+03 -0.17676864840E+04 -0.41168234488E+03  0.18823956679E+04  0.12699999809E+01 0.  1.
       -4    1    3    3    0  502 -0.49921336001E+03  0.17676864840E+04  0.40128617576E+02  0.18372646525E+04  0.12699999809E+01 0. -1.
</event>
<event>
 5   0  0.5714125E-09  0.3699584E+04  0.7818609E-02  0.8068054E-01
       -1   -1    0    0    0  501  0.00000000000E+00  0.00000000000E+00  0.17597825882E+04  0.17597825883E+04  0.50400001928E-02 0. -1.
        1   -1    0    0  501    0  0.00000000000E+00  0.00000000000E+00 -0.19444053072E+04  0.19444053072E+04  0.50400001928E-02 0.  1.
    10030    2    1    2    0    0  0.00000000000E+00  0.00000000000E+00 -0.18462271893E+03  0.37041878954E+04  0.36995840869E+04 0.  0.
        1    1    3    3  502    0 -0.36214430626E+03 -0.16653081322E+03  0.17162724257E+04  0.17619512052E+04  0.50400001928E-02 0. -1.
       -1    1    3    3    0  502  0.36214430626E+03  0.16653081322E+03 -0.19008951446E+04  0.19422366903E+04  0.50400001928E-02 0.  1.
</event>
<event>
 5   0  0.5714125E-09  0.3699007E+04  0.7818609E-02  0.8068182E-01
       -1   -1    0    0    0  501  0.00000000000E+00  0.00000000000E+00  0.19940112506E+04  0.19940112506E+04  0.50400001928E-02 0.  1.
        1   -1    0    0  501    0  0.00000000000E+00  0.00000000000E+00 -0.17154680346E+04  0.17154680346E+04  0.50400001928E-02 0. -1.
    10030    2    1    2    0    0  0.00000000000E+00  0.00000000000E+00  0.27854321597E+03  0.37094792852E+04  0.36990066564E+04 0.  0.
        3    1    3    3  502    0  0.12462412287E+04  0.81617076029E+03 -0.95992043131E+03  0.17722017816E+04  0.10100000352E+00 0. -1.
       -3    1    3    3    0  502 -0.12462412287E+04 -0.81617076029E+03  0.12384636473E+04  0.19372775036E+04  0.10100000352E+00 0.  1.
</event>
<event>
 5   0  0.1825308E-08  0.3701517E+04  0.7818609E-02  0.8067626E-01
       -2   -1    0    0    0  501  0.00000000000E+00  0.00000000000E+00  0.18638380634E+04  0.18638380634E+04  0.25500000920E-02 0. -1.
        2   -1    0    0  501    0  0.00000000000E+00  0.00000000000E+00 -0.18377711146E+04  0.18377711146E+04  0.25500000920E-02 0.  1.
    10030    2    1    2    0    0  0.00000000000E+00  0.00000000000E+00  0.26066948873E+02  0.37016091780E+04  0.37015173944E+04 0.  0.
        4    1    3    3  502    0 -0.42714045617E+03  0.18007142806E+04  0.29923322044E+02  0.18509235283E+04  0.12699999809E+01 0. -1.
       -4    1    3    3    0  502  0.42714045617E+03 -0.18007142806E+04 -0.38563731712E+01  0.18506856497E+04  0.12699999809E+01 0.  1.
</event>
<event>
 5   0  0.1825308E-08  0.3702182E+04  0.7818609E-02  0.8067478E-01
       -2   -1    0    0    0  501  0.00000000000E+00  0.00000000000E+00  0.16945532291E+04  0.16945532291E+04  0.25500000920E-02 0.  1.
        2   -1    0    0  501    0  0.00000000000E+00  0.00000000000E+00 -0.20220897936E+04  0.20220897936E+04  0.25500000920E-02 0. -1.
    10030    2    1    2    0    0  0.00000000000E+00  0.00000000000E+00 -0.32753656445E+03  0.37166430227E+04  0.37021824857E+04 0.  0.
        4    1    3    3  502    0  0.16544590748E+04 -0.43640047049E+03  0.54528856062E+03  0.17958344657E+04  0.12699999809E+01 0.  1.
       -4    1    3    3    0  502 -0.16544590748E+04  0.43640047049E+03 -0.87282512507E+03  0.19208085570E+04  0.12699999809E+01 0. -1.
</event>
<event>
 5   0  0.5714125E-09  0.3699218E+04  0.7818609E-02  0.8068135E-01
        1   -1    0    0  501    0  0.00000000000E+00  0.00000000000E+00  0.25502825038E+04  0.25502825038E+04  0.50400001928E-02 0.  1.
       -1   -1    0    0    0  501  0.00000000000E+00  0.00000000000E+00 -0.13414411724E+04  0.13414411724E+04  0.50400001928E-02 0. -1.
    10030    2    1    2    0    0  0.00000000000E+00  0.00000000000E+00  0.12088413313E+04  0.38917236762E+04  0.36992182698E+04 0.  0.
        2    1    3    3  502    0 -0.15623018769E+04  0.91713924170E+03  0.99682209742E+03  0.20677489783E+04  0.25500000920E-02 0.  1.
       -2    1    3    3    0  502  0.15623018769E+04 -0.91713924170E+03  0.21201923392E+03  0.18239746979E+04  0.25500000920E-02 0. -1.
</event>
<event>
 5   0  0.5714125E-09  0.3700378E+04  0.7818609E-02  0.8067878E-01
        1   -1    0    0  501    0  0.00000000000E+00  0.00000000000E+00  0.24461160337E+04  0.24461160337E+04  0.50400001928E-02 0.  1.
       -1   -1    0    0    0  501  0.00000000000E+00  0.00000000000E+00 -0.13994428814E+04  0.13994428814E+04  0.50400001928E-02 0. -1.
    10030    2    1    2    0    0  0.00000000000E+00  0.00000000000E+00  0.10466731523E+04  0.38455589151E+04  0.37003781810E+04 0.  0.
        5    1    3    3  502    0 -0.22821198047E+03  0.18338400641E+04  0.61702622820E+03  0.19482796373E+04  0.46999998093E+01 0. -1.
       -5    1    3    3    0  502  0.22821198047E+03 -0.18338400641E+04  0.42964692410E+03  0.18972792779E+04  0.46999998093E+01 0.  1.
</event>
<event>
 5   0  0.5714125E-09  0.3699725E+04  0.7818609E-02  0.8068023E-01
        1   -1    0    0  501    0  0.00000000000E+00  0.00000000000E+00  0.24542119899E+04  0.24542119899E+04  0.50400001928E-02 0. -1.
       -1   -1    0    0    0  501  0.00000000000E+00  0.00000000000E+00 -0.13943337381E+04  0.13943337381E+04  0.50400001928E-02 0.  1.
    10030    2    1    2    0    0  0.00000000000E+00  0.00000000000E+00  0.10598782518E+04  0.38485457281E+04  0.36997246266E+04 0.  0.
        5    1    3    3  502    0 -0.38420789878E+03  0.98885761105E+03 -0.10464438754E+04  0.14901415902E+04  0.46999998093E+01 0.  1.
       -5    1    3    3    0  502  0.38420789878E+03 -0.98885761105E+03  0.21063221272E+04  0.23584041379E+04  0.46999998093E+01 0. -1.
</event>
<event>
 5   0  0.1856107E-08  0.3700587E+04  0.7818609E-02  0.8067832E-01
        2   -1    0    0  501    0  0.00000000000E+00  0.00000000000E+00  0.11089833514E+04  0.11089833514E+04  0.25500000920E-02 0. -1.
       -2   -1    0    0    0  501  0.00000000000E+00  0.00000000000E+00 -0.30871388235E+04  0.30871388235E+04  0.25500000920E-02 0.  1.
    10030    2    1    2    0    0  0.00000000000E+00  0.00000000000E+00 -0.19781554721E+04  0.41961221749E+04  0.37005867419E+04 0.  0.
        2    1    3    3  502    0  0.12039539063E+04 -0.85319873582E+03 -0.22548618531E+04  0.26947829352E+04  0.25500000920E-02 0.  1.
       -2    1    3    3    0  502 -0.12039539063E+04  0.85319873582E+03  0.27670638096E+03  0.15013392397E+04  0.25500000920E-02 0. -1.
</event>
<event>
 5   0  0.1757996E-08  0.3698674E+04  0.7818609E-02  0.8068256E-01
        2   -1    0    0  501    0  0.00000000000E+00  0.00000000000E+00  0.23741526382E+04  0.23741526382E+04  0.25500000920E-02 0. -1.
       -2   -1    0    0    0  501  0.00000000000E+00  0.00000000000E+00 -0.14405337671E+04  0.14405337671E+04  0.25500000920E-02 0.  1.
    10030    2    1    2    0    0  0.00000000000E+00  0.00000000000E+00  0.93361887118E+03  0.38146864053E+04  0.36986738399E+04 0.  0.
        3    1    3    3  502    0 -0.94442346157E+03  0.39031439582E+03  0.20565074809E+04  0.22964111199E+04  0.10100000352E+00 0. -1.
       -3    1    3    3    0  502  0.94442346157E+03 -0.39031439582E+03 -0.11228886097E+04  0.15182752854E+04  0.10100000352E+00 0.  1.
</event>
<event>
 5   0  0.1725865E-08  0.3702671E+04  0.7818609E-02  0.8067370E-01
        2   -1    0    0  501    0  0.00000000000E+00  0.00000000000E+00  0.16173868198E+04  0.16173868198E+04  0.25500000920E-02 0. -1.
       -2   -1    0    0    0  501  0.00000000000E+00  0.00000000000E+00 -0.21191233761E+04  0.21191233761E+04  0.25500000920E-02 0.  1.
    10030    2    1    2    0    0  0.00000000000E+00  0.00000000000E+00 -0.50173655632E+03  0.37365101959E+04  0.37026705055E+04 0.  0.
        1    1    3    3  502    0  0.62210758969E+03 -0.34761093410E+03  0.14734288838E+04  0.16367174131E+04  0.50400001928E-02 0. -1.
       -1    1    3    3    0  502 -0.62210758969E+03  0.34761093410E+03 -0.19751654401E+04  0.20997927828E+04  0.50400001928E-02 0.  1.
</event>
<event>
 5   0  0.1856107E-08  0.3700800E+04  0.7818609E-02  0.8067785E-01
       -2   -1    0    0    0  501  0.00000000000E+00  0.00000000000E+00  0.11817019637E+04  0.11817019637E+04  0.25500000920E-02 0.  1.
        2   -1    0    0  501    0  0.00000000000E+00  0.00000000000E+00 -0.28974983787E+04  0.28974983787E+04  0.25500000920E-02 0. -1.
    10030    2    1    2    0    0  0.00000000000E+00  0.00000000000E+00 -0.17157964150E+04  0.40792003424E+04  0.37007996563E+04 0.  0.
        2    1    3    3  502    0 -0.74368385613E+03 -0.94790636906E+02 -0.27225977155E+04  0.28239315260E+04  0.25500000920E-02 0. -1.
       -2    1    3    3    0  502  0.74368385613E+03  0.94790636906E+02  0.10068013005E+04  0.12552688164E+04  0.25500000920E-02 0.  1.
</event>
<event>
 5   0  0.1757996E-08  0.3695142E+04  0.7818609E-02  0.8069039E-01
        2   -1    0    0  501    0  0.00000000000E+00  0.00000000000E+00  0.23508469681E+04  0.23508469681E+04  0.25500000920E-02 0. -1.
       -2   -1    0    0    0  501  0.00000000000E+00  0.00000000000E+00 -0.14520375326E+04  0.14520375326E+04  0.25500000920E-02 0.  1.
    10030    2    1    2    0    0  0.00000000000E+00  0.00000000000E+00  0.89880943557E+03  0.38028845007E+04  0.36951416920E+04 0.  0.
        3    1    3    3  502    0 -0.94909329279E+03 -0.56984765234E+03 -0.10729191175E+04  0.15416419390E+04  0.10100000352E+00 0.  1.
       -3    1    3    3    0  502  0.94909329279E+03  0.56984765234E+03  0.19717285531E+04  0.22612425616E+04  0.10100000352E+00 0. -1.
</event>
<event>
 5   0  0.5714125E-09  0.3700855E+04  0.7818609E-02  0.8067772E-01
        1   -1    0    0  501    0  0.00000000000E+00  0.00000000000E+00  0.10270688679E+04  0.10270688679E+04  0.50400001928E-02 0.  1.
       -1   -1    0    0    0  501  0.00000000000E+00  0.00000000000E+00 -0.33338383443E+04  0.33338383443E+04  0.50400001928E-02 0. -1.
    10030    2    1    2    0    0  0.00000000000E+00  0.00000000000E+00 -0.23067694764E+04  0.43609072123E+04  0.37008548062E+04 0.  0.
        3    1    3    3  502    0 -0.52814946274E+03  0.67139145842E+03 -0.30875949675E+04  0.32035840927E+04  0.10100000352E+00 0. -1.
       -3    1    3    3    0  502  0.52814946274E+03 -0.67139145842E+03  0.78082549107E+03  0.11573231196E+04  0.10100000352E+00 0.  1.
</event>
<event>
 5   0  0.1740290E-08  0.3696614E+04  0.7818609E-02  0.8068713E-01
        2   -1    0    0  501    0  0.00000000000E+00  0.00000000000E+00  0.14381479382E+04  0.14381479382E+04  0.25500000920E-02 0. -1.
       -2   -1    0    0    0  501  0.00000000000E+00  0.00000000000E+00 -0.23754435182E+04  0.23754435182E+04  0.25500000920E-02 0.  1.
    10030    2    1    2    0    0  0.00000000000E+00  0.00000000000E+00 -0.93729558005E+03  0.38135914564E+04  0.36966142336E+04 0.  0.
        5    1    3    3  502    0  0.34888259282E+03 -0.11175369601E+04 -0.19441551065E+04  0.22694424621E+04  0.46999998093E+01 0.  1.
       -5    1    3    3    0  502 -0.34888259282E+03  0.11175369601E+04  0.10068595264E+04  0.15441489943E+04  0.46999998093E+01 0. -1.
</event>
<event>
 5   0  0.5714125E-09  0.3701543E+04  0.7818609E-02  0.8067620E-01
        1   -1    0    0  501    0  0.00000000000E+00  0.00000000000E+00  0.25537553136E+04  0.25537553137E+04  0.50400001928E-02 0.  1.
       -1   -1    0    0    0  501  0.00000000000E+00  0.00000000000E+00 -0.13413015879E+04  0.13413015879E+04  0.50400001928E-02 0. -1.
    10030    2    1    2    0    0  0.00000000000E+00  0.00000000000E+00  0.12124537257E+04  0.38950569016E+04  0.37015434928E+04 0.  0.
        5    1    3    3  502    0 -0.68955356407E+03  0.46004025870E+03 -0.11350368466E+04  0.14055076985E+04  0.46999998093E+01 0. -1.
       -5    1    3    3    0  502  0.68955356407E+03 -0.46004025870E+03  0.23474905723E+04  0.24895492031E+04  0.46999998093E+01 0.  1.
</event>
<event>
 5   0  0.5714125E-09  0.3700249E+04  0.7818609E-02  0.8067907E-01
       -1   -1    0    0    0  501  0.00000000000E+00  0.00000000000E+00  0.14641045091E+04  0.14641045091E+04  0.50400001928E-02 0.  1.
        1   -1    0    0  501    0  0.00000000000E+00  0.00000000000E+00 -0.23379204720E+04  0.23379204720E+04  0.50400001928E-02 0. -1.
    10030    2    1    2    0    0  0.00000000000E+00  0.00000000000E+00 -0.87381596286E+03  0.38020249811E+04  0.37002485889E+04 0.  0.
        3    1    3    3  502    0 -0.17311535246E+04 -0.30737015178E+03 -0.10285859585E+04  0.20369973049E+04  0.10100000352E+00 0. -1.
       -3    1    3    3    0  502  0.17311535246E+04  0.30737015178E+03  0.15476999561E+03  0.17650276762E+04  0.10100000352E+00 0.  1.
</event>
<event>
 5   0  0.1757996E-08  0.3701235E+04  0.7818609E-02  0.8067688E-01
        2   -1    0    0  501    0  0.00000000000E+00  0.00000000000E+00  0.14276035486E+04  0.14276035486E+04  0.25500000920E-02 0.  1.
       -2   -1    0    0    0  501  0.00000000000E+00  0.00000000000E+00 -0.23989744805E+04  0.23989744805E+04  0.25500000920E-02 0. -1.
    10030    2    1    2    0    0  0.00000000000E+00  0.00000000000E+00 -0.97137093188E+03  0.38265780292E+04  0.37012346489E+04 0.  0.
        3    1    3    3  502    0  0.23245909422E+03 -0.90441354283E+03  0.11661657855E+04  0.14939691217E+04  0.10100000352E+00 0.  1.
       -3    1    3    3    0  502 -0.23245909422E+03  0.90441354283E+03 -0.21375367174E+04  0.23326089075E+04  0.10100000352E+00 0. -1.
</event>
<event>
 5   0  0.5714125E-09  0.3699556E+04  0.7818609E-02  0.8068060E-01
       -1   -1    0    0    0  501  0.00000000000E+00  0.00000000000E+00  0.20742169678E+04  0.20742169678E+04  0.50400001928E-02 0. -1.
        1   -1    0    0  501    0  0.00000000000E+00  0.00000000000E+00 -0.16496240789E+04  0.16496240789E+04  0.50400001928E-02 0.  1.
    10030    2    1    2    0    0  0.00000000000E+00  0.00000000000E+00  0.42459288894E+03  0.37238410467E+04  0.36995557868E+04 0.  0.
        1    1    3    3  502    0  0.10019274739E+04 -0.65424186029E+03 -0.12075614104E+04  0.17000281276E+04  0.50400001928E-02 0.  1.
       -1    1    3    3    0  502 -0.10019274739E+04  0.65424186029E+03  0.16321542994E+04  0.20238129191E+04  0.50400001928E-02 0. -1.
</event>
<event>
 5   0  0.5714125E-09  0.3704184E+04  0.7818609E-02  0.8067035E-01
        1   -1    0    0  501    0  0.00000000000E+00  0.00000000000E+00  0.21448180832E+04  0.21448180832E+04  0.50400001928E-02 0.  1.
       -1   -1    0    0    0  501  0.00000000000E+00  0.00000000000E+00 -0.15993177250E+04  0.15993177250E+04  0.50400001928E-02 0. -1.
    10030    2    1    2    0    0  0.00000000000E+00  0.00000000000E+00  0.54550035825E+03  0.37441358083E+04  0.37041844325E+04 0.  0.
        3    1    3    3  502    0  0.18163090327E+04 -0.96396769750E+02 -0.80265438992E+02  0.18206354359E+04  0.10100000352E+00 0. -1.
       -3    1    3    3    0  502 -0.18163090327E+04  0.96396769750E+02  0.62576579724E+03  0.19235003724E+04  0.10100000352E+00 0.  1.
</event>
<event>
 5   0  0.5714125E-09  0.3701155E+04  0.7818609E-02  0.8067706E-01
       -1   -1    0    0    0  501  0.00000000000E+00  0.00000000000E+00  0.28701495910E+04  0.28701495910E+04  0.50400001928E-02 0.  1.
        1   -1    0    0  501    0  0.00000000000E+00  0.00000000000E+00 -0.11931910597E+04  0.11931910597E+04  0.50400001928E-02 0. -1.
    10030    2    1    2    0    0  0.00000000000E+00  0.00000000000E+00  0.16769585314E+04  0.40633406507E+04  0.37011548640E+04 0.  0.
        2    1    3    3  502    0 -0.46796904915E+02 -0.18150831812E+04  0.12311378322E+04  0.21937222402E+04  0.25500000920E-02 0. -1.
       -2    1    3    3    0  502  0.46796904915E+02  0.18150831812E+04  0.44582069914E+03  0.18696184105E+04  0.25500000920E-02 0.  1.
</event>
<event>
 5   0  0.5714125E-09  0.3699377E+04  0.7818609E-02  0.8068100E-01
        1   -1    0    0  501    0  0.00000000000E+00  0.00000000000E+00  0.16019698963E+04  0.16019698963E+04  0.50400001928E-02 0. -1.
       -1   -1    0    0    0  501  0.00000000000E+00  0.00000000000E+00 -0.21357127739E+04  0.21357127739E+04  0.50400001928E-02 0.  1.
    10030    2    1    2    0    0  0.00000000000E+00  0.00000000000E+00 -0.53374287756E+03  0.37376826702E+04  0.36993770129E+04 0.  0.
        5    1    3    3  502    0 -0.14699110135E+04 -0.85103159617E+03 -0.10068707228E+04  0.19745135877E+04  0.46999998093E+01 0.  1.
       -5    1    3    3    0  502  0.14699110135E+04  0.85103159617E+03  0.47312784529E+03  0.17631690825E+04  0.46999998093E+01 0. -1.
</event>
<event>
 5   0  0.1825308E-08  0.3700258E+04  0.7818609E-02  0.8067905E-01
        2   -1    0    0  501    0  0.00000000000E+00  0.00000000000E+00  0.13690906937E+04  0.13690906937E+04  0.25500000920E-02 0.  1.
       -2   -1    0    0    0  501  0.00000000000E+00  0.00000000000E+00 -0.25001834006E+04  0.25001834006E+04  0.25500000920E-02 0. -1.
    10030    2    1    2    0    0  0.00000000000E+00  0.00000000000E+00 -0.11310927069E+04  0.38692740942E+04  0.37002582754E+04 0.  0.
        4    1    3    3  502    0  0.15599415055E+04  0.90689555558E+03 -0.13809706780E+03  0.18096821440E+04  0.12699999809E+01 0.  1.
       -4    1    3    3    0  502 -0.15599415055E+04 -0.90689555558E+03 -0.99299563912E+03  0.20595919502E+04  0.12699999809E+01 0. -1.
</event>
<event>
 5   0  0.1725865E-08  0.3698441E+04  0.7818609E-02  0.8068307E-01
       -2   -1    0    0    0  501  0.00000000000E+00  0.00000000000E+00  0.18927467462E+04  0.18927467462E+04  0.25500000920E-02 0. -1.
        2   -1    0    0  501    0  0.00000000000E+00  0.00000000000E+00 -0.18066955235E+04  0.18066955235E+04  0.25500000920E-02 0.  1.
    10030    2    1    2    0    0  0.00000000000E+00  0.00000000000E+00  0.86051222709E+02  0.36994422697E+04  0.36984413330E+04 0.  0.
        1    1    3    3  502    0  0.37450712962E+03 -0.84434056577E+03  0.16454736871E+04  0.18869950281E+04  0.50400001928E-02 0. -1.
       -1    1    3    3    0  502 -0.37450712962E+03  0.84434056577E+03 -0.15594224644E+04  0.18124472416E+04  0.50400001928E-02 0.  1.
</event>
<event>
 5   0  0.5714125E-09  0.3695912E+04  0.7818609E-02  0.8068868E-01
        1   -1    0    0  501    0  0.00000000000E+00  0.00000000000E+00  0.19386495549E+04  0.19386495549E+04  0.50400001928E-02 0.  1.
       -1   -1    0    0    0  501  0.00000000000E+00  0.00000000000E+00 -0.17615056835E+04  0.17615056835E+04  0.50400001928E-02 0. -1.
    10030    2    1    2    0    0  0.00000000000E+00  0.00000000000E+00  0.17714387140E+03  0.37001552384E+04  0.36959124499E+04 0.  0.
        4    1    3    3  502    0 -0.66130321804E+03  0.75815715525E+03 -0.14633095857E+04  0.17757817362E+04  0.12699999809E+01 0. -1.
       -4    1    3    3    0  502  0.66130321804E+03 -0.75815715525E+03  0.16404534571E+04  0.19243735022E+04  0.12699999809E+01 0.  1.
</event>
<event>
 5   0  0.1856107E-08  0.3700382E+04  0.7818609E-02  0.8067877E-01
       -2   -1    0    0    0  501  0.00000000000E+00  0.00000000000E+00  0.14383314217E+04  0.14383314217E+04  0.25500000920E-02 0. -1.
        2   -1    0    0  501    0  0.00000000000E+00  0.00000000000E+00 -0.23799847546E+04  0.23799847546E+04  0.25500000920E-02 0.  1.
    10030    2    1    2    0    0  0.00000000000E+00  0.00000000000E+00 -0.94165333289E+03  0.38183161763E+04  0.37003820645E+04 0.  0.
        2    1    3    3  502    0 -0.10931771739E+04 -0.11237753946E+04  0.54298278279E+03  0.16591376596E+04  0.25500000920E-02 0. -1.
       -2    1    3    3    0  502  0.10931771739E+04  0.11237753946E+04 -0.14846361157E+04  0.21591785167E+04  0.25500000920E-02 0.  1.
</event>
<event>
 5   0  0.5714125E-09  0.3700202E+04  0.7818609E-02  0.8067917E-01
       -1   -1    0    0    0  501  0.00000000000E+00  0.00000000000E+00  0.26486141070E+04  0.26486141070E+04  0.50400001928E-02 0. -1.
        1   -1    0    0  501    0  0.00000000000E+00  0.00000000000E+00 -0.12923262457E+04  0.12923262457E+04  0.50400001928E-02 0.  1.
    10030    2    1    2    0    0  0.00000000000E+00  0.00000000000E+00  0.13562878614E+04  0.39409403527E+04  0.37002019000E+04 0.  0.
        5    1    3    3  502    0  0.66132942852E+03  0.88393622204E+03 -0.90308651760E+03  0.14262844057E+04  0.46999998093E+01 0.  1.
       -5    1    3    3    0  502 -0.66132942852E+03 -0.88393622204E+03  0.22593743790E+04  0.25146559470E+04  0.46999998093E+01 0. -1.
</event>
<event>
 5   0  0.1856107E-08  0.3695490E+04  0.7818609E-02  0.8068962E-01
        2   -1    0    0  501    0  0.00000000000E+00  0.00000000000E+00  0.14772970962E+04  0.14772970962E+04  0.25500000920E-02 0. -1.
       -2   -1    0    0    0  501  0.00000000000E+00  0.00000000000E+00 -0.23110864595E+04  0.23110864595E+04  0.25500000920E-02 0.  1.
    10030    2    1    2    0    0  0.00000000000E+00  0.00000000000E+00 -0.83378936332E+03  0.37883835557E+04  0.36954898543E+04 0.  0.
        2    1    3    3  502    0 -0.92873328758E+03 -0.10730260083E+03  0.12169377113E+04  0.15345998699E+04  0.25500000920E-02 0. -1.
       -2    1    3    3    0  502  0.92873328758E+03  0.10730260083E+03 -0.20507270746E+04  0.22537836858E+04  0.25500000920E-02 0.  1.
</event>
<event>
 5   0  0.5714125E-09  0.3699464E+04  0.7818609E-02  0.8068081E-01
        1   -1    0    0  501    0  0.00000000000E+00  0.00000000000E+00  0.16173712141E+04  0.16173712141E+04  0.50400001928E-02 0.  1.
       -1   -1    0    0    0  501  0.00000000000E+00  0.00000000000E+00 -0.21154746615E+04  0.21154746615E+04  0.50400001928E-02 0. -1.
    10030    2    1    2    0    0  0.00000000000E+00  0.00000000000E+00 -0.49810344741E+03  0.37328458756E+04  0.36994636486E+04 0.  0.
        4    1    3    3  502    0 -0.61317752550E+03  0.11210685116E+04 -0.15985522981E+04  0.20464975808E+04  0.12699999809E+01 0. -1.
       -4    1    3    3    0  502  0.61317752550E+03 -0.11210685116E+04  0.11004488507E+04  0.16863482948E+04  0.12699999809E+01 0.  1.
</event>
<event>
 5   0  0.5714125E-09  0.3687085E+04  0.7818609E-02  0.8070830E-01
        1   -1    0    0  501    0  0.00000000000E+00  0.00000000000E+00  0.22403365813E+04  0.22403365813E+04  0.50400001928E-02 0.  1.
       -1   -1    0    0    0  501  0.00000000000E+00  0.00000000000E+00 -0.15170264242E+04  0.15170264242E+04  0.50400001928E-02 0. -1.
    10030    2    1    2    0    0  0.00000000000E+00  0.00000000000E+00  0.72331015711E+03  0.37573630056E+04  0.36870854577E+04 0.  0.
        4    1    3    3  502    0  0.88684104339E+03 -0.15134232707E+04 -0.21635179956E+03  0.17674124438E+04  0.12699999809E+01 0. -1.
       -4    1    3    3    0  502 -0.88684104339E+03  0.15134232707E+04  0.93966195668E+03  0.19899505618E+04  0.12699999809E+01 0.  1.
</event>
<event>
 5   0  0.5714125E-09  0.3701059E+04  0.7818609E-02  0.8067727E-01
        1   -1    0    0  501    0  0.00000000000E+00  0.00000000000E+00  0.21318964409E+04  0.21318964409E+04  0.50400001928E-02 0. -1.
       -1   -1    0    0    0  501  0.00000000000E+00  0.00000000000E+00 -0.16062974546E+04  0.16062974546E+04  0.50400001928E-02 0.  1.
    10030    2    1    2    0    0  0.00000000000E+00  0.00000000000E+00  0.52559898631E+03  0.37381938955E+04  0.37010592140E+04 0.  0.
        2    1    3    3  502    0  0.40234273565E+03 -0.10559518179E+04  0.17429538868E+04  0.20772101892E+04  0.25500000920E-02 0. -1.
       -2    1    3    3    0  502 -0.40234273565E+03  0.10559518179E+04 -0.12173549005E+04  0.16609837062E+04  0.25500000920E-02 0.  1.
</event>
<event>
 5   0  0.1825308E-08  0.3699145E+04  0.7818609E-02  0.8068151E-01
       -2   -1    0    0    0  501  0.00000000000E+00  0.00000000000E+00  0.10154512439E+04  0.10154512439E+04  0.25500000920E-02 0. -1.
        2   -1    0    0  501    0  0.00000000000E+00  0.00000000000E+00 -0.33688655793E+04  0.33688655793E+04  0.25500000920E-02 0.  1.
    10030    2    1    2    0    0  0.00000000000E+00  0.00000000000E+00 -0.23534143354E+04  0.43843168232E+04  0.36991451678E+04 0.  0.
        4    1    3    3  502    0  0.92516898333E+03  0.83876102102E+03 -0.27937716675E+04  0.30601665708E+04  0.12699999809E+01 0.  1.
       -4    1    3    3    0  502 -0.92516898333E+03 -0.83876102102E+03  0.44035733208E+03  0.13241502524E+04  0.12699999809E+01 0. -1.
</event>
<event>
 5   0  0.5714125E-09  0.3699039E+04  0.7818609E-02  0.8068175E-01
        3   -1    0    0  501    0  0.00000000000E+00  0.00000000000E+00  0.23313023249E+04  0.23313023271E+04  0.10100000352E+00 0.  1.
       -3   -1    0    0    0  501  0.00000000000E+00  0.00000000000E+00 -0.14673010822E+04  0.14673010857E+04  0.10100000352E+00 0. -1.
    10030    2    1    2    0    0  0.00000000000E+00  0.00000000000E+00  0.86400124265E+03  0.37986034128E+04  0.36990390293E+04 0.  0.
        4    1    3    3  502    0  0.27324191356E+03  0.10797320385E+03 -0.14431837923E+04  0.14727866198E+04  0.12699999809E+01 0. -1.
       -4    1    3    3    0  502 -0.27324191356E+03 -0.10797320385E+03  0.23071850350E+04  0.23258167930E+04  0.12699999809E+01 0.  1.
</event>
<event>
 5   0  0.1740290E-08  0.3699722E+04  0.7818609E-02  0.8068024E-01
       -2   -1    0    0    0  501  0.00000000000E+00  0.00000000000E+00  0.19667821475E+04  0.19667821476E+04  0.25500000920E-02 0.  1.
        2   -1    0    0  501    0  0.00000000000E+00  0.00000000000E+00 -0.17398901421E+04  0.17398901421E+04  0.25500000920E-02 0. -1.
    10030    2    1    2    0    0  0.00000000000E+00  0.00000000000E+00  0.22689200547E+03  0.37066722896E+04  0.36997215410E+04 0.  0.
        5    1    3    3  502    0  0.10172183304E+04  0.14489108418E+04 -0.42411306988E+03  0.18204311976E+04  0.46999998093E+01 0. -1.
       -5    1    3    3    0  502 -0.10172183304E+04 -0.14489108418E+04  0.65100507535E+03  0.18862410920E+04  0.46999998093E+01 0.  1.
</event>
<event>
 5   0  0.1740290E-08  0.3699741E+04  0.7818609E-02  0.8068019E-01
        2   -1    0    0  501    0  0.00000000000E+00  0.00000000000E+00  0.15576775273E+04  0.15576775273E+04  0.25500000920E-02 0.  1.
       -2   -1    0    0    0  501  0.00000000000E+00  0.00000000000E+00 -0.21968736316E+04  0.21968736316E+04  0.25500000920E-02 0. -1.
    10030    2    1    2    0    0  0.00000000000E+00  0.00000000000E+00 -0.63919610433E+03  0.37545511589E+04  0.36997409024E+04 0.  0.
        5    1    3    3  502    0  0.93291461949E+03  0.13812002964E+04  0.49475805423E+03  0.17386349727E+04  0.46999998093E+01 0.  1.
       -5    1    3    3    0  502 -0.93291461949E+03 -0.13812002964E+04 -0.11339541586E+04  0.20159161862E+04  0.46999998093E+01 0. -1.
</event>
<event>
 5   0  0.1825308E-08  0.3700519E+04  0.7818609E-02  0.8067847E-01
       -2   -1    0    0    0  501  0.00000000000E+00  0.00000000000E+00  0.32519523937E+04  0.32519523937E+04  0.25500000920E-02 0.  1.
        2   -1    0    0  501    0  0.00000000000E+00  0.00000000000E+00 -0.10527402076E+04  0.10527402076E+04  0.25500000920E-02 0. -1.
    10030    2    1    2    0    0  0.00000000000E+00  0.00000000000E+00  0.21992121861E+04  0.43046926012E+04  0.37005194435E+04 0.  0.
        4    1    3    3  502    0 -0.12552761188E+04  0.67273882190E+03  0.24736229095E+04  0.28543138525E+04  0.12699999809E+01 0.  1.
       -4    1    3    3    0  502  0.12552761188E+04 -0.67273882190E+03 -0.27441072347E+03  0.14503787488E+04  0.12699999809E+01 0. -1.
</event>
<event>
 5   0  0.5714125E-09  0.3686511E+04  0.7818609E-02  0.8070958E-01
        1   -1    0    0  501    0  0.00000000000E+00  0.00000000000E+00  0.21688629700E+04  0.21688629700E+04  0.50400001928E-02 0.  1.
       -1   -1    0    0    0  501  0.00000000000E+00  0.00000000000E+00 -0.15665305622E+04  0.15665305623E+04  0.50400001928E-02 0. -1.
    10030    2    1    2    0    0  0.00000000000E+00  0.00000000000E+00  0.60233240771E+03  0.37353935322E+04  0.36865106145E+04 0.  0.
        4    1    3    3  502    0  0.12619034766E+04  0.91041383679E+03  0.13023648489E+04  0.20291401014E+04  0.12699999809E+01 0.  1.
       -4    1    3    3    0  502 -0.12619034766E+04 -0.91041383679E+03 -0.70003244122E+03  0.17062534308E+04  0.12699999809E+01 0. -1.
</event>
<event>
 5   0  0.5714125E-09  0.3705842E+04  0.7818609E-02  0.8066668E-01
        1   -1    0    0  501    0  0.00000000000E+00  0.00000000000E+00  0.99172776130E+03  0.99172776131E+03  0.50400001928E-02 0. -1.
       -1   -1    0    0    0  501  0.00000000000E+00  0.00000000000E+00 -0.34619540222E+04  0.34619540222E+04  0.50400001928E-02 0.  1.
    10030    2    1    2    0    0  0.00000000000E+00  0.00000000000E+00 -0.24702262609E+04  0.44536817835E+04  0.37058418273E+04 0.  0.
        2    1    3    3  502    0 -0.16633216207E+04 -0.76271933784E+03 -0.88486244054E+03  0.20325750025E+04  0.25500000920E-02 0.  1.
       -2    1    3    3    0  502  0.16633216207E+04  0.76271933784E+03 -0.15853638203E+04  0.24211067810E+04  0.25500000920E-02 0. -1.
</event>
<event>
 5   0  0.1856107E-08  0.3699982E+04  0.7818609E-02  0.8067966E-01
       -2   -1    0    0    0  501  0.00000000000E+00  0.00000000000E+00  0.13350705111E+04  0.13350705111E+04  0.25500000920E-02 0. -1.
        2   -1    0    0  501    0  0.00000000000E+00  0.00000000000E+00 -0.25635105186E+04  0.25635105186E+04  0.25500000920E-02 0.  1.
    10030    2    1    2    0    0  0.00000000000E+00  0.00000000000E+00 -0.12284400075E+04  0.38985810297E+04  0.36999823234E+04 0.  0.
        2    1    3    3  502    0  0.11131542438E+04  0.12284126290E+04 -0.14794906298E+04  0.22219366510E+04  0.25500000920E-02 0.  1.
       -2    1    3    3    0  502 -0.11131542438E+04 -0.12284126290E+04  0.25105062234E+03  0.16766443787E+04  0.25500000920E-02 0. -1.
</event>
<event>
 5   0  0.5714125E-09  0.3700187E+04  0.7818609E-02  0.8067920E-01
       -1   -1    0    0    0  501  0.00000000000E+00  0.00000000000E+00  0.18459706660E+04  0.18459706660E+04  0.50400001928E-02 0.  1.
        1   -1    0    0  501    0  0.00000000000E+00  0.00000000000E+00 -0.18542250939E+04  0.18542250940E+04  0.50400001928E-02 0. -1.
    10030    2    1    2    0    0  0.00000000000E+00  0.00000000000E+00 -0.82544279248E+01  0.37001957600E+04  0.37001865530E+04 0.  0.
        2    1    3    3  502    0 -0.14727510576E+04 -0.11184499649E+04 -0.58156321068E+02  0.18502184086E+04  0.25500000920E-02 0. -1.
       -2    1    3    3    0  502  0.14727510576E+04  0.11184499649E+04  0.49901893143E+02  0.18499773514E+04  0.25500000920E-02 0.  1.
</event>
<event>
 5   0  0.1757996E-08  0.3699617E+04  0.7818609E-02  0.8068047E-01
       -2   -1    0    0    0  501  0.00000000000E+00  0.00000000000E+00  0.21553173745E+04  0.21553173745E+04  0.25500000920E-02 0.  1.
        2   -1    0    0  501    0  0.00000000000E+00  0.00000000000E+00 -0.15876042433E+04  0.15876042433E+04  0.25500000920E-02 0. -1.
    10030    2    1    2    0    0  0.00000000000E+00  0.00000000000E+00  0.56771313124E+03  0.37429216178E+04  0.36996167420E+04 0.  0.
        3    1    3    3  502    0 -0.88373351734E+03 -0.16218251782E+04  0.38747197939E+03  0.18871768289E+04  0.10100000352E+00 0. -1.
       -3    1    3    3    0  502  0.88373351734E+03  0.16218251782E+04  0.18024115185E+03  0.18557447889E+04  0.10100000352E+00 0.  1.
</event>
<event>
 5   0  0.1740290E-08  0.3705897E+04  0.7818609E-02  0.8066656E-01
       -2   -1    0    0    0  501  0.00000000000E+00  0.00000000000E+00  0.24017455012E+04  0.24017455012E+04  0.25500000920E-02 0. -1.
        2   -1    0    0  501    0  0.00000000000E+00  0.00000000000E+00 -0.14295511612E+04  0.14295511612E+04  0.25500000920E-02 0.  1.
    10030    2    1    2    0    0  0.00000000000E+00  0.00000000000E+00  0.97219434001E+03  0.38312966624E+04  0.37058969603E+04 0.  0.
        5    1    3    3  502    0 -0.30178721905E+03  0.10253264031E+04  0.20509282788E+04  0.23127253735E+04  0.46999998093E+01 0. -1.
       -5    1    3    3    0  502  0.30178721905E+03 -0.10253264031E+04 -0.10787339388E+04  0.15185712888E+04  0.46999998093E+01 0.  1.
</event>
<event>
 5   0  0.5714125E-09  0.3700330E+04  0.7818609E-02  0.8067889E-01
        1   -1    0    0  501    0  0.00000000000E+00  0.00000000000E+00  0.11966269321E+04  0.11966269321E+04  0.50400001928E-02 0. -1.
       -1   -1    0    0    0  501  0.00000000000E+00  0.00000000000E+00 -0.28606326876E+04  0.28606326876E+04  0.50400001928E-02 0.  1.
    10030    2    1    2    0    0  0.00000000000E+00  0.00000000000E+00 -0.16640057555E+04  0.40572596198E+04  0.37003297782E+04 0.  0.
        5    1    3    3  502    0  0.17002795644E+04  0.71236918129E+03 -0.65979396063E+03  0.19580016874E+04  0.46999998093E+01 0.  1.
       -5    1    3    3    0  502 -0.17002795644E+04 -0.71236918129E+03 -0.10042117949E+04  0.20992579323E+04  0.46999998093E+01 0. -1.
</event>
<event>
 5   0  0.5714125E-09  0.3706572E+04  0.7818609E-02  0.8066507E-01
        1   -1    0    0  501    0  0.00000000000E+00  0.00000000000E+00  0.15147848613E+04  0.15147848613E+04  0.50400001928E-02 0.  1.
       -1   -1    0    0    0  501  0.00000000000E+00  0.00000000000E+00 -0.22674298972E+04  0.22674298972E+04  0.50400001928E-02 0. -1.
    10030    2    1    2    0    0  0.00000000000E+00  0.00000000000E+00 -0.75264503595E+03  0.37822147585E+04  0.37065717218E+04 0.  0.
        3    1    3    3  502    0 -0.17641338674E+04  0.12800867725E+03  0.18824428346E+03  0.17787609294E+04  0.10100000352E+00 0.  1.
       -3    1    3    3    0  502  0.17641338674E+04 -0.12800867725E+03 -0.94088931942E+03  0.20034538291E+04  0.10100000352E+00 0. -1.
</event>
<event>
 5   0  0.1757996E-08  0.3699657E+04  0.7818609E-02  0.8068038E-01
       -2   -1    0    0    0  501  0.00000000000E+00  0.00000000000E+00  0.20646962116E+04  0.20646962116E+04  0.25500000920E-02 0.  1.
        2   -1    0    0  501    0  0.00000000000E+00  0.00000000000E+00 -0.16573216321E+04  0.16573216321E+04  0.25500000920E-02 0. -1.
    10030    2    1    2    0    0  0.00000000000E+00  0.00000000000E+00  0.40737457957E+03  0.37220178437E+04  0.36996571166E+04 0.  0.
        3    1    3    3  502    0 -0.52074800734E+02  0.69568668524E+01  0.20639454837E+04  0.20646140445E+04  0.10100000352E+00 0.  1.
       -3    1    3    3    0  502  0.52074800734E+02 -0.69568668524E+01 -0.16565709042E+04  0.16574037992E+04  0.10100000352E+00 0. -1.
</event>
<event>
 5   0  0.1725865E-08  0.3699569E+04  0.7818609E-02  0.8068057E-01
        2   -1    0    0  501    0  0.00000000000E+00  0.00000000000E+00  0.23635199948E+04  0.23635199948E+04  0.25500000920E-02 0.  1.
       -2   -1    0    0    0  501  0.00000000000E+00  0.00000000000E+00 -0.14477146124E+04  0.14477146124E+04  0.25500000920E-02 0. -1.
    10030    2    1    2    0    0  0.00000000000E+00  0.00000000000E+00  0.91580538244E+03  0.38112346072E+04  0.36995688577E+04 0.  0.
        1    1    3    3  502    0 -0.15225240520E+04  0.53093270762E+03  0.13917589618E+04  0.21300145625E+04  0.50400001928E-02 0.  1.
       -1    1    3    3    0  502  0.15225240520E+04 -0.53093270762E+03 -0.47595357934E+03  0.16812200447E+04  0.50400001928E-02 0. -1.
</event>
<event>
 5   0  0.1725865E-08  0.3702521E+04  0.7818609E-02  0.8067403E-01
       -2   -1    0    0    0  501  0.00000000000E+00  0.00000000000E+00  0.24234201908E+04  0.24234201908E+04  0.25500000920E-02 0.  1.
        2   -1    0    0  501    0  0.00000000000E+00  0.00000000000E+00 -0.14141857192E+04  0.14141857192E+04  0.25500000920E-02 0. -1.
    10030    2    1    2    0    0  0.00000000000E+00  0.00000000000E+00  0.10092344716E+04  0.38376059100E+04  0.37025214249E+04 0.  0.
        1    1    3    3  502    0 -0.17120654558E+03 -0.27835478800E+03 -0.13840534561E+04  0.14221100656E+04  0.50400001928E-02 0. -1.
       -1    1    3    3    0  502  0.17120654558E+03  0.27835478800E+03  0.23932879277E+04  0.24154958444E+04  0.50400001928E-02 0.  1.
</event>
<event>
 5   0  0.1856107E-08  0.3699560E+04  0.7818609E-02  0.8068059E-01
       -2   -1    0    0    0  501  0.00000000000E+00  0.00000000000E+00  0.13839817783E+04  0.13839817783E+04  0.25500000920E-02 0. -1.
        2   -1    0    0  501    0  0.00000000000E+00  0.00000000000E+00 -0.24723485871E+04  0.24723485871E+04  0.25500000920E-02 0.  1.
    10030    2    1    2    0    0  0.00000000000E+00  0.00000000000E+00 -0.10883668088E+04  0.38563303654E+04  0.36995596463E+04 0.  0.
        2    1    3    3  502    0 -0.15935427561E+03  0.14250497851E+04  0.67389146056E+03  0.15843895909E+04  0.25500000920E-02 0. -1.
       -2    1    3    3    0  502  0.15935427561E+03 -0.14250497851E+04 -0.17622582694E+04  0.22719407746E+04  0.25500000920E-02 0.  1.
</event>
<event>
 5   0  0.5714125E-09  0.3692605E+04  0.7818609E-02  0.8069603E-01
        1   -1    0    0  501    0  0.00000000000E+00  0.00000000000E+00  0.26183936055E+04  0.26183936055E+04  0.50400001928E-02 0. -1.
       -1   -1    0    0    0  501  0.00000000000E+00  0.00000000000E+00 -0.13018795477E+04  0.13018795477E+04  0.50400001928E-02 0.  1.
    10030    2    1    2    0    0  0.00000000000E+00  0.00000000000E+00  0.13165140578E+04  0.39202731531E+04  0.36926050873E+04 0.  0.
        1    1    3    3  502    0  0.14320069336E+04 -0.65543100784E+01 -0.57899090346E+03  0.15446414740E+04  0.50400001928E-02 0.  1.
       -1    1    3    3    0  502 -0.14320069336E+04  0.65543100784E+01  0.18955049613E+04  0.23756316792E+04  0.50400001928E-02 0. -1.
</event>
<event>
 5   0  0.1725865E-08  0.3709037E+04  0.7818609E-02  0.8065962E-01
        2   -1    0    0  501    0  0.00000000000E+00  0.00000000000E+00  0.22601014683E+04  0.22601014683E+04  0.25500000920E-02 0.  1.
       -2   -1    0    0    0  501  0.00000000000E+00  0.00000000000E+00 -0.15217191224E+04  0.15217191224E+04  0.25500000920E-02 0. -1.
    10030    2    1    2    0    0  0.00000000000E+00  0.00000000000E+00  0.73838234592E+03  0.37818205907E+04  0.37090374076E+04 0.  0.
        1    1    3    3  502    0  0.29064199226E+03 -0.15135380512E+03  0.22303481643E+04  0.22542922783E+04  0.50400001928E-02 0.  1.
       -1    1    3    3    0  502 -0.29064199226E+03  0.15135380512E+03 -0.14919658184E+04  0.15275283124E+04  0.50400001928E-02 0. -1.
</event>
<event>
 5   0  0.1825308E-08  0.3697694E+04  0.7818609E-02  0.8068473E-01
       -2   -1    0    0    0  501  0.00000000000E+00  0.00000000000E+00  0.23786984642E+04  0.23786984642E+04  0.25500000920E-02 0.  1.
        2   -1    0    0  501    0  0.00000000000E+00  0.00000000000E+00 -0.14370188895E+04  0.14370188895E+04  0.25500000920E-02 0. -1.
    10030    2    1    2    0    0  0.00000000000E+00  0.00000000000E+00  0.94167957470E+03  0.38157173538E+04  0.36976936734E+04 0.  0.
        4    1    3    3  502    0 -0.34318213857E+03 -0.10322389117E+03 -0.14008344819E+04  0.14459488271E+04  0.12699999809E+01 0. -1.
       -4    1    3    3    0  502  0.34318213857E+03  0.10322389117E+03  0.23425140566E+04  0.23697685267E+04  0.12699999809E+01 0.  1.
</event>
<event>
 5   0  0.1757996E-08  0.3713337E+04  0.7818609E-02  0.8065013E-01
        2   -1    0    0  501    0  0.00000000000E+00  0.00000000000E+00  0.21908630555E+04  0.21908630555E+04  0.25500000920E-02 0. -1.
       -2   -1    0    0    0  501  0.00000000000E+00  0.00000000000E+00 -0.15734518608E+04  0.15734518608E+04  0.25500000920E-02 0.  1.
    10030    2    1    2    0    0  0.00000000000E+00  0.00000000000E+00  0.61741119471E+03  0.37643149162E+04  0.37133368020E+04 0.  0.
        3    1    3    3  502    0 -0.18402951670E+03 -0.40918478592E+03 -0.15176713283E+04  0.15826008098E+04  0.10100000352E+00 0.  1.
       -3    1    3    3    0  502  0.18402951670E+03  0.40918478592E+03  0.21350825230E+04  0.21817141065E+04  0.10100000352E+00 0. -1.
</event>
<event>
 5   0  0.5714125E-09  0.3697441E+04  0.7818609E-02  0.8068529E-01
        1   -1    0    0  501    0  0.00000000000E+00  0.00000000000E+00  0.19802958592E+04  0.19802958592E+04  0.50400001928E-02 0.  1.
       -1   -1    0    0    0  501  0.00000000000E+00  0.00000000000E+00 -0.17258875982E+04  0.17258875982E+04  0.50400001928E-02 0. -1.
    10030    2    1    2    0    0  0.00000000000E+00  0.00000000000E+00  0.25440826093E+03  0.37061834574E+04  0.36974413121E+04 0.  0.
        5    1    3    3  502    0 -0.72522097484E+03  0.96776390052E+03 -0.12743986284E+04  0.17568797294E+04  0.46999998093E+01 0. -1.
       -5    1    3    3    0  502  0.72522097484E+03 -0.96776390052E+03  0.15288068893E+04  0.19493037281E+04  0.46999998093E+01 0.  1.
</event>
<event>
 5   0  0.5714125E-09  0.3700190E+04  0.7818609E-02  0.8067920E-01
        1   -1    0    0  501    0  0.00000000000E+00  0.00000000000E+00  0.18246833436E+04  0.18246833436E+04  0.50400001928E-02 0.  1.
       -1   -1    0    0    0  501  0.00000000000E+00  0.00000000000E+00 -0.18758610500E+04  0.18758610500E+04  0.50400001928E-02 0. -1.
    10030    2    1    2    0    0  0.00000000000E+00  0.00000000000E+00 -0.51177706416E+02  0.37005443937E+04  0.37001904886E+04 0.  0.
        2    1    3    3  502    0  0.19885864800E+03 -0.74315985566E+03  0.16571359171E+04  0.18270004873E+04  0.25500000920E-02 0.  1.
       -2    1    3    3    0  502 -0.19885864800E+03  0.74315985566E+03 -0.17083136235E+04  0.18735439064E+04  0.25500000920E-02 0. -1.
</event>
<event>
 5   0  0.1725865E-08  0.3698810E+04  0.7818609E-02  0.8068225E-01
        2   -1    0    0  501    0  0.00000000000E+00  0.00000000000E+00  0.19123280402E+04  0.19123280402E+04  0.25500000920E-02 0.  1.
       -2   -1    0    0    0  501  0.00000000000E+00  0.00000000000E+00 -0.17885528311E+04  0.17885528311E+04  0.25500000920E-02 0. -1.
    10030    2    1    2    0    0  0.00000000000E+00  0.00000000000E+00  0.12377520913E+03  0.37008808713E+04  0.36988104738E+04 0.  0.
        1    1    3    3  502    0  0.74098617577E+03  0.98595399492E+03  0.14407496720E+04  0.18965561975E+04  0.50400001928E-02 0.  1.
       -1    1    3    3    0  502 -0.74098617577E+03 -0.98595399492E+03 -0.13169744628E+04  0.18043246738E+04  0.50400001928E-02 0. -1.
</event>
<event>
 5   0  0.1825308E-08  0.3699720E+04  0.7818609E-02  0.8068024E-01
        2   -1    0    0  501    0  0.00000000000E+00  0.00000000000E+00  0.17198606879E+04  0.17198606879E+04  0.25500000920E-02 0. -1.
       -2   -1    0    0    0  501  0.00000000000E+00  0.00000000000E+00 -0.19896860601E+04  0.19896860601E+04  0.25500000920E-02 0.  1.
    10030    2    1    2    0    0  0.00000000000E+00  0.00000000000E+00 -0.26982537215E+03  0.37095467480E+04  0.36997204414E+04 0.  0.
        4    1    3    3  502    0 -0.87653293359E+03  0.56678994134E+02 -0.17672596003E+04  0.19735071826E+04  0.12699999809E+01 0.  1.
       -4    1    3    3    0  502  0.87653293359E+03 -0.56678994134E+02  0.14974342282E+04  0.17360395654E+04  0.12699999809E+01 0. -1.
</event>
<event>
 5   0  0.1757996E-08  0.3700133E+04  0.7818609E-02  0.8067932E-01
       -2   -1    0    0    0  501  0.00000000000E+00  0.00000000000E+00  0.14974780973E+04  0.14974780973E+04  0.25500000920E-02 0. -1.
        2   -1    0    0  501    0  0.00000000000E+00  0.00000000000E+00 -0.22856737523E+04  0.22856737523E+04  0.25500000920E-02 0.  1.
    10030    2    1    2    0    0  0.00000000000E+00  0.00000000000E+00 -0.78819565502E+03  0.37831518496E+04  0.37001331769E+04 0.  0.
        3    1    3    3  502    0 -0.14956332954E+04 -0.99163852449E+03 -0.85417212392E+03  0.19874294818E+04  0.10100000352E+00 0.  1.
       -3    1    3    3    0  502  0.14956332954E+04  0.99163852449E+03  0.65976468897E+02  0.17957223678E+04  0.10100000352E+00 0. -1.
</event>
<event>
 5   0  0.5714125E-09  0.3700763E+04  0.7818609E-02  0.8067793E-01
       -1   -1    0    0    0  501  0.00000000000E+00  0.00000000000E+00  0.14869527616E+04  0.14869527617E+04  0.50400001928E-02 0. -1.
        1   -1    0    0  501    0  0.00000000000E+00  0.00000000000E+00 -0.23026369061E+04  0.23026369061E+04  0.50400001928E-02 0.  1.
    10030    2    1    2    0    0  0.00000000000E+00  0.00000000000E+00 -0.81568414441E+03  0.37895896677E+04  0.37007633302E+04 0.  0.
        1    1    3    3  502    0  0.82305822004E+03 -0.42839269984E+03 -0.20471947592E+04  0.22476546712E+04  0.50400001928E-02 0.  1.
       -1    1    3    3    0  502 -0.82305822004E+03  0.42839269984E+03  0.12315106148E+04  0.15419349965E+04  0.50400001928E-02 0. -1.
</event>
<event>
 5   0  0.1856107E-08  0.3697996E+04  0.7818609E-02  0.8068406E-01
       -2   -1    0    0    0  501  0.00000000000E+00  0.00000000000E+00  0.11592805185E+04  0.11592805185E+04  0.25500000920E-02 0. -1.
        2   -1    0    0  501    0  0.00000000000E+00  0.00000000000E+00 -0.29490655648E+04  0.29490655648E+04  0.25500000920E-02 0.  1.
    10030    2    1    2    0    0  0.00000000000E+00  0.00000000000E+00 -0.17897850463E+04  0.41083460833E+04  0.36979963531E+04 0.  0.
        2    1    3    3  502    0 -0.16246646701E+04  0.28544642574E+03  0.33132282403E+02  0.16498826323E+04  0.25500000920E-02 0. -1.
       -2    1    3    3    0  502  0.16246646701E+04 -0.28544642574E+03 -0.18229173287E+04  0.24584634509E+04  0.25500000920E-02 0.  1.
</event>
<event>
 5   0  0.5714125E-09  0.3697930E+04  0.7818609E-02  0.8068421E-01
        1   -1    0    0  501    0  0.00000000000E+00  0.00000000000E+00  0.19060059414E+04  0.19060059414E+04  0.50400001928E-02 0. -1.
       -1   -1    0    0    0  501  0.00000000000E+00  0.00000000000E+00 -0.17936310322E+04  0.17936310322E+04  0.50400001928E-02 0.  1.
    10030    2    1    2    0    0  0.00000000000E+00  0.00000000000E+00  0.11237490921E+03  0.36996369737E+04  0.36979299097E+04 0.  0.
        1    1    3    3  502    0 -0.17065389943E+04  0.70236751441E+03 -0.58215407931E+02  0.18463435482E+04  0.50400001928E-02 0.  1.
       -1    1    3    3    0  502  0.17065389943E+04 -0.70236751441E+03  0.17059031714E+03  0.18532934254E+04  0.50400001928E-02 0. -1.
</event>
<event>
 5   0  0.5714125E-09  0.3699533E+04  0.7818609E-02  0.8068065E-01
        1   -1    0    0  501    0  0.00000000000E+00  0.00000000000E+00  0.19415469008E+04  0.19415469008E+04  0.50400001928E-02 0.  1.
       -1   -1    0    0    0  501  0.00000000000E+00  0.00000000000E+00 -0.17623243777E+04  0.17623243777E+04  0.50400001928E-02 0. -1.
    10030    2    1    2    0    0  0.00000000000E+00  0.00000000000E+00  0.17922252305E+03  0.37038712785E+04  0.36995326374E+04 0.  0.
        2    1    3    3  502    0  0.66647835085E+03 -0.15138207629E+04  0.91870607242E+03  0.18920537893E+04  0.25500000920E-02 0.  1.
       -2    1    3    3    0  502 -0.66647835085E+03  0.15138207629E+04 -0.73948354937E+03  0.18118174892E+04  0.25500000920E-02 0. -1.
</event>
<event>
 5   0  0.1740290E-08  0.3700033E+04  0.7818609E-02  0.8067954E-01
       -2   -1    0    0    0  501  0.00000000000E+00  0.00000000000E+00  0.13119643960E+04  0.13119643960E+04  0.25500000920E-02 0.  1.
        2   -1    0    0  501    0  0.00000000000E+00  0.00000000000E+00 -0.26087306652E+04  0.26087306652E+04  0.25500000920E-02 0. -1.
    10030    2    1    2    0    0  0.00000000000E+00  0.00000000000E+00 -0.12967662691E+04  0.39206950612E+04  0.37000333790E+04 0.  0.
        5    1    3    3  502    0 -0.11584610706E+04  0.41954496095E+03 -0.21107176487E+04  0.24440133201E+04  0.46999998093E+01 0. -1.
       -5    1    3    3    0  502  0.11584610706E+04 -0.41954496095E+03  0.81395137953E+03  0.14766817411E+04  0.46999998093E+01 0.  1.
</event>
<event>
 5   0  0.5714125E-09  0.3699848E+04  0.7818609E-02  0.8067996E-01
       -1   -1    0    0    0  501  0.00000000000E+00  0.00000000000E+00  0.20011123972E+04  0.20011123972E+04  0.50400001928E-02 0.  1.
        1   -1    0    0  501    0  0.00000000000E+00  0.00000000000E+00 -0.17101578374E+04  0.17101578374E+04  0.50400001928E-02 0. -1.
    10030    2    1    2    0    0  0.00000000000E+00  0.00000000000E+00  0.29095455987E+03  0.37112702346E+04  0.36998475912E+04 0.  0.
        1    1    3    3  502    0  0.85249644899E+03 -0.93734331857E+03 -0.12065919239E+04  0.17496361802E+04  0.50400001928E-02 0. -1.
       -1    1    3    3    0  502 -0.85249644899E+03  0.93734331857E+03  0.14975464837E+04  0.19616340544E+04  0.50400001928E-02 0.  1.
</event>
<event>
 5   0  0.1825308E-08  0.3701765E+04  0.7818609E-02  0.8067571E-01
        2   -1    0    0  501    0  0.00000000000E+00  0.00000000000E+00  0.19278660557E+04  0.19278660557E+04  0.25500000920E-02 0.  1.
       -2   -1    0    0    0  501  0.00000000000E+00  0.00000000000E+00 -0.17769733649E+04  0.17769733649E+04  0.25500000920E-02 0. -1.
    10030    2    1    2    0    0  0.00000000000E+00  0.00000000000E+00  0.15089269081E+03  0.37048394206E+04  0.37017653259E+04 0.  0.
        4    1    3    3  502    0  0.13657158766E+04  0.10670329695E+04 -0.57472827022E+03  0.18259390491E+04  0.12699999809E+01 0.  1.
       -4    1    3    3    0  502 -0.13657158766E+04 -0.10670329695E+04  0.72562096102E+03  0.18789003714E+04  0.12699999809E+01 0. -1.
</event>
<event>
 5   0  0.5714125E-09  0.3701245E+04  0.7818609E-02  0.8067686E-01
       -3   -1    0    0    0  501  0.00000000000E+00  0.00000000000E+00  0.18806101923E+04  0.18806101950E+04  0.10100000352E+00 0.  1.
        3   -1    0    0  501    0  0.00000000000E+00  0.00000000000E+00 -0.18211125551E+04  0.18211125579E+04  0.10100000352E+00 0. -1.
    10030    2    1    2    0    0  0.00000000000E+00  0.00000000000E+00  0.59497637268E+02  0.37017227529E+04  0.37012445705E+04 0.  0.
        1    1    3    3  502    0 -0.82915459107E+03  0.56673719424E+02  0.16834719226E+04  0.18774415997E+04  0.50400001928E-02 0.  1.
       -1    1    3    3    0  502  0.82915459107E+03 -0.56673719424E+02 -0.16239742853E+04  0.18242811531E+04  0.50400001928E-02 0. -1.
</event>
<event>
 5   0  0.1757996E-08  0.3698964E+04  0.7818609E-02  0.8068191E-01
       -2   -1    0    0    0  501  0.00000000000E+00  0.00000000000E+00  0.16600759830E+04  0.16600759830E+04  0.25500000920E-02 0. -1.
        2   -1    0    0  501    0  0.00000000000E+00  0.00000000000E+00 -0.20604983313E+04  0.20604983313E+04  0.25500000920E-02 0.  1.
    10030    2    1    2    0    0  0.00000000000E+00  0.00000000000E+00 -0.40042234831E+03  0.37205743143E+04  0.36989640673E+04 0.  0.
        3    1    3    3  502    0  0.16374869387E+04  0.47510834114E+03  0.52055910350E+03  0.17827151205E+04  0.10100000352E+00 0. -1.
       -3    1    3    3    0  502 -0.16374869387E+04 -0.47510834114E+03 -0.92098145181E+03  0.19378591938E+04  0.10100000352E+00 0.  1.
</event>
<event>
 5   0  0.1757996E-08  0.3700018E+04  0.7818609E-02  0.8067958E-01
       -2   -1    0    0    0  501  0.00000000000E+00  0.00000000000E+00  0.22600193190E+04  0.22600193190E+04  0.25500000920E-02 0. -1.
        2   -1    0    0  501    0  0.00000000000E+00  0.00000000000E+00 -0.15143821339E+04  0.15143821339E+04  0.25500000920E-02 0.  1.
    10030    2    1    2    0    0  0.00000000000E+00  0.00000000000E+00  0.74563718503E+03  0.37744014529E+04  0.37000177724E+04 0.  0.
        3    1    3    3  502    0 -0.17866984161E+04  0.70038885732E+02  0.85705758497E+03  0.19828626754E+04  0.10100000352E+00 0. -1.
       -3    1    3    3    0  502  0.17866984161E+04 -0.70038885732E+02 -0.11142039993E+03  0.17915387775E+04  0.10100000352E+00 0.  1.
</event>
<event>
 5   0  0.5714125E-09  0.3700052E+04  0.7818609E-02  0.8067950E-01
        1   -1    0    0  501    0  0.00000000000E+00  0.00000000000E+00  0.22763553674E+04  0.22763553675E+04  0.50400001928E-02 0. -1.
       -1   -1    0    0    0  501  0.00000000000E+00  0.00000000000E+00 -0.15035420350E+04  0.15035420350E+04  0.50400001928E-02 0.  1.
    10030    2    1    2    0    0  0.00000000000E+00  0.00000000000E+00  0.77281333245E+03  0.37798974024E+04  0.37000518816E+04 0.  0.
        3    1    3    3  502    0 -0.16145383691E+04  0.85668991186E+03  0.93970309990E+02  0.18301590586E+04  0.10100000352E+00 0.  1.
       -3    1    3    3    0  502  0.16145383691E+04 -0.85668991186E+03  0.67884302246E+03  0.19497383439E+04  0.10100000352E+00 0. -1.
</event>
<event>
 5   0  0.1856107E-08  0.3700084E+04  0.7818609E-02  0.8067943E-01
       -2   -1    0    0    0  501  0.00000000000E+00  0.00000000000E+00  0.10981923353E+04  0.10981923353E+04  0.25500000920E-02 0. -1.
        2   -1    0    0  501    0  0.00000000000E+00  0.00000000000E+00 -0.31166272144E+04  0.31166272144E+04  0.25500000920E-02 0.  1.
    10030    2    1    2    0    0  0.00000000000E+00  0.00000000000E+00 -0.20184348791E+04  0.42148195498E+04  0.37000843877E+04 0.  0.
        2    1    3    3  502    0  0.16464576297E+04  0.31475847683E+03 -0.11752982287E+03  0.16803895038E+04  0.25500000920E-02 0. -1.
       -2    1    3    3    0  502 -0.16464576297E+04 -0.31475847683E+03 -0.19009050562E+04  0.25344300460E+04  0.25500000920E-02 0.  1.
</event>
<event>
 5   0  0.1825308E-08  0.3701182E+04  0.7818609E-02  0.8067700E-01
       -2   -1    0    0    0  501  0.00000000000E+00  0.00000000000E+00  0.15545040455E+04  0.15545040455E+04  0.25500000920E-02 0.  1.
        2   -1    0    0  501    0  0.00000000000E+00  0.00000000000E+00 -0.22030739447E+04  0.22030739447E+04  0.25500000920E-02 0. -1.
    10030    2    1    2    0    0  0.00000000000E+00  0.00000000000E+00 -0.64856989921E+03  0.37575779903E+04  0.37011821677E+04 0.  0.
        4    1    3    3  502    0 -0.65965320539E+03 -0.85250566118E+03 -0.18514587590E+04  0.21423840466E+04  0.12699999809E+01 0. -1.
       -4    1    3    3    0  502  0.65965320539E+03  0.85250566118E+03  0.12028888598E+04  0.16151939437E+04  0.12699999809E+01 0.  1.
</event>
<event>
 5   0  0.1825308E-08  0.3692593E+04  0.7818609E-02  0.8069605E-01
       -2   -1    0    0    0  501  0.00000000000E+00  0.00000000000E+00  0.18333612975E+04  0.18333612976E+04  0.25500000920E-02 0.  1.
        2   -1    0    0  501    0  0.00000000000E+00  0.00000000000E+00 -0.18593229946E+04  0.18593229946E+04  0.25500000920E-02 0. -1.
    10030    2    1    2    0    0  0.00000000000E+00  0.00000000000E+00 -0.25961697058E+02  0.36926842922E+04  0.36925930282E+04 0.  0.
        4    1    3    3  502    0 -0.82446389781E+03  0.10218436337E+04  0.12850897820E+04  0.18372159620E+04  0.12699999809E+01 0.  1.
       -4    1    3    3    0  502  0.82446389781E+03 -0.10218436337E+04 -0.13110514790E+04  0.18554683301E+04  0.12699999809E+01 0. -1.
</event>
<event>
 5   0  0.5714125E-09  0.3698759E+04  0.7818609E-02  0.8068237E-01
        1   -1    0    0  501    0  0.00000000000E+00  0.00000000000E+00  0.14136890905E+04  0.14136890905E+04  0.50400001928E-02 0.  1.
       -1   -1    0    0    0  501  0.00000000000E+00  0.00000000000E+00 -0.24193474871E+04  0.24193474871E+04  0.50400001928E-02 0. -1.
    10030    2    1    2    0    0  0.00000000000E+00  0.00000000000E+00 -0.10056583966E+04  0.38330365776E+04  0.36987593318E+04 0.  0.
        4    1    3    3  502    0 -0.63448995412E+03  0.15014387443E+04  0.40256294243E+03  0.16789741929E+04  0.12699999809E+01 0. -1.
       -4    1    3    3    0  502  0.63448995412E+03 -0.15014387443E+04 -0.14082213390E+04  0.21540623847E+04  0.12699999809E+01 0.  1.
</event>
<event>
 5   0  0.5714125E-09  0.3699754E+04  0.7818609E-02  0.8068016E-01
       -1   -1    0    0    0  501  0.00000000000E+00  0.00000000000E+00  0.12032264007E+04  0.12032264007E+04  0.50400001928E-02 0. -1.
        1   -1    0    0  501    0  0.00000000000E+00  0.00000000000E+00 -0.28440576701E+04  0.28440576701E+04  0.50400001928E-02 0.  1.
    10030    2    1    2    0    0  0.00000000000E+00  0.00000000000E+00 -0.16408312695E+04  0.40472840708E+04  0.36997541939E+04 0.  0.
        3    1    3    3  502    0  0.15501304185E+04  0.99701376450E+03 -0.99374279760E+03  0.20939115356E+04  0.10100000352E+00 0. -1.
       -3    1    3    3    0  502 -0.15501304185E+04 -0.99701376450E+03 -0.64708847187E+03  0.19533725352E+04  0.10100000352E+00 0.  1.
</event>
<event>
 5   0  0.5714125E-09  0.3703832E+04  0.7818609E-02  0.8067113E-01
       -1   -1    0    0    0  501  0.00000000000E+00  0.00000000000E+00  0.23700085329E+04  0.23700085329E+04  0.50400001928E-02 0. -1.
        1   -1    0    0  501    0  0.00000000000E+00  0.00000000000E+00 -0.14470801597E+04  0.14470801597E+04  0.50400001928E-02 0.  1.
    10030    2    1    2    0    0  0.00000000000E+00  0.00000000000E+00  0.92292837322E+03  0.38170886927E+04  0.37038317059E+04 0.  0.
        1    1    3    3  502    0 -0.97338011201E+03 -0.64827215474E+03 -0.10183640103E+04  0.15507388196E+04  0.50400001928E-02 0.  1.
       -1    1    3    3    0  502  0.97338011201E+03  0.64827215474E+03  0.19412923835E+04  0.22663498731E+04  0.50400001928E-02 0. -1.
</event>
<event>
 5   0  0.5714125E-09  0.3706439E+04  0.7818609E-02  0.8066536E-01
        1   -1    0    0  501    0  0.00000000000E+00  0.00000000000E+00  0.14266125366E+04  0.14266125366E+04  0.50400001928E-02 0. -1.
       -1   -1    0    0    0  501  0.00000000000E+00  0.00000000000E+00 -0.24073971684E+04  0.24073971684E+04  0.50400001928E-02 0.  1.
    10030    2    1    2    0    0  0.00000000000E+00  0.00000000000E+00 -0.98078463180E+03  0.38340097050E+04  0.37064392514E+04 0.  0.
        4    1    3    3  502    0  0.16482464550E+03  0.16832993249E+04  0.29314654744E+03  0.17165664252E+04  0.12699999809E+01 0. -1.
       -4    1    3    3    0  502 -0.16482464550E+03 -0.16832993249E+04 -0.12739311792E+04  0.21174432798E+04  0.12699999809E+01 0.  1.
</event>
<event>
 5   0  0.5714125E-09  0.3699956E+04  0.7818609E-02  0.8067972E-01
       -1   -1    0    0    0  501  0.00000000000E+00  0.00000000000E+00  0.15899367495E+04  0.15899367495E+04  0.50400001928E-02 0. -1.
        1   -1    0    0  501    0  0.00000000000E+00  0.00000000000E+00 -0.21525500010E+04  0.21525500010E+04  0.50400001928E-02 0.  1.
    10030    2    1    2    0    0  0.00000000000E+00  0.00000000000E+00 -0.56261325147E+03  0.37424867505E+04  0.36999558655E+04 0.  0.
        1    1    3    3  502    0 -0.33602222381E+03 -0.17965988282E+04 -0.57049526166E+03  0.19147175061E+04  0.50400001928E-02 0.  1.
       -1    1    3    3    0  502  0.33602222381E+03  0.17965988282E+04  0.78820101944E+01  0.18277692444E+04  0.50400001928E-02 0. -1.
</event>
<event>
 5   0  0.1856107E-08  0.3699876E+04  0.7818609E-02  0.8067989E-01
       -2   -1    0    0    0  501  0.00000000000E+00  0.00000000000E+00  0.31114096861E+04  0.31114096861E+04  0.25500000920E-02 0.  1.
        2   -1    0    0  501    0  0.00000000000E+00  0.00000000000E+00 -0.10999098801E+04  0.10999098801E+04  0.25500000920E-02 0. -1.
    10030    2    1    2    0    0  0.00000000000E+00  0.00000000000E+00  0.20114998060E+04  0.42113195663E+04  0.36998758114E+04 0.  0.
        2    1    3    3  502    0  0.84238221580E+03 -0.12406843993E+04 -0.22720603486E+03  0.15167492075E+04  0.25500000920E-02 0. -1.
       -2    1    3    3    0  502 -0.84238221580E+03  0.12406843993E+04  0.22387058409E+04  0.26945703587E+04  0.25500000920E-02 0.  1.
</event>
<event>
 5   0  0.5714125E-09  0.3700022E+04  0.7818609E-02  0.8067957E-01
        1   -1    0    0  501    0  0.00000000000E+00  0.00000000000E+00  0.26488948584E+04  0.26488948584E+04  0.50400001928E-02 0. -1.
       -1   -1    0    0    0  501  0.00000000000E+00  0.00000000000E+00 -0.12920633412E+04  0.12920633412E+04  0.50400001928E-02 0.  1.
    10030    2    1    2    0    0  0.00000000000E+00  0.00000000000E+00  0.13568315172E+04  0.39409581996E+04  0.37000215898E+04 0.  0.
        4    1    3    3  502    0  0.12387890092E+04  0.13134595117E+04  0.24870418167E+03  0.18225338080E+04  0.12699999809E+01 0.  1.
       -4    1    3    3    0  502 -0.12387890092E+04 -0.13134595117E+04  0.11081273356E+04  0.21184243916E+04  0.12699999809E+01 0. -1.
</event>
<event>
 5   0  0.1825308E-08  0.3700147E+04  0.7818609E-02  0.8067929E-01
       -2   -1    0    0    0  501  0.00000000000E+00  0.00000000000E+00  0.16930189363E+04  0.16930189363E+04  0.25500000920E-02 0. -1.
        2   -1    0    0  501    0  0.00000000000E+00  0.00000000000E+00 -0.20216970845E+04  0.20216970845E+04  0.25500000920E-02 0.  1.
    10030    2    1    2    0    0  0.00000000000E+00  0.00000000000E+00 -0.32867814816E+03  0.37147160208E+04  0.37001467255E+04 0.  0.
        4    1    3    3  502    0  0.15642774856E+04 -0.13613997826E+03 -0.11465941470E+04  0.19442679590E+04  0.12699999809E+01 0.  1.
       -4    1    3    3    0  502 -0.15642774856E+04  0.13613997826E+03  0.81791599883E+03  0.17704480618E+04  0.12699999809E+01 0. -1.
</event>
<event>
 5   0  0.5714125E-09  0.3702254E+04  0.7818609E-02  0.8067462E-01
       -1   -1    0    0    0  501  0.00000000000E+00  0.00000000000E+00  0.17713509087E+04  0.17713509087E+04  0.50400001928E-02 0. -1.
        1   -1    0    0  501    0  0.00000000000E+00  0.00000000000E+00 -0.19344960479E+04  0.19344960479E+04  0.50400001928E-02 0.  1.
    10030    2    1    2    0    0  0.00000000000E+00  0.00000000000E+00 -0.16314513922E+03  0.37058469565E+04  0.37022540876E+04 0.  0.
        1    1    3    3  502    0  0.14468236433E+04 -0.41357920120E+03  0.99758542769E+03  0.18054149374E+04  0.50400001928E-02 0. -1.
       -1    1    3    3    0  502 -0.14468236433E+04  0.41357920120E+03 -0.11607305669E+04  0.19004320192E+04  0.50400001928E-02 0.  1.
</event>
<event>
 5   0  0.5714125E-09  0.3703058E+04  0.7818609E-02  0.8067284E-01
        1   -1    0    0  501    0  0.00000000000E+00  0.00000000000E+00  0.18964495328E+04  0.18964495328E+04  0.50400001928E-02 0.  1.
       -1   -1    0    0    0  501  0.00000000000E+00  0.00000000000E+00 -0.18076728251E+04  0.18076728251E+04  0.50400001928E-02 0. -1.
    10030    2    1    2    0    0  0.00000000000E+00  0.00000000000E+00  0.88776707685E+02  0.37041223578E+04  0.37030583493E+04 0.  0.
        3    1    3    3  502    0 -0.43985217753E+03  0.15996104403E+04  0.86677832732E+03  0.18717714010E+04  0.10100000352E+00 0.  1.
       -3    1    3    3    0  502  0.43985217753E+03 -0.15996104403E+04 -0.77800161963E+03  0.18323509568E+04  0.10100000352E+00 0. -1.
</event>
<event>
 5   0  0.1856107E-08  0.3696714E+04  0.7818609E-02  0.8068691E-01
       -2   -1    0    0    0  501  0.00000000000E+00  0.00000000000E+00  0.26492104657E+04  0.26492104657E+04  0.25500000920E-02 0. -1.
        2   -1    0    0  501    0  0.00000000000E+00  0.00000000000E+00 -0.12896003537E+04  0.12896003537E+04  0.25500000920E-02 0.  1.
    10030    2    1    2    0    0  0.00000000000E+00  0.00000000000E+00  0.13596101119E+04  0.39388108194E+04  0.36967135424E+04 0.  0.
        2    1    3    3  502    0  0.72752035313E+03 -0.91431059497E+02 -0.11280073182E+04  0.13453795052E+04  0.25500000920E-02 0.  1.
       -2    1    3    3    0  502 -0.72752035313E+03  0.91431059497E+02  0.24876174302E+04  0.25934313143E+04  0.25500000920E-02 0. -1.
</event>
<event>
 5   0  0.1725865E-08  0.3709340E+04  0.7818609E-02  0.8065895E-01
       -2   -1    0    0    0  501  0.00000000000E+00  0.00000000000E+00  0.14529352465E+04  0.14529352465E+04  0.25500000920E-02 0.  1.
        2   -1    0    0  501    0  0.00000000000E+00  0.00000000000E+00 -0.23674840977E+04  0.23674840977E+04  0.25500000920E-02 0. -1.
    10030    2    1    2    0    0  0.00000000000E+00  0.00000000000E+00 -0.91454885122E+03  0.38204193442E+04  0.37093401521E+04 0.  0.
        1    1    3    3  502    0  0.34664083938E+03 -0.17294463183E+04  0.13317892043E+03  0.17688643430E+04  0.50400001928E-02 0.  1.
       -1    1    3    3    0  502 -0.34664083938E+03  0.17294463183E+04 -0.10477277716E+04  0.20515550011E+04  0.50400001928E-02 0. -1.
</event>
<event>
 5   0  0.1740290E-08  0.3698245E+04  0.7818609E-02  0.8068351E-01
       -2   -1    0    0    0  501  0.00000000000E+00  0.00000000000E+00  0.14438080888E+04  0.14438080888E+04  0.25500000920E-02 0.  1.
        2   -1    0    0  501    0  0.00000000000E+00  0.00000000000E+00 -0.23682191342E+04  0.23682191342E+04  0.25500000920E-02 0. -1.
    10030    2    1    2    0    0  0.00000000000E+00  0.00000000000E+00 -0.92441104544E+03  0.38120272231E+04  0.36982449579E+04 0.  0.
        5    1    3    3  502    0  0.17925653613E+04 -0.38944572791E+03 -0.22207163960E+03  0.18477814949E+04  0.46999998093E+01 0.  1.
       -5    1    3    3    0  502 -0.17925653613E+04  0.38944572791E+03 -0.70233940583E+03  0.19642457282E+04  0.46999998093E+01 0. -1.
</event>
<event>
 5   0  0.5714125E-09  0.3699214E+04  0.7818609E-02  0.8068136E-01
       -1   -1    0    0    0  501  0.00000000000E+00  0.00000000000E+00  0.18967663159E+04  0.18967663159E+04  0.50400001928E-02 0.  1.
        1   -1    0    0  501    0  0.00000000000E+00  0.00000000000E+00 -0.18036204824E+04  0.18036204824E+04  0.50400001928E-02 0. -1.
    10030    2    1    2    0    0  0.00000000000E+00  0.00000000000E+00  0.93145833467E+02  0.37003867983E+04  0.36992142829E+04 0.  0.
        4    1    3    3  502    0 -0.17193329267E+04  0.51125223717E+03  0.49789260905E+03  0.18615539815E+04  0.12699999809E+01 0. -1.
       -4    1    3    3    0  502  0.17193329267E+04 -0.51125223717E+03 -0.40474677559E+03  0.18388328168E+04  0.12699999809E+01 0.  1.
</event>
<event>
 5   0  0.5714125E-09  0.3700686E+04  0.7818609E-02  0.8067810E-01
        1   -1    0    0  501    0  0.00000000000E+00  0.00000000000E+00  0.12733115335E+04  0.12733115335E+04  0.50400001928E-02 0.  1.
       -1   -1    0    0    0  501  0.00000000000E+00  0.00000000000E+00 -0.26888700944E+04  0.26888700944E+04  0.50400001928E-02 0. -1.
    10030    2    1    2    0    0  0.00000000000E+00  0.00000000000E+00 -0.14155585609E+04  0.39621816279E+04  0.37006860463E+04 0.  0.
        1    1    3    3  502    0  0.46272323083E+03  0.13261461252E+04  0.58190911296E+03  0.15203271192E+04  0.50400001928E-02 0.  1.
       -1    1    3    3    0  502 -0.46272323083E+03 -0.13261461252E+04 -0.19974676738E+04  0.24418545087E+04  0.50400001928E-02 0. -1.
</event>
<event>
 5   0  0.5714125E-09  0.3700205E+04  0.7818609E-02  0.8067916E-01
        1   -1    0    0  501    0  0.00000000000E+00  0.00000000000E+00  0.29047494857E+04  0.29047494857E+04  0.50400001928E-02 0.  1.
       -1   -1    0    0    0  501  0.00000000000E+00  0.00000000000E+00 -0.11783734087E+04  0.11783734087E+04  0.50400001928E-02 0. -1.
    10030    2    1    2    0    0  0.00000000000E+00  0.00000000000E+00  0.17263760770E+04  0.40831228944E+04  0.37002051580E+04 0.  0.
        3    1    3    3  502    0 -0.66083981761E+03 -0.14048685032E+04 -0.24718096635E+03  0.15720888067E+04  0.10100000352E+00 0. -1.
       -3    1    3    3    0  502  0.66083981761E+03  0.14048685032E+04  0.19735570434E+04  0.25110340877E+04  0.10100000352E+00 0.  1.
</event>
<event>
 5   0  0.1757996E-08  0.3699052E+04  0.7818609E-02  0.8068172E-01
        2   -1    0    0  501    0  0.00000000000E+00  0.00000000000E+00  0.31082056236E+04  0.31082056236E+04  0.25500000920E-02 0. -1.
       -2   -1    0    0    0  501  0.00000000000E+00  0.00000000000E+00 -0.11005535585E+04  0.11005535585E+04  0.25500000920E-02 0.  1.
    10030    2    1    2    0    0  0.00000000000E+00  0.00000000000E+00  0.20076520651E+04  0.42087591821E+04  0.36990521811E+04 0.  0.
        3    1    3    3  502    0  0.93623948526E+02 -0.13478977897E+04 -0.43320045017E+03  0.14188927146E+04  0.10100000352E+00 0.  1.
       -3    1    3    3    0  502 -0.93623948526E+02  0.13478977897E+04  0.24408525152E+04  0.27898664675E+04  0.10100000352E+00 0. -1.
</event>
<event>
 5   0  0.1856107E-08  0.3699040E+04  0.7818609E-02  0.8068175E-01
       -2   -1    0    0    0  501  0.00000000000E+00  0.00000000000E+00  0.16685129275E+04  0.16685129275E+04  0.25500000920E-02 0.  1.
        2   -1    0    0  501    0  0.00000000000E+00  0.00000000000E+00 -0.20501633178E+04  0.20501633178E+04  0.25500000920E-02 0. -1.
    10030    2    1    2    0    0  0.00000000000E+00  0.00000000000E+00 -0.38165039029E+03  0.37186762453E+04  0.36990398750E+04 0.  0.
        2    1    3    3  502    0  0.26621145429E+03 -0.16537426414E+04  0.59755125670E+03  0.17784264862E+04  0.25500000920E-02 0. -1.
       -2    1    3    3    0  502 -0.26621145429E+03  0.16537426414E+04 -0.97920164699E+03  0.19402497591E+04  0.25500000920E-02 0.  1.
</event>
<event>
 5   0  0.5714125E-09  0.3700823E+04  0.7818609E-02  0.8067780E-01
        1   -1    0    0  501    0  0.00000000000E+00  0.00000000000E+00  0.22220242691E+04  0.22220242691E+04  0.50400001928E-02 0.  1.
       -1   -1    0    0    0  501  0.00000000000E+00  0.00000000000E+00 -0.15409471637E+04  0.15409471637E+04  0.50400001928E-02 0. -1.
    10030    2    1    2    0    0  0.00000000000E+00  0.00000000000E+00  0.68107710532E+03  0.37629714328E+04  0.37008226087E+04 0.  0.
        2    1    3    3  502    0  0.12276914013E+04  0.13473426184E+04  0.66442141798E+03  0.19401067313E+04  0.25500000920E-02 0.  1.
       -2    1    3    3    0  502 -0.12276914013E+04 -0.13473426184E+04  0.16655687336E+02  0.18228647015E+04  0.25500000920E-02 0. -1.
</event>
<event>
 5   0  0.5714125E-09  0.3701047E+04  0.7818609E-02  0.8067730E-01
        1   -1    0    0  501    0  0.00000000000E+00  0.00000000000E+00  0.16537530730E+04  0.16537530730E+04  0.50400001928E-02 0. -1.
       -1   -1    0    0    0  501  0.00000000000E+00  0.00000000000E+00 -0.20707062838E+04  0.20707062838E+04  0.50400001928E-02 0.  1.
    10030    2    1    2    0    0  0.00000000000E+00  0.00000000000E+00 -0.41695321074E+03  0.37244593568E+04  0.37010468142E+04 0.  0.
        2    1    3    3  502    0  0.93170229499E+03 -0.14073338470E+04  0.55512464454E+03  0.17767445214E+04  0.25500000920E-02 0. -1.
       -2    1    3    3    0  502 -0.93170229499E+03  0.14073338470E+04 -0.97207785528E+03  0.19477148354E+04  0.25500000920E-02 0.  1.
</event>
<event>
 5   0  0.1725865E-08  0.3701909E+04  0.7818609E-02  0.8067539E-01
        2   -1    0    0  501    0  0.00000000000E+00  0.00000000000E+00  0.27473822050E+04  0.27473822050E+04  0.25500000920E-02 0.  1.
       -2   -1    0    0    0  501  0.00000000000E+00  0.00000000000E+00 -0.12470171323E+04  0.12470171323E+04  0.25500000920E-02 0. -1.
    10030    2    1    2    0    0  0.00000000000E+00  0.00000000000E+00  0.15003650728E+04  0.39943993373E+04  0.37019090634E+04 0.  0.
        1    1    3    3  502    0  0.10081327985E+04  0.10257519389E+04 -0.50700792243E+03  0.15249773155E+04  0.50400001928E-02 0. -1.
       -1    1    3    3    0  502 -0.10081327985E+04 -0.10257519389E+04  0.20073729952E+04  0.24694220217E+04  0.50400001928E-02 0.  1.
</event>
<event>
 5   0  0.5714125E-09  0.3700152E+04  0.7818609E-02  0.8067928E-01
        1   -1    0    0  501    0  0.00000000000E+00  0.00000000000E+00  0.16926873725E+04  0.16926873725E+04  0.50400001928E-02 0. -1.
       -1   -1    0    0    0  501  0.00000000000E+00  0.00000000000E+00 -0.20220986399E+04  0.20220986399E+04  0.50400001928E-02 0.  1.
    10030    2    1    2    0    0  0.00000000000E+00  0.00000000000E+00 -0.32941126739E+03  0.37147860125E+04  0.37001517990E+04 0.  0.
        3    1    3    3  502    0  0.22545508681E+03  0.11099264054E+04  0.13039588344E+04  0.17271581496E+04  0.10100000352E+00 0. -1.
       -3    1    3    3    0  502 -0.22545508681E+03 -0.11099264054E+04 -0.16333701018E+04  0.19876278629E+04  0.10100000352E+00 0.  1.
</event>
<event>
 5   0  0.1725865E-08  0.3719849E+04  0.7818609E-02  0.8063577E-01
        2   -1    0    0  501    0  0.00000000000E+00  0.00000000000E+00  0.12181495909E+04  0.12181495909E+04  0.25500000920E-02 0. -1.
       -2   -1    0    0    0  501  0.00000000000E+00  0.00000000000E+00 -0.28398141650E+04  0.28398141650E+04  0.25500000920E-02 0.  1.
    10030    2    1    2    0    0  0.00000000000E+00  0.00000000000E+00 -0.16216645741E+04  0.40579637559E+04  0.37198486331E+04 0.  0.
        1    1    3    3  502    0  0.40417282992E+03 -0.77919911405E+03  0.97797302704E+03  0.13141301981E+04  0.50400001928E-02 0. -1.
       -1    1    3    3    0  502 -0.40417282992E+03  0.77919911405E+03 -0.25996376011E+04  0.27438335578E+04  0.50400001928E-02 0.  1.
</event>
<event>
 5   0  0.5714125E-09  0.3700663E+04  0.7818609E-02  0.8067815E-01
        1   -1    0    0  501    0  0.00000000000E+00  0.00000000000E+00  0.17761295473E+04  0.17761295474E+04  0.50400001928E-02 0. -1.
       -1   -1    0    0    0  501  0.00000000000E+00  0.00000000000E+00 -0.19276329941E+04  0.19276329942E+04  0.50400001928E-02 0.  1.
    10030    2    1    2    0    0  0.00000000000E+00  0.00000000000E+00 -0.15150344680E+03  0.37037625415E+04  0.37006625987E+04 0.  0.
        2    1    3    3  502    0  0.31279662373E+03  0.17464811300E+04 -0.60125140714E+03  0.18733769829E+04  0.25500000920E-02 0.  1.
       -2    1    3    3    0  502 -0.31279662373E+03 -0.17464811300E+04  0.44974796034E+03  0.18303855586E+04  0.25500000920E-02 0. -1.
</event>
<event>
 5   0  0.5714125E-09  0.3700849E+04  0.7818609E-02  0.8067774E-01
        1   -1    0    0  501    0  0.00000000000E+00  0.00000000000E+00  0.28304733887E+04  0.28304733887E+04  0.50400001928E-02 0. -1.
       -1   -1    0    0    0  501  0.00000000000E+00  0.00000000000E+00 -0.12097169196E+04  0.12097169196E+04  0.50400001928E-02 0.  1.
    10030    2    1    2    0    0  0.00000000000E+00  0.00000000000E+00  0.16207564691E+04  0.40401903084E+04  0.37008493884E+04 0.  0.
        4    1    3    3  502    0  0.14710335732E+03 -0.56600660001E+03  0.27269339712E+04  0.27889376768E+04  0.12699999809E+01 0. -1.
       -4    1    3    3    0  502 -0.14710335732E+03  0.56600660001E+03 -0.11061775021E+04  0.12512526316E+04  0.12699999809E+01 0.  1.
</event>
<event>
 5   0  0.1825308E-08  0.3710050E+04  0.7818609E-02  0.8065738E-01
       -2   -1    0    0    0  501  0.00000000000E+00  0.00000000000E+00  0.16314712531E+04  0.16314712531E+04  0.25500000920E-02 0. -1.
        2   -1    0    0  501    0  0.00000000000E+00  0.00000000000E+00 -0.21092118086E+04  0.21092118086E+04  0.25500000920E-02 0.  1.
    10030    2    1    2    0    0  0.00000000000E+00  0.00000000000E+00 -0.47774055553E+03  0.37406830617E+04  0.37100503676E+04 0.  0.
        4    1    3    3  502    0 -0.30937241466E+03  0.17985409769E+04 -0.57426665076E+03  0.19131766085E+04  0.12699999809E+01 0.  1.
       -4    1    3    3    0  502  0.30937241466E+03 -0.17985409769E+04  0.96526095229E+02  0.18275064532E+04  0.12699999809E+01 0. -1.
</event>
<event>
 5   0  0.1856107E-08  0.3699951E+04  0.7818609E-02  0.8067973E-01
        2   -1    0    0  501    0  0.00000000000E+00  0.00000000000E+00  0.21804716519E+04  0.21804716520E+04  0.25500000920E-02 0. -1.
       -2   -1    0    0    0  501  0.00000000000E+00  0.00000000000E+00 -0.15695728636E+04  0.15695728636E+04  0.25500000920E-02 0.  1.
    10030    2    1    2    0    0  0.00000000000E+00  0.00000000000E+00  0.61089878832E+03  0.37500445156E+04  0.36999508834E+04 0.  0.
        2    1    3    3  502    0  0.15342778950E+04 -0.13409422520E+03  0.13442251212E+04  0.20442434045E+04  0.25500000920E-02 0. -1.
       -2    1    3    3    0  502 -0.15342778950E+04  0.13409422520E+03 -0.73332633289E+03  0.17058011111E+04  0.25500000920E-02 0.  1.
</event>
<event>
 5   0  0.5714125E-09  0.3701100E+04  0.7818609E-02  0.8067718E-01
        1   -1    0    0  501    0  0.00000000000E+00  0.00000000000E+00  0.17516358952E+04  0.17516358952E+04  0.50400001928E-02 0. -1.
       -1   -1    0    0    0  501  0.00000000000E+00  0.00000000000E+00 -0.19550500671E+04  0.19550500671E+04  0.50400001928E-02 0.  1.
    10030    2    1    2    0    0  0.00000000000E+00  0.00000000000E+00 -0.20341417191E+03  0.37066859623E+04  0.37011003091E+04 0.  0.
        5    1    3    3  502    0 -0.32074302374E+03  0.43660314009E+03 -0.18738450894E+04  0.19505937297E+04  0.46999998093E+01 0.  1.
       -5    1    3    3    0  502  0.32074302374E+03 -0.43660314009E+03  0.16704309175E+04  0.17560922326E+04  0.46999998093E+01 0. -1.
</event>
<event>
 5   0  0.1740290E-08  0.3700890E+04  0.7818609E-02  0.8067765E-01
        2   -1    0    0  501    0  0.00000000000E+00  0.00000000000E+00  0.28994595675E+04  0.28994595675E+04  0.25500000920E-02 0.  1.
       -2   -1    0    0    0  501  0.00000000000E+00  0.00000000000E+00 -0.11809601418E+04  0.11809601418E+04  0.25500000920E-02 0. -1.
    10030    2    1    2    0    0  0.00000000000E+00  0.00000000000E+00  0.17184994257E+04  0.40804197093E+04  0.37008897211E+04 0.  0.
        5    1    3    3  502    0  0.10390773651E+04  0.11973826251E+04  0.19114307120E+04  0.24833437898E+04  0.46999998093E+01 0.  1.
       -5    1    3    3    0  502 -0.10390773651E+04 -0.11973826251E+04 -0.19293128630E+03  0.15970759195E+04  0.46999998093E+01 0. -1.
</event>
<event>
 5   0  0.1856107E-08  0.3699514E+04  0.7818609E-02  0.8068070E-01
        2   -1    0    0  501    0  0.00000000000E+00  0.00000000000E+00  0.22625428277E+04  0.22625428277E+04  0.25500000920E-02 0. -1.
       -2   -1    0    0    0  501  0.00000000000E+00  0.00000000000E+00 -0.15122811531E+04  0.15122811531E+04  0.25500000920E-02 0.  1.
    10030    2    1    2    0    0  0.00000000000E+00  0.00000000000E+00  0.75026167456E+03  0.37748239809E+04  0.36995139554E+04 0.  0.
        2    1    3    3  502    0 -0.60514059698E+03  0.28139246066E+03  0.21354233591E+04  0.22372773144E+04  0.25500000920E-02 0. -1.
       -2    1    3    3    0  502  0.60514059698E+03 -0.28139246066E+03 -0.13851616846E+04  0.15375466664E+04  0.25500000920E-02 0.  1.
</event>
<event>
 5   0  0.1740290E-08  0.3699240E+04  0.7818609E-02  0.8068130E-01
        2   -1    0    0  501    0  0.00000000000E+00  0.00000000000E+00  0.23394717950E+04  0.23394717950E+04  0.25500000920E-02 0.  1.
       -2   -1    0    0    0  501  0.00000000000E+00  0.00000000000E+00 -0.14623362573E+04  0.14623362573E+04  0.25500000920E-02 0. -1.
    10030    2    1    2    0    0  0.00000000000E+00  0.00000000000E+00  0.87713553766E+03  0.38018080523E+04  0.36992401537E+04 0.  0.
        5    1    3    3  502    0 -0.17871744153E+03  0.18237795560E+04  0.69644434918E+03  0.19604001159E+04  0.46999998093E+01 0.  1.
       -5    1    3    3    0  502  0.17871744153E+03 -0.18237795560E+04  0.18069118849E+03  0.18414079364E+04  0.46999998093E+01 0. -1.
</event>
<event>
 5   0  0.5714125E-09  0.3699380E+04  0.7818609E-02  0.8068099E-01
        1   -1    0    0  501    0  0.00000000000E+00  0.00000000000E+00  0.23839740256E+04  0.23839740257E+04  0.50400001928E-02 0. -1.
       -1   -1    0    0    0  501  0.00000000000E+00  0.00000000000E+00 -0.14351472045E+04  0.14351472045E+04  0.50400001928E-02 0.  1.
    10030    2    1    2    0    0  0.00000000000E+00  0.00000000000E+00  0.94882682120E+03  0.38191212301E+04  0.36993803040E+04 0.  0.
        3    1    3    3  502    0  0.16752254568E+04 -0.47017545667E+03  0.11223493380E+04  0.20705345536E+04  0.10100000352E+00 0.  1.
       -3    1    3    3    0  502 -0.16752254568E+04  0.47017545667E+03 -0.17352251679E+03  0.17485866765E+04  0.10100000352E+00 0. -1.
</event>
<event>
 5   0  0.1725865E-08  0.3699563E+04  0.7818609E-02  0.8068059E-01
        2   -1    0    0  501    0  0.00000000000E+00  0.00000000000E+00  0.21113596446E+04  0.21113596447E+04  0.25500000920E-02 0. -1.
       -2   -1    0    0    0  501  0.00000000000E+00  0.00000000000E+00 -0.16206101402E+04  0.16206101402E+04  0.25500000920E-02 0.  1.
    10030    2    1    2    0    0  0.00000000000E+00  0.00000000000E+00  0.49074950448E+03  0.37319697848E+04  0.36995625956E+04 0.  0.
        1    1    3    3  502    0  0.16431252227E+04  0.48888216040E+03  0.94631730700E+03  0.19581579890E+04  0.50400001928E-02 0. -1.
       -1    1    3    3    0  502 -0.16431252227E+04 -0.48888216040E+03 -0.45556780252E+03  0.17738117958E+04  0.50400001928E-02 0.  1.
</event>
<event>
 5   0  0.5714125E-09  0.3700884E+04  0.7818609E-02  0.8067766E-01
        1   -1    0    0  501    0  0.00000000000E+00  0.00000000000E+00  0.19999485869E+04  0.19999485869E+04  0.50400001928E-02 0. -1.
       -1   -1    0    0    0  501  0.00000000000E+00  0.00000000000E+00 -0.17121114188E+04  0.17121114188E+04  0.50400001928E-02 0.  1.
    10030    2    1    2    0    0  0.00000000000E+00  0.00000000000E+00  0.28783716809E+03  0.37120600056E+04  0.37008835769E+04 0.  0.
        3    1    3    3  502    0  0.62129318591E+03 -0.17416070697E+04  0.73461203779E+02  0.18505666610E+04  0.10100000352E+00 0.  1.
       -3    1    3    3    0  502 -0.62129318591E+03  0.17416070697E+04  0.21437596431E+03  0.18614933447E+04  0.10100000352E+00 0. -1.
</event>
<event>
 5   0  0.1856107E-08  0.3697863E+04  0.7818609E-02  0.8068436E-01
        2   -1    0    0  501    0  0.00000000000E+00  0.00000000000E+00  0.18577564212E+04  0.18577564212E+04  0.25500000920E-02 0.  1.
       -2   -1    0    0    0  501  0.00000000000E+00  0.00000000000E+00 -0.18401485314E+04  0.18401485314E+04  0.25500000920E-02 0. -1.
    10030    2    1    2    0    0  0.00000000000E+00  0.00000000000E+00  0.17607889765E+02  0.36979049526E+04  0.36978630316E+04 0.  0.
        2    1    3    3  502    0  0.16122141364E+04 -0.84877800772E+02  0.90998511465E+03  0.18532435273E+04  0.25500000920E-02 0. -1.
       -2    1    3    3    0  502 -0.16122141364E+04  0.84877800772E+02 -0.89237722488E+03  0.18446614253E+04  0.25500000920E-02 0.  1.
</event>
<event>
 5   0  0.1757996E-08  0.3699848E+04  0.7818609E-02  0.8067995E-01
        2   -1    0    0  501    0  0.00000000000E+00  0.00000000000E+00  0.19311042635E+04  0.19311042635E+04  0.25500000920E-02 0. -1.
       -2   -1    0    0    0  501  0.00000000000E+00  0.00000000000E+00 -0.17721567968E+04  0.17721567968E+04  0.25500000920E-02 0.  1.
    10030    2    1    2    0    0  0.00000000000E+00  0.00000000000E+00  0.15894746671E+03  0.37032610603E+04  0.36998484001E+04 0.  0.
        3    1    3    3  502    0 -0.14951176808E+04 -0.30232212068E+03 -0.96812626250E+03  0.18066665477E+04  0.10100000352E+00 0.  1.
       -3    1    3    3    0  502  0.14951176808E+04  0.30232212068E+03  0.11270737292E+04  0.18965945126E+04  0.10100000352E+00 0. -1.
</event>
<event>
 5   0  0.1725865E-08  0.3701240E+04  0.7818609E-02  0.8067687E-01
       -2   -1    0    0    0  501  0.00000000000E+00  0.00000000000E+00  0.30148059372E+04  0.30148059372E+04  0.25500000920E-02 0. -1.
        2   -1    0    0  501    0  0.00000000000E+00  0.00000000000E+00 -0.11359919577E+04  0.11359919577E+04  0.25500000920E-02 0.  1.
    10030    2    1    2    0    0  0.00000000000E+00  0.00000000000E+00  0.18788139794E+04  0.41507978949E+04  0.37012404941E+04 0.  0.
        1    1    3    3  502    0  0.66882310749E+03  0.14989749835E+04 -0.19127521335E+02  0.16415286207E+04  0.50400001928E-02 0.  1.
       -1    1    3    3    0  502 -0.66882310749E+03 -0.14989749835E+04  0.18979415008E+04  0.25092692743E+04  0.50400001928E-02 0. -1.
</event>
<event>
 5   0  0.1740290E-08  0.3699956E+04  0.7818609E-02  0.8067971E-01
        2   -1    0    0  501    0  0.00000000000E+00  0.00000000000E+00  0.22374894332E+04  0.22374894332E+04  0.25500000920E-02 0. -1.
       -2   -1    0    0    0  501  0.00000000000E+00  0.00000000000E+00 -0.15295801015E+04  0.15295801015E+04  0.25500000920E-02 0.  1.
    10030    2    1    2    0    0  0.00000000000E+00  0.00000000000E+00  0.70790933173E+03  0.37670695347E+04  0.36999563858E+04 0.  0.
        5    1    3    3  502    0  0.11438158697E+04 -0.12552981080E+04 -0.39304930286E+03  0.17431574593E+04  0.46999998093E+01 0. -1.
       -5    1    3    3    0  502 -0.11438158697E+04  0.12552981080E+04  0.11009586346E+04  0.20239120753E+04  0.46999998093E+01 0.  1.
</event>
<event>
 5   0  0.5714125E-09  0.3699105E+04  0.7818609E-02  0.8068160E-01
        1   -1    0    0  501    0  0.00000000000E+00  0.00000000000E+00  0.16197493288E+04  0.16197493288E+04  0.50400001928E-02 0.  1.
       -1   -1    0    0    0  501  0.00000000000E+00  0.00000000000E+00 -0.21119589147E+04  0.21119589147E+04  0.50400001928E-02 0. -1.
    10030    2    1    2    0    0  0.00000000000E+00  0.00000000000E+00 -0.49220958591E+03  0.37317082435E+04  0.36991047752E+04 0.  0.
        4    1    3    3  502    0 -0.15792054986E+04  0.60192072598E+03 -0.10041556657E+04  0.19658404770E+04  0.12699999809E+01 0. -1.
       -4    1    3    3    0  502  0.15792054986E+04 -0.60192072598E+03  0.51194607978E+03  0.17658677665E+04  0.12699999809E+01 0.  1.
</event>
<event>
 5   0  0.5714125E-09  0.3700868E+04  0.7818609E-02  0.8067770E-01
        1   -1    0    0  501    0  0.00000000000E+00  0.00000000000E+00  0.18289032088E+04  0.18289032088E+04  0.50400001928E-02 0. -1.
       -1   -1    0    0    0  501  0.00000000000E+00  0.00000000000E+00 -0.18722178410E+04  0.18722178410E+04  0.50400001928E-02 0.  1.
    10030    2    1    2    0    0  0.00000000000E+00  0.00000000000E+00 -0.43314632189E+02  0.37011210497E+04  0.37008675831E+04 0.  0.
        5    1    3    3  502    0  0.96938345078E+03 -0.15729117587E+04  0.79973713706E+02  0.18493711256E+04  0.46999998093E+01 0.  1.
       -5    1    3    3    0  502 -0.96938345078E+03  0.15729117587E+04 -0.12328834589E+03  0.18517499241E+04  0.46999998093E+01 0. -1.
</event>
<event>
 5   0  0.1825308E-08  0.3700921E+04  0.7818609E-02  0.8067758E-01
        2   -1    0    0  501    0  0.00000000000E+00  0.00000000000E+00  0.19434384318E+04  0.19434384318E+04  0.25500000920E-02 0.  1.
       -2   -1    0    0    0  501  0.00000000000E+00  0.00000000000E+00 -0.17619305440E+04  0.17619305440E+04  0.25500000920E-02 0. -1.
    10030    2    1    2    0    0  0.00000000000E+00  0.00000000000E+00  0.18150788788E+03  0.37053689758E+04  0.37009207143E+04 0.  0.
        4    1    3    3  502    0  0.14639866887E+04 -0.30136787534E+03  0.11829924322E+04  0.19061879048E+04  0.12699999809E+01 0.  1.
       -4    1    3    3    0  502 -0.14639866887E+04  0.30136787534E+03 -0.10014845443E+04  0.17991810710E+04  0.12699999809E+01 0. -1.
</event>
<event>
 5   0  0.5714125E-09  0.3699150E+04  0.7818609E-02  0.8068150E-01
        1   -1    0    0  501    0  0.00000000000E+00  0.00000000000E+00  0.21578480230E+04  0.21578480230E+04  0.50400001928E-02 0. -1.
       -1   -1    0    0    0  501  0.00000000000E+00  0.00000000000E+00 -0.15853423503E+04  0.15853423504E+04  0.50400001928E-02 0.  1.
    10030    2    1    2    0    0  0.00000000000E+00  0.00000000000E+00  0.57250567265E+03  0.37431903734E+04  0.36991500951E+04 0.  0.
        4    1    3    3  502    0  0.16686518801E+04 -0.14944291263E+03 -0.50678285463E+03  0.17503036181E+04  0.12699999809E+01 0. -1.
       -4    1    3    3    0  502 -0.16686518801E+04  0.14944291263E+03  0.10792885273E+04  0.19928867552E+04  0.12699999809E+01 0.  1.
</event>
<event>
 5   0  0.5714125E-09  0.3699077E+04  0.7818609E-02  0.8068166E-01
        1   -1    0    0  501    0  0.00000000000E+00  0.00000000000E+00  0.15292628339E+04  0.15292628339E+04  0.50400001928E-02 0. -1.
       -1   -1    0    0    0  501  0.00000000000E+00  0.00000000000E+00 -0.22368904924E+04  0.22368904924E+04  0.50400001928E-02 0.  1.
    10030    2    1    2    0    0  0.00000000000E+00  0.00000000000E+00 -0.70762765853E+03  0.37661533263E+04  0.36990774491E+04 0.  0.
        1    1    3    3  502    0 -0.26473664990E+03  0.17341843232E+04  0.24273984912E+03  0.17709893831E+04  0.50400001928E-02 0. -1.
       -1    1    3    3    0  502  0.26473664990E+03 -0.17341843232E+04 -0.95036750765E+03  0.19951639432E+04  0.50400001928E-02 0.  1.
</event>
<event>
 5   0  0.1725865E-08  0.3699102E+04  0.7818609E-02  0.8068161E-01
       -2   -1    0    0    0  501  0.00000000000E+00  0.00000000000E+00  0.21905212212E+04  0.21905212212E+04  0.25500000920E-02 0.  1.
        2   -1    0    0  501    0  0.00000000000E+00  0.00000000000E+00 -0.15616551923E+04  0.15616551923E+04  0.25500000920E-02 0. -1.
    10030    2    1    2    0    0  0.00000000000E+00  0.00000000000E+00  0.62886602885E+03  0.37521764135E+04  0.36991019661E+04 0.  0.
        1    1    3    3  502    0 -0.44511243525E+03  0.87381051868E+03 -0.12762407876E+04  0.16094907426E+04  0.50400001928E-02 0. -1.
       -1    1    3    3    0  502  0.44511243525E+03 -0.87381051868E+03  0.19051068164E+04  0.21426856710E+04  0.50400001928E-02 0.  1.
</event>
<event>
 5   0  0.5714125E-09  0.3702002E+04  0.7818609E-02  0.8067518E-01
       -1   -1    0    0    0  501  0.00000000000E+00  0.00000000000E+00  0.19922598804E+04  0.19922598804E+04  0.50400001928E-02 0.  1.
        1   -1    0    0  501    0  0.00000000000E+00  0.00000000000E+00 -0.17197579450E+04  0.17197579450E+04  0.50400001928E-02 0. -1.
    10030    2    1    2    0    0  0.00000000000E+00  0.00000000000E+00  0.27250193543E+03  0.37120178254E+04  0.37020020301E+04 0.  0.
        5    1    3    3  502    0  0.11574229742E+04 -0.13073938729E+04 -0.47963879130E+03  0.18107959964E+04  0.46999998093E+01 0. -1.
       -5    1    3    3    0  502 -0.11574229742E+04  0.13073938729E+04  0.75214072673E+03  0.19012218290E+04  0.46999998093E+01 0.  1.
</event>
<event>
 5   0  0.1825308E-08  0.3700842E+04  0.7818609E-02  0.8067775E-01
       -2   -1    0    0    0  501  0.00000000000E+00  0.00000000000E+00  0.13028159331E+04  0.13028159331E+04  0.25500000920E-02 0.  1.
        2   -1    0    0  501    0  0.00000000000E+00  0.00000000000E+00 -0.26281975504E+04  0.26281975504E+04  0.25500000920E-02 0. -1.
    10030    2    1    2    0    0  0.00000000000E+00  0.00000000000E+00 -0.13253816173E+04  0.39310134834E+04  0.37008418739E+04 0.  0.
        4    1    3    3  502    0 -0.15608451652E+04  0.97931033571E+03 -0.48252539335E+03  0.19047621194E+04  0.12699999809E+01 0. -1.
       -4    1    3    3    0  502  0.15608451652E+04 -0.97931033571E+03 -0.84285622393E+03  0.20262513641E+04  0.12699999809E+01 0.  1.
</event>
<event>
 5   0  0.1725865E-08  0.3699528E+04  0.7818609E-02  0.8068066E-01
        2   -1    0    0  501    0  0.00000000000E+00  0.00000000000E+00  0.24757891569E+04  0.24757891569E+04  0.25500000920E-02 0. -1.
       -2   -1    0    0    0  501  0.00000000000E+00  0.00000000000E+00 -0.13820349274E+04  0.13820349274E+04  0.25500000920E-02 0.  1.
    10030    2    1    2    0    0  0.00000000000E+00  0.00000000000E+00  0.10937542295E+04  0.38578240843E+04  0.36995281255E+04 0.  0.
        1    1    3    3  502    0 -0.13069993335E+03 -0.17078722500E+04 -0.18137210905E+03  0.17224418530E+04  0.50400001928E-02 0.  1.
       -1    1    3    3    0  502  0.13069993335E+03  0.17078722500E+04  0.12751263385E+04  0.21353822314E+04  0.50400001928E-02 0. -1.
</event>
<event>
 5   0  0.1757996E-08  0.3701422E+04  0.7818609E-02  0.8067647E-01
        2   -1    0    0  501    0  0.00000000000E+00  0.00000000000E+00  0.13683180861E+04  0.13683180861E+04  0.25500000920E-02 0.  1.
       -2   -1    0    0    0  501  0.00000000000E+00  0.00000000000E+00 -0.25031691677E+04  0.25031691677E+04  0.25500000920E-02 0. -1.
    10030    2    1    2    0    0  0.00000000000E+00  0.00000000000E+00 -0.11348510816E+04  0.38714872538E+04  0.37014222373E+04 0.  0.
        3    1    3    3  502    0  0.15375838249E+04  0.97796451707E+03 -0.22922251123E+03  0.18366059961E+04  0.10100000352E+00 0. -1.
       -3    1    3    3    0  502 -0.15375838249E+04 -0.97796451707E+03 -0.90562857035E+03  0.20348812577E+04  0.10100000352E+00 0.  1.
</event>
<event>
 5   0  0.1856107E-08  0.3704090E+04  0.7818609E-02  0.8067056E-01
       -2   -1    0    0    0  501  0.00000000000E+00  0.00000000000E+00  0.12294539404E+04  0.12294539404E+04  0.25500000920E-02 0.  1.
        2   -1    0    0  501    0  0.00000000000E+00  0.00000000000E+00 -0.27899135493E+04  0.27899135493E+04  0.25500000920E-02 0. -1.
    10030    2    1    2    0    0  0.00000000000E+00  0.00000000000E+00 -0.15604596089E+04  0.40193674898E+04  0.37040897434E+04 0.  0.
        2    1    3    3  502    0  0.31169729636E+03 -0.10149372827E+04  0.86643786323E+03  0.13703895298E+04  0.25500000920E-02 0.  1.
       -2    1    3    3    0  502 -0.31169729636E+03  0.10149372827E+04 -0.24268974721E+04  0.26489779600E+04  0.25500000920E-02 0. -1.
</event>
<event>
 5   0  0.1725865E-08  0.3706915E+04  0.7818609E-02  0.8066431E-01
       -2   -1    0    0    0  501  0.00000000000E+00  0.00000000000E+00  0.33156384350E+04  0.33156384350E+04  0.25500000920E-02 0.  1.
        2   -1    0    0  501    0  0.00000000000E+00  0.00000000000E+00 -0.10360912943E+04  0.10360912943E+04  0.25500000920E-02 0. -1.
    10030    2    1    2    0    0  0.00000000000E+00  0.00000000000E+00  0.22795471407E+04  0.43517297292E+04  0.37069146833E+04 0.  0.
        1    1    3    3  502    0  0.11788204014E+04 -0.50991488654E+03  0.27085112840E+04  0.29976097321E+04  0.50400001928E-02 0.  1.
       -1    1    3    3    0  502 -0.11788204014E+04  0.50991488654E+03 -0.42896414333E+03  0.13541199971E+04  0.50400001928E-02 0. -1.
</event>
<event>
 5   0  0.1757996E-08  0.3699064E+04  0.7818609E-02  0.8068169E-01
       -2   -1    0    0    0  501  0.00000000000E+00  0.00000000000E+00  0.11480195132E+04  0.11480195132E+04  0.25500000920E-02 0. -1.
        2   -1    0    0  501    0  0.00000000000E+00  0.00000000000E+00 -0.29797135297E+04  0.29797135297E+04  0.25500000920E-02 0.  1.
    10030    2    1    2    0    0  0.00000000000E+00  0.00000000000E+00 -0.18316940165E+04  0.41277330429E+04  0.36990643551E+04 0.  0.
        3    1    3    3  502    0 -0.89605921697E+03 -0.15274242044E+04 -0.15113813634E+04  0.23281366919E+04  0.10100000352E+00 0.  1.
       -3    1    3    3    0  502  0.89605921697E+03  0.15274242044E+04 -0.32031265313E+03  0.17995963510E+04  0.10100000352E+00 0. -1.
</event>
<event>
 5   0  0.1856107E-08  0.3698401E+04  0.7818609E-02  0.8068316E-01
       -2   -1    0    0    0  501  0.00000000000E+00  0.00000000000E+00  0.21558004029E+04  0.21558004029E+04  0.25500000920E-02 0.  1.
        2   -1    0    0  501    0  0.00000000000E+00  0.00000000000E+00 -0.15862059112E+04  0.15862059112E+04  0.25500000920E-02 0. -1.
    10030    2    1    2    0    0  0.00000000000E+00  0.00000000000E+00  0.56959449166E+03  0.37420063142E+04  0.36984014615E+04 0.  0.
        2    1    3    3  502    0 -0.56174320781E+02 -0.17799737702E+04 -0.21915265143E+03  0.17942937500E+04  0.25500000920E-02 0. -1.
       -2    1    3    3    0  502  0.56174320781E+02  0.17799737702E+04  0.78874714309E+03  0.19477125641E+04  0.25500000920E-02 0.  1.
</event>
<event>
 5   0  0.5714125E-09  0.3698915E+04  0.7818609E-02  0.8068202E-01
       -1   -1    0    0    0  501  0.00000000000E+00  0.00000000000E+00  0.19379669483E+04  0.19379669483E+04  0.50400001928E-02 0.  1.
        1   -1    0    0  501    0  0.00000000000E+00  0.00000000000E+00 -0.17649903709E+04  0.17649903709E+04  0.50400001928E-02 0. -1.
    10030    2    1    2    0    0  0.00000000000E+00  0.00000000000E+00  0.17297657744E+03  0.37029573192E+04  0.36989149776E+04 0.  0.
        3    1    3    3  502    0 -0.48679265533E+03  0.16148452777E+04  0.84613283858E+03  0.18869640036E+04  0.10100000352E+00 0.  1.
       -3    1    3    3    0  502  0.48679265533E+03 -0.16148452777E+04 -0.67315626114E+03  0.18159933156E+04  0.10100000352E+00 0. -1.
</event>
<event>
 5   0  0.5714125E-09  0.3700629E+04  0.7818609E-02  0.8067822E-01
        1   -1    0    0  501    0  0.00000000000E+00  0.00000000000E+00  0.23123606854E+04  0.23123606854E+04  0.50400001928E-02 0. -1.
       -1   -1    0    0    0  501  0.00000000000E+00  0.00000000000E+00 -0.14805923623E+04  0.14805923623E+04  0.50400001928E-02 0.  1.
    10030    2    1    2    0    0  0.00000000000E+00  0.00000000000E+00  0.83176832314E+03  0.37929530477E+04  0.37006289031E+04 0.  0.
        1    1    3    3  502    0 -0.42562522463E+03 -0.56093226861E+03  0.21696726357E+04  0.22810701847E+04  0.50400001928E-02 0. -1.
       -1    1    3    3    0  502  0.42562522463E+03  0.56093226861E+03 -0.13379043125E+04  0.15118828630E+04  0.50400001928E-02 0.  1.
</event>
<event>
 5   0  0.1825308E-08  0.3702046E+04  0.7818609E-02  0.8067509E-01
        2   -1    0    0  501    0  0.00000000000E+00  0.00000000000E+00  0.15333786650E+04  0.15333786650E+04  0.25500000920E-02 0. -1.
       -2   -1    0    0    0  501  0.00000000000E+00  0.00000000000E+00 -0.22344680044E+04  0.22344680044E+04  0.25500000920E-02 0.  1.
    10030    2    1    2    0    0  0.00000000000E+00  0.00000000000E+00 -0.70108933944E+03  0.37678466694E+04  0.37020456861E+04 0.  0.
        4    1    3    3  502    0  0.24329467555E+03 -0.64836327770E+03 -0.20976562419E+04  0.22090112179E+04  0.12699999809E+01 0.  1.
       -4    1    3    3    0  502 -0.24329467555E+03  0.64836327770E+03  0.13965669024E+04  0.15588354515E+04  0.12699999809E+01 0. -1.
</event>
<event>
 5   0  0.1740290E-08  0.3700487E+04  0.7818609E-02  0.8067854E-01
       -2   -1    0    0    0  501  0.00000000000E+00  0.00000000000E+00  0.16695117717E+04  0.16695117717E+04  0.25500000920E-02 0.  1.
        2   -1    0    0  501    0  0.00000000000E+00  0.00000000000E+00 -0.20505400736E+04  0.20505400736E+04  0.25500000920E-02 0. -1.
    10030    2    1    2    0    0  0.00000000000E+00  0.00000000000E+00 -0.38102830183E+03  0.37200518453E+04  0.37004868821E+04 0.  0.
        5    1    3    3  502    0  0.13784518263E+03 -0.13176574565E+04  0.11078857838E+04  0.17270366142E+04  0.46999998093E+01 0.  1.
       -5    1    3    3    0  502 -0.13784518263E+03  0.13176574565E+04 -0.14889140856E+04  0.19930152311E+04  0.46999998093E+01 0. -1.
</event>
<event>
 5   0  0.1740290E-08  0.3699428E+04  0.7818609E-02  0.8068089E-01
        2   -1    0    0  501    0  0.00000000000E+00  0.00000000000E+00  0.17328049112E+04  0.17328049112E+04  0.25500000920E-02 0.  1.
       -2   -1    0    0    0  501  0.00000000000E+00  0.00000000000E+00 -0.19745111248E+04  0.19745111248E+04  0.25500000920E-02 0. -1.
    10030    2    1    2    0    0  0.00000000000E+00  0.00000000000E+00 -0.24170621361E+03  0.37073160359E+04  0.36994283743E+04 0.  0.
        5    1    3    3  502    0 -0.47273968225E+03  0.87935994343E+03 -0.16813063055E+04  0.19553950241E+04  0.46999998093E+01 0. -1.
       -5    1    3    3    0  502  0.47273968225E+03 -0.87935994343E+03  0.14396000919E+04  0.17519210119E+04  0.46999998093E+01 0.  1.
</event>
<event>
 5   0  0.5714125E-09  0.3700697E+04  0.7818609E-02  0.8067807E-01
       -1   -1    0    0    0  501  0.00000000000E+00  0.00000000000E+00  0.15523123939E+04  0.15523123939E+04  0.50400001928E-02 0.  1.
        1   -1    0    0  501    0  0.00000000000E+00  0.00000000000E+00 -0.22056059803E+04  0.22056059803E+04  0.50400001928E-02 0. -1.
    10030    2    1    2    0    0  0.00000000000E+00  0.00000000000E+00 -0.65329358640E+03  0.37579183742E+04  0.37006969610E+04 0.  0.
        4    1    3    3  502    0 -0.13843705322E+04  0.11123665800E+04  0.20095083746E+03  0.17872392204E+04  0.12699999809E+01 0. -1.
       -4    1    3    3    0  502  0.13843705322E+04 -0.11123665800E+04 -0.85424442386E+03  0.19706791538E+04  0.12699999809E+01 0.  1.
</event>
<event>
 5   0  0.5714125E-09  0.3700754E+04  0.7818609E-02  0.8067795E-01
        1   -1    0    0  501    0  0.00000000000E+00  0.00000000000E+00  0.24004166718E+04  0.24004166718E+04  0.50400001928E-02 0.  1.
       -1   -1    0    0    0  501  0.00000000000E+00  0.00000000000E+00 -0.14263754995E+04  0.14263754995E+04  0.50400001928E-02 0. -1.
    10030    2    1    2    0    0  0.00000000000E+00  0.00000000000E+00  0.97404117233E+03  0.38267921713E+04  0.37007542632E+04 0.  0.
        5    1    3    3  502    0  0.55892235985E+03 -0.10645909418E+04 -0.96733811730E+03  0.15432152153E+04  0.46999998093E+01 0. -1.
       -5    1    3    3    0  502 -0.55892235985E+03  0.10645909418E+04  0.19413792896E+04  0.22835769560E+04  0.46999998093E+01 0.  1.
</event>
<event>
 5   0  0.1725865E-08  0.3697847E+04  0.7818609E-02  0.8068439E-01
        2   -1    0    0  501    0  0.00000000000E+00  0.00000000000E+00  0.17170204698E+04  0.17170204698E+04  0.25500000920E-02 0.  1.
       -2   -1    0    0    0  501  0.00000000000E+00  0.00000000000E+00 -0.19909592566E+04  0.19909592566E+04  0.25500000920E-02 0. -1.
    10030    2    1    2    0    0  0.00000000000E+00  0.00000000000E+00 -0.27393878683E+03  0.37079797264E+04  0.36978468319E+04 0.  0.
        1    1    3    3  502    0  0.89338857419E+03  0.96993013213E+03 -0.14365184650E+04  0.19499981810E+04  0.50400001928E-02 0. -1.
       -1    1    3    3    0  502 -0.89338857419E+03 -0.96993013213E+03  0.11625796782E+04  0.17579815454E+04  0.50400001928E-02 0.  1.
</event>
<event>
 5   0  0.1825308E-08  0.3705836E+04  0.7818609E-02  0.8066670E-01
        2   -1    0    0  501    0  0.00000000000E+00  0.00000000000E+00  0.12918547378E+04  0.12918547378E+04  0.25500000920E-02 0. -1.
       -2   -1    0    0    0  501  0.00000000000E+00  0.00000000000E+00 -0.26576556274E+04  0.26576556274E+04  0.25500000920E-02 0.  1.
    10030    2    1    2    0    0  0.00000000000E+00  0.00000000000E+00 -0.13658008896E+04  0.39495103652E+04  0.37058359455E+04 0.  0.
        4    1    3    3  502    0  0.10028862327E+04 -0.15556673369E+04 -0.59108621503E+03  0.19430044224E+04  0.12699999809E+01 0.  1.
       -4    1    3    3    0  502 -0.10028862327E+04  0.15556673369E+04 -0.77471467454E+03  0.20065059428E+04  0.12699999809E+01 0. -1.
</event>
<event>
 5   0  0.1856107E-08  0.3697969E+04  0.7818609E-02  0.8068412E-01
        2   -1    0    0  501    0  0.00000000000E+00  0.00000000000E+00  0.18307668266E+04  0.18307668266E+04  0.25500000920E-02 0.  1.
       -2   -1    0    0    0  501  0.00000000000E+00  0.00000000000E+00 -0.18673836632E+04  0.18673836632E+04  0.25500000920E-02 0. -1.
    10030    2    1    2    0    0  0.00000000000E+00  0.00000000000E+00 -0.36616836600E+02  0.36981504897E+04  0.36979692065E+04 0.  0.
        2    1    3    3  502    0 -0.18097275824E+04  0.23735678615E+03 -0.31377492268E+03  0.18520007745E+04  0.25500000920E-02 0.  1.
       -2    1    3    3    0  502  0.18097275824E+04 -0.23735678615E+03  0.27715808608E+03  0.18461497153E+04  0.25500000920E-02 0. -1.
</event>
<event>
 5   0  0.1856107E-08  0.3702905E+04  0.7818609E-02  0.8067318E-01
        2   -1    0    0  501    0  0.00000000000E+00  0.00000000000E+00  0.24791674491E+04  0.24791674491E+04  0.25500000920E-02 0. -1.
       -2   -1    0    0    0  501  0.00000000000E+00  0.00000000000E+00 -0.13826724662E+04  0.13826724662E+04  0.25500000920E-02 0.  1.
    10030    2    1    2    0    0  0.00000000000E+00  0.00000000000E+00  0.10964949829E+04  0.38618399153E+04  0.37029051141E+04 0.  0.
        2    1    3    3  502    0 -0.37177209360E+03  0.48753289496E+03 -0.12737261135E+04  0.14136056824E+04  0.25500000920E-02 0.  1.
       -2    1    3    3    0  502  0.37177209360E+03 -0.48753289496E+03  0.23702210964E+04  0.24482342329E+04  0.25500000920E-02 0. -1.
</event>
<event>
 5   0  0.5714125E-09  0.3708451E+04  0.7818609E-02  0.8066092E-01
        1   -1    0    0  501    0  0.00000000000E+00  0.00000000000E+00  0.12756540803E+04  0.12756540803E+04  0.50400001928E-02 0. -1.
       -1   -1    0    0    0  501  0.00000000000E+00  0.00000000000E+00 -0.26952067529E+04  0.26952067529E+04  0.50400001928E-02 0.  1.
    10030    2    1    2    0    0  0.00000000000E+00  0.00000000000E+00 -0.14195526726E+04  0.39708608332E+04  0.37084506153E+04 0.  0.
        2    1    3    3  502    0  0.64886855062E+03 -0.92830175775E+03 -0.22817808290E+04  0.25474101164E+04  0.25500000920E-02 0.  1.
       -2    1    3    3    0  502 -0.64886855062E+03  0.92830175775E+03  0.86222815642E+03  0.14234507168E+04  0.25500000920E-02 0. -1.
</event>
<event>
 5   0  0.5714125E-09  0.3704506E+04  0.7818609E-02  0.8066964E-01
        1   -1    0    0  501    0  0.00000000000E+00  0.00000000000E+00  0.16813262045E+04  0.16813262045E+04  0.50400001928E-02 0. -1.
       -1   -1    0    0    0  501  0.00000000000E+00  0.00000000000E+00 -0.20405561349E+04  0.20405561349E+04  0.50400001928E-02 0.  1.
    10030    2    1    2    0    0  0.00000000000E+00  0.00000000000E+00 -0.35922993035E+03  0.37218823394E+04  0.37045056357E+04 0.  0.
        3    1    3    3  502    0  0.13909995552E+04 -0.27684436380E+03  0.10173246024E+04  0.17454145414E+04  0.10100000352E+00 0. -1.
       -3    1    3    3    0  502 -0.13909995552E+04  0.27684436380E+03 -0.13765545328E+04  0.19764677980E+04  0.10100000352E+00 0.  1.
</event>
<event>
 5   0  0.1740290E-08  0.3701516E+04  0.7818609E-02  0.8067626E-01
        2   -1    0    0  501    0  0.00000000000E+00  0.00000000000E+00  0.25880513675E+04  0.25880513675E+04  0.25500000920E-02 0. -1.
       -2   -1    0    0    0  501  0.00000000000E+00  0.00000000000E+00 -0.13235076788E+04  0.13235076788E+04  0.25500000920E-02 0.  1.
    10030    2    1    2    0    0  0.00000000000E+00  0.00000000000E+00  0.12645436887E+04  0.39115590463E+04  0.37015163693E+04 0.  0.
        5    1    3    3  502    0 -0.44514941949E+03 -0.77864810261E+03 -0.10784912849E+04  0.14027175107E+04  0.46999998093E+01 0.  1.
       -5    1    3    3    0  502  0.44514941949E+03  0.77864810261E+03  0.23430349736E+04  0.25088415356E+04  0.46999998093E+01 0. -1.
</event>
<event>
 5   0  0.1725865E-08  0.3700302E+04  0.7818609E-02  0.8067895E-01
       -2   -1    0    0    0  501  0.00000000000E+00  0.00000000000E+00  0.13302750606E+04  0.13302750606E+04  0.25500000920E-02 0.  1.
        2   -1    0    0  501    0  0.00000000000E+00  0.00000000000E+00 -0.25731964195E+04  0.25731964195E+04  0.25500000920E-02 0. -1.
    10030    2    1    2    0    0  0.00000000000E+00  0.00000000000E+00 -0.12429213589E+04  0.39034714800E+04  0.37003021621E+04 0.  0.
        1    1    3    3  502    0 -0.68173744833E+03 -0.11153134075E+04  0.75976925981E+03  0.15119322979E+04  0.50400001928E-02 0.  1.
       -1    1    3    3    0  502  0.68173744833E+03  0.11153134075E+04 -0.20026906187E+04  0.23915391821E+04  0.50400001928E-02 0. -1.
</event>
<event>
 5   0  0.5714125E-09  0.3699378E+04  0.7818609E-02  0.8068100E-01
        1   -1    0    0  501    0  0.00000000000E+00  0.00000000000E+00  0.23987102670E+04  0.23987102670E+04  0.50400001928E-02 0. -1.
       -1   -1    0    0    0  501  0.00000000000E+00  0.00000000000E+00 -0.14263289331E+04  0.14263289331E+04  0.50400001928E-02 0.  1.
    10030    2    1    2    0    0  0.00000000000E+00  0.00000000000E+00  0.97238133389E+03  0.38250392001E+04  0.36993782483E+04 0.  0.
        4    1    3    3  502    0  0.12268998507E+04  0.58821712622E+03 -0.80939475444E+03  0.15831626930E+04  0.12699999809E+01 0.  1.
       -4    1    3    3    0  502 -0.12268998507E+04 -0.58821712622E+03  0.17817760883E+04  0.22418765071E+04  0.12699999809E+01 0. -1.
</event>
<event>
 5   0  0.5714125E-09  0.3703319E+04  0.7818609E-02  0.8067227E-01
       -1   -1    0    0    0  501  0.00000000000E+00  0.00000000000E+00  0.17541691491E+04  0.17541691491E+04  0.50400001928E-02 0.  1.
        1   -1    0    0  501    0  0.00000000000E+00  0.00000000000E+00 -0.19545681016E+04  0.19545681016E+04  0.50400001928E-02 0. -1.
    10030    2    1    2    0    0  0.00000000000E+00  0.00000000000E+00 -0.20039895250E+03  0.37087372507E+04  0.37033190863E+04 0.  0.
        3    1    3    3  502    0  0.44154236463E+01 -0.13702336202E+04 -0.13474465843E+04  0.19217627267E+04  0.10100000352E+00 0. -1.
       -3    1    3    3    0  502 -0.44154236463E+01  0.13702336202E+04  0.11470476318E+04  0.17869745241E+04  0.10100000352E+00 0.  1.
</event>
<event>
 5   0  0.1740290E-08  0.3697806E+04  0.7818609E-02  0.8068448E-01
        2   -1    0    0  501    0  0.00000000000E+00  0.00000000000E+00  0.22889126590E+04  0.22889126590E+04  0.25500000920E-02 0.  1.
       -2   -1    0    0    0  501  0.00000000000E+00  0.00000000000E+00 -0.14934786637E+04  0.14934786637E+04  0.25500000920E-02 0. -1.
    10030    2    1    2    0    0  0.00000000000E+00  0.00000000000E+00  0.79543399528E+03  0.37823913227E+04  0.36978059545E+04 0.  0.
        5    1    3    3  502    0  0.16890169552E+04 -0.44242540184E+03 -0.22439053033E+03  0.17603669252E+04  0.46999998093E+01 0. -1.
       -5    1    3    3    0  502 -0.16890169552E+04  0.44242540184E+03  0.10198245256E+04  0.20220243975E+04  0.46999998093E+01 0.  1.
</event>
<event>
 5   0  0.1740290E-08  0.3698593E+04  0.7818609E-02  0.8068274E-01
       -2   -1    0    0    0  501  0.00000000000E+00  0.00000000000E+00  0.13659952332E+04  0.13659952332E+04  0.25500000920E-02 0. -1.
        2   -1    0    0  501    0  0.00000000000E+00  0.00000000000E+00 -0.25035937860E+04  0.25035937860E+04  0.25500000920E-02 0.  1.
    10030    2    1    2    0    0  0.00000000000E+00  0.00000000000E+00 -0.11375985528E+04  0.38695890192E+04  0.36985928014E+04 0.  0.
        5    1    3    3  502    0 -0.17397938786E+04  0.62648425672E+03 -0.59242245025E+03  0.19417393527E+04  0.46999998093E+01 0. -1.
       -5    1    3    3    0  502  0.17397938786E+04 -0.62648425672E+03 -0.54517610252E+03  0.19278496666E+04  0.46999998093E+01 0.  1.
</event>
<event>
 5   0  0.1856107E-08  0.3700527E+04  0.7818609E-02  0.8067845E-01
       -2   -1    0    0    0  501  0.00000000000E+00  0.00000000000E+00  0.12900108062E+04  0.12900108062E+04  0.25500000920E-02 0.  1.
        2   -1    0    0  501    0  0.00000000000E+00  0.00000000000E+00 -0.26538346302E+04  0.26538346302E+04  0.25500000920E-02 0. -1.
    10030    2    1    2    0    0  0.00000000000E+00  0.00000000000E+00 -0.13638238240E+04  0.39438454363E+04  0.37005271790E+04 0.  0.
        2    1    3    3  502    0 -0.16034150457E+04 -0.80841376897E+03 -0.11573410487E+04  0.21363311854E+04  0.25500000920E-02 0. -1.
       -2    1    3    3    0  502  0.16034150457E+04  0.80841376897E+03 -0.20648277534E+03  0.18075142509E+04  0.25500000920E-02 0.  1.
</event>
<event>
 5   0  0.1825308E-08  0.3699596E+04  0.7818609E-02  0.8068051E-01
        2   -1    0    0  501    0  0.00000000000E+00  0.00000000000E+00  0.14950225264E+04  0.14950225264E+04  0.25500000920E-02 0. -1.
       -2   -1    0    0    0  501  0.00000000000E+00  0.00000000000E+00 -0.22887636066E+04  0.22887636066E+04  0.25500000920E-02 0.  1.
    10030    2    1    2    0    0  0.00000000000E+00  0.00000000000E+00 -0.79374108019E+03  0.37837861330E+04  0.36995962750E+04 0.  0.
        4    1    3    3  502    0  0.13691032833E+04 -0.11714062934E+04 -0.82486087501E+03  0.19816744386E+04  0.12699999809E+01 0.  1.
       -4    1    3    3    0  502 -0.13691032833E+04  0.11714062934E+04  0.31119794822E+02  0.18021116944E+04  0.12699999809E+01 0. -1.
</event>
<event>
 5   0  0.5714125E-09  0.3699164E+04  0.7818609E-02  0.8068147E-01
       -1   -1    0    0    0  501  0.00000000000E+00  0.00000000000E+00  0.13449121453E+04  0.13449121453E+04  0.50400001928E-02 0. -1.
        1   -1    0    0  501    0  0.00000000000E+00  0.00000000000E+00 -0.25436262954E+04  0.25436262954E+04  0.50400001928E-02 0.  1.
    10030    2    1    2    0    0  0.00000000000E+00  0.00000000000E+00 -0.11987141501E+04  0.38885384408E+04  0.36991641747E+04 0.  0.
        1    1    3    3  502    0  0.62914074147E+03  0.72489527612E+03  0.10626141181E+04  0.14319357520E+04  0.50400001928E-02 0. -1.
       -1    1    3    3    0  502 -0.62914074147E+03 -0.72489527612E+03 -0.22613282682E+04  0.24566026887E+04  0.50400001928E-02 0.  1.
</event>
<event>
 5   0  0.5714125E-09  0.3698080E+04  0.7818609E-02  0.8068387E-01
        1   -1    0    0  501    0  0.00000000000E+00  0.00000000000E+00  0.20874448206E+04  0.20874448206E+04  0.50400001928E-02 0. -1.
       -1   -1    0    0    0  501  0.00000000000E+00  0.00000000000E+00 -0.16378635184E+04  0.16378635184E+04  0.50400001928E-02 0.  1.
    10030    2    1    2    0    0  0.00000000000E+00  0.00000000000E+00  0.44958130217E+03  0.37253083390E+04  0.36980804309E+04 0.  0.
        1    1    3    3  502    0 -0.26180872124E+03  0.84651764044E+03  0.18596425126E+04  0.20599529598E+04  0.50400001928E-02 0. -1.
       -1    1    3    3    0  502  0.26180872124E+03 -0.84651764044E+03 -0.14100612104E+04  0.16653553792E+04  0.50400001928E-02 0.  1.
</event>
<event>
 5   0  0.5714125E-09  0.3700185E+04  0.7818609E-02  0.8067921E-01
       -1   -1    0    0    0  501  0.00000000000E+00  0.00000000000E+00  0.17494331317E+04  0.17494331317E+04  0.50400001928E-02 0. -1.
        1   -1    0    0  501    0  0.00000000000E+00  0.00000000000E+00 -0.19565431830E+04  0.19565431830E+04  0.50400001928E-02 0.  1.
    10030    2    1    2    0    0  0.00000000000E+00  0.00000000000E+00 -0.20711005127E+03  0.37059763147E+04  0.37001845727E+04 0.  0.
        5    1    3    3  502    0 -0.87427091184E+03  0.13319230192E+04  0.83836948045E+03  0.18003483086E+04  0.46999998093E+01 0. -1.
       -5    1    3    3    0  502  0.87427091184E+03 -0.13319230192E+04 -0.10454795317E+04  0.19056280061E+04  0.46999998093E+01 0.  1.
</event>
<event>
 5   0  0.1725865E-08  0.3700042E+04  0.7818609E-02  0.8067952E-01
        2   -1    0    0  501    0  0.00000000000E+00  0.00000000000E+00  0.12058073749E+04  0.12058073749E+04  0.25500000920E-02 0.  1.
       -2   -1    0    0    0  501  0.00000000000E+00  0.00000000000E+00 -0.28384120138E+04  0.28384120138E+04  0.25500000920E-02 0. -1.
    10030    2    1    2    0    0  0.00000000000E+00  0.00000000000E+00 -0.16326046388E+04  0.40442193887E+04  0.37000422372E+04 0.  0.
        1    1    3    3  502    0  0.29272525129E+03  0.11649744666E+04  0.72160587334E+03  0.14012739265E+04  0.50400001928E-02 0.  1.
       -1    1    3    3    0  502 -0.29272525129E+03 -0.11649744666E+04 -0.23542105122E+04  0.26429454622E+04  0.50400001928E-02 0. -1.
</event>
<event>
 5   0  0.1825308E-08  0.3699496E+04  0.7818609E-02  0.8068074E-01
       -2   -1    0    0    0  501  0.00000000000E+00  0.00000000000E+00  0.15133966495E+04  0.15133966495E+04  0.25500000920E-02 0. -1.
        2   -1    0    0  501    0  0.00000000000E+00  0.00000000000E+00 -0.22608529703E+04  0.22608529703E+04  0.25500000920E-02 0.  1.
    10030    2    1    2    0    0  0.00000000000E+00  0.00000000000E+00 -0.74745632078E+03  0.37742496198E+04  0.36994958090E+04 0.  0.
        4    1    3    3  502    0  0.12554084850E+04  0.50795867357E+02  0.10112505285E+04  0.16128421897E+04  0.12699999809E+01 0. -1.
       -4    1    3    3    0  502 -0.12554084850E+04 -0.50795867357E+02 -0.17587068493E+04  0.21614074301E+04  0.12699999809E+01 0.  1.
</event>
<event>
 5   0  0.5714125E-09  0.3700319E+04  0.7818609E-02  0.8067891E-01
       -1   -1    0    0    0  501  0.00000000000E+00  0.00000000000E+00  0.24916080596E+04  0.24916080596E+04  0.50400001928E-02 0. -1.
        1   -1    0    0  501    0  0.00000000000E+00  0.00000000000E+00 -0.13738476985E+04  0.13738476985E+04  0.50400001928E-02 0.  1.
    10030    2    1    2    0    0  0.00000000000E+00  0.00000000000E+00  0.11177603612E+04  0.38654557581E+04  0.37003189042E+04 0.  0.
        4    1    3    3  502    0  0.10293093954E+04 -0.38804016476E+03  0.21128970592E+04  0.23820975203E+04  0.12699999809E+01 0. -1.
       -4    1    3    3    0  502 -0.10293093954E+04  0.38804016476E+03 -0.99513669800E+03  0.14833582378E+04  0.12699999809E+01 0.  1.
</event>
<event>
 5   0  0.5714125E-09  0.3699979E+04  0.7818609E-02  0.8067966E-01
       -1   -1    0    0    0  501  0.00000000000E+00  0.00000000000E+00  0.12463394346E+04  0.12463394346E+04  0.50400001928E-02 0.  1.
        1   -1    0    0  501    0  0.00000000000E+00  0.00000000000E+00 -0.27460104576E+04  0.27460104576E+04  0.50400001928E-02 0. -1.
    10030    2    1    2    0    0  0.00000000000E+00  0.00000000000E+00 -0.14996710230E+04  0.39923498922E+04  0.36999789843E+04 0.  0.
        5    1    3    3  502    0 -0.16427439973E+03 -0.28949051863E+03  0.12137573104E+04  0.12585784589E+04  0.46999998093E+01 0.  1.
       -5    1    3    3    0  502  0.16427439973E+03  0.28949051863E+03 -0.27134283334E+04  0.27337714332E+04  0.46999998093E+01 0. -1.
</event>
<event>
 5   0  0.1725865E-08  0.3699546E+04  0.7818609E-02  0.8068063E-01
       -2   -1    0    0    0  501  0.00000000000E+00  0.00000000000E+00  0.23782675039E+04  0.23782675039E+04  0.25500000920E-02 0.  1.
        2   -1    0    0  501    0  0.00000000000E+00  0.00000000000E+00 -0.14387193671E+04  0.14387193671E+04  0.25500000920E-02 0. -1.
    10030    2    1    2    0    0  0.00000000000E+00  0.00000000000E+00  0.93954813674E+03  0.38169868710E+04  0.36995456575E+04 0.  0.
        1    1    3    3  502    0 -0.12286303300E+04  0.12623314914E+04 -0.11263304541E+03  0.17651344099E+04  0.50400001928E-02 0. -1.
       -1    1    3    3    0  502  0.12286303300E+04 -0.12623314914E+04  0.10521811821E+04  0.20518524611E+04  0.50400001928E-02 0.  1.
</event>
<event>
 5   0  0.5714125E-09  0.3699584E+04  0.7818609E-02  0.8068054E-01
        1   -1    0    0  501    0  0.00000000000E+00  0.00000000000E+00  0.16370977242E+04  0.16370977242E+04  0.50400001928E-02 0.  1.
       -1   -1    0    0    0  501  0.00000000000E+00  0.00000000000E+00 -0.20901195425E+04  0.20901195425E+04  0.50400001928E-02 0. -1.
    10030    2    1    2    0    0  0.00000000000E+00  0.00000000000E+00 -0.45302181830E+03  0.37272172667E+04  0.36995837314E+04 0.  0.
        3    1    3    3  502    0  0.14633528786E+04  0.29111021199E+03  0.87508353816E+03  0.17297161651E+04  0.10100000352E+00 0.  1.
       -3    1    3    3    0  502 -0.14633528786E+04 -0.29111021199E+03 -0.13281053565E+04  0.19975011016E+04  0.10100000352E+00 0. -1.
</event>
<event>
 5   0  0.1856107E-08  0.3701349E+04  0.7818609E-02  0.8067663E-01
       -2   -1    0    0    0  501  0.00000000000E+00  0.00000000000E+00  0.13509058305E+04  0.13509058305E+04  0.25500000920E-02 0. -1.
        2   -1    0    0  501    0  0.00000000000E+00  0.00000000000E+00 -0.25353333943E+04  0.25353333943E+04  0.25500000920E-02 0.  1.
    10030    2    1    2    0    0  0.00000000000E+00  0.00000000000E+00 -0.11844275638E+04  0.38862392247E+04  0.37013493024E+04 0.  0.
        2    1    3    3  502    0 -0.10822170334E+04 -0.19100531539E+03 -0.21556624929E+04  0.24196192926E+04  0.25500000920E-02 0.  1.
       -2    1    3    3    0  502  0.10822170334E+04  0.19100531539E+03  0.97123492908E+03  0.14666199321E+04  0.25500000920E-02 0. -1.
</event>
<event>
 5   0  0.1856107E-08  0.3700424E+04  0.7818609E-02  0.8067868E-01
       -2   -1    0    0    0  501  0.00000000000E+00  0.00000000000E+00  0.14065109734E+04  0.14065109734E+04  0.25500000920E-02 0.  1.
        2   -1    0    0  501    0  0.00000000000E+00  0.00000000000E+00 -0.24338844779E+04  0.24338844779E+04  0.25500000920E-02 0. -1.
    10030    2    1    2    0    0  0.00000000000E+00  0.00000000000E+00 -0.10273735045E+04  0.38403954512E+04  0.37004244222E+04 0.  0.
        2    1    3    3  502    0 -0.11152475680E+04 -0.41491826403E+03 -0.19840886650E+04  0.23135561663E+04  0.25500000920E-02 0. -1.
       -2    1    3    3    0  502  0.11152475680E+04  0.41491826403E+03  0.95671516047E+03  0.15268392850E+04  0.25500000920E-02 0.  1.
</event>
<event>
 5   0  0.1825308E-08  0.3698917E+04  0.7818609E-02  0.8068202E-01
        2   -1    0    0  501    0  0.00000000000E+00  0.00000000000E+00  0.18373700730E+04  0.18373700730E+04  0.25500000920E-02 0.  1.
       -2   -1    0    0    0  501  0.00000000000E+00  0.00000000000E+00 -0.18616265254E+04  0.18616265254E+04  0.25500000920E-02 0. -1.
    10030    2    1    2    0    0  0.00000000000E+00  0.00000000000E+00 -0.24256452447E+02  0.36989965984E+04  0.36989170658E+04 0.  0.
        4    1    3    3  502    0 -0.88347604467E+03 -0.27693136881E+03  0.15889291049E+04  0.18389992436E+04  0.12699999809E+01 0.  1.
       -4    1    3    3    0  502  0.88347604467E+03  0.27693136881E+03 -0.16131855574E+04  0.18599973548E+04  0.12699999809E+01 0. -1.
</event>
<event>
 5   0  0.1757996E-08  0.3701108E+04  0.7818609E-02  0.8067716E-01
        2   -1    0    0  501    0  0.00000000000E+00  0.00000000000E+00  0.15922602610E+04  0.15922602610E+04  0.25500000920E-02 0.  1.
       -2   -1    0    0    0  501  0.00000000000E+00  0.00000000000E+00 -0.21507471612E+04  0.21507471612E+04  0.25500000920E-02 0. -1.
    10030    2    1    2    0    0  0.00000000000E+00  0.00000000000E+00 -0.55848690014E+03  0.37430074222E+04  0.37011075295E+04 0.  0.
        3    1    3    3  502    0  0.20957430512E+03 -0.16683256433E+04  0.50236916957E+03  0.17548808034E+04  0.10100000352E+00 0.  1.
       -3    1    3    3    0  502 -0.20957430512E+03  0.16683256433E+04 -0.10608560697E+04  0.19881266188E+04  0.10100000352E+00 0. -1.
</event>
<event>
 5   0  0.1725865E-08  0.3698983E+04  0.7818609E-02  0.8068187E-01
       -2   -1    0    0    0  501  0.00000000000E+00  0.00000000000E+00  0.26258473590E+04  0.26258473590E+04  0.25500000920E-02 0. -1.
        2   -1    0    0  501    0  0.00000000000E+00  0.00000000000E+00 -0.13026724567E+04  0.13026724567E+04  0.25500000920E-02 0.  1.
    10030    2    1    2    0    0  0.00000000000E+00  0.00000000000E+00  0.13231749023E+04  0.39285198158E+04  0.36989831198E+04 0.  0.
        1    1    3    3  502    0  0.86161741432E+03 -0.13345302192E+04  0.16676074466E+04  0.23031001000E+04  0.50400001928E-02 0. -1.
       -1    1    3    3    0  502 -0.86161741432E+03  0.13345302192E+04 -0.34443254432E+03  0.16254197157E+04  0.50400001928E-02 0.  1.
</event>
<event>
 5   0  0.1740290E-08  0.3700041E+04  0.7818609E-02  0.8067953E-01
        2   -1    0    0  501    0  0.00000000000E+00  0.00000000000E+00  0.10730821674E+04  0.10730821674E+04  0.25500000920E-02 0. -1.
       -2   -1    0    0    0  501  0.00000000000E+00  0.00000000000E+00 -0.31894810668E+04  0.31894810668E+04  0.25500000920E-02 0.  1.
    10030    2    1    2    0    0  0.00000000000E+00  0.00000000000E+00 -0.21163988994E+04  0.42625632342E+04  0.37000406788E+04 0.  0.
        5    1    3    3  502    0 -0.66592616307E+03 -0.85283176486E+02 -0.30441834891E+04  0.31173395837E+04  0.46999998093E+01 0.  1.
       -5    1    3    3    0  502  0.66592616307E+03  0.85283176486E+02  0.92778458971E+03  0.11452236505E+04  0.46999998093E+01 0. -1.
</event>
<event>
 5   0  0.5714125E-09  0.3700047E+04  0.7818609E-02  0.8067951E-01
        1   -1    0    0  501    0  0.00000000000E+00  0.00000000000E+00  0.30776458178E+04  0.30776458178E+04  0.50400001928E-02 0.  1.
       -1   -1    0    0    0  501  0.00000000000E+00  0.00000000000E+00 -0.11120797253E+04  0.11120797253E+04  0.50400001928E-02 0. -1.
    10030    2    1    2    0    0  0.00000000000E+00  0.00000000000E+00  0.19655660925E+04  0.41897255432E+04  0.37000473055E+04 0.  0.
        4    1    3    3  502    0 -0.45216074022E+03 -0.17224274089E+01  0.30141123464E+04  0.30478397515E+04  0.12699999809E+01 0.  1.
       -4    1    3    3    0  502  0.45216074022E+03  0.17224274089E+01 -0.10485462538E+04  0.11418857916E+04  0.12699999809E+01 0. -1.
</event>
<event>
 5   0  0.5714125E-09  0.3701948E+04  0.7818609E-02  0.8067530E-01
        1   -1    0    0  501    0  0.00000000000E+00  0.00000000000E+00  0.15133952577E+04  0.15133952577E+04  0.50400001928E-02 0.  1.
       -1   -1    0    0    0  501  0.00000000000E+00  0.00000000000E+00 -0.22638526435E+04  0.22638526435E+04  0.50400001928E-02 0. -1.
    10030    2    1    2    0    0  0.00000000000E+00  0.00000000000E+00 -0.75045738583E+03  0.37772479013E+04  0.37019475171E+04 0.  0.
        5    1    3    3  502    0 -0.37773879964E+03  0.66726513555E+03  0.13437206859E+04  0.15471059219E+04  0.46999998093E+01 0.  1.
       -5    1    3    3    0  502  0.37773879964E+03 -0.66726513555E+03 -0.20941780717E+04  0.22301419793E+04  0.46999998093E+01 0. -1.
</event>
<event>
 5   0  0.1825308E-08  0.3691942E+04  0.7818609E-02  0.8069750E-01
        2   -1    0    0  501    0  0.00000000000E+00  0.00000000000E+00  0.25775642186E+04  0.25775642186E+04  0.25500000920E-02 0. -1.
       -2   -1    0    0    0  501  0.00000000000E+00  0.00000000000E+00 -0.13220266559E+04  0.13220266559E+04  0.25500000920E-02 0.  1.
    10030    2    1    2    0    0  0.00000000000E+00  0.00000000000E+00  0.12555375628E+04  0.38995908745E+04  0.36919418220E+04 0.  0.
        4    1    3    3  502    0 -0.54817670148E+03  0.10982071567E+04 -0.82856527242E+03  0.14809046825E+04  0.12699999809E+01 0.  1.
       -4    1    3    3    0  502  0.54817670148E+03 -0.10982071567E+04  0.20841028352E+04  0.24186861920E+04  0.12699999809E+01 0. -1.
</event>
<event>
 5   0  0.1856107E-08  0.3702286E+04  0.7818609E-02  0.8067455E-01
        2   -1    0    0  501    0  0.00000000000E+00  0.00000000000E+00  0.19964261587E+04  0.19964261587E+04  0.25500000920E-02 0.  1.
       -2   -1    0    0    0  501  0.00000000000E+00  0.00000000000E+00 -0.17164322828E+04  0.17164322828E+04  0.25500000920E-02 0. -1.
    10030    2    1    2    0    0  0.00000000000E+00  0.00000000000E+00  0.27999387585E+03  0.37128584415E+04  0.37022859474E+04 0.  0.
        2    1    3    3  502    0 -0.19025492719E+03 -0.11081816521E+04 -0.13347352413E+04  0.17452167991E+04  0.25500000920E-02 0. -1.
       -2    1    3    3    0  502  0.19025492719E+03  0.11081816521E+04  0.16147291172E+04  0.19676416425E+04  0.25500000920E-02 0.  1.
</event>
<event>
 5   0  0.5714125E-09  0.3702229E+04  0.7818609E-02  0.8067468E-01
       -1   -1    0    0    0  501  0.00000000000E+00  0.00000000000E+00  0.17782266265E+04  0.17782266265E+04  0.50400001928E-02 0. -1.
        1   -1    0    0  501    0  0.00000000000E+00  0.00000000000E+00 -0.19269894911E+04  0.19269894911E+04  0.50400001928E-02 0.  1.
    10030    2    1    2    0    0  0.00000000000E+00  0.00000000000E+00 -0.14876286457E+03  0.37052161176E+04  0.37022285300E+04 0.  0.
        5    1    3    3  502    0 -0.85212223263E+03  0.16111426234E+04 -0.39823038185E+03  0.18656104575E+04  0.46999998093E+01 0. -1.
       -5    1    3    3    0  502  0.85212223263E+03 -0.16111426234E+04  0.24946751728E+03  0.18396056600E+04  0.46999998093E+01 0.  1.
</event>
<event>
 5   0  0.5714125E-09  0.3701520E+04  0.7818609E-02  0.8067625E-01
       -1   -1    0    0    0  501  0.00000000000E+00  0.00000000000E+00  0.30147430982E+04  0.30147430982E+04  0.50400001928E-02 0. -1.
        1   -1    0    0  501    0  0.00000000000E+00  0.00000000000E+00 -0.11361872431E+04  0.11361872431E+04  0.50400001928E-02 0.  1.
    10030    2    1    2    0    0  0.00000000000E+00  0.00000000000E+00  0.18785558551E+04  0.41509303413E+04  0.37015200388E+04 0.  0.
        2    1    3    3  502    0 -0.43441400237E+03 -0.17959360819E+04  0.10580138058E+04  0.21292005892E+04  0.25500000920E-02 0. -1.
       -2    1    3    3    0  502  0.43441400237E+03  0.17959360819E+04  0.82054204935E+03  0.20217297521E+04  0.25500000920E-02 0.  1.
</event>
<event>
 5   0  0.1740290E-08  0.3701442E+04  0.7818609E-02  0.8067642E-01
        2   -1    0    0  501    0  0.00000000000E+00  0.00000000000E+00  0.18437285369E+04  0.18437285369E+04  0.25500000920E-02 0.  1.
       -2   -1    0    0    0  501  0.00000000000E+00  0.00000000000E+00 -0.18577395995E+04  0.18577395995E+04  0.25500000920E-02 0. -1.
    10030    2    1    2    0    0  0.00000000000E+00  0.00000000000E+00 -0.14011062549E+02  0.37014681364E+04  0.37014416184E+04 0.  0.
        5    1    3    3  502    0 -0.89606169265E+03 -0.12719498039E+04 -0.10091916188E+04  0.18545276148E+04  0.46999998093E+01 0. -1.
       -5    1    3    3    0  502  0.89606169265E+03  0.12719498039E+04  0.99518055620E+03  0.18469405216E+04  0.46999998093E+01 0.  1.
</event>
<event>
 5   0  0.5714125E-09  0.3692630E+04  0.7818609E-02  0.8069597E-01
        1   -1    0    0  501    0  0.00000000000E+00  0.00000000000E+00  0.12493641393E+04  0.12493641393E+04  0.50400001928E-02 0.  1.
       -1   -1    0    0    0  501  0.00000000000E+00  0.00000000000E+00 -0.27284914421E+04  0.27284914421E+04  0.50400001928E-02 0. -1.
    10030    2    1    2    0    0  0.00000000000E+00  0.00000000000E+00 -0.14791273028E+04  0.39778555814E+04  0.36926301533E+04 0.  0.
        2    1    3    3  502    0  0.87612544527E+03 -0.93551894819E+03  0.69202864627E+03  0.14566039769E+04  0.25500000920E-02 0.  1.
       -2    1    3    3    0  502 -0.87612544527E+03  0.93551894819E+03 -0.21711559490E+04  0.25212516045E+04  0.25500000920E-02 0. -1.
</event>
<event>
 5   0  0.5714125E-09  0.3697416E+04  0.7818609E-02  0.8068535E-01
        1   -1    0    0  501    0  0.00000000000E+00  0.00000000000E+00  0.18400766676E+04  0.18400766676E+04  0.50400001928E-02 0. -1.
       -1   -1    0    0    0  501  0.00000000000E+00  0.00000000000E+00 -0.18573801532E+04  0.18573801532E+04  0.50400001928E-02 0.  1.
    10030    2    1    2    0    0  0.00000000000E+00  0.00000000000E+00 -0.17303485635E+02  0.36974568208E+04  0.36974163318E+04 0.  0.
        3    1    3    3  502    0  0.16177894315E+04 -0.71685465600E+02 -0.90048011254E+03  0.18529020195E+04  0.10100000352E+00 0.  1.
       -3    1    3    3    0  502 -0.16177894315E+04  0.71685465600E+02  0.88317662690E+03  0.18445548013E+04  0.10100000352E+00 0. -1.
</event>
<event>
 5   0  0.5714125E-09  0.3700139E+04  0.7818609E-02  0.8067931E-01
        1   -1    0    0  501    0  0.00000000000E+00  0.00000000000E+00  0.17559136934E+04  0.17559136934E+04  0.50400001928E-02 0. -1.
       -1   -1    0    0    0  501  0.00000000000E+00  0.00000000000E+00 -0.19492744112E+04  0.19492744112E+04  0.50400001928E-02 0.  1.
    10030    2    1    2    0    0  0.00000000000E+00  0.00000000000E+00 -0.19336071776E+03  0.37051881046E+04  0.37001392573E+04 0.  0.
        1    1    3    3  502    0  0.11127539678E+04  0.10240148340E+04 -0.11639347473E+04  0.19082903000E+04  0.50400001928E-02 0.  1.
       -1    1    3    3    0  502 -0.11127539678E+04 -0.10240148340E+04  0.97057402950E+03  0.17968978046E+04  0.50400001928E-02 0. -1.
</event>
<event>
 5   0  0.1725865E-08  0.3699602E+04  0.7818609E-02  0.8068050E-01
        2   -1    0    0  501    0  0.00000000000E+00  0.00000000000E+00  0.18584710224E+04  0.18584710224E+04  0.25500000920E-02 0. -1.
       -2   -1    0    0    0  501  0.00000000000E+00  0.00000000000E+00 -0.18411713416E+04  0.18411713416E+04  0.25500000920E-02 0.  1.
    10030    2    1    2    0    0  0.00000000000E+00  0.00000000000E+00  0.17299680835E+02  0.36996423640E+04  0.36996019168E+04 0.  0.
        1    1    3    3  502    0 -0.64639544384E+03 -0.99722818708E+03 -0.14089242838E+04  0.18431925467E+04  0.50400001928E-02 0.  1.
       -1    1    3    3    0  502  0.64639544384E+03  0.99722818708E+03  0.14262239646E+04  0.18564498173E+04  0.50400001928E-02 0. -1.
</event>
<event>
 5   0  0.1757996E-08  0.3701704E+04  0.7818609E-02  0.8067584E-01
        2   -1    0    0  501    0  0.00000000000E+00  0.00000000000E+00  0.15507501713E+04  0.15507501713E+04  0.25500000920E-02 0.  1.
       -2   -1    0    0    0  501  0.00000000000E+00  0.00000000000E+00 -0.22090292595E+04  0.22090292595E+04  0.25500000920E-02 0. -1.
    10030    2    1    2    0    0  0.00000000000E+00  0.00000000000E+00 -0.65827908828E+03  0.37597794308E+04  0.37017036632E+04 0.  0.
        3    1    3    3  502    0  0.25414233169E+03 -0.42014125442E+03 -0.21416663895E+04  0.21972350654E+04  0.10100000352E+00 0. -1.
       -3    1    3    3    0  502 -0.25414233169E+03  0.42014125442E+03  0.14833873012E+04  0.15625443654E+04  0.10100000352E+00 0.  1.
</event>
<event>
 5   0  0.1740290E-08  0.3701132E+04  0.7818609E-02  0.8067711E-01
       -2   -1    0    0    0  501  0.00000000000E+00  0.00000000000E+00  0.13174163284E+04  0.13174163284E+04  0.25500000920E-02 0.  1.
        2   -1    0    0  501    0  0.00000000000E+00  0.00000000000E+00 -0.25994781417E+04  0.25994781417E+04  0.25500000920E-02 0. -1.
    10030    2    1    2    0    0  0.00000000000E+00  0.00000000000E+00 -0.12820618133E+04  0.39168944701E+04  0.37011322317E+04 0.  0.
        5    1    3    3  502    0 -0.99371761595E+03 -0.31985295155E+03  0.97604866453E+03  0.14291513903E+04  0.46999998093E+01 0.  1.
       -5    1    3    3    0  502  0.99371761595E+03  0.31985295155E+03 -0.22581104778E+04  0.24877430798E+04  0.46999998093E+01 0. -1.
</event>
<event>
 5   0  0.1825308E-08  0.3700012E+04  0.7818609E-02  0.8067959E-01
       -2   -1    0    0    0  501  0.00000000000E+00  0.00000000000E+00  0.19115460261E+04  0.19115460261E+04  0.25500000920E-02 0. -1.
        2   -1    0    0  501    0  0.00000000000E+00  0.00000000000E+00 -0.17904475568E+04  0.17904475568E+04  0.25500000920E-02 0.  1.
    10030    2    1    2    0    0  0.00000000000E+00  0.00000000000E+00  0.12109846936E+03  0.37019935829E+04  0.37000123849E+04 0.  0.
        4    1    3    3  502    0  0.12168958936E+04  0.71438491003E+03 -0.11364775554E+04  0.18118400212E+04  0.12699999809E+01 0.  1.
       -4    1    3    3    0  502 -0.12168958936E+04 -0.71438491003E+03  0.12575760248E+04  0.18901535617E+04  0.12699999809E+01 0. -1.
</event>
<event>
 5   0  0.1725865E-08  0.3711069E+04  0.7818609E-02  0.8065513E-01
        2   -1    0    0  501    0  0.00000000000E+00  0.00000000000E+00  0.20429571920E+04  0.20429571920E+04  0.25500000920E-02 0. -1.
       -2   -1    0    0    0  501  0.00000000000E+00  0.00000000000E+00 -0.16853057777E+04  0.16853057777E+04  0.25500000920E-02 0.  1.
    10030    2    1    2    0    0  0.00000000000E+00  0.00000000000E+00  0.35765141432E+03  0.37282629698E+04  0.37110686113E+04 0.  0.
        1    1    3    3  502    0  0.11307499085E+04  0.32410677649E+03 -0.12628727320E+04  0.17258296832E+04  0.50400001928E-02 0.  1.
       -1    1    3    3    0  502 -0.11307499085E+04 -0.32410677649E+03  0.16205241463E+04  0.20024332865E+04  0.50400001928E-02 0. -1.
</event>
<event>
 5   0  0.5714125E-09  0.3698997E+04  0.7818609E-02  0.8068184E-01
        1   -1    0    0  501    0  0.00000000000E+00  0.00000000000E+00  0.18198756271E+04  0.18198756271E+04  0.50400001928E-02 0. -1.
       -1   -1    0    0    0  501  0.00000000000E+00  0.00000000000E+00 -0.18796035386E+04  0.18796035386E+04  0.50400001928E-02 0.  1.
    10030    2    1    2    0    0  0.00000000000E+00  0.00000000000E+00 -0.59727911518E+02  0.36994791657E+04  0.36989969822E+04 0.  0.
        2    1    3    3  502    0  0.16876694144E+04  0.33108884385E+03  0.65051642124E+03  0.18387548747E+04  0.25500000920E-02 0. -1.
       -2    1    3    3    0  502 -0.16876694144E+04 -0.33108884385E+03 -0.71024433276E+03  0.18607242910E+04  0.25500000920E-02 0.  1.
</event>
<event>
 5   0  0.5714125E-09  0.3696848E+04  0.7818609E-02  0.8068661E-01
        1   -1    0    0  501    0  0.00000000000E+00  0.00000000000E+00  0.11234497795E+04  0.11234497796E+04  0.50400001928E-02 0.  1.
       -1   -1    0    0    0  501  0.00000000000E+00  0.00000000000E+00 -0.30412319768E+04  0.30412319768E+04  0.50400001928E-02 0. -1.
    10030    2    1    2    0    0  0.00000000000E+00  0.00000000000E+00 -0.19177821973E+04  0.41646817564E+04  0.36968480596E+04 0.  0.
        3    1    3    3  502    0  0.44444150606E+03  0.60409197155E+03 -0.28621314589E+04  0.29587584999E+04  0.10100000352E+00 0. -1.
       -3    1    3    3    0  502 -0.44444150606E+03 -0.60409197155E+03  0.94434926163E+03  0.12059232565E+04  0.10100000352E+00 0.  1.
</event>
<event>
 5   0  0.1757996E-08  0.3710125E+04  0.7818609E-02  0.8065722E-01
       -2   -1    0    0    0  501  0.00000000000E+00  0.00000000000E+00  0.14769953186E+04  0.14769953186E+04  0.25500000920E-02 0.  1.
        2   -1    0    0  501    0  0.00000000000E+00  0.00000000000E+00 -0.23299031713E+04  0.23299031713E+04  0.25500000920E-02 0. -1.
    10030    2    1    2    0    0  0.00000000000E+00  0.00000000000E+00 -0.85290785274E+03  0.38068984899E+04  0.37101245676E+04 0.  0.
        3    1    3    3  502    0 -0.30011467782E+03 -0.12321709637E+04  0.96272172377E+03  0.15922145682E+04  0.10100000352E+00 0.  1.
       -3    1    3    3    0  502  0.30011467782E+03  0.12321709637E+04 -0.18156295765E+04  0.22146839217E+04  0.10100000352E+00 0. -1.
</event>
<event>
 5   0  0.1757996E-08  0.3701481E+04  0.7818609E-02  0.8067634E-01
       -2   -1    0    0    0  501  0.00000000000E+00  0.00000000000E+00  0.13578232755E+04  0.13578232755E+04  0.25500000920E-02 0.  1.
        2   -1    0    0  501    0  0.00000000000E+00  0.00000000000E+00 -0.25225971826E+04  0.25225971826E+04  0.25500000920E-02 0. -1.
    10030    2    1    2    0    0  0.00000000000E+00  0.00000000000E+00 -0.11647739071E+04  0.38804204581E+04  0.37014814166E+04 0.  0.
        3    1    3    3  502    0  0.88666661950E+03 -0.15251529708E+04  0.40966461492E+01  0.17641672458E+04  0.10100000352E+00 0.  1.
       -3    1    3    3    0  502 -0.88666661950E+03  0.15251529708E+04 -0.11688705532E+04  0.21162532123E+04  0.10100000352E+00 0. -1.
</event>
<event>
 5   0  0.5714125E-09  0.3697316E+04  0.7818609E-02  0.8068557E-01
        1   -1    0    0  501    0  0.00000000000E+00  0.00000000000E+00  0.16924639319E+04  0.16924639319E+04  0.50400001928E-02 0.  1.
       -1   -1    0    0    0  501  0.00000000000E+00  0.00000000000E+00 -0.20192672017E+04  0.20192672017E+04  0.50400001928E-02 0. -1.
    10030    2    1    2    0    0  0.00000000000E+00  0.00000000000E+00 -0.32680326976E+03  0.37117311336E+04  0.36973162741E+04 0.  0.
        2    1    3    3  502    0  0.54273962751E+03  0.11060336987E+04 -0.15470567517E+04  0.19776909362E+04  0.25500000920E-02 0. -1.
       -2    1    3    3    0  502 -0.54273962751E+03 -0.11060336987E+04  0.12202534820E+04  0.17340401974E+04  0.25500000920E-02 0.  1.
</event>
<event>
 5   0  0.5714125E-09  0.3702342E+04  0.7818609E-02  0.8067443E-01
        1   -1    0    0  501    0  0.00000000000E+00  0.00000000000E+00  0.17148048281E+04  0.17148048281E+04  0.50400001928E-02 0.  1.
       -1   -1    0    0    0  501  0.00000000000E+00  0.00000000000E+00 -0.19983813413E+04  0.19983813413E+04  0.50400001928E-02 0. -1.
    10030    2    1    2    0    0  0.00000000000E+00  0.00000000000E+00 -0.28357651324E+03  0.37131861694E+04  0.37023419466E+04 0.  0.
        1    1    3    3  502    0 -0.12250551425E+04  0.38111650672E+03 -0.14801721644E+04  0.19588056387E+04  0.50400001928E-02 0. -1.
       -1    1    3    3    0  502  0.12250551425E+04 -0.38111650672E+03  0.11965956512E+04  0.17543805307E+04  0.50400001928E-02 0.  1.
</event>
<event>
 5   0  0.1740290E-08  0.3700235E+04  0.7818609E-02  0.8067910E-01
        2   -1    0    0  501    0  0.00000000000E+00  0.00000000000E+00  0.21097816908E+04  0.21097816908E+04  0.25500000920E-02 0. -1.
       -2   -1    0    0    0  501  0.00000000000E+00  0.00000000000E+00 -0.16224116306E+04  0.16224116306E+04  0.25500000920E-02 0.  1.
    10030    2    1    2    0    0  0.00000000000E+00  0.00000000000E+00  0.48737006020E+03  0.37321933215E+04  0.37002347781E+04 0.  0.
        5    1    3    3  502    0  0.99981780732E+03  0.88805319263E+03 -0.10458871779E+04  0.16976973227E+04  0.46999998093E+01 0.  1.
       -5    1    3    3    0  502 -0.99981780732E+03 -0.88805319263E+03  0.15332572381E+04  0.20344959987E+04  0.46999998093E+01 0. -1.
</event>
<event>
 5   0  0.5714125E-09  0.3696279E+04  0.7818609E-02  0.8068787E-01
       -1   -1    0    0    0  501  0.00000000000E+00  0.00000000000E+00  0.11464701783E+04  0.11464701783E+04  0.50400001928E-02 0.  1.
        1   -1    0    0  501    0  0.00000000000E+00  0.00000000000E+00 -0.29792478395E+04  0.29792478395E+04  0.50400001928E-02 0. -1.
    10030    2    1    2    0    0  0.00000000000E+00  0.00000000000E+00 -0.18327776612E+04  0.41257180178E+04  0.36962785619E+04 0.  0.
        4    1    3    3  502    0 -0.15492901491E+04 -0.16894271799E+03 -0.20251654135E+04  0.25554135033E+04  0.12699999809E+01 0. -1.
       -4    1    3    3    0  502  0.15492901491E+04  0.16894271799E+03  0.19238775237E+03  0.15703045145E+04  0.12699999809E+01 0.  1.
</event>
<event>
 5   0  0.5714125E-09  0.3700366E+04  0.7818609E-02  0.8067881E-01
       -1   -1    0    0    0  501  0.00000000000E+00  0.00000000000E+00  0.20482045770E+04  0.20482045770E+04  0.50400001928E-02 0. -1.
        1   -1    0    0  501    0  0.00000000000E+00  0.00000000000E+00 -0.16713065028E+04  0.16713065028E+04  0.50400001928E-02 0.  1.
    10030    2    1    2    0    0  0.00000000000E+00  0.00000000000E+00  0.37689807419E+03  0.37195110797E+04  0.37003662675E+04 0.  0.
        1    1    3    3  502    0 -0.93464168000E+03  0.11354492759E+04 -0.94002472105E+03  0.17454072890E+04  0.50400001928E-02 0.  1.
       -1    1    3    3    0  502  0.93464168000E+03 -0.11354492759E+04  0.13169227952E+04  0.19741037908E+04  0.50400001928E-02 0. -1.
</event>
<event>
 5   0  0.1825308E-08  0.3699012E+04  0.7818609E-02  0.8068181E-01
        2   -1    0    0  501    0  0.00000000000E+00  0.00000000000E+00  0.30520889340E+04  0.30520889340E+04  0.25500000920E-02 0. -1.
       -2   -1    0    0    0  501  0.00000000000E+00  0.00000000000E+00 -0.11207644755E+04  0.11207644755E+04  0.25500000920E-02 0.  1.
    10030    2    1    2    0    0  0.00000000000E+00  0.00000000000E+00  0.19313244586E+04  0.41728534095E+04  0.36990122212E+04 0.  0.
        4    1    3    3  502    0 -0.16697332383E+04 -0.71978771311E+03  0.58382466472E+03  0.19097005763E+04  0.12699999809E+01 0.  1.
       -4    1    3    3    0  502  0.16697332383E+04  0.71978771311E+03  0.13474997938E+04  0.22631528332E+04  0.12699999809E+01 0. -1.
</event>
<event>
 5   0  0.5714125E-09  0.3706417E+04  0.7818609E-02  0.8066541E-01
        1   -1    0    0  501    0  0.00000000000E+00  0.00000000000E+00  0.24827281565E+04  0.24827281565E+04  0.50400001928E-02 0.  1.
       -1   -1    0    0    0  501  0.00000000000E+00  0.00000000000E+00 -0.13833095078E+04  0.13833095078E+04  0.50400001928E-02 0. -1.
    10030    2    1    2    0    0  0.00000000000E+00  0.00000000000E+00  0.10994186487E+04  0.38660376643E+04  0.37064168487E+04 0.  0.
        3    1    3    3  502    0 -0.87502458013E+03 -0.11325074379E+04  0.17777575470E+04  0.22822495523E+04  0.10100000352E+00 0.  1.
       -3    1    3    3    0  502  0.87502458013E+03  0.11325074379E+04 -0.67833889826E+03  0.15837881120E+04  0.10100000352E+00 0. -1.
</event>
<event>
 5   0  0.5714125E-09  0.3701835E+04  0.7818609E-02  0.8067555E-01
        1   -1    0    0  501    0  0.00000000000E+00  0.00000000000E+00  0.19982094779E+04  0.19982094779E+04  0.50400001928E-02 0.  1.
       -1   -1    0    0    0  501  0.00000000000E+00  0.00000000000E+00 -0.17144822702E+04  0.17144822702E+04  0.50400001928E-02 0. -1.
    10030    2    1    2    0    0  0.00000000000E+00  0.00000000000E+00  0.28372720771E+03  0.37126917480E+04  0.37018345300E+04 0.  0.
        1    1    3    3  502    0  0.10601356535E+04 -0.12832648564E+04  0.95370570569E+03  0.19183875700E+04  0.50400001928E-02 0.  1.
       -1    1    3    3    0  502 -0.10601356535E+04  0.12832648564E+04 -0.66997849798E+03  0.17943041781E+04  0.50400001928E-02 0. -1.
</event>
<event>
 5   0  0.5714125E-09  0.3698550E+04  0.7818609E-02  0.8068283E-01
       -1   -1    0    0    0  501  0.00000000000E+00  0.00000000000E+00  0.11490191510E+04  0.11490191510E+04  0.50400001928E-02 0. -1.
        1   -1    0    0  501    0  0.00000000000E+00  0.00000000000E+00 -0.29762939283E+04  0.29762939283E+04  0.50400001928E-02 0.  1.
    10030    2    1    2    0    0  0.00000000000E+00  0.00000000000E+00 -0.18272747773E+04  0.41253130793E+04  0.36985503769E+04 0.  0.
        1    1    3    3  502    0 -0.12062801568E+04  0.68849695747E+03 -0.22754502122E+04  0.26658607513E+04  0.50400001928E-02 0.  1.
       -1    1    3    3    0  502  0.12062801568E+04 -0.68849695747E+03  0.44817543494E+03  0.14594523280E+04  0.50400001928E-02 0. -1.
</event>
<event>
 5   0  0.5714125E-09  0.3703294E+04  0.7818609E-02  0.8067232E-01
        1   -1    0    0  501    0  0.00000000000E+00  0.00000000000E+00  0.13184694618E+04  0.13184694618E+04  0.50400001928E-02 0.  1.
       -1   -1    0    0    0  501  0.00000000000E+00  0.00000000000E+00 -0.26004367887E+04  0.26004367887E+04  0.50400001928E-02 0. -1.
    10030    2    1    2    0    0  0.00000000000E+00  0.00000000000E+00 -0.12819673269E+04  0.39189062505E+04  0.37032939355E+04 0.  0.
        5    1    3    3  502    0 -0.10421442938E+04  0.11602891712E+04 -0.16972134174E+04  0.23049709681E+04  0.46999998093E+01 0. -1.
       -5    1    3    3    0  502  0.10421442938E+04 -0.11602891712E+04  0.41524609044E+03  0.16139352823E+04  0.46999998093E+01 0.  1.
</event>
<event>
 5   0  0.5714125E-09  0.3699328E+04  0.7818609E-02  0.8068111E-01
       -1   -1    0    0    0  501  0.00000000000E+00  0.00000000000E+00  0.18079999780E+04  0.18079999780E+04  0.50400001928E-02 0. -1.
        1   -1    0    0  501    0  0.00000000000E+00  0.00000000000E+00 -0.18922885152E+04  0.18922885152E+04  0.50400001928E-02 0.  1.
    10030    2    1    2    0    0  0.00000000000E+00  0.00000000000E+00 -0.84288537178E+02  0.37002884932E+04  0.36993283682E+04 0.  0.
        5    1    3    3  502    0 -0.12993606737E+04 -0.20883514938E+03  0.12579181196E+04  0.18205302430E+04  0.46999998093E+01 0. -1.
       -5    1    3    3    0  502  0.12993606737E+04  0.20883514938E+03 -0.13422066568E+04  0.18797582503E+04  0.46999998093E+01 0.  1.
</event>
<event>
 5   0  0.5714125E-09  0.3704231E+04  0.7818609E-02  0.8067025E-01
       -1   -1    0    0    0  501  0.00000000000E+00  0.00000000000E+00  0.14913505102E+04  0.14913505102E+04  0.50400001928E-02 0. -1.
        1   -1    0    0  501    0  0.00000000000E+00  0.00000000000E+00 -0.23001516699E+04  0.23001516700E+04  0.50400001928E-02 0.  1.
    10030    2    1    2    0    0  0.00000000000E+00  0.00000000000E+00 -0.80880115979E+03  0.37915021801E+04  0.37042312922E+04 0.  0.
        2    1    3    3  502    0  0.17729540411E+04  0.42269083608E+03 -0.74124163524E+03  0.19676058387E+04  0.25500000920E-02 0.  1.
       -2    1    3    3    0  502 -0.17729540411E+04 -0.42269083608E+03 -0.67559524550E+02  0.18238963414E+04  0.25500000920E-02 0. -1.
</event>
<event>
 5   0  0.5714125E-09  0.3701762E+04  0.7818609E-02  0.8067571E-01
       -1   -1    0    0    0  501  0.00000000000E+00  0.00000000000E+00  0.30720587807E+04  0.30720587807E+04  0.50400001928E-02 0. -1.
        1   -1    0    0  501    0  0.00000000000E+00  0.00000000000E+00 -0.11151352273E+04  0.11151352273E+04  0.50400001928E-02 0.  1.
    10030    2    1    2    0    0  0.00000000000E+00  0.00000000000E+00  0.19569235535E+04  0.41871940080E+04  0.37017622650E+04 0.  0.
        2    1    3    3  502    0 -0.44992351995E+03  0.17170191090E+04  0.38510052348E+03  0.18162841759E+04  0.25500000920E-02 0.  1.
       -2    1    3    3    0  502  0.44992351995E+03 -0.17170191090E+04  0.15718230300E+04  0.23709098321E+04  0.25500000920E-02 0. -1.
</event>
<event>
 5   0  0.5714125E-09  0.3701271E+04  0.7818609E-02  0.8067680E-01
       -1   -1    0    0    0  501  0.00000000000E+00  0.00000000000E+00  0.20776708130E+04  0.20776708131E+04  0.50400001928E-02 0. -1.
        1   -1    0    0  501    0  0.00000000000E+00  0.00000000000E+00 -0.16484088767E+04  0.16484088767E+04  0.50400001928E-02 0.  1.
    10030    2    1    2    0    0  0.00000000000E+00  0.00000000000E+00  0.42926193635E+03  0.37260796898E+04  0.37012705987E+04 0.  0.
        2    1    3    3  502    0 -0.28953050774E+03 -0.12071626741E+04 -0.11670779185E+04  0.17038604710E+04  0.25500000920E-02 0.  1.
       -2    1    3    3    0  502  0.28953050774E+03  0.12071626741E+04  0.15963398548E+04  0.20222192188E+04  0.25500000920E-02 0. -1.
</event>
<event>
 5   0  0.1740290E-08  0.3704850E+04  0.7818609E-02  0.8066888E-01
       -2   -1    0    0    0  501  0.00000000000E+00  0.00000000000E+00  0.17218011096E+04  0.17218011096E+04  0.25500000920E-02 0. -1.
        2   -1    0    0  501    0  0.00000000000E+00  0.00000000000E+00 -0.19929584463E+04  0.19929584463E+04  0.25500000920E-02 0.  1.
    10030    2    1    2    0    0  0.00000000000E+00  0.00000000000E+00 -0.27115733673E+03  0.37147595559E+04  0.37048498292E+04 0.  0.
        5    1    3    3  502    0  0.41655257608E+03  0.16414075378E+02 -0.19453082159E+04  0.19894802375E+04  0.46999998093E+01 0.  1.
       -5    1    3    3    0  502 -0.41655257608E+03 -0.16414075378E+02  0.16741508792E+04  0.17252793184E+04  0.46999998093E+01 0. -1.
</event>
<event>
 5   0  0.5714125E-09  0.3698961E+04  0.7818609E-02  0.8068192E-01
       -1   -1    0    0    0  501  0.00000000000E+00  0.00000000000E+00  0.15084586057E+04  0.15084586057E+04  0.50400001928E-02 0.  1.
        1   -1    0    0  501    0  0.00000000000E+00  0.00000000000E+00 -0.22675988368E+04  0.22675988368E+04  0.50400001928E-02 0. -1.
    10030    2    1    2    0    0  0.00000000000E+00  0.00000000000E+00 -0.75914023108E+03  0.37760574426E+04  0.36989614649E+04 0.  0.
        1    1    3    3  502    0  0.50284756499E+03  0.59902186379E+03 -0.20904779851E+04  0.22319903837E+04  0.50400001928E-02 0. -1.
       -1    1    3    3    0  502 -0.50284756499E+03 -0.59902186379E+03  0.13313377540E+04  0.15440670588E+04  0.50400001928E-02 0.  1.
</event>
<event>
 5   0  0.5714125E-09  0.3699532E+04  0.7818609E-02  0.8068066E-01
        3   -1    0    0  501    0  0.00000000000E+00  0.00000000000E+00  0.17620892586E+04  0.17620892615E+04  0.10100000352E+00 0. -1.
       -3   -1    0    0    0  501  0.00000000000E+00  0.00000000000E+00 -0.19418054146E+04  0.19418054172E+04  0.10100000352E+00 0.  1.
    10030    2    1    2    0    0  0.00000000000E+00  0.00000000000E+00 -0.17971615598E+03  0.37038946787E+04  0.36995321183E+04 0.  0.
        5    1    3    3  502    0  0.27410091356E+03  0.13977969724E+04 -0.12713533598E+04  0.19092745068E+04  0.46999998093E+01 0.  1.
       -5    1    3    3    0  502 -0.27410091356E+03 -0.13977969724E+04  0.10916372038E+04  0.17946201720E+04  0.46999998093E+01 0. -1.
</event>
<event>
 5   0  0.1757996E-08  0.3676061E+04  0.7818609E-02  0.8073288E-01
        2   -1    0    0  501    0  0.00000000000E+00  0.00000000000E+00  0.26369817589E+04  0.26369817589E+04  0.25500000920E-02 0.  1.
       -2   -1    0    0    0  501  0.00000000000E+00  0.00000000000E+00 -0.12811450377E+04  0.12811450377E+04  0.25500000920E-02 0. -1.
    10030    2    1    2    0    0  0.00000000000E+00  0.00000000000E+00  0.13558367212E+04  0.39181267965E+04  0.36760609869E+04 0.  0.
        3    1    3    3  502    0 -0.13405127845E+04 -0.94398725200E+03  0.15634521977E+04  0.22654953635E+04  0.10100000352E+00 0.  1.
       -3    1    3    3    0  502  0.13405127845E+04  0.94398725200E+03 -0.20761547644E+03  0.16526314331E+04  0.10100000352E+00 0. -1.
</event>
<event>
 5   0  0.5714125E-09  0.3699869E+04  0.7818609E-02  0.8067991E-01
       -1   -1    0    0    0  501  0.00000000000E+00  0.00000000000E+00  0.32037320447E+04  0.32037320447E+04  0.50400001928E-02 0. -1.
        1   -1    0    0  501    0  0.00000000000E+00  0.00000000000E+00 -0.10682097583E+04  0.10682097583E+04  0.50400001928E-02 0.  1.
    10030    2    1    2    0    0  0.00000000000E+00  0.00000000000E+00  0.21355222864E+04  0.42719418030E+04  0.36998690966E+04 0.  0.
        4    1    3    3  502    0 -0.15669238656E+04  0.54881236496E+03  0.12562342909E+03  0.16650009824E+04  0.12699999809E+01 0.  1.
       -4    1    3    3    0  502  0.15669238656E+04 -0.54881236496E+03  0.20098988573E+04  0.26069408206E+04  0.12699999809E+01 0. -1.
</event>
<event>
 5   0  0.1825308E-08  0.3697966E+04  0.7818609E-02  0.8068413E-01
       -2   -1    0    0    0  501  0.00000000000E+00  0.00000000000E+00  0.23356097545E+04  0.23356097545E+04  0.25500000920E-02 0. -1.
        2   -1    0    0  501    0  0.00000000000E+00  0.00000000000E+00 -0.14637453368E+04  0.14637453368E+04  0.25500000920E-02 0.  1.
    10030    2    1    2    0    0  0.00000000000E+00  0.00000000000E+00  0.87186441772E+03  0.37993550914E+04  0.36979658662E+04 0.  0.
        4    1    3    3  502    0  0.17849275050E+03 -0.15481645643E+04  0.14582323549E+04  0.21342718650E+04  0.12699999809E+01 0. -1.
       -4    1    3    3    0  502 -0.17849275050E+03  0.15481645643E+04 -0.58636793717E+03  0.16650832264E+04  0.12699999809E+01 0.  1.
</event>
<event>
 5   0  0.1725865E-08  0.3699934E+04  0.7818609E-02  0.8067977E-01
       -2   -1    0    0    0  501  0.00000000000E+00  0.00000000000E+00  0.12350631774E+04  0.12350631774E+04  0.25500000920E-02 0.  1.
        2   -1    0    0  501    0  0.00000000000E+00  0.00000000000E+00 -0.27710139507E+04  0.27710139507E+04  0.25500000920E-02 0. -1.
    10030    2    1    2    0    0  0.00000000000E+00  0.00000000000E+00 -0.15359507733E+04  0.40060771281E+04  0.36999336722E+04 0.  0.
        1    1    3    3  502    0  0.11603245068E+04  0.64588084751E+03  0.62656318753E+03  0.14683652333E+04  0.50400001928E-02 0.  1.
       -1    1    3    3    0  502 -0.11603245068E+04 -0.64588084751E+03 -0.21625139608E+04  0.25377118948E+04  0.50400001928E-02 0. -1.
</event>
<event>
 5   0  0.5714125E-09  0.3699902E+04  0.7818609E-02  0.8067984E-01
        1   -1    0    0  501    0  0.00000000000E+00  0.00000000000E+00  0.20918120052E+04  0.20918120052E+04  0.50400001928E-02 0.  1.
       -1   -1    0    0    0  501  0.00000000000E+00  0.00000000000E+00 -0.16360542010E+04  0.16360542010E+04  0.50400001928E-02 0. -1.
    10030    2    1    2    0    0  0.00000000000E+00  0.00000000000E+00  0.45575780417E+03  0.37278662062E+04  0.36999015224E+04 0.  0.
        3    1    3    3  502    0 -0.18080597861E+04  0.36824889017E+03  0.36166189580E+03  0.18802890129E+04  0.10100000352E+00 0.  1.
       -3    1    3    3    0  502  0.18080597861E+04 -0.36824889017E+03  0.94095908370E+02  0.18475771933E+04  0.10100000352E+00 0. -1.
</event>
<event>
 5   0  0.1757996E-08  0.3699826E+04  0.7818609E-02  0.8068000E-01
       -2   -1    0    0    0  501  0.00000000000E+00  0.00000000000E+00  0.22421878440E+04  0.22421878440E+04  0.25500000920E-02 0.  1.
        2   -1    0    0  501    0  0.00000000000E+00  0.00000000000E+00 -0.15262673530E+04  0.15262673530E+04  0.25500000920E-02 0. -1.
    10030    2    1    2    0    0  0.00000000000E+00  0.00000000000E+00  0.71592049102E+03  0.37684551970E+04  0.36998259989E+04 0.  0.
        3    1    3    3  502    0  0.57244286450E+03 -0.10883939093E+04 -0.10496608751E+04  0.16168117076E+04  0.10100000352E+00 0. -1.
       -3    1    3    3    0  502 -0.57244286450E+03  0.10883939093E+04  0.17655813661E+04  0.21516434894E+04  0.10100000352E+00 0.  1.
</event>
<event>
 5   0  0.5714125E-09  0.3701881E+04  0.7818609E-02  0.8067545E-01
        1   -1    0    0  501    0  0.00000000000E+00  0.00000000000E+00  0.19781013592E+04  0.19781013593E+04  0.50400001928E-02 0.  1.
       -1   -1    0    0    0  501  0.00000000000E+00  0.00000000000E+00 -0.17319544774E+04  0.17319544774E+04  0.50400001928E-02 0. -1.
    10030    2    1    2    0    0  0.00000000000E+00  0.00000000000E+00  0.24614688182E+03  0.37100558367E+04  0.37018814168E+04 0.  0.
        4    1    3    3  502    0  0.47190856696E+02 -0.60165170230E+03 -0.16305812982E+04  0.17386801692E+04  0.12699999809E+01 0. -1.
       -4    1    3    3    0  502 -0.47190856696E+02  0.60165170230E+03  0.18767281800E+04  0.19713756675E+04  0.12699999809E+01 0.  1.
</event>
<event>
 5   0  0.1856107E-08  0.3696990E+04  0.7818609E-02  0.8068629E-01
        2   -1    0    0  501    0  0.00000000000E+00  0.00000000000E+00  0.14617247966E+04  0.14617247966E+04  0.25500000920E-02 0.  1.
       -2   -1    0    0    0  501  0.00000000000E+00  0.00000000000E+00 -0.23376045485E+04  0.23376045485E+04  0.25500000920E-02 0. -1.
    10030    2    1    2    0    0  0.00000000000E+00  0.00000000000E+00 -0.87587975196E+03  0.37993293451E+04  0.36969904156E+04 0.  0.
        2    1    3    3  502    0  0.84519530043E+02 -0.11787183409E+04  0.10228199216E+04  0.15629078892E+04  0.25500000920E-02 0.  1.
       -2    1    3    3    0  502 -0.84519530043E+02  0.11787183409E+04 -0.18986996735E+04  0.22364214559E+04  0.25500000920E-02 0. -1.
</event>
<event>
 5   0  0.5714125E-09  0.3700026E+04  0.7818609E-02  0.8067956E-01
       -1   -1    0    0    0  501  0.00000000000E+00  0.00000000000E+00  0.15256650230E+04  0.15256650231E+04  0.50400001928E-02 0.  1.
        1   -1    0    0  501    0  0.00000000000E+00  0.00000000000E+00 -0.22433153173E+04  0.22433153173E+04  0.50400001928E-02 0. -1.
    10030    2    1    2    0    0  0.00000000000E+00  0.00000000000E+00 -0.71765029422E+03  0.37689803403E+04  0.37000257919E+04 0.  0.
        4    1    3    3  502    0  0.22138422089E+03 -0.17561119413E+04  0.18935446887E+03  0.17801114716E+04  0.12699999809E+01 0. -1.
       -4    1    3    3    0  502 -0.22138422089E+03  0.17561119413E+04 -0.90700476309E+03  0.19888688687E+04  0.12699999809E+01 0.  1.
</event>
<event>
 5   0  0.5714125E-09  0.3695916E+04  0.7818609E-02  0.8068867E-01
       -1   -1    0    0    0  501  0.00000000000E+00  0.00000000000E+00  0.19099266150E+04  0.19099266150E+04  0.50400001928E-02 0. -1.
        1   -1    0    0  501    0  0.00000000000E+00  0.00000000000E+00 -0.17880003339E+04  0.17880003339E+04  0.50400001928E-02 0.  1.
    10030    2    1    2    0    0  0.00000000000E+00  0.00000000000E+00  0.12192628106E+03  0.36979269489E+04  0.36959163548E+04 0.  0.
        4    1    3    3  502    0  0.52207167830E+03 -0.17538526678E+04 -0.19683920089E+03  0.18404633388E+04  0.12699999809E+01 0. -1.
       -4    1    3    3    0  502 -0.52207167830E+03  0.17538526678E+04  0.31876548196E+03  0.18574636101E+04  0.12699999809E+01 0.  1.
</event>
<event>
 5   0  0.5714125E-09  0.3699851E+04  0.7818609E-02  0.8067995E-01
       -1   -1    0    0    0  501  0.00000000000E+00  0.00000000000E+00  0.15809220750E+04  0.15809220750E+04  0.50400001928E-02 0.  1.
        1   -1    0    0  501    0  0.00000000000E+00  0.00000000000E+00 -0.21647012048E+04  0.21647012048E+04  0.50400001928E-02 0. -1.
    10030    2    1    2    0    0  0.00000000000E+00  0.00000000000E+00 -0.58377912971E+03  0.37456232798E+04  0.36998507648E+04 0.  0.
        2    1    3    3  502    0 -0.90036114597E+03 -0.34954123362E+03  0.13054114399E+04  0.16238621538E+04  0.25500000920E-02 0.  1.
       -2    1    3    3    0  502  0.90036114597E+03  0.34954123362E+03 -0.18891905697E+04  0.21217611260E+04  0.25500000920E-02 0. -1.
</event>
<event>
 5   0  0.1856107E-08  0.3700410E+04  0.7818609E-02  0.8067871E-01
       -2   -1    0    0    0  501  0.00000000000E+00  0.00000000000E+00  0.20591785576E+04  0.20591785576E+04  0.25500000920E-02 0. -1.
        2   -1    0    0  501    0  0.00000000000E+00  0.00000000000E+00 -0.16624389716E+04  0.16624389717E+04  0.25500000920E-02 0.  1.
    10030    2    1    2    0    0  0.00000000000E+00  0.00000000000E+00  0.39673958596E+03  0.37216175293E+04  0.37004100766E+04 0.  0.
        2    1    3    3  502    0 -0.24457485182E+03  0.17806602873E+04 -0.24311153097E+03  0.18137450574E+04  0.25500000920E-02 0. -1.
       -2    1    3    3    0  502  0.24457485182E+03 -0.17806602873E+04  0.63985111693E+03  0.19078724718E+04  0.25500000920E-02 0.  1.
</event>
<event>
 5   0  0.1725865E-08  0.3720834E+04  0.7818609E-02  0.8063360E-01
       -2   -1    0    0    0  501  0.00000000000E+00  0.00000000000E+00  0.28205850990E+04  0.28205850990E+04  0.25500000920E-02 0.  1.
        2   -1    0    0  501    0  0.00000000000E+00  0.00000000000E+00 -0.12271039188E+04  0.12271039188E+04  0.25500000920E-02 0. -1.
    10030    2    1    2    0    0  0.00000000000E+00  0.00000000000E+00  0.15934811802E+04  0.40476890178E+04  0.37208337928E+04 0.  0.
        1    1    3    3  502    0 -0.29629708976E+03 -0.78634520289E+03 -0.10088915148E+04  0.13130090755E+04  0.50400001928E-02 0. -1.
       -1    1    3    3    0  502  0.29629708976E+03  0.78634520289E+03  0.26023726950E+04  0.27346799424E+04  0.50400001928E-02 0.  1.
</event>
<event>
 5   0  0.1740290E-08  0.3700594E+04  0.7818609E-02  0.8067830E-01
       -2   -1    0    0    0  501  0.00000000000E+00  0.00000000000E+00  0.13651806722E+04  0.13651806722E+04  0.25500000920E-02 0. -1.
        2   -1    0    0  501    0  0.00000000000E+00  0.00000000000E+00 -0.25077995683E+04  0.25077995683E+04  0.25500000920E-02 0.  1.
    10030    2    1    2    0    0  0.00000000000E+00  0.00000000000E+00 -0.11426188961E+04  0.38729802405E+04  0.37005942768E+04 0.  0.
        5    1    3    3  502    0  0.51820116766E+03  0.17725735512E+04 -0.69076658883E+03  0.19717327442E+04  0.46999998093E+01 0.  1.
       -5    1    3    3    0  502 -0.51820116766E+03 -0.17725735512E+04 -0.45185230722E+03  0.19012474962E+04  0.46999998093E+01 0. -1.
</event>
<event>
 5   0  0.1725865E-08  0.3703458E+04  0.7818609E-02  0.8067196E-01
        2   -1    0    0  501    0  0.00000000000E+00  0.00000000000E+00  0.22942140916E+04  0.22942140916E+04  0.25500000920E-02 0.  1.
       -2   -1    0    0    0  501  0.00000000000E+00  0.00000000000E+00 -0.14945858108E+04  0.14945858108E+04  0.25500000920E-02 0. -1.
    10030    2    1    2    0    0  0.00000000000E+00  0.00000000000E+00  0.79962828084E+03  0.37887999024E+04  0.37034577509E+04 0.  0.
        1    1    3    3  502    0  0.61893275002E+03 -0.16070017175E+04 -0.29658317359E+03  0.17474249192E+04  0.50400001928E-02 0. -1.
       -1    1    3    3    0  502 -0.61893275002E+03  0.16070017175E+04  0.10962114544E+04  0.20413749832E+04  0.50400001928E-02 0.  1.
</event>
<event>
 5   0  0.5714125E-09  0.3700948E+04  0.7818609E-02  0.8067752E-01
        1   -1    0    0  501    0  0.00000000000E+00  0.00000000000E+00  0.16190002260E+04  0.16190002261E+04  0.50400001928E-02 0. -1.
       -1   -1    0    0    0  501  0.00000000000E+00  0.00000000000E+00 -0.21150422033E+04  0.21150422033E+04  0.50400001928E-02 0.  1.
    10030    2    1    2    0    0  0.00000000000E+00  0.00000000000E+00 -0.49604197726E+03  0.37340424294E+04  0.37009478814E+04 0.  0.
        1    1    3    3  502    0  0.32135202573E+03 -0.10491577949E+04 -0.17513971821E+04  0.20667344514E+04  0.50400001928E-02 0.  1.
       -1    1    3    3    0  502 -0.32135202573E+03  0.10491577949E+04  0.12553552049E+04  0.16673079780E+04  0.50400001928E-02 0. -1.
</event>
<event>
 5   0  0.1740290E-08  0.3699491E+04  0.7818609E-02  0.8068075E-01
       -2   -1    0    0    0  501  0.00000000000E+00  0.00000000000E+00  0.19793071456E+04  0.19793071456E+04  0.25500000920E-02 0.  1.
        2   -1    0    0  501    0  0.00000000000E+00  0.00000000000E+00 -0.17286647374E+04  0.17286647374E+04  0.25500000920E-02 0. -1.
    10030    2    1    2    0    0  0.00000000000E+00  0.00000000000E+00  0.25064240821E+03  0.37079718829E+04  0.36994910282E+04 0.  0.
        5    1    3    3  502    0 -0.10620398693E+04 -0.11047444403E+04  0.11636242921E+04  0.19241706124E+04  0.46999998093E+01 0.  1.
       -5    1    3    3    0  502  0.10620398693E+04  0.11047444403E+04 -0.91298188384E+03  0.17838012705E+04  0.46999998093E+01 0. -1.
</event>
<event>
 5   0  0.1825308E-08  0.3699189E+04  0.7818609E-02  0.8068142E-01
        2   -1    0    0  501    0  0.00000000000E+00  0.00000000000E+00  0.22660715119E+04  0.22660715119E+04  0.25500000920E-02 0.  1.
       -2   -1    0    0    0  501  0.00000000000E+00  0.00000000000E+00 -0.15096609445E+04  0.15096609445E+04  0.25500000920E-02 0. -1.
    10030    2    1    2    0    0  0.00000000000E+00  0.00000000000E+00  0.75641056745E+03  0.37757324564E+04  0.36991889159E+04 0.  0.
        4    1    3    3  502    0 -0.14026573101E+04 -0.93702389262E+02 -0.84865220035E+03  0.16420839922E+04  0.12699999809E+01 0. -1.
       -4    1    3    3    0  502  0.14026573101E+04  0.93702389262E+02  0.16050627678E+04  0.21336484642E+04  0.12699999809E+01 0.  1.
</event>
<event>
 5   0  0.1825308E-08  0.3702368E+04  0.7818609E-02  0.8067437E-01
       -2   -1    0    0    0  501  0.00000000000E+00  0.00000000000E+00  0.12859035299E+04  0.12859035299E+04  0.25500000920E-02 0.  1.
        2   -1    0    0  501    0  0.00000000000E+00  0.00000000000E+00 -0.26649609467E+04  0.26649609467E+04  0.25500000920E-02 0. -1.
    10030    2    1    2    0    0  0.00000000000E+00  0.00000000000E+00 -0.13790574168E+04  0.39508644767E+04  0.37023682629E+04 0.  0.
        4    1    3    3  502    0 -0.73153230968E+03  0.16184427043E+04 -0.13259445741E+03  0.17810331861E+04  0.12699999809E+01 0.  1.
       -4    1    3    3    0  502  0.73153230968E+03 -0.16184427043E+04 -0.12464629594E+04  0.21698312905E+04  0.12699999809E+01 0. -1.
</event>
<event>
 5   0  0.5714125E-09  0.3699932E+04  0.7818609E-02  0.8067977E-01
       -1   -1    0    0    0  501  0.00000000000E+00  0.00000000000E+00  0.13613812074E+04  0.13613812074E+04  0.50400001928E-02 0. -1.
        1   -1    0    0  501    0  0.00000000000E+00  0.00000000000E+00 -0.25138981428E+04  0.25138981428E+04  0.50400001928E-02 0.  1.
    10030    2    1    2    0    0  0.00000000000E+00  0.00000000000E+00 -0.11525169354E+04  0.38752793502E+04  0.36999317231E+04 0.  0.
        2    1    3    3  502    0 -0.64372293552E+03  0.10476221101E+04  0.87144902880E+03  0.15070881570E+04  0.25500000920E-02 0. -1.
       -2    1    3    3    0  502  0.64372293552E+03 -0.10476221101E+04 -0.20239659642E+04  0.23681911932E+04  0.25500000920E-02 0.  1.
</event>
<event>
 5   0  0.5714125E-09  0.3700559E+04  0.7818609E-02  0.8067838E-01
        1   -1    0    0  501    0  0.00000000000E+00  0.00000000000E+00  0.23275619849E+04  0.23275619849E+04  0.50400001928E-02 0. -1.
       -1   -1    0    0    0  501  0.00000000000E+00  0.00000000000E+00 -0.14708667667E+04  0.14708667667E+04  0.50400001928E-02 0.  1.
    10030    2    1    2    0    0  0.00000000000E+00  0.00000000000E+00  0.85669521814E+03  0.37984287516E+04  0.37005586449E+04 0.  0.
        3    1    3    3  502    0  0.86961474707E+03 -0.13757359091E+04 -0.47507448313E+03  0.16954571285E+04  0.10100000352E+00 0.  1.
       -3    1    3    3    0  502 -0.86961474707E+03  0.13757359091E+04  0.13317697013E+04  0.21029716231E+04  0.10100000352E+00 0. -1.
</event>
<event>
 5   0  0.5714125E-09  0.3701253E+04  0.7818609E-02  0.8067684E-01
        1   -1    0    0  501    0  0.00000000000E+00  0.00000000000E+00  0.14183684658E+04  0.14183684658E+04  0.50400001928E-02 0.  1.
       -1   -1    0    0    0  501  0.00000000000E+00  0.00000000000E+00 -0.24146186399E+04  0.24146186399E+04  0.50400001928E-02 0. -1.
    10030    2    1    2    0    0  0.00000000000E+00  0.00000000000E+00 -0.99625017410E+03  0.38329871057E+04  0.37012532665E+04 0.  0.
        5    1    3    3  502    0  0.14437944821E+04 -0.90109878750E+03 -0.12508195360E+04  0.21121299991E+04  0.46999998093E+01 0. -1.
       -5    1    3    3    0  502 -0.14437944821E+04  0.90109878750E+03  0.25456936193E+03  0.17208571066E+04  0.46999998093E+01 0.  1.
</event>
<event>
 5   0  0.1825308E-08  0.3699080E+04  0.7818609E-02  0.8068166E-01
       -2   -1    0    0    0  501  0.00000000000E+00  0.00000000000E+00  0.15481294724E+04  0.15481294724E+04  0.25500000920E-02 0.  1.
        2   -1    0    0  501    0  0.00000000000E+00  0.00000000000E+00 -0.22096336183E+04  0.22096336183E+04  0.25500000920E-02 0. -1.
    10030    2    1    2    0    0  0.00000000000E+00  0.00000000000E+00 -0.66150414593E+03  0.37577630907E+04  0.36990803872E+04 0.  0.
        4    1    3    3  502    0  0.63516140456E+03 -0.11248192822E+04 -0.16754388388E+04  0.21155957418E+04  0.12699999809E+01 0. -1.
       -4    1    3    3    0  502 -0.63516140456E+03  0.11248192822E+04  0.10139346929E+04  0.16421673489E+04  0.12699999809E+01 0.  1.
</event>
<event>
 5   0  0.1740290E-08  0.3699457E+04  0.7818609E-02  0.8068082E-01
        2   -1    0    0  501    0  0.00000000000E+00  0.00000000000E+00  0.19031644468E+04  0.19031644468E+04  0.25500000920E-02 0. -1.
       -2   -1    0    0    0  501  0.00000000000E+00  0.00000000000E+00 -0.17977928322E+04  0.17977928322E+04  0.25500000920E-02 0.  1.
    10030    2    1    2    0    0  0.00000000000E+00  0.00000000000E+00  0.10537161465E+03  0.37009572790E+04  0.36994569336E+04 0.  0.
        5    1    3    3  502    0  0.10411538329E+04  0.12914331164E+04  0.87135289809E+03  0.18737872774E+04  0.46999998093E+01 0.  1.
       -5    1    3    3    0  502 -0.10411538329E+04 -0.12914331164E+04 -0.76598128344E+03  0.18271700016E+04  0.46999998093E+01 0. -1.
</event>
<event>
 5   0  0.1725865E-08  0.3699801E+04  0.7818609E-02  0.8068006E-01
       -2   -1    0    0    0  501  0.00000000000E+00  0.00000000000E+00  0.15479149546E+04  0.15479149546E+04  0.25500000920E-02 0.  1.
        2   -1    0    0  501    0  0.00000000000E+00  0.00000000000E+00 -0.22108013836E+04  0.22108013836E+04  0.25500000920E-02 0. -1.
    10030    2    1    2    0    0  0.00000000000E+00  0.00000000000E+00 -0.66288642894E+03  0.37587163382E+04  0.36998013586E+04 0.  0.
        1    1    3    3  502    0  0.13919948847E+04 -0.11447878584E+04  0.92263431220E+02  0.18046333535E+04  0.50400001928E-02 0.  1.
       -1    1    3    3    0  502 -0.13919948847E+04  0.11447878584E+04 -0.75514986016E+03  0.19540829847E+04  0.50400001928E-02 0. -1.
</event>
<event>
 5   0  0.1725865E-08  0.3699529E+04  0.7818609E-02  0.8068066E-01
        2   -1    0    0  501    0  0.00000000000E+00  0.00000000000E+00  0.19943487431E+04  0.19943487431E+04  0.25500000920E-02 0.  1.
       -2   -1    0    0    0  501  0.00000000000E+00  0.00000000000E+00 -0.17156622763E+04  0.17156622764E+04  0.25500000920E-02 0. -1.
    10030    2    1    2    0    0  0.00000000000E+00  0.00000000000E+00  0.27868646679E+03  0.37100110195E+04  0.36995291076E+04 0.  0.
        1    1    3    3  502    0 -0.69660351166E+03  0.67673753855E+03  0.17180967906E+04  0.19735974084E+04  0.50400001928E-02 0.  1.
       -1    1    3    3    0  502  0.69660351166E+03 -0.67673753855E+03 -0.14394103238E+04  0.17364136111E+04  0.50400001928E-02 0. -1.
</event>
<event>
 5   0  0.5714125E-09  0.3698688E+04  0.7818609E-02  0.8068253E-01
       -3   -1    0    0    0  501  0.00000000000E+00  0.00000000000E+00  0.16622693993E+04  0.16622694023E+04  0.10100000352E+00 0. -1.
        3   -1    0    0  501    0  0.00000000000E+00  0.00000000000E+00 -0.20574722272E+04  0.20574722296E+04  0.10100000352E+00 0.  1.
    10030    2    1    2    0    0  0.00000000000E+00  0.00000000000E+00 -0.39520282787E+03  0.37197416320E+04  0.36986879476E+04 0.  0.
        4    1    3    3  502    0  0.12513195101E+03 -0.34799985525E+03  0.16247033169E+04  0.16662605994E+04  0.12699999809E+01 0. -1.
       -4    1    3    3    0  502 -0.12513195101E+03  0.34799985525E+03 -0.20199061448E+04  0.20534810325E+04  0.12699999809E+01 0.  1.
</event>
<event>
 5   0  0.5714125E-09  0.3700972E+04  0.7818609E-02  0.8067747E-01
       -3   -1    0    0    0  501  0.00000000000E+00  0.00000000000E+00  0.12821398756E+04  0.12821398796E+04  0.10100000352E+00 0. -1.
        3   -1    0    0  501    0  0.00000000000E+00  0.00000000000E+00 -0.26707678562E+04  0.26707678581E+04  0.10100000352E+00 0.  1.
    10030    2    1    2    0    0  0.00000000000E+00  0.00000000000E+00 -0.13886279806E+04  0.39529077376E+04  0.37009717526E+04 0.  0.
        4    1    3    3  502    0 -0.44260790272E+03  0.13001675763E+04 -0.20188789745E+04  0.24417639952E+04  0.12699999809E+01 0.  1.
       -4    1    3    3    0  502  0.44260790272E+03 -0.13001675763E+04  0.63025099393E+03  0.15111437424E+04  0.12699999809E+01 0. -1.
</event>
<event>
 5   0  0.1825308E-08  0.3684745E+04  0.7818609E-02  0.8071351E-01
       -2   -1    0    0    0  501  0.00000000000E+00  0.00000000000E+00  0.13099374889E+04  0.13099374889E+04  0.25500000920E-02 0. -1.
        2   -1    0    0  501    0  0.00000000000E+00  0.00000000000E+00 -0.25912201678E+04  0.25912201678E+04  0.25500000920E-02 0.  1.
    10030    2    1    2    0    0  0.00000000000E+00  0.00000000000E+00 -0.12812826789E+04  0.39011576568E+04  0.36847450061E+04 0.  0.
        4    1    3    3  502    0 -0.67902178472E+03  0.14838484794E+04 -0.15461252547E+04  0.22479728223E+04  0.12699999809E+01 0.  1.
       -4    1    3    3    0  502  0.67902178472E+03 -0.14838484794E+04  0.26484257577E+03  0.16531848344E+04  0.12699999809E+01 0. -1.
</event>
<event>
 5   0  0.5714125E-09  0.3700595E+04  0.7818609E-02  0.8067830E-01
       -1   -1    0    0    0  501  0.00000000000E+00  0.00000000000E+00  0.14528565667E+04  0.14528565667E+04  0.50400001928E-02 0.  1.
        1   -1    0    0  501    0  0.00000000000E+00  0.00000000000E+00 -0.23564616303E+04  0.23564616303E+04  0.50400001928E-02 0. -1.
    10030    2    1    2    0    0  0.00000000000E+00  0.00000000000E+00 -0.90360506354E+03  0.38093181970E+04  0.37005949542E+04 0.  0.
        4    1    3    3  502    0  0.87985566679E+03 -0.16271943060E+04 -0.40946213128E+03  0.18946155689E+04  0.12699999809E+01 0.  1.
       -4    1    3    3    0  502 -0.87985566679E+03  0.16271943060E+04 -0.49414293226E+03  0.19147026282E+04  0.12699999809E+01 0. -1.
</event>
<event>
 5   0  0.1825308E-08  0.3700292E+04  0.7818609E-02  0.8067897E-01
        2   -1    0    0  501    0  0.00000000000E+00  0.00000000000E+00  0.29643186786E+04  0.29643186786E+04  0.25500000920E-02 0.  1.
       -2   -1    0    0    0  501  0.00000000000E+00  0.00000000000E+00 -0.11547475861E+04  0.11547475861E+04  0.25500000920E-02 0. -1.
    10030    2    1    2    0    0  0.00000000000E+00  0.00000000000E+00  0.18095710925E+04  0.41190662647E+04  0.37002917932E+04 0.  0.
        4    1    3    3  502    0  0.78824674284E+03 -0.16434885116E+04  0.55162559811E+03  0.19043843700E+04  0.12699999809E+01 0.  1.
       -4    1    3    3    0  502 -0.78824674284E+03  0.16434885116E+04  0.12579454944E+04  0.22146818948E+04  0.12699999809E+01 0. -1.
</event>
<event>
 5   0  0.5714125E-09  0.3689195E+04  0.7818609E-02  0.8070361E-01
       -1   -1    0    0    0  501  0.00000000000E+00  0.00000000000E+00  0.25325062391E+04  0.25325062391E+04  0.50400001928E-02 0.  1.
        1   -1    0    0  501    0  0.00000000000E+00  0.00000000000E+00 -0.13435465224E+04  0.13435465224E+04  0.50400001928E-02 0. -1.
    10030    2    1    2    0    0  0.00000000000E+00  0.00000000000E+00  0.11889597167E+04  0.38760527616E+04  0.36891950074E+04 0.  0.
        3    1    3    3  502    0  0.14713740736E+04 -0.13265719149E+03 -0.56600116931E+03  0.15820546542E+04  0.10100000352E+00 0. -1.
       -3    1    3    3    0  502 -0.14713740736E+04  0.13265719149E+03  0.17549608860E+04  0.22939981074E+04  0.10100000352E+00 0.  1.
</event>
<event>
 5   0  0.5714125E-09  0.3700085E+04  0.7818609E-02  0.8067943E-01
        1   -1    0    0  501    0  0.00000000000E+00  0.00000000000E+00  0.14218125229E+04  0.14218125229E+04  0.50400001928E-02 0.  1.
       -1   -1    0    0    0  501  0.00000000000E+00  0.00000000000E+00 -0.24072494905E+04  0.24072494906E+04  0.50400001928E-02 0. -1.
    10030    2    1    2    0    0  0.00000000000E+00  0.00000000000E+00 -0.98543696761E+03  0.38290620135E+04  0.37000851188E+04 0.  0.
        4    1    3    3  502    0 -0.51136005758E+03 -0.21934547136E+03 -0.23186060621E+04  0.23844364593E+04  0.12699999809E+01 0. -1.
       -4    1    3    3    0  502  0.51136005758E+03  0.21934547136E+03  0.13331690945E+04  0.14446255542E+04  0.12699999809E+01 0.  1.
</event>
<event>
 5   0  0.5714125E-09  0.3699599E+04  0.7818609E-02  0.8068051E-01
       -1   -1    0    0    0  501  0.00000000000E+00  0.00000000000E+00  0.11403649723E+04  0.11403649723E+04  0.50400001928E-02 0.  1.
        1   -1    0    0  501    0  0.00000000000E+00  0.00000000000E+00 -0.30005812363E+04  0.30005812363E+04  0.50400001928E-02 0. -1.
    10030    2    1    2    0    0  0.00000000000E+00  0.00000000000E+00 -0.18602162640E+04  0.41409462086E+04  0.36995987558E+04 0.  0.
        2    1    3    3  502    0 -0.14581184626E+04  0.55643468012E+03  0.18134140644E+03  0.15711822650E+04  0.25500000920E-02 0.  1.
       -2    1    3    3    0  502  0.14581184626E+04 -0.55643468012E+03 -0.20415576705E+04  0.25697639436E+04  0.25500000920E-02 0. -1.
</event>
<event>
 5   0  0.1725865E-08  0.3697334E+04  0.7818609E-02  0.8068553E-01
        2   -1    0    0  501    0  0.00000000000E+00  0.00000000000E+00  0.17031705373E+04  0.17031705373E+04  0.25500000920E-02 0.  1.
       -2   -1    0    0    0  501  0.00000000000E+00  0.00000000000E+00 -0.20065930526E+04  0.20065930526E+04  0.25500000920E-02 0. -1.
    10030    2    1    2    0    0  0.00000000000E+00  0.00000000000E+00 -0.30342251531E+03  0.37097635900E+04  0.36973342655E+04 0.  0.
        1    1    3    3  502    0  0.70274332286E+03 -0.72322485632E+03 -0.17063287577E+04  0.19820343590E+04  0.50400001928E-02 0. -1.
       -1    1    3    3    0  502 -0.70274332286E+03  0.72322485632E+03  0.14029062424E+04  0.17277292310E+04  0.50400001928E-02 0.  1.
</event>
<event>
 5   0  0.5714125E-09  0.3707588E+04  0.7818609E-02  0.8066282E-01
       -1   -1    0    0    0  501  0.00000000000E+00  0.00000000000E+00  0.16190195170E+04  0.16190195170E+04  0.50400001928E-02 0.  1.
        1   -1    0    0  501    0  0.00000000000E+00  0.00000000000E+00 -0.21226130203E+04  0.21226130203E+04  0.50400001928E-02 0. -1.
    10030    2    1    2    0    0  0.00000000000E+00  0.00000000000E+00 -0.50359350330E+03  0.37416325373E+04  0.37075878449E+04 0.  0.
        1    1    3    3  502    0  0.69180063808E+03  0.13375845782E+04  0.83925561759E+03  0.17239694366E+04  0.50400001928E-02 0.  1.
       -1    1    3    3    0  502 -0.69180063808E+03 -0.13375845782E+04 -0.13428491209E+04  0.20176631008E+04  0.50400001928E-02 0. -1.
</event>
<event>
 5   0  0.1725865E-08  0.3681962E+04  0.7818609E-02  0.8071971E-01
       -2   -1    0    0    0  501  0.00000000000E+00  0.00000000000E+00  0.21801694070E+04  0.21801694070E+04  0.25500000920E-02 0. -1.
        2   -1    0    0  501    0  0.00000000000E+00  0.00000000000E+00 -0.15545629839E+04  0.15545629839E+04  0.25500000920E-02 0.  1.
    10030    2    1    2    0    0  0.00000000000E+00  0.00000000000E+00  0.62560642317E+03  0.37347323909E+04  0.36819617916E+04 0.  0.
        1    1    3    3  502    0  0.39379032286E+02  0.11801336098E+04 -0.11198650244E+04  0.16273794020E+04  0.50400001928E-02 0.  1.
       -1    1    3    3    0  502 -0.39379032286E+02 -0.11801336098E+04  0.17454714476E+04  0.21073529889E+04  0.50400001928E-02 0. -1.
</event>
<event>
 5   0  0.1856107E-08  0.3700997E+04  0.7818609E-02  0.8067741E-01
       -2   -1    0    0    0  501  0.00000000000E+00  0.00000000000E+00  0.21948621298E+04  0.21948621298E+04  0.25500000920E-02 0. -1.
        2   -1    0    0  501    0  0.00000000000E+00  0.00000000000E+00 -0.15601638981E+04  0.15601638981E+04  0.25500000920E-02 0.  1.
    10030    2    1    2    0    0  0.00000000000E+00  0.00000000000E+00  0.63469823171E+03  0.37550260279E+04  0.37009969771E+04 0.  0.
        2    1    3    3  502    0  0.13947136498E+04 -0.63362397064E+03 -0.73589951349E+03  0.16994862739E+04  0.25500000920E-02 0.  1.
       -2    1    3    3    0  502 -0.13947136498E+04  0.63362397064E+03  0.13705977452E+04  0.20555397540E+04  0.25500000920E-02 0. -1.
</event>
<event>
 5   0  0.1825308E-08  0.3699594E+04  0.7818609E-02  0.8068052E-01
        2   -1    0    0  501    0  0.00000000000E+00  0.00000000000E+00  0.22517782518E+04  0.22517782518E+04  0.25500000920E-02 0. -1.
       -2   -1    0    0    0  501  0.00000000000E+00  0.00000000000E+00 -0.15195763134E+04  0.15195763134E+04  0.25500000920E-02 0.  1.
    10030    2    1    2    0    0  0.00000000000E+00  0.00000000000E+00  0.73220193841E+03  0.37713545653E+04  0.36995939748E+04 0.  0.
        4    1    3    3  502    0  0.95191352192E+03  0.15805735063E+04  0.23165137154E+03  0.18595741268E+04  0.12699999809E+01 0. -1.
       -4    1    3    3    0  502 -0.95191352192E+03 -0.15805735063E+04  0.50055056687E+03  0.19117804385E+04  0.12699999809E+01 0.  1.
</event>
<event>
 5   0  0.5714125E-09  0.3700270E+04  0.7818609E-02  0.8067902E-01
        1   -1    0    0  501    0  0.00000000000E+00  0.00000000000E+00  0.16286270841E+04  0.16286270841E+04  0.50400001928E-02 0. -1.
       -1   -1    0    0    0  501  0.00000000000E+00  0.00000000000E+00 -0.21017703684E+04  0.21017703684E+04  0.50400001928E-02 0.  1.
    10030    2    1    2    0    0  0.00000000000E+00  0.00000000000E+00 -0.47314328428E+03  0.37303974526E+04  0.37002703397E+04 0.  0.
        4    1    3    3  502    0 -0.12078731333E+04  0.13922626576E+04 -0.75124970044E+02  0.18447217102E+04  0.12699999809E+01 0. -1.
       -4    1    3    3    0  502  0.12078731333E+04 -0.13922626576E+04 -0.39801831423E+03  0.18856757424E+04  0.12699999809E+01 0.  1.
</event>
<event>
 5   0  0.5714125E-09  0.3701143E+04  0.7818609E-02  0.8067709E-01
        1   -1    0    0  501    0  0.00000000000E+00  0.00000000000E+00  0.16650738545E+04  0.16650738545E+04  0.50400001928E-02 0. -1.
       -1   -1    0    0    0  501  0.00000000000E+00  0.00000000000E+00 -0.20567347945E+04  0.20567347945E+04  0.50400001928E-02 0.  1.
    10030    2    1    2    0    0  0.00000000000E+00  0.00000000000E+00 -0.39166094000E+03  0.37218086491E+04  0.37011432461E+04 0.  0.
        1    1    3    3  502    0  0.51918054736E+03 -0.17478150564E+04 -0.51415669648E+03  0.18944030776E+04  0.50400001928E-02 0. -1.
       -1    1    3    3    0  502 -0.51918054736E+03  0.17478150564E+04  0.12249575647E+03  0.18274055714E+04  0.50400001928E-02 0.  1.
</event>
<event>
 5   0  0.1825308E-08  0.3700743E+04  0.7818609E-02  0.8067797E-01
        2   -1    0    0  501    0  0.00000000000E+00  0.00000000000E+00  0.17110438360E+04  0.17110438360E+04  0.25500000920E-02 0.  1.
       -2   -1    0    0    0  501  0.00000000000E+00  0.00000000000E+00 -0.20010447736E+04  0.20010447736E+04  0.25500000920E-02 0. -1.
    10030    2    1    2    0    0  0.00000000000E+00  0.00000000000E+00 -0.29000093754E+03  0.37120886096E+04  0.37007433445E+04 0.  0.
        4    1    3    3  502    0 -0.60880358043E+03 -0.95823847734E+03  0.13206466530E+04  0.17415429865E+04  0.12699999809E+01 0.  1.
       -4    1    3    3    0  502  0.60880358043E+03  0.95823847734E+03 -0.16106475905E+04  0.19705456231E+04  0.12699999809E+01 0. -1.
</event>
<event>
 5   0  0.1757996E-08  0.3699533E+04  0.7818609E-02  0.8068065E-01
        2   -1    0    0  501    0  0.00000000000E+00  0.00000000000E+00  0.14386548109E+04  0.14386548109E+04  0.25500000920E-02 0. -1.
       -2   -1    0    0    0  501  0.00000000000E+00  0.00000000000E+00 -0.23783574422E+04  0.23783574422E+04  0.25500000920E-02 0.  1.
    10030    2    1    2    0    0  0.00000000000E+00  0.00000000000E+00 -0.93970263130E+03  0.38170122531E+04  0.36995326063E+04 0.  0.
        3    1    3    3  502    0 -0.66618672675E+03  0.79378409374E+02 -0.22484039855E+04  0.23463644600E+04  0.10100000352E+00 0.  1.
       -3    1    3    3    0  502  0.66618672675E+03 -0.79378409374E+02  0.13087013542E+04  0.14706477931E+04  0.10100000352E+00 0. -1.
</event>
<event>
 5   0  0.5714125E-09  0.3700300E+04  0.7818609E-02  0.8067895E-01
        1   -1    0    0  501    0  0.00000000000E+00  0.00000000000E+00  0.20064025258E+04  0.20064025258E+04  0.50400001928E-02 0.  1.
       -1   -1    0    0    0  501  0.00000000000E+00  0.00000000000E+00 -0.17060657434E+04  0.17060657434E+04  0.50400001928E-02 0. -1.
    10030    2    1    2    0    0  0.00000000000E+00  0.00000000000E+00  0.30033678239E+03  0.37124682691E+04  0.37002997806E+04 0.  0.
        2    1    3    3  502    0  0.69026317554E+02 -0.20354874896E+03 -0.16934975492E+04  0.17070825039E+04  0.25500000920E-02 0. -1.
       -2    1    3    3    0  502 -0.69026317554E+02  0.20354874896E+03  0.19938343316E+04  0.20053857653E+04  0.25500000920E-02 0.  1.
</event>
<event>
 5   0  0.5714125E-09  0.3700080E+04  0.7818609E-02  0.8067944E-01
        1   -1    0    0  501    0  0.00000000000E+00  0.00000000000E+00  0.13013191312E+04  0.13013191312E+04  0.50400001928E-02 0. -1.
       -1   -1    0    0    0  501  0.00000000000E+00  0.00000000000E+00 -0.26301373677E+04  0.26301373677E+04  0.50400001928E-02 0.  1.
    10030    2    1    2    0    0  0.00000000000E+00  0.00000000000E+00 -0.13288182365E+04  0.39314564989E+04  0.37000800393E+04 0.  0.
        3    1    3    3  502    0  0.10749547444E+04 -0.45870689619E+03  0.85939348434E+03  0.14506884194E+04  0.10100000352E+00 0. -1.
       -3    1    3    3    0  502 -0.10749547444E+04  0.45870689619E+03 -0.21882117208E+04  0.24807680795E+04  0.10100000352E+00 0.  1.
</event>
<event>
 5   0  0.1856107E-08  0.3700983E+04  0.7818609E-02  0.8067744E-01
        2   -1    0    0  501    0  0.00000000000E+00  0.00000000000E+00  0.26856688130E+04  0.26856688130E+04  0.25500000920E-02 0.  1.
       -2   -1    0    0    0  501  0.00000000000E+00  0.00000000000E+00 -0.12750336304E+04  0.12750336304E+04  0.25500000920E-02 0. -1.
    10030    2    1    2    0    0  0.00000000000E+00  0.00000000000E+00  0.14106351826E+04  0.39607024434E+04  0.37009826029E+04 0.  0.
        2    1    3    3  502    0  0.19517997850E+03 -0.81055708570E+03 -0.10626506067E+04  0.13506755070E+04  0.25500000920E-02 0. -1.
       -2    1    3    3    0  502 -0.19517997850E+03  0.81055708570E+03  0.24732857893E+04  0.26100269364E+04  0.25500000920E-02 0.  1.
</event>
<event>
 5   0  0.1825308E-08  0.3696692E+04  0.7818609E-02  0.8068695E-01
        2   -1    0    0  501    0  0.00000000000E+00  0.00000000000E+00  0.24596193160E+04  0.24596193160E+04  0.25500000920E-02 0. -1.
       -2   -1    0    0    0  501  0.00000000000E+00  0.00000000000E+00 -0.13889885759E+04  0.13889885759E+04  0.25500000920E-02 0.  1.
    10030    2    1    2    0    0  0.00000000000E+00  0.00000000000E+00  0.10706307401E+04  0.38486078919E+04  0.36966921056E+04 0.  0.
        4    1    3    3  502    0 -0.10808321296E+04  0.10041949470E+04  0.16945250176E+04  0.22467804148E+04  0.12699999809E+01 0. -1.
       -4    1    3    3    0  502  0.10808321296E+04 -0.10041949470E+04 -0.62389427752E+03  0.16018274771E+04  0.12699999809E+01 0.  1.
</event>
<event>
 5   0  0.5714125E-09  0.3699097E+04  0.7818609E-02  0.8068162E-01
       -1   -1    0    0    0  501  0.00000000000E+00  0.00000000000E+00  0.22096976258E+04  0.22096976258E+04  0.50400001928E-02 0. -1.
        1   -1    0    0  501    0  0.00000000000E+00  0.00000000000E+00 -0.15480988023E+04  0.15480988023E+04  0.50400001928E-02 0.  1.
    10030    2    1    2    0    0  0.00000000000E+00  0.00000000000E+00  0.66159882350E+03  0.37577964281E+04  0.36990973212E+04 0.  0.
        1    1    3    3  502    0  0.14084727468E+04 -0.64199744236E+03  0.13592246853E+04  0.20599630918E+04  0.50400001928E-02 0. -1.
       -1    1    3    3    0  502 -0.14084727468E+04  0.64199744236E+03 -0.69762586179E+03  0.16978333362E+04  0.50400001928E-02 0.  1.
</event>
<event>
 5   0  0.5714125E-09  0.3698831E+04  0.7818609E-02  0.8068221E-01
        1   -1    0    0  501    0  0.00000000000E+00  0.00000000000E+00  0.15315481777E+04  0.15315481777E+04  0.50400001928E-02 0.  1.
       -1   -1    0    0    0  501  0.00000000000E+00  0.00000000000E+00 -0.22332554501E+04  0.22332554502E+04  0.50400001928E-02 0. -1.
    10030    2    1    2    0    0  0.00000000000E+00  0.00000000000E+00 -0.70170727243E+03  0.37648036279E+04  0.36988313371E+04 0.  0.
        1    1    3    3  502    0 -0.76001380584E+03 -0.13716450335E+04  0.64709664461E+03  0.16963976982E+04  0.50400001928E-02 0.  1.
       -1    1    3    3    0  502  0.76001380584E+03  0.13716450335E+04 -0.13488039170E+04  0.20684059296E+04  0.50400001928E-02 0. -1.
</event>
<event>
 5   0  0.1757996E-08  0.3699771E+04  0.7818609E-02  0.8068013E-01
        2   -1    0    0  501    0  0.00000000000E+00  0.00000000000E+00  0.19848853268E+04  0.19848853268E+04  0.25500000920E-02 0. -1.
       -2   -1    0    0    0  501  0.00000000000E+00  0.00000000000E+00 -0.17240671820E+04  0.17240671820E+04  0.25500000920E-02 0.  1.
    10030    2    1    2    0    0  0.00000000000E+00  0.00000000000E+00  0.26081814474E+03  0.37089525088E+04  0.36997706156E+04 0.  0.
        3    1    3    3  502    0 -0.47021590165E+03 -0.18094736350E+03 -0.16539607616E+04  0.17289971525E+04  0.10100000352E+00 0.  1.
       -3    1    3    3    0  502  0.47021590165E+03  0.18094736350E+03  0.19147789063E+04  0.19799553562E+04  0.10100000352E+00 0. -1.
</event>
<event>
 5   0  0.5714125E-09  0.3700492E+04  0.7818609E-02  0.8067853E-01
        1   -1    0    0  501    0  0.00000000000E+00  0.00000000000E+00  0.20295963082E+04  0.20295963082E+04  0.50400001928E-02 0.  1.
       -1   -1    0    0    0  501  0.00000000000E+00  0.00000000000E+00 -0.16867446544E+04  0.16867446544E+04  0.50400001928E-02 0. -1.
    10030    2    1    2    0    0  0.00000000000E+00  0.00000000000E+00  0.34285165377E+03  0.37163409626E+04  0.37004922502E+04 0.  0.
        4    1    3    3  502    0 -0.11439646296E+04 -0.96870985019E+02 -0.12857779006E+04  0.17237359090E+04  0.12699999809E+01 0. -1.
       -4    1    3    3    0  502  0.11439646296E+04  0.96870985019E+02  0.16286295543E+04  0.19926050536E+04  0.12699999809E+01 0.  1.
</event>
<event>
 5   0  0.5714125E-09  0.3701981E+04  0.7818609E-02  0.8067523E-01
        1   -1    0    0  501    0  0.00000000000E+00  0.00000000000E+00  0.19510768023E+04  0.19510768023E+04  0.50400001928E-02 0.  1.
       -1   -1    0    0    0  501  0.00000000000E+00  0.00000000000E+00 -0.17560380592E+04  0.17560380592E+04  0.50400001928E-02 0. -1.
    10030    2    1    2    0    0  0.00000000000E+00  0.00000000000E+00  0.19503874308E+03  0.37071148616E+04  0.37019806166E+04 0.  0.
        1    1    3    3  502    0  0.12292034617E+04  0.72816954638E+02  0.14814352085E+04  0.19263680168E+04  0.50400001928E-02 0.  1.
       -1    1    3    3    0  502 -0.12292034617E+04 -0.72816954638E+02 -0.12863964654E+04  0.17807468448E+04  0.50400001928E-02 0. -1.
</event>
<event>
 5   0  0.5714125E-09  0.3687855E+04  0.7818609E-02  0.8070659E-01
        1   -1    0    0  501    0  0.00000000000E+00  0.00000000000E+00  0.20905034808E+04  0.20905034808E+04  0.50400001928E-02 0.  1.
       -1   -1    0    0    0  501  0.00000000000E+00  0.00000000000E+00 -0.16264357149E+04  0.16264357149E+04  0.50400001928E-02 0. -1.
    10030    2    1    2    0    0  0.00000000000E+00  0.00000000000E+00  0.46406776596E+03  0.37169391957E+04  0.36878554870E+04 0.  0.
        1    1    3    3  502    0 -0.16084742727E+04 -0.62273080123E+03  0.88916216729E+03  0.19405134621E+04  0.50400001928E-02 0.  1.
       -1    1    3    3    0  502  0.16084742727E+04  0.62273080123E+03 -0.42509440133E+03  0.17764257336E+04  0.50400001928E-02 0. -1.
</event>
<event>
 5   0  0.5714125E-09  0.3700170E+04  0.7818609E-02  0.8067924E-01
        1   -1    0    0  501    0  0.00000000000E+00  0.00000000000E+00  0.12300256233E+04  0.12300256233E+04  0.50400001928E-02 0.  1.
       -1   -1    0    0    0  501  0.00000000000E+00  0.00000000000E+00 -0.27827180635E+04  0.27827180635E+04  0.50400001928E-02 0. -1.
    10030    2    1    2    0    0  0.00000000000E+00  0.00000000000E+00 -0.15526924402E+04  0.40127436868E+04  0.37001700072E+04 0.  0.
        3    1    3    3  502    0  0.11796223787E+04 -0.14142106665E+04 -0.58444079835E+03  0.19321158927E+04  0.10100000352E+00 0. -1.
       -3    1    3    3    0  502 -0.11796223787E+04  0.14142106665E+04 -0.96825164180E+03  0.20806277941E+04  0.10100000352E+00 0.  1.
</event>
<event>
 5   0  0.1740290E-08  0.3697842E+04  0.7818609E-02  0.8068440E-01
        2   -1    0    0  501    0  0.00000000000E+00  0.00000000000E+00  0.20064933186E+04  0.20064933186E+04  0.25500000920E-02 0. -1.
       -2   -1    0    0    0  501  0.00000000000E+00  0.00000000000E+00 -0.17037230184E+04  0.17037230184E+04  0.25500000920E-02 0.  1.
    10030    2    1    2    0    0  0.00000000000E+00  0.00000000000E+00  0.30277030019E+03  0.37102163370E+04  0.36978419940E+04 0.  0.
        5    1    3    3  502    0  0.97198159902E+03 -0.96129321827E+02  0.17265103902E+04  0.19836454554E+04  0.46999998093E+01 0. -1.
       -5    1    3    3    0  502 -0.97198159902E+03  0.96129321827E+02 -0.14237400900E+04  0.17265708816E+04  0.46999998093E+01 0.  1.
</event>
<event>
 5   0  0.5714125E-09  0.3699671E+04  0.7818609E-02  0.8068035E-01
        1   -1    0    0  501    0  0.00000000000E+00  0.00000000000E+00  0.15925350514E+04  0.15925350514E+04  0.50400001928E-02 0. -1.
       -1   -1    0    0    0  501  0.00000000000E+00  0.00000000000E+00 -0.21487067944E+04  0.21487067944E+04  0.50400001928E-02 0.  1.
    10030    2    1    2    0    0  0.00000000000E+00  0.00000000000E+00 -0.55617174302E+03  0.37412418458E+04  0.36996707342E+04 0.  0.
        4    1    3    3  502    0  0.17812691874E+04  0.66067379300E+01  0.22644481090E+03  0.17956175629E+04  0.12699999809E+01 0.  1.
       -4    1    3    3    0  502 -0.17812691874E+04 -0.66067379300E+01 -0.78261655391E+03  0.19456242829E+04  0.12699999809E+01 0. -1.
</event>
<event>
 5   0  0.5714125E-09  0.3701888E+04  0.7818609E-02  0.8067544E-01
       -1   -1    0    0    0  501  0.00000000000E+00  0.00000000000E+00  0.13629765816E+04  0.13629765816E+04  0.50400001928E-02 0.  1.
        1   -1    0    0  501    0  0.00000000000E+00  0.00000000000E+00 -0.25136111488E+04  0.25136111488E+04  0.50400001928E-02 0. -1.
    10030    2    1    2    0    0  0.00000000000E+00  0.00000000000E+00 -0.11506345671E+04  0.38765877304E+04  0.37018876974E+04 0.  0.
        1    1    3    3  502    0  0.17785572601E+04 -0.20011203293E+03 -0.81155333277E+02  0.17916185256E+04  0.50400001928E-02 0. -1.
       -1    1    3    3    0  502 -0.17785572601E+04  0.20011203293E+03 -0.10694792339E+04  0.20849692048E+04  0.50400001928E-02 0.  1.
</event>
<event>
 5   0  0.5714125E-09  0.3700709E+04  0.7818609E-02  0.8067805E-01
        1   -1    0    0  501    0  0.00000000000E+00  0.00000000000E+00  0.22160648564E+04  0.22160648564E+04  0.50400001928E-02 0.  1.
       -1   -1    0    0    0  501  0.00000000000E+00  0.00000000000E+00 -0.15449964172E+04  0.15449964172E+04  0.50400001928E-02 0. -1.
    10030    2    1    2    0    0  0.00000000000E+00  0.00000000000E+00  0.67106843924E+03  0.37610612736E+04  0.37007092636E+04 0.  0.
        3    1    3    3  502    0  0.16812030916E+04  0.58734471267E+03  0.84611619203E+03  0.19716313720E+04  0.10100000352E+00 0. -1.
       -3    1    3    3    0  502 -0.16812030916E+04 -0.58734471267E+03 -0.17504775279E+03  0.17894299015E+04  0.10100000352E+00 0.  1.
</event>
<event>
 5   0  0.1740290E-08  0.3699254E+04  0.7818609E-02  0.8068127E-01
        2   -1    0    0  501    0  0.00000000000E+00  0.00000000000E+00  0.26440523545E+04  0.26440523545E+04  0.25500000920E-02 0. -1.
       -2   -1    0    0    0  501  0.00000000000E+00  0.00000000000E+00 -0.12938928165E+04  0.12938928165E+04  0.25500000920E-02 0.  1.
    10030    2    1    2    0    0  0.00000000000E+00  0.00000000000E+00  0.13501595380E+04  0.39379451710E+04  0.36992541669E+04 0.  0.
        5    1    3    3  502    0  0.63367438206E+02  0.10021720463E+04 -0.97844314226E+03  0.14020475439E+04  0.46999998093E+01 0.  1.
       -5    1    3    3    0  502 -0.63367438206E+02 -0.10021720463E+04  0.23286026802E+04  0.25358976271E+04  0.46999998093E+01 0. -1.
</event>
<event>
 5   0  0.1825308E-08  0.3699707E+04  0.7818609E-02  0.8068027E-01
        2   -1    0    0  501    0  0.00000000000E+00  0.00000000000E+00  0.19619824951E+04  0.19619824951E+04  0.25500000920E-02 0.  1.
       -2   -1    0    0    0  501  0.00000000000E+00  0.00000000000E+00 -0.17441323531E+04  0.17441323531E+04  0.25500000920E-02 0. -1.
    10030    2    1    2    0    0  0.00000000000E+00  0.00000000000E+00  0.21785014205E+03  0.37061148482E+04  0.36997065538E+04 0.  0.
        4    1    3    3  502    0 -0.13485341267E+04  0.10287946232E+04 -0.63058995547E+03  0.18095877908E+04  0.12699999809E+01 0. -1.
       -4    1    3    3    0  502  0.13485341267E+04 -0.10287946232E+04  0.84844009752E+03  0.18965270575E+04  0.12699999809E+01 0.  1.
</event>
<event>
 5   0  0.5714125E-09  0.3698796E+04  0.7818609E-02  0.8068229E-01
       -1   -1    0    0    0  501  0.00000000000E+00  0.00000000000E+00  0.21966541243E+04  0.21966541243E+04  0.50400001928E-02 0.  1.
        1   -1    0    0  501    0  0.00000000000E+00  0.00000000000E+00 -0.15570378949E+04  0.15570378949E+04  0.50400001928E-02 0. -1.
    10030    2    1    2    0    0  0.00000000000E+00  0.00000000000E+00  0.63961622942E+03  0.37536920192E+04  0.36987964062E+04 0.  0.
        5    1    3    3  502    0 -0.67802890920E+03  0.16293454576E+04 -0.24135591382E+03  0.17812255863E+04  0.46999998093E+01 0. -1.
       -5    1    3    3    0  502  0.67802890920E+03 -0.16293454576E+04  0.88097214324E+03  0.19724664330E+04  0.46999998093E+01 0.  1.
</event>
<event>
 5   0  0.1825308E-08  0.3726190E+04  0.7818609E-02  0.8062182E-01
        2   -1    0    0  501    0  0.00000000000E+00  0.00000000000E+00  0.22193543571E+04  0.22193543571E+04  0.25500000920E-02 0. -1.
       -2   -1    0    0    0  501  0.00000000000E+00  0.00000000000E+00 -0.15640240245E+04  0.15640240245E+04  0.25500000920E-02 0.  1.
    10030    2    1    2    0    0  0.00000000000E+00  0.00000000000E+00  0.65533033258E+03  0.37833783817E+04  0.37261902976E+04 0.  0.
        4    1    3    3  502    0 -0.24839591367E+03  0.53722973659E+03 -0.14660278021E+04  0.15809982446E+04  0.12699999809E+01 0.  1.
       -4    1    3    3    0  502  0.24839591367E+03 -0.53722973659E+03  0.21213581347E+04  0.22023801371E+04  0.12699999809E+01 0. -1.
</event>
<event>
 5   0  0.5714125E-09  0.3700925E+04  0.7818609E-02  0.8067757E-01
        1   -1    0    0  501    0  0.00000000000E+00  0.00000000000E+00  0.23759054357E+04  0.23759054357E+04  0.50400001928E-02 0. -1.
       -1   -1    0    0    0  501  0.00000000000E+00  0.00000000000E+00 -0.14412237271E+04  0.14412237271E+04  0.50400001928E-02 0.  1.
    10030    2    1    2    0    0  0.00000000000E+00  0.00000000000E+00  0.93468170861E+03  0.38171291628E+04  0.37009249045E+04 0.  0.
        3    1    3    3  502    0  0.89460046486E+03  0.12044052482E+04  0.15845457657E+04  0.21821290721E+04  0.10100000352E+00 0. -1.
       -3    1    3    3    0  502 -0.89460046486E+03 -0.12044052482E+04 -0.64986405711E+03  0.16350000907E+04  0.10100000352E+00 0.  1.
</event>
<event>
 5   0  0.1856107E-08  0.3696932E+04  0.7818609E-02  0.8068642E-01
       -2   -1    0    0    0  501  0.00000000000E+00  0.00000000000E+00  0.15840102304E+04  0.15840102304E+04  0.25500000920E-02 0.  1.
        2   -1    0    0  501    0  0.00000000000E+00  0.00000000000E+00 -0.21570739068E+04  0.21570739068E+04  0.25500000920E-02 0. -1.
    10030    2    1    2    0    0  0.00000000000E+00  0.00000000000E+00 -0.57306367633E+03  0.37410841372E+04  0.36969323154E+04 0.  0.
        2    1    3    3  502    0 -0.19945929075E+03 -0.56570585077E+03 -0.20558466672E+04  0.21415677989E+04  0.25500000920E-02 0. -1.
       -2    1    3    3    0  502  0.19945929075E+03  0.56570585077E+03  0.14827829909E+04  0.15995163383E+04  0.25500000920E-02 0.  1.
</event>
<event>
 5   0  0.1725865E-08  0.3701565E+04  0.7818609E-02  0.8067615E-01
       -2   -1    0    0    0  501  0.00000000000E+00  0.00000000000E+00  0.15679086700E+04  0.15679086700E+04  0.25500000920E-02 0. -1.
        2   -1    0    0  501    0  0.00000000000E+00  0.00000000000E+00 -0.21846909466E+04  0.21846909466E+04  0.25500000920E-02 0.  1.
    10030    2    1    2    0    0  0.00000000000E+00  0.00000000000E+00 -0.61678227661E+03  0.37525996165E+04  0.37015650076E+04 0.  0.
        1    1    3    3  502    0  0.13608663579E+04 -0.20892132141E+03 -0.15622909313E+04  0.20823924502E+04  0.50400001928E-02 0.  1.
       -1    1    3    3    0  502 -0.13608663579E+04  0.20892132141E+03  0.94550865467E+03  0.16702071664E+04  0.50400001928E-02 0. -1.
</event>
<event>
 5   0  0.5714125E-09  0.3695939E+04  0.7818609E-02  0.8068862E-01
       -1   -1    0    0    0  501  0.00000000000E+00  0.00000000000E+00  0.17097356330E+04  0.17097356330E+04  0.50400001928E-02 0. -1.
        1   -1    0    0  501    0  0.00000000000E+00  0.00000000000E+00 -0.19973796041E+04  0.19973796041E+04  0.50400001928E-02 0.  1.
    10030    2    1    2    0    0  0.00000000000E+00  0.00000000000E+00 -0.28764397101E+03  0.37071152371E+04  0.36959388966E+04 0.  0.
        4    1    3    3  502    0 -0.16907834746E+04 -0.10876731401E+03  0.59625091760E+03  0.17961335853E+04  0.12699999809E+01 0. -1.
       -4    1    3    3    0  502  0.16907834746E+04  0.10876731401E+03 -0.88389488861E+03  0.19109816518E+04  0.12699999809E+01 0.  1.
</event>
<event>
 5   0  0.1725865E-08  0.3699185E+04  0.7818609E-02  0.8068143E-01
       -2   -1    0    0    0  501  0.00000000000E+00  0.00000000000E+00  0.13451021303E+04  0.13451021303E+04  0.25500000920E-02 0.  1.
        2   -1    0    0  501    0  0.00000000000E+00  0.00000000000E+00 -0.25432953045E+04  0.25432953045E+04  0.25500000920E-02 0. -1.
    10030    2    1    2    0    0  0.00000000000E+00  0.00000000000E+00 -0.11981931741E+04  0.38883974348E+04  0.36991847384E+04 0.  0.
        1    1    3    3  502    0  0.13141566293E+03  0.17312680944E+04  0.71033191107E+02  0.17377010691E+04  0.50400001928E-02 0.  1.
       -1    1    3    3    0  502 -0.13141566293E+03 -0.17312680944E+04 -0.12692263652E+04  0.21506963657E+04  0.50400001928E-02 0. -1.
</event>
<event>
 5   0  0.5714125E-09  0.3699319E+04  0.7818609E-02  0.8068113E-01
        1   -1    0    0  501    0  0.00000000000E+00  0.00000000000E+00  0.14822556659E+04  0.14822556659E+04  0.50400001928E-02 0.  1.
       -1   -1    0    0    0  501  0.00000000000E+00  0.00000000000E+00 -0.23081312484E+04  0.23081312484E+04  0.50400001928E-02 0. -1.
    10030    2    1    2    0    0  0.00000000000E+00  0.00000000000E+00 -0.82587558249E+03  0.37903869142E+04  0.36993191917E+04 0.  0.
        2    1    3    3  502    0 -0.40440015942E+03 -0.29858468584E+03  0.14109239171E+04  0.14977979181E+04  0.25500000920E-02 0.  1.
       -2    1    3    3    0  502  0.40440015942E+03  0.29858468584E+03 -0.22367994996E+04  0.22925889961E+04  0.25500000920E-02 0. -1.
</event>
<event>
 5   0  0.1825308E-08  0.3703487E+04  0.7818609E-02  0.8067190E-01
        2   -1    0    0  501    0  0.00000000000E+00  0.00000000000E+00  0.23070961284E+04  0.23070961284E+04  0.25500000920E-02 0.  1.
       -2   -1    0    0    0  501  0.00000000000E+00  0.00000000000E+00 -0.14862637319E+04  0.14862637319E+04  0.25500000920E-02 0. -1.
    10030    2    1    2    0    0  0.00000000000E+00  0.00000000000E+00  0.82083239649E+03  0.37933598603E+04  0.37034866284E+04 0.  0.
        4    1    3    3  502    0 -0.13326503680E+03  0.14824078411E+04  0.15388124211E+04  0.21408497980E+04  0.12699999809E+01 0.  1.
       -4    1    3    3    0  502  0.13326503680E+03 -0.14824078411E+04 -0.71798002458E+03  0.16525100623E+04  0.12699999809E+01 0. -1.
</event>
<event>
 5   0  0.1757996E-08  0.3699216E+04  0.7818609E-02  0.8068136E-01
       -2   -1    0    0    0  501  0.00000000000E+00  0.00000000000E+00  0.19066737977E+04  0.19066737977E+04  0.25500000920E-02 0.  1.
        2   -1    0    0  501    0  0.00000000000E+00  0.00000000000E+00 -0.17942499737E+04  0.17942499737E+04  0.25500000920E-02 0. -1.
    10030    2    1    2    0    0  0.00000000000E+00  0.00000000000E+00  0.11242382402E+03  0.37009237713E+04  0.36992158149E+04 0.  0.
        3    1    3    3  502    0  0.82013579286E+03  0.10860718152E+03 -0.15988285084E+04  0.18001863371E+04  0.10100000352E+00 0. -1.
       -3    1    3    3    0  502 -0.82013579286E+03 -0.10860718152E+03  0.17112523324E+04  0.19007374343E+04  0.10100000352E+00 0.  1.
</event>
<event>
 5   0  0.5714125E-09  0.3699589E+04  0.7818609E-02  0.8068053E-01
       -1   -1    0    0    0  501  0.00000000000E+00  0.00000000000E+00  0.22883773412E+04  0.22883773412E+04  0.50400001928E-02 0.  1.
        1   -1    0    0  501    0  0.00000000000E+00  0.00000000000E+00 -0.14952693650E+04  0.14952693651E+04  0.50400001928E-02 0. -1.
    10030    2    1    2    0    0  0.00000000000E+00  0.00000000000E+00  0.79310797620E+03  0.37836467063E+04  0.36995894551E+04 0.  0.
        2    1    3    3  502    0  0.14996819947E+04 -0.10170563740E+04  0.77687792429E+03  0.19715448416E+04  0.25500000920E-02 0.  1.
       -2    1    3    3    0  502 -0.14996819947E+04  0.10170563740E+04  0.16230051906E+02  0.18121018647E+04  0.25500000920E-02 0. -1.
</event>
<event>
 5   0  0.5714125E-09  0.3689867E+04  0.7818609E-02  0.8070211E-01
        1   -1    0    0  501    0  0.00000000000E+00  0.00000000000E+00  0.33851008113E+04  0.33851008113E+04  0.50400001928E-02 0.  1.
       -1   -1    0    0    0  501  0.00000000000E+00  0.00000000000E+00 -0.10055177015E+04  0.10055177015E+04  0.50400001928E-02 0. -1.
    10030    2    1    2    0    0  0.00000000000E+00  0.00000000000E+00  0.23795831098E+04  0.43906185128E+04  0.36898665489E+04 0.  0.
        4    1    3    3  502    0 -0.75698760146E+03 -0.68355087685E+03 -0.63954377025E+03  0.12038645592E+04  0.12699999809E+01 0. -1.
       -4    1    3    3    0  502  0.75698760146E+03  0.68355087685E+03  0.30191268801E+04  0.31867539536E+04  0.12699999809E+01 0.  1.
</event>
<event>
 5   0  0.5714125E-09  0.3697671E+04  0.7818609E-02  0.8068478E-01
       -1   -1    0    0    0  501  0.00000000000E+00  0.00000000000E+00  0.13452576614E+04  0.13452576614E+04  0.50400001928E-02 0. -1.
        1   -1    0    0  501    0  0.00000000000E+00  0.00000000000E+00 -0.25409198612E+04  0.25409198612E+04  0.50400001928E-02 0.  1.
    10030    2    1    2    0    0  0.00000000000E+00  0.00000000000E+00 -0.11956621998E+04  0.38861775227E+04  0.36976705696E+04 0.  0.
        3    1    3    3  502    0  0.12178910436E+04 -0.27367274237E+03  0.83552848973E+03  0.15020862929E+04  0.10100000352E+00 0. -1.
       -3    1    3    3    0  502 -0.12178910436E+04  0.27367274237E+03 -0.20311906896E+04  0.23840912297E+04  0.10100000352E+00 0.  1.
</event>
<event>
 5   0  0.5714125E-09  0.3699921E+04  0.7818609E-02  0.8067979E-01
        1   -1    0    0  501    0  0.00000000000E+00  0.00000000000E+00  0.26612279727E+04  0.26612279727E+04  0.50400001928E-02 0.  1.
       -1   -1    0    0    0  501  0.00000000000E+00  0.00000000000E+00 -0.12860052767E+04  0.12860052767E+04  0.50400001928E-02 0. -1.
    10030    2    1    2    0    0  0.00000000000E+00  0.00000000000E+00  0.13752226960E+04  0.39472332493E+04  0.36999206561E+04 0.  0.
        3    1    3    3  502    0  0.75911450588E+03 -0.13898997893E+04 -0.33248047075E+03  0.16182149211E+04  0.10100000352E+00 0.  1.
       -3    1    3    3    0  502 -0.75911450588E+03  0.13898997893E+04  0.17077031667E+04  0.23290183282E+04  0.10100000352E+00 0. -1.
</event>
<event>
 5   0  0.1725865E-08  0.3700895E+04  0.7818609E-02  0.8067763E-01
       -2   -1    0    0    0  501  0.00000000000E+00  0.00000000000E+00  0.21876718807E+04  0.21876718807E+04  0.25500000920E-02 0. -1.
        2   -1    0    0  501    0  0.00000000000E+00  0.00000000000E+00 -0.15652056543E+04  0.15652056543E+04  0.25500000920E-02 0.  1.
    10030    2    1    2    0    0  0.00000000000E+00  0.00000000000E+00  0.62246622638E+03  0.37528775350E+04  0.37008952417E+04 0.  0.
        1    1    3    3  502    0 -0.14086671442E+03  0.92167726828E+03  0.19320654495E+04  0.21452760473E+04  0.50400001928E-02 0. -1.
       -1    1    3    3    0  502  0.14086671442E+03 -0.92167726828E+03 -0.13095992231E+04  0.16076014877E+04  0.50400001928E-02 0.  1.
</event>
<event>
 5   0  0.1740290E-08  0.3700041E+04  0.7818609E-02  0.8067953E-01
        2   -1    0    0  501    0  0.00000000000E+00  0.00000000000E+00  0.17464253201E+04  0.17464253201E+04  0.25500000920E-02 0.  1.
       -2   -1    0    0    0  501  0.00000000000E+00  0.00000000000E+00 -0.19597608726E+04  0.19597608726E+04  0.25500000920E-02 0. -1.
    10030    2    1    2    0    0  0.00000000000E+00  0.00000000000E+00 -0.21333555243E+03  0.37061861927E+04  0.37000410858E+04 0.  0.
        5    1    3    3  502    0  0.11846620761E+04  0.76539098604E+03  0.10925282911E+04  0.17840649520E+04  0.46999998093E+01 0.  1.
       -5    1    3    3    0  502 -0.11846620761E+04 -0.76539098604E+03 -0.13058638436E+04  0.19221212407E+04  0.46999998093E+01 0. -1.
</event>
<event>
 5   0  0.1856107E-08  0.3706183E+04  0.7818609E-02  0.8066593E-01
        2   -1    0    0  501    0  0.00000000000E+00  0.00000000000E+00  0.25881906751E+04  0.25881906751E+04  0.25500000920E-02 0.  1.
       -2   -1    0    0    0  501  0.00000000000E+00  0.00000000000E+00 -0.13267753415E+04  0.13267753415E+04  0.25500000920E-02 0. -1.
    10030    2    1    2    0    0  0.00000000000E+00  0.00000000000E+00  0.12614153336E+04  0.39149660167E+04  0.37061827084E+04 0.  0.
        2    1    3    3  502    0 -0.13812042763E+04  0.20334586381E+03  0.19179069617E+04  0.23722229885E+04  0.25500000920E-02 0.  1.
       -2    1    3    3    0  502  0.13812042763E+04 -0.20334586381E+03 -0.65649162811E+03  0.15427430282E+04  0.25500000920E-02 0. -1.
</event>
<event>
 5   0  0.5714125E-09  0.3699641E+04  0.7818609E-02  0.8068041E-01
        1   -1    0    0  501    0  0.00000000000E+00  0.00000000000E+00  0.10645262211E+04  0.10645262211E+04  0.50400001928E-02 0. -1.
       -1   -1    0    0    0  501  0.00000000000E+00  0.00000000000E+00 -0.32144216291E+04  0.32144216292E+04  0.50400001928E-02 0.  1.
    10030    2    1    2    0    0  0.00000000000E+00  0.00000000000E+00 -0.21498954080E+04  0.42789478503E+04  0.36996411231E+04 0.  0.
        1    1    3    3  502    0  0.64045126190E+03  0.16646376601E+04 -0.50758461211E+03  0.18544105524E+04  0.50400001928E-02 0. -1.
       -1    1    3    3    0  502 -0.64045126190E+03 -0.16646376601E+04 -0.16423107959E+04  0.24245372979E+04  0.50400001928E-02 0.  1.
</event>
<event>
 5   0  0.1856107E-08  0.3698976E+04  0.7818609E-02  0.8068189E-01
        2   -1    0    0  501    0  0.00000000000E+00  0.00000000000E+00  0.27439014451E+04  0.27439014451E+04  0.25500000920E-02 0.  1.
       -2   -1    0    0    0  501  0.00000000000E+00  0.00000000000E+00 -0.12466212370E+04  0.12466212370E+04  0.25500000920E-02 0. -1.
    10030    2    1    2    0    0  0.00000000000E+00  0.00000000000E+00  0.14972802081E+04  0.39905226821E+04  0.36989759738E+04 0.  0.
        2    1    3    3  502    0 -0.70093886211E+03 -0.13179602513E+04  0.19266144120E+04  0.24372479572E+04  0.25500000920E-02 0.  1.
       -2    1    3    3    0  502  0.70093886211E+03  0.13179602513E+04 -0.42933420389E+03  0.15532747249E+04  0.25500000920E-02 0. -1.
</event>
<event>
 5   0  0.5714125E-09  0.3700493E+04  0.7818609E-02  0.8067852E-01
       -1   -1    0    0    0  501  0.00000000000E+00  0.00000000000E+00  0.19075954961E+04  0.19075954961E+04  0.50400001928E-02 0.  1.
        1   -1    0    0  501    0  0.00000000000E+00  0.00000000000E+00 -0.17946220344E+04  0.17946220344E+04  0.50400001928E-02 0. -1.
    10030    2    1    2    0    0  0.00000000000E+00  0.00000000000E+00  0.11297346172E+03  0.37022175305E+04  0.37004934320E+04 0.  0.
        1    1    3    3  502    0  0.77752919246E+03  0.16757704207E+04 -0.46783268367E+02  0.18479574730E+04  0.50400001928E-02 0.  1.
       -1    1    3    3    0  502 -0.77752919246E+03 -0.16757704207E+04  0.15975673009E+03  0.18542600575E+04  0.50400001928E-02 0. -1.
</event>
<event>
 5   0  0.5714125E-09  0.3700208E+04  0.7818609E-02  0.8067916E-01
       -1   -1    0    0    0  501  0.00000000000E+00  0.00000000000E+00  0.16039368021E+04  0.16039368021E+04  0.50400001928E-02 0. -1.
        1   -1    0    0  501    0  0.00000000000E+00  0.00000000000E+00 -0.21340522624E+04  0.21340522625E+04  0.50400001928E-02 0.  1.
    10030    2    1    2    0    0  0.00000000000E+00  0.00000000000E+00 -0.53011546032E+03  0.37379890646E+04  0.37002080814E+04 0.  0.
        5    1    3    3  502    0 -0.91956693513E+03  0.98266317745E+03  0.10174054387E+04  0.16871177153E+04  0.46999998093E+01 0. -1.
       -5    1    3    3    0  502  0.91956693513E+03 -0.98266317745E+03 -0.15475208990E+04  0.20508713493E+04  0.46999998093E+01 0.  1.
</event>
<event>
 5   0  0.1825308E-08  0.3700389E+04  0.7818609E-02  0.8067876E-01
        2   -1    0    0  501    0  0.00000000000E+00  0.00000000000E+00  0.20163939528E+04  0.20163939528E+04  0.25500000920E-02 0.  1.
       -2   -1    0    0    0  501  0.00000000000E+00  0.00000000000E+00 -0.16976938585E+04  0.16976938585E+04  0.25500000920E-02 0. -1.
    10030    2    1    2    0    0  0.00000000000E+00  0.00000000000E+00  0.31870009429E+03  0.37140878113E+04  0.37003889687E+04 0.  0.
        4    1    3    3  502    0 -0.78427689862E+03  0.13899501995E+04  0.10988527612E+04  0.19376611713E+04  0.12699999809E+01 0.  1.
       -4    1    3    3    0  502  0.78427689862E+03 -0.13899501995E+04 -0.78015266689E+03  0.17764266401E+04  0.12699999809E+01 0. -1.
</event>
<event>
 5   0  0.5714125E-09  0.3697082E+04  0.7818609E-02  0.8068609E-01
        1   -1    0    0  501    0  0.00000000000E+00  0.00000000000E+00  0.21258991681E+04  0.21258991681E+04  0.50400001928E-02 0.  1.
       -1   -1    0    0    0  501  0.00000000000E+00  0.00000000000E+00 -0.16073685381E+04  0.16073685381E+04  0.50400001928E-02 0. -1.
    10030    2    1    2    0    0  0.00000000000E+00  0.00000000000E+00  0.51853062994E+03  0.37332677062E+04  0.36970817887E+04 0.  0.
        3    1    3    3  502    0  0.77455494749E+02  0.88161589466E+03 -0.13795356520E+04  0.16390132900E+04  0.10100000352E+00 0. -1.
       -3    1    3    3    0  502 -0.77455494749E+02 -0.88161589466E+03  0.18980662819E+04  0.20942544163E+04  0.10100000352E+00 0.  1.
</event>
<event>
 5   0  0.5714125E-09  0.3701882E+04  0.7818609E-02  0.8067545E-01
       -3   -1    0    0    0  501  0.00000000000E+00  0.00000000000E+00  0.23465762884E+04  0.23465762906E+04  0.10100000352E+00 0. -1.
        3   -1    0    0  501    0  0.00000000000E+00  0.00000000000E+00 -0.14599921136E+04  0.14599921171E+04  0.10100000352E+00 0.  1.
    10030    2    1    2    0    0  0.00000000000E+00  0.00000000000E+00  0.88658417479E+03  0.38065684077E+04  0.37018821623E+04 0.  0.
        5    1    3    3  502    0  0.41967140738E+03  0.11168053240E+04  0.18984370660E+04  0.22422006167E+04  0.46999998093E+01 0. -1.
       -5    1    3    3    0  502 -0.41967140738E+03 -0.11168053240E+04 -0.10118528913E+04  0.15643677910E+04  0.46999998093E+01 0.  1.
</event>
<event>
 5   0  0.5714125E-09  0.3693023E+04  0.7818609E-02  0.8069510E-01
        1   -1    0    0  501    0  0.00000000000E+00  0.00000000000E+00  0.19660883421E+04  0.19660883421E+04  0.50400001928E-02 0. -1.
       -1   -1    0    0    0  501  0.00000000000E+00  0.00000000000E+00 -0.17342075376E+04  0.17342075376E+04  0.50400001928E-02 0.  1.
    10030    2    1    2    0    0  0.00000000000E+00  0.00000000000E+00  0.23188080451E+03  0.37002958797E+04  0.36930232723E+04 0.  0.
        1    1    3    3  502    0  0.12290429886E+04 -0.53525911971E+03 -0.11564249704E+04  0.17704145575E+04  0.50400001928E-02 0.  1.
       -1    1    3    3    0  502 -0.12290429886E+04  0.53525911971E+03  0.13883057750E+04  0.19298813222E+04  0.50400001928E-02 0. -1.
</event>
<event>
 5   0  0.5714125E-09  0.3702132E+04  0.7818609E-02  0.8067489E-01
        1   -1    0    0  501    0  0.00000000000E+00  0.00000000000E+00  0.25032675239E+04  0.25032675239E+04  0.50400001928E-02 0.  1.
       -1   -1    0    0    0  501  0.00000000000E+00  0.00000000000E+00 -0.13687892561E+04  0.13687892561E+04  0.50400001928E-02 0. -1.
    10030    2    1    2    0    0  0.00000000000E+00  0.00000000000E+00  0.11344782678E+04  0.38720567799E+04  0.37021321920E+04 0.  0.
        2    1    3    3  502    0  0.19715317543E+03 -0.15455581573E+04 -0.47804601387E+03  0.16297691197E+04  0.25500000920E-02 0. -1.
       -2    1    3    3    0  502 -0.19715317543E+03  0.15455581573E+04  0.16125242817E+04  0.22422876602E+04  0.25500000920E-02 0.  1.
</event>
<event>
 5   0  0.5714125E-09  0.3701972E+04  0.7818609E-02  0.8067525E-01
        1   -1    0    0  501    0  0.00000000000E+00  0.00000000000E+00  0.32342959280E+04  0.32342959280E+04  0.50400001928E-02 0. -1.
       -1   -1    0    0    0  501  0.00000000000E+00  0.00000000000E+00 -0.10593181108E+04  0.10593181108E+04  0.50400001928E-02 0.  1.
    10030    2    1    2    0    0  0.00000000000E+00  0.00000000000E+00  0.21749778173E+04  0.42936140388E+04  0.37019715029E+04 0.  0.
        4    1    3    3  502    0 -0.12281943246E+04 -0.71408456327E+03  0.24636065565E+04  0.28438946782E+04  0.12699999809E+01 0. -1.
       -4    1    3    3    0  502  0.12281943246E+04  0.71408456327E+03 -0.28862873924E+03  0.14497193606E+04  0.12699999809E+01 0.  1.
</event>
<event>
 5   0  0.5714125E-09  0.3684111E+04  0.7818609E-02  0.8071492E-01
        3   -1    0    0  501    0  0.00000000000E+00  0.00000000000E+00  0.16692012982E+04  0.16692013012E+04  0.10100000352E+00 0.  1.
       -3   -1    0    0    0  501  0.00000000000E+00  0.00000000000E+00 -0.20328094165E+04  0.20328094191E+04  0.10100000352E+00 0. -1.
    10030    2    1    2    0    0  0.00000000000E+00  0.00000000000E+00 -0.36360811838E+03  0.37020107203E+04  0.36841108166E+04 0.  0.
        2    1    3    3  502    0  0.16495063144E+04  0.16406067841E+03 -0.98906347963E+03  0.19302936446E+04  0.25500000920E-02 0. -1.
       -2    1    3    3    0  502 -0.16495063144E+04 -0.16406067841E+03  0.62545536125E+03  0.17717170757E+04  0.25500000920E-02 0.  1.
</event>
<event>
 5   0  0.1725865E-08  0.3702138E+04  0.7818609E-02  0.8067488E-01
       -2   -1    0    0    0  501  0.00000000000E+00  0.00000000000E+00  0.15048356870E+04  0.15048356870E+04  0.25500000920E-02 0. -1.
        2   -1    0    0  501    0  0.00000000000E+00  0.00000000000E+00 -0.22769644329E+04  0.22769644329E+04  0.25500000920E-02 0.  1.
    10030    2    1    2    0    0  0.00000000000E+00  0.00000000000E+00 -0.77212874589E+03  0.37818001198E+04  0.37021384828E+04 0.  0.
        1    1    3    3  502    0 -0.12361237072E+04  0.13473183192E+04 -0.68069541845E+03  0.19510547726E+04  0.50400001928E-02 0. -1.
       -1    1    3    3    0  502  0.12361237072E+04 -0.13473183192E+04 -0.91433327436E+02  0.18307453472E+04  0.50400001928E-02 0.  1.
</event>
<event>
 5   0  0.5714125E-09  0.3701577E+04  0.7818609E-02  0.8067613E-01
        1   -1    0    0  501    0  0.00000000000E+00  0.00000000000E+00  0.25127495563E+04  0.25127495564E+04  0.50400001928E-02 0.  1.
       -1   -1    0    0    0  501  0.00000000000E+00  0.00000000000E+00 -0.13632147665E+04  0.13632147665E+04  0.50400001928E-02 0. -1.
    10030    2    1    2    0    0  0.00000000000E+00  0.00000000000E+00  0.11495347898E+04  0.38759643229E+04  0.37015765829E+04 0.  0.
        2    1    3    3  502    0  0.36174035738E+02 -0.12951219723E+03  0.25076277128E+04  0.25112305183E+04  0.25500000920E-02 0.  1.
       -2    1    3    3    0  502 -0.36174035738E+02  0.12951219723E+03 -0.13580929229E+04  0.13647338046E+04  0.25500000920E-02 0. -1.
</event>
<event>
 5   0  0.1757996E-08  0.3699549E+04  0.7818609E-02  0.8068062E-01
        2   -1    0    0  501    0  0.00000000000E+00  0.00000000000E+00  0.22281250917E+04  0.22281250917E+04  0.25500000920E-02 0.  1.
       -2   -1    0    0    0  501  0.00000000000E+00  0.00000000000E+00 -0.15356707689E+04  0.15356707689E+04  0.25500000920E-02 0. -1.
    10030    2    1    2    0    0  0.00000000000E+00  0.00000000000E+00  0.69245432275E+03  0.37637958606E+04  0.36995494714E+04 0.  0.
        3    1    3    3  502    0 -0.17163783352E+04  0.54339674760E+03 -0.85922264030E+02  0.18023920940E+04  0.10100000352E+00 0. -1.
       -3    1    3    3    0  502  0.17163783352E+04 -0.54339674760E+03  0.77837658678E+03  0.19614037666E+04  0.10100000352E+00 0.  1.
</event>
<event>
 5   0  0.5714125E-09  0.3672601E+04  0.7818609E-02  0.8074061E-01
       -1   -1    0    0    0  501  0.00000000000E+00  0.00000000000E+00  0.18444360782E+04  0.18444360782E+04  0.50400001928E-02 0. -1.
        1   -1    0    0  501    0  0.00000000000E+00  0.00000000000E+00 -0.18282009775E+04  0.18282009775E+04  0.50400001928E-02 0.  1.
    10030    2    1    2    0    0  0.00000000000E+00  0.00000000000E+00  0.16235100711E+02  0.36726370557E+04  0.36726011714E+04 0.  0.
        4    1    3    3  502    0  0.99409622995E+03 -0.35893317792E+03 -0.14935421824E+04  0.18296803557E+04  0.12699999809E+01 0. -1.
       -4    1    3    3    0  502 -0.99409622995E+03  0.35893317792E+03  0.15097772831E+04  0.18429567000E+04  0.12699999809E+01 0.  1.
</event>
<event>
 5   0  0.1725865E-08  0.3699215E+04  0.7818609E-02  0.8068136E-01
       -2   -1    0    0    0  501  0.00000000000E+00  0.00000000000E+00  0.23018446130E+04  0.23018446130E+04  0.25500000920E-02 0. -1.
        2   -1    0    0  501    0  0.00000000000E+00  0.00000000000E+00 -0.14862204616E+04  0.14862204616E+04  0.25500000920E-02 0.  1.
    10030    2    1    2    0    0  0.00000000000E+00  0.00000000000E+00  0.81562415139E+03  0.37880650746E+04  0.36992153564E+04 0.  0.
        1    1    3    3  502    0 -0.14873728068E+04 -0.10729517110E+04  0.16216430311E+03  0.18411410869E+04  0.50400001928E-02 0.  1.
       -1    1    3    3    0  502  0.14873728068E+04  0.10729517110E+04  0.65345984828E+03  0.19469239877E+04  0.50400001928E-02 0. -1.
</event>
<event>
 5   0  0.5714125E-09  0.3701662E+04  0.7818609E-02  0.8067594E-01
       -1   -1    0    0    0  501  0.00000000000E+00  0.00000000000E+00  0.20965998923E+04  0.20965998923E+04  0.50400001928E-02 0. -1.
        1   -1    0    0  501    0  0.00000000000E+00  0.00000000000E+00 -0.16338714319E+04  0.16338714319E+04  0.50400001928E-02 0.  1.
    10030    2    1    2    0    0  0.00000000000E+00  0.00000000000E+00  0.46272846037E+03  0.37304713242E+04  0.37016616097E+04 0.  0.
        3    1    3    3  502    0  0.15152811556E+04  0.48729887954E+03 -0.72046391385E+03  0.17471706957E+04  0.10100000352E+00 0.  1.
       -3    1    3    3    0  502 -0.15152811556E+04 -0.48729887954E+03  0.11831923742E+04  0.19833006285E+04  0.10100000352E+00 0. -1.
</event>
<event>
 5   0  0.1825308E-08  0.3701864E+04  0.7818609E-02  0.8067549E-01
        2   -1    0    0  501    0  0.00000000000E+00  0.00000000000E+00  0.16070507826E+04  0.16070507826E+04  0.25500000920E-02 0.  1.
       -2   -1    0    0    0  501  0.00000000000E+00  0.00000000000E+00 -0.21318243972E+04  0.21318243972E+04  0.25500000920E-02 0. -1.
    10030    2    1    2    0    0  0.00000000000E+00  0.00000000000E+00 -0.52477361469E+03  0.37388751798E+04  0.37018644307E+04 0.  0.
        4    1    3    3  502    0 -0.44109182636E+03  0.76336204645E+03  0.13813563575E+04  0.16387283523E+04  0.12699999809E+01 0.  1.
       -4    1    3    3    0  502  0.44109182636E+03 -0.76336204645E+03 -0.19061299722E+04  0.21001468275E+04  0.12699999809E+01 0. -1.
</event>
<event>
 5   0  0.1825308E-08  0.3699600E+04  0.7818609E-02  0.8068050E-01
       -2   -1    0    0    0  501  0.00000000000E+00  0.00000000000E+00  0.18016259096E+04  0.18016259096E+04  0.25500000920E-02 0.  1.
        2   -1    0    0  501    0  0.00000000000E+00  0.00000000000E+00 -0.18992622625E+04  0.18992622625E+04  0.25500000920E-02 0. -1.
    10030    2    1    2    0    0  0.00000000000E+00  0.00000000000E+00 -0.97636352957E+02  0.37008881721E+04  0.36996000331E+04 0.  0.
        4    1    3    3  502    0 -0.10961817618E+04  0.46164742352E+03  0.13683704344E+04  0.18130559995E+04  0.12699999809E+01 0.  1.
       -4    1    3    3    0  502  0.10961817618E+04 -0.46164742352E+03 -0.14660067873E+04  0.18878321726E+04  0.12699999809E+01 0. -1.
</event>
<event>
 5   0  0.1740290E-08  0.3700081E+04  0.7818609E-02  0.8067944E-01
        2   -1    0    0  501    0  0.00000000000E+00  0.00000000000E+00  0.17790184802E+04  0.17790184802E+04  0.25500000920E-02 0. -1.
       -2   -1    0    0    0  501  0.00000000000E+00  0.00000000000E+00 -0.19238978036E+04  0.19238978036E+04  0.25500000920E-02 0.  1.
    10030    2    1    2    0    0  0.00000000000E+00  0.00000000000E+00 -0.14487932340E+03  0.37029162837E+04  0.37000809432E+04 0.  0.
        5    1    3    3  502    0  0.17273525310E+04 -0.39873472020E+03 -0.60189280815E+03  0.18721733857E+04  0.46999998093E+01 0.  1.
       -5    1    3    3    0  502 -0.17273525310E+04  0.39873472020E+03  0.45701348475E+03  0.18307428981E+04  0.46999998093E+01 0. -1.
</event>
<event>
 5   0  0.1856107E-08  0.3700133E+04  0.7818609E-02  0.8067932E-01
        2   -1    0    0  501    0  0.00000000000E+00  0.00000000000E+00  0.27466274983E+04  0.27466274983E+04  0.25500000920E-02 0. -1.
       -2   -1    0    0    0  501  0.00000000000E+00  0.00000000000E+00 -0.12461630541E+04  0.12461630541E+04  0.25500000920E-02 0.  1.
    10030    2    1    2    0    0  0.00000000000E+00  0.00000000000E+00  0.15004644442E+04  0.39927905524E+04  0.37001328148E+04 0.  0.
        2    1    3    3  502    0  0.91779045360E+03 -0.29935826795E+03 -0.95281959469E+03  0.13563995980E+04  0.25500000920E-02 0.  1.
       -2    1    3    3    0  502 -0.91779045360E+03  0.29935826795E+03  0.24532840389E+04  0.26363909545E+04  0.25500000920E-02 0. -1.
</event>
<event>
 5   0  0.1757996E-08  0.3722211E+04  0.7818609E-02  0.8063057E-01
       -2   -1    0    0    0  501  0.00000000000E+00  0.00000000000E+00  0.24166954940E+04  0.24166954940E+04  0.25500000920E-02 0. -1.
        2   -1    0    0  501    0  0.00000000000E+00  0.00000000000E+00 -0.14332435578E+04  0.14332435578E+04  0.25500000920E-02 0.  1.
    10030    2    1    2    0    0  0.00000000000E+00  0.00000000000E+00  0.98345193622E+03  0.38499390517E+04  0.37222107666E+04 0.  0.
        3    1    3    3  502    0  0.69503730943E+03 -0.16499942903E+04  0.10172509272E+04  0.20592128299E+04  0.10100000352E+00 0. -1.
       -3    1    3    3    0  502 -0.69503730943E+03  0.16499942903E+04 -0.33798990995E+02  0.17907262218E+04  0.10100000352E+00 0.  1.
</event>
<event>
 5   0  0.1757996E-08  0.3700053E+04  0.7818609E-02  0.8067950E-01
        2   -1    0    0  501    0  0.00000000000E+00  0.00000000000E+00  0.23398715000E+04  0.23398715000E+04  0.25500000920E-02 0. -1.
       -2   -1    0    0    0  501  0.00000000000E+00  0.00000000000E+00 -0.14627289634E+04  0.14627289634E+04  0.25500000920E-02 0.  1.
    10030    2    1    2    0    0  0.00000000000E+00  0.00000000000E+00  0.87714253663E+03  0.38026004634E+04  0.37000528718E+04 0.  0.
        3    1    3    3  502    0  0.77908941150E+03 -0.13686956516E+04 -0.55904837081E+03  0.16711801785E+04  0.10100000352E+00 0.  1.
       -3    1    3    3    0  502 -0.77908941150E+03  0.13686956516E+04  0.14361909074E+04  0.21314202849E+04  0.10100000352E+00 0. -1.
</event>
<event>
 5   0  0.1856107E-08  0.3699622E+04  0.7818609E-02  0.8068046E-01
       -2   -1    0    0    0  501  0.00000000000E+00  0.00000000000E+00  0.20516869227E+04  0.20516869227E+04  0.25500000920E-02 0. -1.
        2   -1    0    0  501    0  0.00000000000E+00  0.00000000000E+00 -0.16677983341E+04  0.16677983341E+04  0.25500000920E-02 0.  1.
    10030    2    1    2    0    0  0.00000000000E+00  0.00000000000E+00  0.38388858867E+03  0.37194852568E+04  0.36996216195E+04 0.  0.
        2    1    3    3  502    0  0.64913819916E+03 -0.16639704603E+04 -0.29191086697E+03  0.18098038702E+04  0.25500000920E-02 0. -1.
       -2    1    3    3    0  502 -0.64913819916E+03  0.16639704603E+04  0.67579945564E+03  0.19096813866E+04  0.25500000920E-02 0.  1.
</event>
<event>
 5   0  0.1740290E-08  0.3694040E+04  0.7818609E-02  0.8069284E-01
        2   -1    0    0  501    0  0.00000000000E+00  0.00000000000E+00  0.17741650939E+04  0.17741650940E+04  0.25500000920E-02 0.  1.
       -2   -1    0    0    0  501  0.00000000000E+00  0.00000000000E+00 -0.19228668702E+04  0.19228668702E+04  0.25500000920E-02 0. -1.
    10030    2    1    2    0    0  0.00000000000E+00  0.00000000000E+00 -0.14870177630E+03  0.36970319642E+04  0.36940402172E+04 0.  0.
        5    1    3    3  502    0  0.64058964940E+03  0.55410708651E+02  0.16585350976E+04  0.17788159561E+04  0.46999998093E+01 0.  1.
       -5    1    3    3    0  502 -0.64058964940E+03 -0.55410708651E+02 -0.18072368739E+04  0.19182160081E+04  0.46999998093E+01 0. -1.
</event>
<event>
 5   0  0.1757996E-08  0.3699721E+04  0.7818609E-02  0.8068024E-01
       -2   -1    0    0    0  501  0.00000000000E+00  0.00000000000E+00  0.15321802243E+04  0.15321802243E+04  0.25500000920E-02 0.  1.
        2   -1    0    0  501    0  0.00000000000E+00  0.00000000000E+00 -0.22334083735E+04  0.22334083735E+04  0.25500000920E-02 0. -1.
    10030    2    1    2    0    0  0.00000000000E+00  0.00000000000E+00 -0.70122814921E+03  0.37655885977E+04  0.36997211476E+04 0.  0.
        3    1    3    3  502    0 -0.10357399794E+04 -0.75560735061E+03  0.10066504021E+04  0.16300444213E+04  0.10100000352E+00 0.  1.
       -3    1    3    3    0  502  0.10357399794E+04  0.75560735061E+03 -0.17078785513E+04  0.21355441764E+04  0.10100000352E+00 0. -1.
</event>
<event>
 5   0  0.5714125E-09  0.3698285E+04  0.7818609E-02  0.8068342E-01
       -1   -1    0    0    0  501  0.00000000000E+00  0.00000000000E+00  0.15065724023E+04  0.15065724023E+04  0.50400001928E-02 0.  1.
        1   -1    0    0  501    0  0.00000000000E+00  0.00000000000E+00 -0.22696070423E+04  0.22696070424E+04  0.50400001928E-02 0. -1.
    10030    2    1    2    0    0  0.00000000000E+00  0.00000000000E+00 -0.76303464005E+03  0.37761794447E+04  0.36982846478E+04 0.  0.
        4    1    3    3  502    0 -0.13088422722E+03 -0.62227944096E+03  0.13914196936E+04  0.15298407631E+04  0.12699999809E+01 0.  1.
       -4    1    3    3    0  502  0.13088422722E+03  0.62227944096E+03 -0.21544543337E+04  0.22463386816E+04  0.12699999809E+01 0. -1.
</event>
<event>
 5   0  0.1725865E-08  0.3700751E+04  0.7818609E-02  0.8067795E-01
        2   -1    0    0  501    0  0.00000000000E+00  0.00000000000E+00  0.24359760726E+04  0.24359760726E+04  0.25500000920E-02 0.  1.
       -2   -1    0    0    0  501  0.00000000000E+00  0.00000000000E+00 -0.14055515058E+04  0.14055515058E+04  0.25500000920E-02 0. -1.
    10030    2    1    2    0    0  0.00000000000E+00  0.00000000000E+00  0.10304245668E+04  0.38415275785E+04  0.37007511870E+04 0.  0.
        1    1    3    3  502    0 -0.75258053998E+03 -0.12345890161E+04  0.17138236370E+04  0.22422709396E+04  0.50400001928E-02 0.  1.
       -1    1    3    3    0  502  0.75258053998E+03  0.12345890161E+04 -0.68339907018E+03  0.15992566389E+04  0.50400001928E-02 0. -1.
</event>
<event>
 5   0  0.1856107E-08  0.3700166E+04  0.7818609E-02  0.8067925E-01
       -2   -1    0    0    0  501  0.00000000000E+00  0.00000000000E+00  0.15286570939E+04  0.15286570939E+04  0.25500000920E-02 0. -1.
        2   -1    0    0  501    0  0.00000000000E+00  0.00000000000E+00 -0.22390936432E+04  0.22390936432E+04  0.25500000920E-02 0.  1.
    10030    2    1    2    0    0  0.00000000000E+00  0.00000000000E+00 -0.71043654937E+03  0.37677507371E+04  0.37001656080E+04 0.  0.
        2    1    3    3  502    0 -0.45161905377E+03  0.82215141518E+02  0.14697472735E+04  0.15397649650E+04  0.25500000920E-02 0. -1.
       -2    1    3    3    0  502  0.45161905377E+03 -0.82215141518E+02 -0.21801838229E+04  0.22279857722E+04  0.25500000920E-02 0.  1.
</event>
<event>
 5   0  0.5714125E-09  0.3700764E+04  0.7818609E-02  0.8067793E-01
       -1   -1    0    0    0  501  0.00000000000E+00  0.00000000000E+00  0.22822785487E+04  0.22822785487E+04  0.50400001928E-02 0. -1.
        1   -1    0    0  501    0  0.00000000000E+00  0.00000000000E+00 -0.15002170354E+04  0.15002170355E+04  0.50400001928E-02 0.  1.
    10030    2    1    2    0    0  0.00000000000E+00  0.00000000000E+00  0.78206151327E+03  0.37824955842E+04  0.37007637906E+04 0.  0.
        2    1    3    3  502    0 -0.36366132246E+03 -0.49870534577E+03  0.21739634193E+04  0.22598835209E+04  0.25500000920E-02 0. -1.
       -2    1    3    3    0  502  0.36366132246E+03  0.49870534577E+03 -0.13919019060E+04  0.15226120633E+04  0.25500000920E-02 0.  1.
</event>
<event>
 5   0  0.1740290E-08  0.3699955E+04  0.7818609E-02  0.8067972E-01
        2   -1    0    0  501    0  0.00000000000E+00  0.00000000000E+00  0.22204353939E+04  0.22204353939E+04  0.25500000920E-02 0. -1.
       -2   -1    0    0    0  501  0.00000000000E+00  0.00000000000E+00 -0.15413269744E+04  0.15413269744E+04  0.25500000920E-02 0.  1.
    10030    2    1    2    0    0  0.00000000000E+00  0.00000000000E+00  0.67910841952E+03  0.37617623683E+04  0.36999551173E+04 0.  0.
        5    1    3    3  502    0  0.10628108966E+04  0.13513704691E+04 -0.35495697359E+03  0.17555015493E+04  0.46999998093E+01 0.  1.
       -5    1    3    3    0  502 -0.10628108966E+04 -0.13513704691E+04  0.10340653931E+04  0.20062608190E+04  0.46999998093E+01 0. -1.
</event>
<event>
 5   0  0.5714125E-09  0.3699916E+04  0.7818609E-02  0.8067980E-01
       -1   -1    0    0    0  501  0.00000000000E+00  0.00000000000E+00  0.32000208339E+04  0.32000208339E+04  0.50400001928E-02 0.  1.
        1   -1    0    0  501    0  0.00000000000E+00  0.00000000000E+00 -0.10694758920E+04  0.10694758920E+04  0.50400001928E-02 0. -1.
    10030    2    1    2    0    0  0.00000000000E+00  0.00000000000E+00  0.21305449419E+04  0.42694967260E+04  0.36999162887E+04 0.  0.
        3    1    3    3  502    0 -0.17549559635E+04 -0.19928174599E+03  0.17002159900E+04  0.24515950055E+04  0.10100000352E+00 0.  1.
       -3    1    3    3    0  502  0.17549559635E+04  0.19928174599E+03  0.43032895186E+03  0.18179017204E+04  0.10100000352E+00 0. -1.
</event>
<event>
 5   0  0.5714125E-09  0.3705852E+04  0.7818609E-02  0.8066666E-01
        1   -1    0    0  501    0  0.00000000000E+00  0.00000000000E+00  0.13727828956E+04  0.13727828956E+04  0.50400001928E-02 0.  1.
       -1   -1    0    0    0  501  0.00000000000E+00  0.00000000000E+00 -0.25010028219E+04  0.25010028219E+04  0.50400001928E-02 0. -1.
    10030    2    1    2    0    0  0.00000000000E+00  0.00000000000E+00 -0.11282199263E+04  0.38737857175E+04  0.37058515327E+04 0.  0.
        3    1    3    3  502    0  0.82597577391E+03 -0.14861010503E+04 -0.13341053127E+04  0.21611499963E+04  0.10100000352E+00 0. -1.
       -3    1    3    3    0  502 -0.82597577391E+03  0.14861010503E+04  0.20588538637E+03  0.17126357212E+04  0.10100000352E+00 0.  1.
</event>
<event>
 5   0  0.5714125E-09  0.3705588E+04  0.7818609E-02  0.8066725E-01
       -1   -1    0    0    0  501  0.00000000000E+00  0.00000000000E+00  0.10893072945E+04  0.10893072945E+04  0.50400001928E-02 0. -1.
        1   -1    0    0  501    0  0.00000000000E+00  0.00000000000E+00 -0.31514017236E+04  0.31514017236E+04  0.50400001928E-02 0.  1.
    10030    2    1    2    0    0  0.00000000000E+00  0.00000000000E+00 -0.20620944291E+04  0.42407090181E+04  0.37055876109E+04 0.  0.
        4    1    3    3  502    0  0.49952123798E+03  0.17767482426E+04 -0.84479485931E+03  0.20297871199E+04  0.12699999809E+01 0. -1.
       -4    1    3    3    0  502 -0.49952123798E+03 -0.17767482426E+04 -0.12172995698E+04  0.22109218983E+04  0.12699999809E+01 0.  1.
</event>
<event>
 5   0  0.1825308E-08  0.3692005E+04  0.7818609E-02  0.8069736E-01
        2   -1    0    0  501    0  0.00000000000E+00  0.00000000000E+00  0.21334499067E+04  0.21334499067E+04  0.25500000920E-02 0.  1.
       -2   -1    0    0    0  501  0.00000000000E+00  0.00000000000E+00 -0.15972839065E+04  0.15972839065E+04  0.25500000920E-02 0. -1.
    10030    2    1    2    0    0  0.00000000000E+00  0.00000000000E+00  0.53616600022E+03  0.37307338133E+04  0.36920049845E+04 0.  0.
        4    1    3    3  502    0 -0.14512169282E+04  0.99100231363E+03 -0.30318568513E+03  0.17832664778E+04  0.12699999809E+01 0. -1.
       -4    1    3    3    0  502  0.14512169282E+04 -0.99100231363E+03  0.83935168535E+03  0.19474673355E+04  0.12699999809E+01 0.  1.
</event>
<event>
 5   0  0.1856107E-08  0.3700473E+04  0.7818609E-02  0.8067857E-01
        2   -1    0    0  501    0  0.00000000000E+00  0.00000000000E+00  0.26384256546E+04  0.26384256546E+04  0.25500000920E-02 0.  1.
       -2   -1    0    0    0  501  0.00000000000E+00  0.00000000000E+00 -0.12975070706E+04  0.12975070706E+04  0.25500000920E-02 0. -1.
    10030    2    1    2    0    0  0.00000000000E+00  0.00000000000E+00  0.13409185840E+04  0.39359327252E+04  0.37004734519E+04 0.  0.
        2    1    3    3  502    0 -0.17587503140E+04 -0.56901951685E+03  0.75548357888E+03  0.19969329772E+04  0.25500000920E-02 0.  1.
       -2    1    3    3    0  502  0.17587503140E+04  0.56901951685E+03  0.58543500511E+03  0.19389997480E+04  0.25500000920E-02 0. -1.
</event>
<event>
 5   0  0.1825308E-08  0.3700026E+04  0.7818609E-02  0.8067956E-01
        2   -1    0    0  501    0  0.00000000000E+00  0.00000000000E+00  0.29283728869E+04  0.29283728869E+04  0.25500000920E-02 0. -1.
       -2   -1    0    0    0  501  0.00000000000E+00  0.00000000000E+00 -0.11687543093E+04  0.11687543093E+04  0.25500000920E-02 0.  1.
    10030    2    1    2    0    0  0.00000000000E+00  0.00000000000E+00  0.17596185777E+04  0.40971271962E+04  0.37000261787E+04 0.  0.
        4    1    3    3  502    0 -0.24995441012E+03 -0.14028930667E+04 -0.42662668278E+03  0.14874804547E+04  0.12699999809E+01 0.  1.
       -4    1    3    3    0  502  0.24995441012E+03  0.14028930667E+04  0.21862452604E+04  0.26096467415E+04  0.12699999809E+01 0. -1.
</event>
<event>
 5   0  0.1725865E-08  0.3701069E+04  0.7818609E-02  0.8067725E-01
        2   -1    0    0  501    0  0.00000000000E+00  0.00000000000E+00  0.13751477735E+04  0.13751477735E+04  0.25500000920E-02 0. -1.
       -2   -1    0    0    0  501  0.00000000000E+00  0.00000000000E+00 -0.24902621560E+04  0.24902621560E+04  0.25500000920E-02 0.  1.
    10030    2    1    2    0    0  0.00000000000E+00  0.00000000000E+00 -0.11151143826E+04  0.38654099295E+04  0.37010692829E+04 0.  0.
        1    1    3    3  502    0  0.12788628741E+04  0.63609933412E+03  0.67127839829E+03  0.15782038214E+04  0.50400001928E-02 0. -1.
       -1    1    3    3    0  502 -0.12788628741E+04 -0.63609933412E+03 -0.17863927808E+04  0.22872061082E+04  0.50400001928E-02 0.  1.
</event>
<event>
 5   0  0.1757996E-08  0.3700114E+04  0.7818609E-02  0.8067937E-01
       -2   -1    0    0    0  501  0.00000000000E+00  0.00000000000E+00  0.32425370448E+04  0.32425370448E+04  0.25500000920E-02 0. -1.
        2   -1    0    0  501    0  0.00000000000E+00  0.00000000000E+00 -0.10555656713E+04  0.10555656713E+04  0.25500000920E-02 0.  1.
    10030    2    1    2    0    0  0.00000000000E+00  0.00000000000E+00  0.21869713735E+04  0.42981027161E+04  0.37001139401E+04 0.  0.
        3    1    3    3  502    0  0.94777191926E+03 -0.11693315073E+04 -0.15604723054E+03  0.15132608940E+04  0.10100000352E+00 0.  1.
       -3    1    3    3    0  502 -0.94777191926E+03  0.11693315073E+04  0.23430186040E+04  0.27848418221E+04  0.10100000352E+00 0. -1.
</event>
<event>
 5   0  0.5714125E-09  0.3695664E+04  0.7818609E-02  0.8068923E-01
        1   -1    0    0  501    0  0.00000000000E+00  0.00000000000E+00  0.20263928449E+04  0.20263928449E+04  0.50400001928E-02 0. -1.
       -1   -1    0    0    0  501  0.00000000000E+00  0.00000000000E+00 -0.16850059539E+04  0.16850059539E+04  0.50400001928E-02 0.  1.
    10030    2    1    2    0    0  0.00000000000E+00  0.00000000000E+00  0.34138689098E+03  0.37113987988E+04  0.36956644916E+04 0.  0.
        1    1    3    3  502    0 -0.43014731494E+02 -0.18348055711E+04  0.38636872221E+03  0.18755379336E+04  0.50400001928E-02 0. -1.
       -1    1    3    3    0  502  0.43014731494E+02  0.18348055711E+04 -0.44981831226E+02  0.18358608651E+04  0.50400001928E-02 0.  1.
</event>
<event>
 5   0  0.1856107E-08  0.3699745E+04  0.7818609E-02  0.8068018E-01
        2   -1    0    0  501    0  0.00000000000E+00  0.00000000000E+00  0.23764391125E+04  0.23764391125E+04  0.25500000920E-02 0.  1.
       -2   -1    0    0    0  501  0.00000000000E+00  0.00000000000E+00 -0.14399813787E+04  0.14399813787E+04  0.25500000920E-02 0. -1.
    10030    2    1    2    0    0  0.00000000000E+00  0.00000000000E+00  0.93645773379E+03  0.38164204912E+04  0.36997448937E+04 0.  0.
        2    1    3    3  502    0 -0.10138632173E+04  0.15308498762E+04  0.23617197690E+03  0.18512690700E+04  0.25500000920E-02 0. -1.
       -2    1    3    3    0  502  0.10138632173E+04 -0.15308498762E+04  0.70028575689E+03  0.19651514212E+04  0.25500000920E-02 0.  1.
</event>
<event>
 5   0  0.5714125E-09  0.3700407E+04  0.7818609E-02  0.8067872E-01
        1   -1    0    0  501    0  0.00000000000E+00  0.00000000000E+00  0.23559434121E+04  0.23559434121E+04  0.50400001928E-02 0. -1.
       -1   -1    0    0    0  501  0.00000000000E+00  0.00000000000E+00 -0.14530284891E+04  0.14530284891E+04  0.50400001928E-02 0.  1.
    10030    2    1    2    0    0  0.00000000000E+00  0.00000000000E+00  0.90291492293E+03  0.38089719012E+04  0.37004069487E+04 0.  0.
        2    1    3    3  502    0 -0.11577045268E+04 -0.28001631294E+03  0.19088221525E+04  0.22499535365E+04  0.25500000920E-02 0. -1.
       -2    1    3    3    0  502  0.11577045268E+04  0.28001631294E+03 -0.10059072295E+04  0.15590183646E+04  0.25500000920E-02 0.  1.
</event>
<event>
 5   0  0.1825308E-08  0.3698842E+04  0.7818609E-02  0.8068218E-01
       -2   -1    0    0    0  501  0.00000000000E+00  0.00000000000E+00  0.13705342736E+04  0.13705342736E+04  0.25500000920E-02 0.  1.
        2   -1    0    0  501    0  0.00000000000E+00  0.00000000000E+00 -0.24956386090E+04  0.24956386090E+04  0.25500000920E-02 0. -1.
    10030    2    1    2    0    0  0.00000000000E+00  0.00000000000E+00 -0.11251043354E+04  0.38661728826E+04  0.36988421152E+04 0.  0.
        4    1    3    3  502    0  0.84554324434E+02 -0.16251993838E+04  0.35579228661E+03  0.16658367972E+04  0.12699999809E+01 0. -1.
       -4    1    3    3    0  502 -0.84554324434E+02  0.16251993838E+04 -0.14808966220E+04  0.22003360854E+04  0.12699999809E+01 0.  1.
</event>
<event>
 5   0  0.1825308E-08  0.3701366E+04  0.7818609E-02  0.8067659E-01
       -2   -1    0    0    0  501  0.00000000000E+00  0.00000000000E+00  0.20170813012E+04  0.20170813012E+04  0.25500000920E-02 0.  1.
        2   -1    0    0  501    0  0.00000000000E+00  0.00000000000E+00 -0.16980118410E+04  0.16980118410E+04  0.25500000920E-02 0. -1.
    10030    2    1    2    0    0  0.00000000000E+00  0.00000000000E+00  0.31906946019E+03  0.37150931423E+04  0.37013661985E+04 0.  0.
        4    1    3    3  502    0  0.20546318864E+02 -0.78975924525E+03 -0.15202562790E+04  0.17132783146E+04  0.12699999809E+01 0. -1.
       -4    1    3    3    0  502 -0.20546318864E+02  0.78975924525E+03  0.18393257391E+04  0.20018148277E+04  0.12699999809E+01 0.  1.
</event>
<event>
 5   0  0.5714125E-09  0.3711541E+04  0.7818609E-02  0.8065409E-01
        1   -1    0    0  501    0  0.00000000000E+00  0.00000000000E+00  0.15670690345E+04  0.15670690346E+04  0.50400001928E-02 0. -1.
       -1   -1    0    0    0  501  0.00000000000E+00  0.00000000000E+00 -0.21976589497E+04  0.21976589497E+04  0.50400001928E-02 0.  1.
    10030    2    1    2    0    0  0.00000000000E+00  0.00000000000E+00 -0.63058991520E+03  0.37647279843E+04  0.37115405366E+04 0.  0.
        1    1    3    3  502    0  0.67513994383E+03 -0.11699056619E+04 -0.16060835908E+04  0.20985703949E+04  0.50400001928E-02 0.  1.
       -1    1    3    3    0  502 -0.67513994383E+03  0.11699056619E+04  0.97549367560E+03  0.16661575894E+04  0.50400001928E-02 0. -1.
</event>
<event>
 5   0  0.5714125E-09  0.3699782E+04  0.7818609E-02  0.8068010E-01
        1   -1    0    0  501    0  0.00000000000E+00  0.00000000000E+00  0.20229696893E+04  0.20229696894E+04  0.50400001928E-02 0.  1.
       -1   -1    0    0    0  501  0.00000000000E+00  0.00000000000E+00 -0.16916207198E+04  0.16916207198E+04  0.50400001928E-02 0. -1.
    10030    2    1    2    0    0  0.00000000000E+00  0.00000000000E+00  0.33134896958E+03  0.37145904091E+04  0.36997823947E+04 0.  0.
        3    1    3    3  502    0  0.18409928972E+02  0.18426669186E+04  0.27377523974E+01  0.18427609188E+04  0.10100000352E+00 0. -1.
       -3    1    3    3    0  502 -0.18409928972E+02 -0.18426669186E+04  0.32861121718E+03  0.18718294903E+04  0.10100000352E+00 0.  1.
</event>
<event>
 5   0  0.1757996E-08  0.3699569E+04  0.7818609E-02  0.8068057E-01
        2   -1    0    0  501    0  0.00000000000E+00  0.00000000000E+00  0.26924277114E+04  0.26924277114E+04  0.25500000920E-02 0.  1.
       -2   -1    0    0    0  501  0.00000000000E+00  0.00000000000E+00 -0.12708612469E+04  0.12708612469E+04  0.25500000920E-02 0. -1.
    10030    2    1    2    0    0  0.00000000000E+00  0.00000000000E+00  0.14215664645E+04  0.39632889583E+04  0.36995686443E+04 0.  0.
        3    1    3    3  502    0 -0.42484953752E+03 -0.17589325426E+04  0.11220240706E+04  0.21291497937E+04  0.10100000352E+00 0.  1.
       -3    1    3    3    0  502  0.42484953752E+03  0.17589325426E+04  0.29954239400E+03  0.18341391646E+04  0.10100000352E+00 0. -1.
</event>
<event>
 5   0  0.5714125E-09  0.3695935E+04  0.7818609E-02  0.8068863E-01
        1   -1    0    0  501    0  0.00000000000E+00  0.00000000000E+00  0.10801450211E+04  0.10801450211E+04  0.50400001928E-02 0. -1.
       -1   -1    0    0    0  501  0.00000000000E+00  0.00000000000E+00 -0.31615976909E+04  0.31615976909E+04  0.50400001928E-02 0.  1.
    10030    2    1    2    0    0  0.00000000000E+00  0.00000000000E+00 -0.20814526699E+04  0.42417427120E+04  0.36959350668E+04 0.  0.
        5    1    3    3  502    0  0.11758252828E+04  0.13321305769E+04 -0.45797610095E+03  0.18349117604E+04  0.46999998093E+01 0. -1.
       -5    1    3    3    0  502 -0.11758252828E+04 -0.13321305769E+04 -0.16234765689E+04  0.24068309516E+04  0.46999998093E+01 0.  1.
</event>
<event>
 5   0  0.5714125E-09  0.3699169E+04  0.7818609E-02  0.8068146E-01
        1   -1    0    0  501    0  0.00000000000E+00  0.00000000000E+00  0.21858872282E+04  0.21858872282E+04  0.50400001928E-02 0. -1.
       -1   -1    0    0    0  501  0.00000000000E+00  0.00000000000E+00 -0.15650222814E+04  0.15650222814E+04  0.50400001928E-02 0.  1.
    10030    2    1    2    0    0  0.00000000000E+00  0.00000000000E+00  0.62086494679E+03  0.37509095097E+04  0.36991686725E+04 0.  0.
        4    1    3    3  502    0  0.64930679322E+03  0.11526348562E+04 -0.10002392484E+04  0.16585073380E+04  0.12699999809E+01 0.  1.
       -4    1    3    3    0  502 -0.64930679322E+03 -0.11526348562E+04  0.16211041951E+04  0.20924021716E+04  0.12699999809E+01 0. -1.
</event>
<event>
 5   0  0.1825308E-08  0.3702317E+04  0.7818609E-02  0.8067449E-01
        2   -1    0    0  501    0  0.00000000000E+00  0.00000000000E+00  0.18913107315E+04  0.18913107315E+04  0.25500000920E-02 0. -1.
       -2   -1    0    0    0  501  0.00000000000E+00  0.00000000000E+00 -0.18118585504E+04  0.18118585504E+04  0.25500000920E-02 0.  1.
    10030    2    1    2    0    0  0.00000000000E+00  0.00000000000E+00  0.79452181147E+02  0.37031692819E+04  0.37023168531E+04 0.  0.
        4    1    3    3  502    0 -0.10312224703E+04 -0.13500218613E+04  0.77529128808E+03  0.18673663281E+04  0.12699999809E+01 0. -1.
       -4    1    3    3    0  502  0.10312224703E+04  0.13500218613E+04 -0.69583910693E+03  0.18358029537E+04  0.12699999809E+01 0.  1.
</event>
<event>
 5   0  0.1725865E-08  0.3700019E+04  0.7818609E-02  0.8067958E-01
        2   -1    0    0  501    0  0.00000000000E+00  0.00000000000E+00  0.27414498712E+04  0.27414498712E+04  0.25500000920E-02 0.  1.
       -2   -1    0    0    0  501  0.00000000000E+00  0.00000000000E+00 -0.12484399484E+04  0.12484399484E+04  0.25500000920E-02 0. -1.
    10030    2    1    2    0    0  0.00000000000E+00  0.00000000000E+00  0.14930099228E+04  0.39898898196E+04  0.37000192084E+04 0.  0.
        1    1    3    3  502    0  0.14573011829E+04  0.94851802941E+03  0.14277603429E+04  0.22498695043E+04  0.50400001928E-02 0.  1.
       -1    1    3    3    0  502 -0.14573011829E+04 -0.94851802941E+03  0.65249579908E+02  0.17400203153E+04  0.50400001928E-02 0. -1.
</event>
<event>
 5   0  0.5714125E-09  0.3699996E+04  0.7818609E-02  0.8067963E-01
       -1   -1    0    0    0  501  0.00000000000E+00  0.00000000000E+00  0.18507741506E+04  0.18507741506E+04  0.50400001928E-02 0. -1.
        1   -1    0    0  501    0  0.00000000000E+00  0.00000000000E+00 -0.18492223070E+04  0.18492223070E+04  0.50400001928E-02 0.  1.
    10030    2    1    2    0    0  0.00000000000E+00  0.00000000000E+00  0.15518435537E+01  0.36999964576E+04  0.36999961322E+04 0.  0.
        2    1    3    3  502    0  0.51650924859E+03 -0.13708929951E+04 -0.11289867352E+04  0.18495243865E+04  0.25500000920E-02 0.  1.
       -2    1    3    3    0  502 -0.51650924859E+03  0.13708929951E+04  0.11305385788E+04  0.18504720711E+04  0.25500000920E-02 0. -1.
</event>
<event>
 5   0  0.1856107E-08  0.3700703E+04  0.7818609E-02  0.8067806E-01
       -2   -1    0    0    0  501  0.00000000000E+00  0.00000000000E+00  0.13708861848E+04  0.13708861848E+04  0.25500000920E-02 0. -1.
        2   -1    0    0  501    0  0.00000000000E+00  0.00000000000E+00 -0.24975095649E+04  0.24975095649E+04  0.25500000920E-02 0.  1.
    10030    2    1    2    0    0  0.00000000000E+00  0.00000000000E+00 -0.11266233802E+04  0.38683957497E+04  0.37007033704E+04 0.  0.
        2    1    3    3  502    0  0.11870730934E+03 -0.82615547399E+03 -0.22895600933E+04  0.24369468015E+04  0.25500000920E-02 0.  1.
       -2    1    3    3    0  502 -0.11870730934E+03  0.82615547399E+03  0.11629367131E+04  0.14314489482E+04  0.25500000920E-02 0. -1.
</event>
<event>
 5   0  0.1725865E-08  0.3692972E+04  0.7818609E-02  0.8069521E-01
       -2   -1    0    0    0  501  0.00000000000E+00  0.00000000000E+00  0.16939479281E+04  0.16939479281E+04  0.25500000920E-02 0.  1.
        2   -1    0    0  501    0  0.00000000000E+00  0.00000000000E+00 -0.20127601939E+04  0.20127601939E+04  0.25500000920E-02 0. -1.
    10030    2    1    2    0    0  0.00000000000E+00  0.00000000000E+00 -0.31881226581E+03  0.37067081219E+04  0.36929722231E+04 0.  0.
        1    1    3    3  502    0 -0.17654459324E+03  0.14027584570E+03  0.16800766831E+04  0.16951409875E+04  0.50400001928E-02 0.  1.
       -1    1    3    3    0  502  0.17654459324E+03 -0.14027584570E+03 -0.19988889489E+04  0.20115671344E+04  0.50400001928E-02 0. -1.
</event>
<event>
 5   0  0.1757996E-08  0.3699686E+04  0.7818609E-02  0.8068032E-01
       -2   -1    0    0    0  501  0.00000000000E+00  0.00000000000E+00  0.13953827675E+04  0.13953827675E+04  0.25500000920E-02 0. -1.
        2   -1    0    0  501    0  0.00000000000E+00  0.00000000000E+00 -0.24523150919E+04  0.24523150919E+04  0.25500000920E-02 0.  1.
    10030    2    1    2    0    0  0.00000000000E+00  0.00000000000E+00 -0.10569323244E+04  0.38476978594E+04  0.36996855108E+04 0.  0.
        3    1    3    3  502    0  0.85886683381E+03 -0.10230900577E+03 -0.22290596753E+04  0.23909885858E+04  0.10100000352E+00 0.  1.
       -3    1    3    3    0  502 -0.85886683381E+03  0.10230900577E+03  0.11721273509E+04  0.14567092736E+04  0.10100000352E+00 0. -1.
</event>
<event>
 5   0  0.1856107E-08  0.3700211E+04  0.7818609E-02  0.8067915E-01
        2   -1    0    0  501    0  0.00000000000E+00  0.00000000000E+00  0.14932189130E+04  0.14932189130E+04  0.25500000920E-02 0. -1.
       -2   -1    0    0    0  501  0.00000000000E+00  0.00000000000E+00 -0.22922891599E+04  0.22922891599E+04  0.25500000920E-02 0.  1.
    10030    2    1    2    0    0  0.00000000000E+00  0.00000000000E+00 -0.79907024682E+03  0.37855080729E+04  0.37002105495E+04 0.  0.
        2    1    3    3  502    0 -0.11610628614E+04 -0.18609086628E+01 -0.18731631000E+04  0.22038172407E+04  0.25500000920E-02 0.  1.
       -2    1    3    3    0  502  0.11610628614E+04  0.18609086628E+01  0.10740928532E+04  0.15816908322E+04  0.25500000920E-02 0. -1.
</event>
<event>
 5   0  0.5714125E-09  0.3704058E+04  0.7818609E-02  0.8067063E-01
        1   -1    0    0  501    0  0.00000000000E+00  0.00000000000E+00  0.14134892782E+04  0.14134892782E+04  0.50400001928E-02 0. -1.
       -1   -1    0    0    0  501  0.00000000000E+00  0.00000000000E+00 -0.24266269120E+04  0.24266269120E+04  0.50400001928E-02 0.  1.
    10030    2    1    2    0    0  0.00000000000E+00  0.00000000000E+00 -0.10131376338E+04  0.38401161902E+04  0.37040578410E+04 0.  0.
        5    1    3    3  502    0  0.57288153861E+03 -0.14773084216E+04 -0.15006191351E+04  0.21823183334E+04  0.46999998093E+01 0.  1.
       -5    1    3    3    0  502 -0.57288153861E+03  0.14773084216E+04  0.48748150136E+03  0.16577978568E+04  0.46999998093E+01 0. -1.
</event>
<event>
 5   0  0.1825308E-08  0.3701330E+04  0.7818609E-02  0.8067667E-01
       -2   -1    0    0    0  501  0.00000000000E+00  0.00000000000E+00  0.11759447732E+04  0.11759447732E+04  0.25500000920E-02 0.  1.
        2   -1    0    0  501    0  0.00000000000E+00  0.00000000000E+00 -0.29125185188E+04  0.29125185188E+04  0.25500000920E-02 0. -1.
    10030    2    1    2    0    0  0.00000000000E+00  0.00000000000E+00 -0.17365737456E+04  0.40884632921E+04  0.37013299929E+04 0.  0.
        4    1    3    3  502    0  0.15917977039E+04 -0.93094298006E+03 -0.69544522571E+03  0.19708172003E+04  0.12699999809E+01 0.  1.
       -4    1    3    3    0  502 -0.15917977039E+04  0.93094298006E+03 -0.10411285199E+04  0.21176460918E+04  0.12699999809E+01 0. -1.
</event>
<event>
 5   0  0.5714125E-09  0.3697849E+04  0.7818609E-02  0.8068439E-01
       -1   -1    0    0    0  501  0.00000000000E+00  0.00000000000E+00  0.31469685211E+04  0.31469685211E+04  0.50400001928E-02 0. -1.
        1   -1    0    0  501    0  0.00000000000E+00  0.00000000000E+00 -0.10862902159E+04  0.10862902159E+04  0.50400001928E-02 0.  1.
    10030    2    1    2    0    0  0.00000000000E+00  0.00000000000E+00  0.20606783052E+04  0.42332587371E+04  0.36978486255E+04 0.  0.
        3    1    3    3  502    0  0.93327495258E+03 -0.14165339573E+04  0.18723243446E+04  0.25264934298E+04  0.10100000352E+00 0. -1.
       -3    1    3    3    0  502 -0.93327495258E+03  0.14165339573E+04  0.18835396067E+03  0.17067653073E+04  0.10100000352E+00 0.  1.
</event>
<event>
 5   0  0.5714125E-09  0.3700628E+04  0.7818609E-02  0.8067823E-01
       -1   -1    0    0    0  501  0.00000000000E+00  0.00000000000E+00  0.12395289981E+04  0.12395289981E+04  0.50400001928E-02 0. -1.
        1   -1    0    0  501    0  0.00000000000E+00  0.00000000000E+00 -0.27620669365E+04  0.27620669365E+04  0.50400001928E-02 0.  1.
    10030    2    1    2    0    0  0.00000000000E+00  0.00000000000E+00 -0.15225379384E+04  0.40015959346E+04  0.37006280886E+04 0.  0.
        3    1    3    3  502    0  0.55180000675E+03  0.11491021069E+04 -0.22115172828E+04  0.25525923298E+04  0.10100000352E+00 0.  1.
       -3    1    3    3    0  502 -0.55180000675E+03 -0.11491021069E+04  0.68897934441E+03  0.14490036048E+04  0.10100000352E+00 0. -1.
</event>
<event>
 5   0  0.1757996E-08  0.3699338E+04  0.7818609E-02  0.8068108E-01
        2   -1    0    0  501    0  0.00000000000E+00  0.00000000000E+00  0.21659724453E+04  0.21659724453E+04  0.25500000920E-02 0. -1.
       -2   -1    0    0    0  501  0.00000000000E+00  0.00000000000E+00 -0.15795565241E+04  0.15795565241E+04  0.25500000920E-02 0.  1.
    10030    2    1    2    0    0  0.00000000000E+00  0.00000000000E+00  0.58641592125E+03  0.37455289694E+04  0.36993382689E+04 0.  0.
        3    1    3    3  502    0  0.51829364773E+02 -0.14155556262E+04 -0.91109400433E+03  0.16842138549E+04  0.10100000352E+00 0.  1.
       -3    1    3    3    0  502 -0.51829364773E+02  0.14155556262E+04  0.14975099256E+04  0.20613151145E+04  0.10100000352E+00 0. -1.
</event>
<event>
 5   0  0.5714125E-09  0.3700922E+04  0.7818609E-02  0.8067758E-01
       -3   -1    0    0    0  501  0.00000000000E+00  0.00000000000E+00  0.22900285251E+04  0.22900285273E+04  0.10100000352E+00 0. -1.
        3   -1    0    0  501    0  0.00000000000E+00  0.00000000000E+00 -0.14952674789E+04  0.14952674824E+04  0.10100000352E+00 0.  1.
    10030    2    1    2    0    0  0.00000000000E+00  0.00000000000E+00  0.79476104613E+03  0.37852960097E+04  0.37009216096E+04 0.  0.
        5    1    3    3  502    0 -0.15135187752E+04 -0.86946108059E+03 -0.23102177704E+03  0.17607086088E+04  0.46999998093E+01 0.  1.
       -5    1    3    3    0  502  0.15135187752E+04  0.86946108059E+03  0.10257828232E+04  0.20245874009E+04  0.46999998093E+01 0. -1.
</event>
<event>
 5   0  0.5714125E-09  0.3697840E+04  0.7818609E-02  0.8068441E-01
       -1   -1    0    0    0  501  0.00000000000E+00  0.00000000000E+00  0.21105307981E+04  0.21105307981E+04  0.50400001928E-02 0.  1.
        1   -1    0    0  501    0  0.00000000000E+00  0.00000000000E+00 -0.16197368339E+04  0.16197368339E+04  0.50400001928E-02 0. -1.
    10030    2    1    2    0    0  0.00000000000E+00  0.00000000000E+00  0.49079396414E+03  0.37302676320E+04  0.36978396249E+04 0.  0.
        3    1    3    3  502    0  0.11987320916E+04 -0.85134870968E+03 -0.88548315445E+03  0.17163431125E+04  0.10100000352E+00 0. -1.
       -3    1    3    3    0  502 -0.11987320916E+04  0.85134870968E+03  0.13762771186E+04  0.20139245195E+04  0.10100000352E+00 0.  1.
</event>
<event>
 5   0  0.5714125E-09  0.3692026E+04  0.7818609E-02  0.8069731E-01
       -1   -1    0    0    0  501  0.00000000000E+00  0.00000000000E+00  0.15998391480E+04  0.15998391480E+04  0.50400001928E-02 0. -1.
        1   -1    0    0  501    0  0.00000000000E+00  0.00000000000E+00 -0.21300664879E+04  0.21300664879E+04  0.50400001928E-02 0.  1.
    10030    2    1    2    0    0  0.00000000000E+00  0.00000000000E+00 -0.53022733992E+03  0.37299056358E+04  0.36920258694E+04 0.  0.
        4    1    3    3  502    0  0.11968479722E+04  0.33059915893E+03  0.11149254708E+04  0.16687723903E+04  0.12699999809E+01 0. -1.
       -4    1    3    3    0  502 -0.11968479722E+04 -0.33059915893E+03 -0.16451528107E+04  0.20611332455E+04  0.12699999809E+01 0.  1.
</event>
<event>
 5   0  0.5714125E-09  0.3699814E+04  0.7818609E-02  0.8068003E-01
       -1   -1    0    0    0  501  0.00000000000E+00  0.00000000000E+00  0.21601081881E+04  0.21601081881E+04  0.50400001928E-02 0.  1.
        1   -1    0    0  501    0  0.00000000000E+00  0.00000000000E+00 -0.15842521680E+04  0.15842521680E+04  0.50400001928E-02 0. -1.
    10030    2    1    2    0    0  0.00000000000E+00  0.00000000000E+00  0.57585602012E+03  0.37443603561E+04  0.36998140927E+04 0.  0.
        5    1    3    3  502    0  0.37227801328E+03 -0.75374430428E+03 -0.13797632401E+04  0.16157011123E+04  0.46999998093E+01 0. -1.
       -5    1    3    3    0  502 -0.37227801328E+03  0.75374430428E+03  0.19556192602E+04  0.21286592438E+04  0.46999998093E+01 0.  1.
</event>
<event>
 5   0  0.5714125E-09  0.3701306E+04  0.7818609E-02  0.8067672E-01
       -1   -1    0    0    0  501  0.00000000000E+00  0.00000000000E+00  0.98657563311E+03  0.98657563312E+03  0.50400001928E-02 0.  1.
        1   -1    0    0  501    0  0.00000000000E+00  0.00000000000E+00 -0.34715203073E+04  0.34715203073E+04  0.50400001928E-02 0. -1.
    10030    2    1    2    0    0  0.00000000000E+00  0.00000000000E+00 -0.24849446742E+04  0.44580959404E+04  0.37013064423E+04 0.  0.
        4    1    3    3  502    0 -0.11990533865E+04  0.27608821574E+03  0.42255126269E+03  0.13009630698E+04  0.12699999809E+01 0.  1.
       -4    1    3    3    0  502  0.11990533865E+04 -0.27608821574E+03 -0.29074959369E+04  0.31571328706E+04  0.12699999809E+01 0. -1.
</event>
<event>
 5   0  0.1757996E-08  0.3698117E+04  0.7818609E-02  0.8068379E-01
        2   -1    0    0  501    0  0.00000000000E+00  0.00000000000E+00  0.23038471333E+04  0.23038471333E+04  0.25500000920E-02 0.  1.
       -2   -1    0    0    0  501  0.00000000000E+00  0.00000000000E+00 -0.14840466228E+04  0.14840466228E+04  0.25500000920E-02 0. -1.
    10030    2    1    2    0    0  0.00000000000E+00  0.00000000000E+00  0.81980051048E+03  0.37878937561E+04  0.36981165789E+04 0.  0.
        3    1    3    3  502    0 -0.15793533012E+03 -0.26747672042E+02  0.22967269081E+04  0.23023061280E+04  0.10100000352E+00 0.  1.
       -3    1    3    3    0  502  0.15793533012E+03  0.26747672042E+02 -0.14769263977E+04  0.14855876281E+04  0.10100000352E+00 0. -1.
</event>
<event>
 5   0  0.5714125E-09  0.3697860E+04  0.7818609E-02  0.8068436E-01
       -1   -1    0    0    0  501  0.00000000000E+00  0.00000000000E+00  0.31893282526E+04  0.31893282526E+04  0.50400001928E-02 0.  1.
        1   -1    0    0  501    0  0.00000000000E+00  0.00000000000E+00 -0.10718691940E+04  0.10718691940E+04  0.50400001928E-02 0. -1.
    10030    2    1    2    0    0  0.00000000000E+00  0.00000000000E+00  0.21174590586E+04  0.42611974466E+04  0.36978603021E+04 0.  0.
        1    1    3    3  502    0 -0.89192174498E+03 -0.51903840030E+02  0.29240724342E+04  0.30575182761E+04  0.50400001928E-02 0.  1.
       -1    1    3    3    0  502  0.89192174498E+03  0.51903840030E+02 -0.80661337562E+03  0.12036791705E+04  0.50400001928E-02 0. -1.
</event>
<event>
 5   0  0.1757996E-08  0.3699304E+04  0.7818609E-02  0.8068116E-01
       -2   -1    0    0    0  501  0.00000000000E+00  0.00000000000E+00  0.18667584478E+04  0.18667584478E+04  0.25500000920E-02 0.  1.
        2   -1    0    0  501    0  0.00000000000E+00  0.00000000000E+00 -0.18327027218E+04  0.18327027218E+04  0.25500000920E-02 0. -1.
    10030    2    1    2    0    0  0.00000000000E+00  0.00000000000E+00  0.34055725972E+02  0.36994611696E+04  0.36993044147E+04 0.  0.
        3    1    3    3  502    0  0.63349727565E+03  0.68404106919E+03  0.16145880578E+04  0.18644370703E+04  0.10100000352E+00 0.  1.
       -3    1    3    3    0  502 -0.63349727565E+03 -0.68404106919E+03 -0.15805323319E+04  0.18350240993E+04  0.10100000352E+00 0. -1.
</event>
<event>
 5   0  0.1825308E-08  0.3699757E+04  0.7818609E-02  0.8068016E-01
        2   -1    0    0  501    0  0.00000000000E+00  0.00000000000E+00  0.16840069511E+04  0.16840069511E+04  0.25500000920E-02 0. -1.
       -2   -1    0    0    0  501  0.00000000000E+00  0.00000000000E+00 -0.20320883228E+04  0.20320883228E+04  0.25500000920E-02 0.  1.
    10030    2    1    2    0    0  0.00000000000E+00  0.00000000000E+00 -0.34808137166E+03  0.37160952739E+04  0.36997572141E+04 0.  0.
        4    1    3    3  502    0  0.83588242494E+03 -0.31243416631E+03  0.14535269189E+04  0.17055956887E+04  0.12699999809E+01 0. -1.
       -4    1    3    3    0  502 -0.83588242494E+03  0.31243416631E+03 -0.18016082905E+04  0.20104995852E+04  0.12699999809E+01 0.  1.
</event>
<event>
 5   0  0.5714125E-09  0.3700816E+04  0.7818609E-02  0.8067781E-01
       -1   -1    0    0    0  501  0.00000000000E+00  0.00000000000E+00  0.23713939879E+04  0.23713939879E+04  0.50400001928E-02 0.  1.
        1   -1    0    0  501    0  0.00000000000E+00  0.00000000000E+00 -0.14438805392E+04  0.14438805392E+04  0.50400001928E-02 0. -1.
    10030    2    1    2    0    0  0.00000000000E+00  0.00000000000E+00  0.92751344869E+03  0.38152745272E+04  0.37008159263E+04 0.  0.
        4    1    3    3  502    0 -0.14866199201E+04 -0.91232659278E+03  0.11006244359E+04  0.20624631780E+04  0.12699999809E+01 0.  1.
       -4    1    3    3    0  502  0.14866199201E+04  0.91232659278E+03 -0.17311098726E+03  0.17528113491E+04  0.12699999809E+01 0. -1.
</event>
<event>
 5   0  0.5714125E-09  0.3699413E+04  0.7818609E-02  0.8068092E-01
       -1   -1    0    0    0  501  0.00000000000E+00  0.00000000000E+00  0.14988551086E+04  0.14988551086E+04  0.50400001928E-02 0.  1.
        1   -1    0    0  501    0  0.00000000000E+00  0.00000000000E+00 -0.22826848763E+04  0.22826848763E+04  0.50400001928E-02 0. -1.
    10030    2    1    2    0    0  0.00000000000E+00  0.00000000000E+00 -0.78382976763E+03  0.37815399849E+04  0.36994128659E+04 0.  0.
        1    1    3    3  502    0 -0.37239954457E+03  0.45075675329E+02  0.14595658474E+04  0.15069989052E+04  0.50400001928E-02 0.  1.
       -1    1    3    3    0  502  0.37239954457E+03 -0.45075675329E+02 -0.22433956151E+04  0.22745410797E+04  0.50400001928E-02 0. -1.
</event>
<event>
 5   0  0.1856107E-08  0.3699869E+04  0.7818609E-02  0.8067991E-01
        2   -1    0    0  501    0  0.00000000000E+00  0.00000000000E+00  0.18465918522E+04  0.18465918522E+04  0.25500000920E-02 0.  1.
       -2   -1    0    0    0  501  0.00000000000E+00  0.00000000000E+00 -0.18532827422E+04  0.18532827422E+04  0.25500000920E-02 0. -1.
    10030    2    1    2    0    0  0.00000000000E+00  0.00000000000E+00 -0.66908899732E+01  0.36998745944E+04  0.36998685444E+04 0.  0.
        2    1    3    3  502    0  0.17880644371E+04  0.47435680673E+03  0.49007994370E+01  0.18499223846E+04  0.25500000920E-02 0. -1.
       -2    1    3    3    0  502 -0.17880644371E+04 -0.47435680673E+03 -0.11591689410E+02  0.18499522098E+04  0.25500000920E-02 0.  1.
</event>
<event>
 5   0  0.1757996E-08  0.3699675E+04  0.7818609E-02  0.8068034E-01
        2   -1    0    0  501    0  0.00000000000E+00  0.00000000000E+00  0.22304121741E+04  0.22304121741E+04  0.25500000920E-02 0.  1.
       -2   -1    0    0    0  501  0.00000000000E+00  0.00000000000E+00 -0.15342001357E+04  0.15342001357E+04  0.25500000920E-02 0. -1.
    10030    2    1    2    0    0  0.00000000000E+00  0.00000000000E+00  0.69621203836E+03  0.37646123098E+04  0.36996749371E+04 0.  0.
        3    1    3    3  502    0  0.10979401637E+04  0.11431346519E+04  0.13186124984E+04  0.20617876628E+04  0.10100000352E+00 0.  1.
       -3    1    3    3    0  502 -0.10979401637E+04 -0.11431346519E+04 -0.62240046002E+03  0.17028246470E+04  0.10100000352E+00 0. -1.
</event>
<event>
 5   0  0.5714125E-09  0.3702724E+04  0.7818609E-02  0.8067358E-01
        1   -1    0    0  501    0  0.00000000000E+00  0.00000000000E+00  0.21684086883E+04  0.21684086883E+04  0.50400001928E-02 0. -1.
       -1   -1    0    0    0  501  0.00000000000E+00  0.00000000000E+00 -0.15806714390E+04  0.15806714391E+04  0.50400001928E-02 0.  1.
    10030    2    1    2    0    0  0.00000000000E+00  0.00000000000E+00  0.58773724925E+03  0.37490801274E+04  0.37027242305E+04 0.  0.
        4    1    3    3  502    0  0.95753853356E+03 -0.17404998324E+03 -0.13007663835E+04  0.16245517035E+04  0.12699999809E+01 0.  1.
       -4    1    3    3    0  502 -0.95753853356E+03  0.17404998324E+03  0.18885036328E+04  0.21245284239E+04  0.12699999809E+01 0. -1.
</event>
<event>
 5   0  0.5714125E-09  0.3703635E+04  0.7818609E-02  0.8067157E-01
        1   -1    0    0  501    0  0.00000000000E+00  0.00000000000E+00  0.26217896570E+04  0.26217896570E+04  0.50400001928E-02 0.  1.
       -1   -1    0    0    0  501  0.00000000000E+00  0.00000000000E+00 -0.13079721228E+04  0.13079721228E+04  0.50400001928E-02 0. -1.
    10030    2    1    2    0    0  0.00000000000E+00  0.00000000000E+00  0.13138175341E+04  0.39297617798E+04  0.37036348541E+04 0.  0.
        2    1    3    3  502    0 -0.30735479993E+03  0.76997267157E+03  0.24138777596E+04  0.25522795157E+04  0.25500000920E-02 0.  1.
       -2    1    3    3    0  502  0.30735479993E+03 -0.76997267157E+03 -0.11000602255E+04  0.13774822640E+04  0.25500000920E-02 0. -1.
</event>
<event>
 5   0  0.5714125E-09  0.3702411E+04  0.7818609E-02  0.8067428E-01
        1   -1    0    0  501    0  0.00000000000E+00  0.00000000000E+00  0.15157250588E+04  0.15157250588E+04  0.50400001928E-02 0. -1.
       -1   -1    0    0    0  501  0.00000000000E+00  0.00000000000E+00 -0.22609385937E+04  0.22609385937E+04  0.50400001928E-02 0.  1.
    10030    2    1    2    0    0  0.00000000000E+00  0.00000000000E+00 -0.74521353496E+03  0.37766636525E+04  0.37024107189E+04 0.  0.
        1    1    3    3  502    0  0.57722093776E+03 -0.28268623891E+03 -0.21434726315E+04  0.22377601397E+04  0.50400001928E-02 0.  1.
       -1    1    3    3    0  502 -0.57722093776E+03  0.28268623891E+03  0.13982590966E+04  0.15389035128E+04  0.50400001928E-02 0. -1.
</event>
<event>
 5   0  0.1856107E-08  0.3698888E+04  0.7818609E-02  0.8068208E-01
        2   -1    0    0  501    0  0.00000000000E+00  0.00000000000E+00  0.22746205560E+04  0.22746205560E+04  0.25500000920E-02 0. -1.
       -2   -1    0    0    0  501  0.00000000000E+00  0.00000000000E+00 -0.15037420129E+04  0.15037420129E+04  0.25500000920E-02 0.  1.
    10030    2    1    2    0    0  0.00000000000E+00  0.00000000000E+00  0.77087854314E+03  0.37783625689E+04  0.36988876671E+04 0.  0.
        2    1    3    3  502    0 -0.10951088993E+03 -0.11239270231E+04 -0.11106937861E+04  0.15839334818E+04  0.25500000920E-02 0.  1.
       -2    1    3    3    0  502  0.10951088993E+03  0.11239270231E+04  0.18815723292E+04  0.21944290871E+04  0.25500000920E-02 0. -1.
</event>
<event>
 5   0  0.5714125E-09  0.3700971E+04  0.7818609E-02  0.8067747E-01
       -1   -1    0    0    0  501  0.00000000000E+00  0.00000000000E+00  0.13441633107E+04  0.13441633107E+04  0.50400001928E-02 0. -1.
        1   -1    0    0  501    0  0.00000000000E+00  0.00000000000E+00 -0.25475306828E+04  0.25475306828E+04  0.50400001928E-02 0.  1.
    10030    2    1    2    0    0  0.00000000000E+00  0.00000000000E+00 -0.12033673721E+04  0.38916939935E+04  0.37009713734E+04 0.  0.
        5    1    3    3  502    0 -0.16768767067E+04 -0.49679288399E+03 -0.12374539772E+04  0.21424362521E+04  0.46999998093E+01 0.  1.
       -5    1    3    3    0  502  0.16768767067E+04  0.49679288399E+03  0.34086605040E+02  0.17492577413E+04  0.46999998093E+01 0. -1.
</event>
<event>
 5   0  0.5714125E-09  0.3698222E+04  0.7818609E-02  0.8068356E-01
        1   -1    0    0  501    0  0.00000000000E+00  0.00000000000E+00  0.16636390915E+04  0.16636390915E+04  0.50400001928E-02 0.  1.
       -1   -1    0    0    0  501  0.00000000000E+00  0.00000000000E+00 -0.20552608775E+04  0.20552608775E+04  0.50400001928E-02 0. -1.
    10030    2    1    2    0    0  0.00000000000E+00  0.00000000000E+00 -0.39162178599E+03  0.37188999691E+04  0.36982224590E+04 0.  0.
        3    1    3    3  502    0  0.17650010662E+04 -0.27925183204E+03 -0.67386558701E+03  0.19097919229E+04  0.10100000352E+00 0. -1.
       -3    1    3    3    0  502 -0.17650010662E+04  0.27925183204E+03  0.28224380102E+03  0.18091080462E+04  0.10100000352E+00 0.  1.
</event>
<event>
 5   0  0.1757996E-08  0.3696688E+04  0.7818609E-02  0.8068696E-01
       -2   -1    0    0    0  501  0.00000000000E+00  0.00000000000E+00  0.14277202392E+04  0.14277202392E+04  0.25500000920E-02 0.  1.
        2   -1    0    0  501    0  0.00000000000E+00  0.00000000000E+00 -0.23928891747E+04  0.23928891747E+04  0.25500000920E-02 0. -1.
    10030    2    1    2    0    0  0.00000000000E+00  0.00000000000E+00 -0.96516893546E+03  0.38206094139E+04  0.36966884125E+04 0.  0.
        3    1    3    3  502    0 -0.31930924092E+03 -0.10026175534E+04  0.10879530215E+04  0.15135528194E+04  0.10100000352E+00 0.  1.
       -3    1    3    3    0  502  0.31930924092E+03  0.10026175534E+04 -0.20531219570E+04  0.23070565945E+04  0.10100000352E+00 0. -1.
</event>
<event>
 5   0  0.1757996E-08  0.3703109E+04  0.7818609E-02  0.8067273E-01
        2   -1    0    0  501    0  0.00000000000E+00  0.00000000000E+00  0.16705729465E+04  0.16705729465E+04  0.25500000920E-02 0. -1.
       -2   -1    0    0    0  501  0.00000000000E+00  0.00000000000E+00 -0.20521425555E+04  0.20521425555E+04  0.25500000920E-02 0.  1.
    10030    2    1    2    0    0  0.00000000000E+00  0.00000000000E+00 -0.38156960906E+03  0.37227155020E+04  0.37031088753E+04 0.  0.
        3    1    3    3  502    0 -0.25568949136E+03 -0.16042134467E+04  0.70238761864E+03  0.17698096722E+04  0.10100000352E+00 0. -1.
       -3    1    3    3    0  502  0.25568949136E+03  0.16042134467E+04 -0.10839572277E+04  0.19529058299E+04  0.10100000352E+00 0.  1.
</event>
<event>
 5   0  0.5714125E-09  0.3708754E+04  0.7818609E-02  0.8066025E-01
        1   -1    0    0  501    0  0.00000000000E+00  0.00000000000E+00  0.16532086368E+04  0.16532086368E+04  0.50400001928E-02 0. -1.
       -1   -1    0    0    0  501  0.00000000000E+00  0.00000000000E+00 -0.20800240159E+04  0.20800240159E+04  0.50400001928E-02 0.  1.
    10030    2    1    2    0    0  0.00000000000E+00  0.00000000000E+00 -0.42681537905E+03  0.37332326527E+04  0.37087537895E+04 0.  0.
        1    1    3    3  502    0  0.24285799785E+03  0.11670045181E+04  0.12164729399E+04  0.17031400312E+04  0.50400001928E-02 0. -1.
       -1    1    3    3    0  502 -0.24285799785E+03 -0.11670045181E+04 -0.16432883190E+04  0.20300926215E+04  0.50400001928E-02 0.  1.
</event>
<event>
 5   0  0.1725865E-08  0.3699584E+04  0.7818609E-02  0.8068054E-01
        2   -1    0    0  501    0  0.00000000000E+00  0.00000000000E+00  0.20311748849E+04  0.20311748849E+04  0.25500000920E-02 0.  1.
       -2   -1    0    0    0  501  0.00000000000E+00  0.00000000000E+00 -0.16846064566E+04  0.16846064566E+04  0.25500000920E-02 0. -1.
    10030    2    1    2    0    0  0.00000000000E+00  0.00000000000E+00  0.34656842827E+03  0.37157813415E+04  0.36995839364E+04 0.  0.
        1    1    3    3  502    0  0.11447593090E+04  0.21965187356E+03 -0.12693222669E+04  0.17233397339E+04  0.50400001928E-02 0. -1.
       -1    1    3    3    0  502 -0.11447593090E+04 -0.21965187356E+03  0.16158906951E+04  0.19924416076E+04  0.50400001928E-02 0.  1.
</event>
<event>
 5   0  0.5714125E-09  0.3689200E+04  0.7818609E-02  0.8070359E-01
        1   -1    0    0  501    0  0.00000000000E+00  0.00000000000E+00  0.14845974062E+04  0.14845974062E+04  0.50400001928E-02 0.  1.
       -1   -1    0    0    0  501  0.00000000000E+00  0.00000000000E+00 -0.22919003918E+04  0.22919003918E+04  0.50400001928E-02 0. -1.
    10030    2    1    2    0    0  0.00000000000E+00  0.00000000000E+00 -0.80730298561E+03  0.37764977980E+04  0.36892001176E+04 0.  0.
        2    1    3    3  502    0  0.73570470806E+03  0.73906290664E+03  0.11538894039E+04  0.15552929479E+04  0.25500000920E-02 0.  1.
       -2    1    3    3    0  502 -0.73570470806E+03 -0.73906290664E+03 -0.19611923895E+04  0.22212048501E+04  0.25500000920E-02 0. -1.
</event>
<event>
 5   0  0.5714125E-09  0.3699503E+04  0.7818609E-02  0.8068072E-01
        1   -1    0    0  501    0  0.00000000000E+00  0.00000000000E+00  0.10917879545E+04  0.10917879545E+04  0.50400001928E-02 0.  1.
       -1   -1    0    0    0  501  0.00000000000E+00  0.00000000000E+00 -0.31339239355E+04  0.31339239355E+04  0.50400001928E-02 0. -1.
    10030    2    1    2    0    0  0.00000000000E+00  0.00000000000E+00 -0.20421359809E+04  0.42257118900E+04  0.36995028873E+04 0.  0.
        1    1    3    3  502    0 -0.17212254821E+04 -0.65587329838E+03 -0.12148901536E+04  0.22065232899E+04  0.50400001928E-02 0.  1.
       -1    1    3    3    0  502  0.17212254821E+04  0.65587329838E+03 -0.82724582739E+03  0.20191886001E+04  0.50400001928E-02 0. -1.
</event>
<event>
 5   0  0.1740290E-08  0.3692209E+04  0.7818609E-02  0.8069691E-01
       -2   -1    0    0    0  501  0.00000000000E+00  0.00000000000E+00  0.17935307447E+04  0.17935307447E+04  0.25500000920E-02 0.  1.
        2   -1    0    0  501    0  0.00000000000E+00  0.00000000000E+00 -0.19002196112E+04  0.19002196112E+04  0.25500000920E-02 0. -1.
    10030    2    1    2    0    0  0.00000000000E+00  0.00000000000E+00 -0.10668886650E+03  0.36937503559E+04  0.36922092543E+04 0.  0.
        5    1    3    3  502    0  0.83697456276E+03 -0.19251392322E+03 -0.16881905816E+04  0.18940954461E+04  0.46999998093E+01 0. -1.
       -5    1    3    3    0  502 -0.83697456276E+03  0.19251392322E+03  0.15815017151E+04  0.17996549097E+04  0.46999998093E+01 0.  1.
</event>
<event>
 5   0  0.1725865E-08  0.3700552E+04  0.7818609E-02  0.8067840E-01
       -2   -1    0    0    0  501  0.00000000000E+00  0.00000000000E+00  0.14061869508E+04  0.14061869508E+04  0.25500000920E-02 0. -1.
        2   -1    0    0  501    0  0.00000000000E+00  0.00000000000E+00 -0.24346125791E+04  0.24346125791E+04  0.25500000920E-02 0.  1.
    10030    2    1    2    0    0  0.00000000000E+00  0.00000000000E+00 -0.10284256284E+04  0.38407995299E+04  0.37005515475E+04 0.  0.
        1    1    3    3  502    0  0.21360936008E+03  0.14059988484E+04  0.71431035142E+03  0.15914461972E+04  0.50400001928E-02 0. -1.
       -1    1    3    3    0  502 -0.21360936008E+03 -0.14059988484E+04 -0.17427359798E+04  0.22493533328E+04  0.50400001928E-02 0.  1.
</event>
<event>
 5   0  0.5714125E-09  0.3698115E+04  0.7818609E-02  0.8068380E-01
       -1   -1    0    0    0  501  0.00000000000E+00  0.00000000000E+00  0.26921616845E+04  0.26921616845E+04  0.50400001928E-02 0. -1.
        1   -1    0    0  501    0  0.00000000000E+00  0.00000000000E+00 -0.12699880047E+04  0.12699880047E+04  0.50400001928E-02 0.  1.
    10030    2    1    2    0    0  0.00000000000E+00  0.00000000000E+00  0.14221736798E+04  0.39621496893E+04  0.36981146797E+04 0.  0.
        2    1    3    3  502    0 -0.26288106998E+03 -0.10444617717E+04 -0.89922214279E+03  0.14030706724E+04  0.25500000920E-02 0.  1.
       -2    1    3    3    0  502  0.26288106998E+03  0.10444617717E+04  0.23213958226E+04  0.25590790169E+04  0.25500000920E-02 0. -1.
</event>
<event>
 5   0  0.5714125E-09  0.3700207E+04  0.7818609E-02  0.8067916E-01
       -1   -1    0    0    0  501  0.00000000000E+00  0.00000000000E+00  0.17676669645E+04  0.17676669646E+04  0.50400001928E-02 0.  1.
        1   -1    0    0  501    0  0.00000000000E+00  0.00000000000E+00 -0.19363847416E+04  0.19363847416E+04  0.50400001928E-02 0. -1.
    10030    2    1    2    0    0  0.00000000000E+00  0.00000000000E+00 -0.16871777700E+03  0.37040517061E+04  0.37002072041E+04 0.  0.
        2    1    3    3  502    0 -0.25502842981E+03  0.11547009768E+04  0.13399720401E+04  0.17871482630E+04  0.25500000920E-02 0.  1.
       -2    1    3    3    0  502  0.25502842981E+03 -0.11547009768E+04 -0.15086898171E+04  0.19169034431E+04  0.25500000920E-02 0. -1.
</event>
<event>
 5   0  0.1856107E-08  0.3700225E+04  0.7818609E-02  0.8067912E-01
       -2   -1    0    0    0  501  0.00000000000E+00  0.00000000000E+00  0.18941638524E+04  0.18941638524E+04  0.25500000920E-02 0. -1.
        2   -1    0    0  501    0  0.00000000000E+00  0.00000000000E+00 -0.18070853419E+04  0.18070853419E+04  0.25500000920E-02 0.  1.
    10030    2    1    2    0    0  0.00000000000E+00  0.00000000000E+00  0.87078510466E+02  0.37012491942E+04  0.37002247136E+04 0.  0.
        2    1    3    3  502    0  0.87311057268E+03 -0.16306092103E+04  0.22087673269E+01  0.18496522234E+04  0.25500000920E-02 0. -1.
       -2    1    3    3    0  502 -0.87311057268E+03  0.16306092103E+04  0.84869743139E+02  0.18515969708E+04  0.25500000920E-02 0.  1.
</event>
<event>
 5   0  0.5714125E-09  0.3700589E+04  0.7818609E-02  0.8067831E-01
        1   -1    0    0  501    0  0.00000000000E+00  0.00000000000E+00  0.18669368336E+04  0.18669368336E+04  0.50400001928E-02 0. -1.
       -1   -1    0    0    0  501  0.00000000000E+00  0.00000000000E+00 -0.18338004959E+04  0.18338004959E+04  0.50400001928E-02 0.  1.
    10030    2    1    2    0    0  0.00000000000E+00  0.00000000000E+00  0.33136337686E+02  0.37007373294E+04  0.37005889754E+04 0.  0.
        3    1    3    3  502    0 -0.13648621086E+04 -0.39660396810E+03  0.12012870918E+04  0.18609766173E+04  0.10100000352E+00 0. -1.
       -3    1    3    3    0  502  0.13648621086E+04  0.39660396810E+03 -0.11681507542E+04  0.18397607121E+04  0.10100000352E+00 0.  1.
</event>
<event>
 5   0  0.1740290E-08  0.3700348E+04  0.7818609E-02  0.8067885E-01
       -2   -1    0    0    0  501  0.00000000000E+00  0.00000000000E+00  0.18360247794E+04  0.18360247794E+04  0.25500000920E-02 0.  1.
        2   -1    0    0  501    0  0.00000000000E+00  0.00000000000E+00 -0.18644317793E+04  0.18644317793E+04  0.25500000920E-02 0. -1.
    10030    2    1    2    0    0  0.00000000000E+00  0.00000000000E+00 -0.28406999847E+02  0.37004565587E+04  0.37003475222E+04 0.  0.
        5    1    3    3  502    0 -0.22074296505E+03  0.12752600589E+04  0.13079947472E+04  0.18400782655E+04  0.46999998093E+01 0.  1.
       -5    1    3    3    0  502  0.22074296505E+03 -0.12752600589E+04 -0.13364017470E+04  0.18603782932E+04  0.46999998093E+01 0. -1.
</event>
<event>
 5   0  0.5714125E-09  0.3700399E+04  0.7818609E-02  0.8067873E-01
       -1   -1    0    0    0  501  0.00000000000E+00  0.00000000000E+00  0.12335169298E+04  0.12335169298E+04  0.50400001928E-02 0. -1.
        1   -1    0    0  501    0  0.00000000000E+00  0.00000000000E+00 -0.27751852855E+04  0.27751852855E+04  0.50400001928E-02 0.  1.
    10030    2    1    2    0    0  0.00000000000E+00  0.00000000000E+00 -0.15416683558E+04  0.40087022153E+04  0.37003989153E+04 0.  0.
        3    1    3    3  502    0  0.95968988748E+03  0.15747731097E+04 -0.93269117869E+03  0.20665981400E+04  0.10100000352E+00 0.  1.
       -3    1    3    3    0  502 -0.95968988748E+03 -0.15747731097E+04 -0.60897717708E+03  0.19421040754E+04  0.10100000352E+00 0. -1.
</event>
<event>
 5   0  0.1856107E-08  0.3701351E+04  0.7818609E-02  0.8067663E-01
       -2   -1    0    0    0  501  0.00000000000E+00  0.00000000000E+00  0.26587018495E+04  0.26587018495E+04  0.25500000920E-02 0. -1.
        2   -1    0    0  501    0  0.00000000000E+00  0.00000000000E+00 -0.12882224886E+04  0.12882224886E+04  0.25500000920E-02 0.  1.
    10030    2    1    2    0    0  0.00000000000E+00  0.00000000000E+00  0.13704793609E+04  0.39469243381E+04  0.37013508416E+04 0.  0.
        2    1    3    3  502    0  0.10825618542E+03  0.32462602347E+03  0.26246719029E+04  0.26468857275E+04  0.25500000920E-02 0. -1.
       -2    1    3    3    0  502 -0.10825618542E+03 -0.32462602347E+03 -0.12541925420E+04  0.13000386106E+04  0.25500000920E-02 0.  1.
</event>
<event>
 5   0  0.1856107E-08  0.3701984E+04  0.7818609E-02  0.8067522E-01
        2   -1    0    0  501    0  0.00000000000E+00  0.00000000000E+00  0.15508456281E+04  0.15508456281E+04  0.25500000920E-02 0.  1.
       -2   -1    0    0    0  501  0.00000000000E+00  0.00000000000E+00 -0.22092281638E+04  0.22092281638E+04  0.25500000920E-02 0. -1.
    10030    2    1    2    0    0  0.00000000000E+00  0.00000000000E+00 -0.65838253570E+03  0.37600737919E+04  0.37019842459E+04 0.  0.
        2    1    3    3  502    0 -0.31381249373E+03  0.12595868031E+04 -0.16694170869E+04  0.21147081609E+04  0.25500000920E-02 0. -1.
       -2    1    3    3    0  502  0.31381249373E+03 -0.12595868031E+04  0.10110345512E+04  0.16453656310E+04  0.25500000920E-02 0.  1.
</event>
<event>
 5   0  0.5714125E-09  0.3705650E+04  0.7818609E-02  0.8066711E-01
        1   -1    0    0  501    0  0.00000000000E+00  0.00000000000E+00  0.20801601694E+04  0.20801601694E+04  0.50400001928E-02 0.  1.
       -1   -1    0    0    0  501  0.00000000000E+00  0.00000000000E+00 -0.16503343899E+04  0.16503343899E+04  0.50400001928E-02 0. -1.
    10030    2    1    2    0    0  0.00000000000E+00  0.00000000000E+00  0.42982577952E+03  0.37304945593E+04  0.37056496673E+04 0.  0.
        1    1    3    3  502    0  0.14899724830E+04 -0.74179762278E+03  0.10344212306E+04  0.19596706345E+04  0.50400001928E-02 0.  1.
       -1    1    3    3    0  502 -0.14899724830E+04  0.74179762278E+03 -0.60459545110E+03  0.17708239248E+04  0.50400001928E-02 0. -1.
</event>
<event>
 5   0  0.1757996E-08  0.3698304E+04  0.7818609E-02  0.8068338E-01
        2   -1    0    0  501    0  0.00000000000E+00  0.00000000000E+00  0.14052941280E+04  0.14052941280E+04  0.25500000920E-02 0.  1.
       -2   -1    0    0    0  501  0.00000000000E+00  0.00000000000E+00 -0.24332009447E+04  0.24332009447E+04  0.25500000920E-02 0. -1.
    10030    2    1    2    0    0  0.00000000000E+00  0.00000000000E+00 -0.10279068167E+04  0.38384950727E+04  0.36983039355E+04 0.  0.
        3    1    3    3  502    0 -0.63347746840E+02 -0.30710133008E+03 -0.24054055813E+04  0.24257576517E+04  0.10100000352E+00 0. -1.
       -3    1    3    3    0  502  0.63347746840E+02  0.30710133008E+03  0.13774987647E+04  0.14127374210E+04  0.10100000352E+00 0.  1.
</event>
<event>
 5   0  0.1856107E-08  0.3702748E+04  0.7818609E-02  0.8067353E-01
       -2   -1    0    0    0  501  0.00000000000E+00  0.00000000000E+00  0.13726362352E+04  0.13726362352E+04  0.25500000920E-02 0.  1.
        2   -1    0    0  501    0  0.00000000000E+00  0.00000000000E+00 -0.24970818387E+04  0.24970818387E+04  0.25500000920E-02 0. -1.
    10030    2    1    2    0    0  0.00000000000E+00  0.00000000000E+00 -0.11244456035E+04  0.38697180738E+04  0.37027476360E+04 0.  0.
        2    1    3    3  502    0 -0.52871486786E+03  0.14394830469E+04 -0.16462696739E+04  0.22498565939E+04  0.25500000920E-02 0.  1.
       -2    1    3    3    0  502  0.52871486786E+03 -0.14394830469E+04  0.52182407032E+03  0.16198614800E+04  0.25500000920E-02 0. -1.
</event>
<event>
 5   0  0.5714125E-09  0.3698112E+04  0.7818609E-02  0.8068380E-01
       -1   -1    0    0    0  501  0.00000000000E+00  0.00000000000E+00  0.23908241803E+04  0.23908241803E+04  0.50400001928E-02 0. -1.
        1   -1    0    0  501    0  0.00000000000E+00  0.00000000000E+00 -0.14300540710E+04  0.14300540710E+04  0.50400001928E-02 0.  1.
    10030    2    1    2    0    0  0.00000000000E+00  0.00000000000E+00  0.96077010929E+03  0.38208782513E+04  0.36981118707E+04 0.  0.
        3    1    3    3  502    0 -0.15120702475E+03  0.18428018157E+04  0.49590866185E+03  0.19143425784E+04  0.10100000352E+00 0. -1.
       -3    1    3    3    0  502  0.15120702475E+03 -0.18428018157E+04  0.46486144745E+03  0.19065356729E+04  0.10100000352E+00 0.  1.
</event>
<event>
 5   0  0.5714125E-09  0.3698806E+04  0.7818609E-02  0.8068227E-01
        1   -1    0    0  501    0  0.00000000000E+00  0.00000000000E+00  0.27882271673E+04  0.27882271673E+04  0.50400001928E-02 0.  1.
       -1   -1    0    0    0  501  0.00000000000E+00  0.00000000000E+00 -0.12266901930E+04  0.12266901930E+04  0.50400001928E-02 0. -1.
    10030    2    1    2    0    0  0.00000000000E+00  0.00000000000E+00  0.15615369744E+04  0.40149173603E+04  0.36988057110E+04 0.  0.
        3    1    3    3  502    0 -0.32063486413E+03 -0.12083188445E+04 -0.69859068806E+03  0.14320859282E+04  0.10100000352E+00 0. -1.
       -3    1    3    3    0  502  0.32063486413E+03  0.12083188445E+04  0.22601276624E+04  0.25828314321E+04  0.10100000352E+00 0.  1.
</event>
<event>
 5   0  0.5714125E-09  0.3700088E+04  0.7818609E-02  0.8067942E-01
        1   -1    0    0  501    0  0.00000000000E+00  0.00000000000E+00  0.16086230749E+04  0.16086230749E+04  0.50400001928E-02 0.  1.
       -1   -1    0    0    0  501  0.00000000000E+00  0.00000000000E+00 -0.21276967675E+04  0.21276967675E+04  0.50400001928E-02 0. -1.
    10030    2    1    2    0    0  0.00000000000E+00  0.00000000000E+00 -0.51907369256E+03  0.37363198424E+04  0.37000876295E+04 0.  0.
        4    1    3    3  502    0 -0.16426955898E+04 -0.35100890826E+03 -0.10423730104E+04  0.19769165790E+04  0.12699999809E+01 0. -1.
       -4    1    3    3    0  502  0.16426955898E+04  0.35100890826E+03  0.52329931785E+03  0.17594032634E+04  0.12699999809E+01 0.  1.
</event>
<event>
 5   0  0.1757996E-08  0.3701075E+04  0.7818609E-02  0.8067724E-01
       -2   -1    0    0    0  501  0.00000000000E+00  0.00000000000E+00  0.11834832269E+04  0.11834832269E+04  0.25500000920E-02 0.  1.
        2   -1    0    0  501    0  0.00000000000E+00  0.00000000000E+00 -0.28935686050E+04  0.28935686050E+04  0.25500000920E-02 0. -1.
    10030    2    1    2    0    0  0.00000000000E+00  0.00000000000E+00 -0.17100853781E+04  0.40770518319E+04  0.37010754706E+04 0.  0.
        3    1    3    3  502    0  0.75667714571E+03 -0.95680714811E+03 -0.23879694268E+04  0.26814992477E+04  0.10100000352E+00 0. -1.
       -3    1    3    3    0  502 -0.75667714571E+03  0.95680714811E+03  0.67788404872E+03  0.13955525842E+04  0.10100000352E+00 0.  1.
</event>
<event>
 5   0  0.1856107E-08  0.3702266E+04  0.7818609E-02  0.8067460E-01
       -2   -1    0    0    0  501  0.00000000000E+00  0.00000000000E+00  0.15323735532E+04  0.15323735532E+04  0.25500000920E-02 0.  1.
        2   -1    0    0  501    0  0.00000000000E+00  0.00000000000E+00 -0.22361996184E+04  0.22361996184E+04  0.25500000920E-02 0. -1.
    10030    2    1    2    0    0  0.00000000000E+00  0.00000000000E+00 -0.70382606517E+03  0.37685731716E+04  0.37022658764E+04 0.  0.
        2    1    3    3  502    0  0.43983026970E+03 -0.28681187782E+03 -0.21588053448E+04  0.22217453131E+04  0.25500000920E-02 0. -1.
       -2    1    3    3    0  502 -0.43983026970E+03  0.28681187782E+03  0.14549792797E+04  0.15468278585E+04  0.25500000920E-02 0.  1.
</event>
<event>
 5   0  0.1825308E-08  0.3706049E+04  0.7818609E-02  0.8066623E-01
       -2   -1    0    0    0  501  0.00000000000E+00  0.00000000000E+00  0.12578842343E+04  0.12578842343E+04  0.25500000920E-02 0. -1.
        2   -1    0    0  501    0  0.00000000000E+00  0.00000000000E+00 -0.27297430117E+04  0.27297430117E+04  0.25500000920E-02 0.  1.
    10030    2    1    2    0    0  0.00000000000E+00  0.00000000000E+00 -0.14718587774E+04  0.39876272459E+04  0.37060494859E+04 0.  0.
        4    1    3    3  502    0  0.84763166458E+03 -0.36547531979E+02 -0.25084813491E+04  0.26480739137E+04  0.12699999809E+01 0.  1.
       -4    1    3    3    0  502 -0.84763166458E+03  0.36547531979E+02  0.10366225717E+04  0.13395533322E+04  0.12699999809E+01 0. -1.
</event>
<event>
 5   0  0.5714125E-09  0.3706467E+04  0.7818609E-02  0.8066530E-01
       -1   -1    0    0    0  501  0.00000000000E+00  0.00000000000E+00  0.18261203810E+04  0.18261203810E+04  0.50400001928E-02 0. -1.
        1   -1    0    0  501    0  0.00000000000E+00  0.00000000000E+00 -0.18807491282E+04  0.18807491282E+04  0.50400001928E-02 0.  1.
    10030    2    1    2    0    0  0.00000000000E+00  0.00000000000E+00 -0.54628747179E+02  0.37068695092E+04  0.37064669509E+04 0.  0.
        2    1    3    3  502    0  0.50955018867E+03  0.17760330125E+04  0.11601782882E+03  0.18513224443E+04  0.25500000920E-02 0. -1.
       -2    1    3    3    0  502 -0.50955018867E+03 -0.17760330125E+04 -0.17064657599E+03  0.18555470649E+04  0.25500000920E-02 0.  1.
</event>
<event>
 5   0  0.1725865E-08  0.3698739E+04  0.7818609E-02  0.8068241E-01
       -2   -1    0    0    0  501  0.00000000000E+00  0.00000000000E+00  0.25431566259E+04  0.25431566259E+04  0.25500000920E-02 0. -1.
        2   -1    0    0  501    0  0.00000000000E+00  0.00000000000E+00 -0.13448513482E+04  0.13448513482E+04  0.25500000920E-02 0.  1.
    10030    2    1    2    0    0  0.00000000000E+00  0.00000000000E+00  0.11983052777E+04  0.38880079741E+04  0.36987390376E+04 0.  0.
        1    1    3    3  502    0  0.78995635338E+03  0.13808424906E+04 -0.39219186861E+03  0.16384661992E+04  0.50400001928E-02 0.  1.
       -1    1    3    3    0  502 -0.78995635338E+03 -0.13808424906E+04  0.15904971464E+04  0.22495417749E+04  0.50400001928E-02 0. -1.
</event>
<event>
 5   0  0.1856107E-08  0.3699309E+04  0.7818609E-02  0.8068115E-01
        2   -1    0    0  501    0  0.00000000000E+00  0.00000000000E+00  0.19601495088E+04  0.19601495088E+04  0.25500000920E-02 0. -1.
       -2   -1    0    0    0  501  0.00000000000E+00  0.00000000000E+00 -0.17453880190E+04  0.17453880190E+04  0.25500000920E-02 0.  1.
    10030    2    1    2    0    0  0.00000000000E+00  0.00000000000E+00  0.21476148975E+03  0.37055375278E+04  0.36993088371E+04 0.  0.
        2    1    3    3  502    0  0.49905109041E+03 -0.82434446851E+03  0.16888441907E+04  0.19444254920E+04  0.25500000920E-02 0. -1.
       -2    1    3    3    0  502 -0.49905109041E+03  0.82434446851E+03 -0.14740827009E+04  0.17611120358E+04  0.25500000920E-02 0.  1.
</event>
<event>
 5   0  0.5714125E-09  0.3701258E+04  0.7818609E-02  0.8067683E-01
        1   -1    0    0  501    0  0.00000000000E+00  0.00000000000E+00  0.25514922999E+04  0.25514922999E+04  0.50400001928E-02 0.  1.
       -1   -1    0    0    0  501  0.00000000000E+00  0.00000000000E+00 -0.13422844654E+04  0.13422844654E+04  0.50400001928E-02 0. -1.
    10030    2    1    2    0    0  0.00000000000E+00  0.00000000000E+00  0.12092078345E+04  0.38937767653E+04  0.37012584226E+04 0.  0.
        1    1    3    3  502    0 -0.38686776052E+03  0.77076621853E+03 -0.11179650872E+04  0.14119465868E+04  0.50400001928E-02 0. -1.
       -1    1    3    3    0  502  0.38686776052E+03 -0.77076621853E+03  0.23271729217E+04  0.24818301786E+04  0.50400001928E-02 0.  1.
</event>
<event>
 5   0  0.5714125E-09  0.3699830E+04  0.7818609E-02  0.8067999E-01
        1   -1    0    0  501    0  0.00000000000E+00  0.00000000000E+00  0.24621151742E+04  0.24621151742E+04  0.50400001928E-02 0. -1.
       -1   -1    0    0    0  501  0.00000000000E+00  0.00000000000E+00 -0.13899372691E+04  0.13899372691E+04  0.50400001928E-02 0.  1.
    10030    2    1    2    0    0  0.00000000000E+00  0.00000000000E+00  0.10721779050E+04  0.38520524433E+04  0.36998300726E+04 0.  0.
        3    1    3    3  502    0  0.11894241827E+04 -0.10760332428E+04  0.14957541872E+04  0.21931388521E+04  0.10100000352E+00 0. -1.
       -3    1    3    3    0  502 -0.11894241827E+04  0.10760332428E+04 -0.42357628212E+03  0.16589135912E+04  0.10100000352E+00 0.  1.
</event>
<event>
 5   0  0.5714125E-09  0.3698563E+04  0.7818609E-02  0.8068280E-01
        1   -1    0    0  501    0  0.00000000000E+00  0.00000000000E+00  0.11744193923E+04  0.11744193923E+04  0.50400001928E-02 0.  1.
       -1   -1    0    0    0  501  0.00000000000E+00  0.00000000000E+00 -0.29119422554E+04  0.29119422554E+04  0.50400001928E-02 0. -1.
    10030    2    1    2    0    0  0.00000000000E+00  0.00000000000E+00 -0.17375228631E+04  0.40863616477E+04  0.36985626689E+04 0.  0.
        4    1    3    3  502    0  0.16966238272E+04 -0.16560058375E+03 -0.16607817325E+04  0.23799482222E+04  0.12699999809E+01 0. -1.
       -4    1    3    3    0  502 -0.16966238272E+04  0.16560058375E+03 -0.76741130552E+02  0.17064134254E+04  0.12699999809E+01 0.  1.
</event>
<event>
 5   0  0.5714125E-09  0.3700615E+04  0.7818609E-02  0.8067826E-01
       -1   -1    0    0    0  501  0.00000000000E+00  0.00000000000E+00  0.23178733210E+04  0.23178733210E+04  0.50400001928E-02 0.  1.
        1   -1    0    0  501    0  0.00000000000E+00  0.00000000000E+00 -0.14770597208E+04  0.14770597209E+04  0.50400001928E-02 0. -1.
    10030    2    1    2    0    0  0.00000000000E+00  0.00000000000E+00  0.84081360017E+03  0.37949330419E+04  0.37006147168E+04 0.  0.
        3    1    3    3  502    0  0.44796949215E+03  0.33133957889E+03 -0.13889824014E+04  0.14965743229E+04  0.10100000352E+00 0. -1.
       -3    1    3    3    0  502 -0.44796949215E+03 -0.33133957889E+03  0.22297960015E+04  0.22983587190E+04  0.10100000352E+00 0.  1.
</event>
<event>
 5   0  0.1757996E-08  0.3700346E+04  0.7818609E-02  0.8067885E-01
       -2   -1    0    0    0  501  0.00000000000E+00  0.00000000000E+00  0.14214478261E+04  0.14214478261E+04  0.25500000920E-02 0.  1.
        2   -1    0    0  501    0  0.00000000000E+00  0.00000000000E+00 -0.24082069764E+04  0.24082069764E+04  0.25500000920E-02 0. -1.
    10030    2    1    2    0    0  0.00000000000E+00  0.00000000000E+00 -0.98675915033E+03  0.38296548025E+04  0.37003462386E+04 0.  0.
        3    1    3    3  502    0 -0.42827539929E+02  0.18341936406E+04 -0.24620304966E+03  0.18511392333E+04  0.10100000352E+00 0.  1.
       -3    1    3    3    0  502  0.42827539929E+02 -0.18341936406E+04 -0.74055610068E+03  0.19785155692E+04  0.10100000352E+00 0. -1.
</event>
<event>
 5   0  0.5714125E-09  0.3699353E+04  0.7818609E-02  0.8068105E-01
       -1   -1    0    0    0  501  0.00000000000E+00  0.00000000000E+00  0.30848309880E+04  0.30848309880E+04  0.50400001928E-02 0. -1.
        1   -1    0    0  501    0  0.00000000000E+00  0.00000000000E+00 -0.11090733880E+04  0.11090733880E+04  0.50400001928E-02 0.  1.
    10030    2    1    2    0    0  0.00000000000E+00  0.00000000000E+00  0.19757576000E+04  0.41939043760E+04  0.36993534329E+04 0.  0.
        2    1    3    3  502    0 -0.12457850913E+04  0.13339456688E+04  0.64793859800E+03  0.19368056092E+04  0.25500000920E-02 0.  1.
       -2    1    3    3    0  502  0.12457850913E+04 -0.13339456688E+04  0.13278190020E+04  0.22570987668E+04  0.25500000920E-02 0. -1.
</event>
<event>
 5   0  0.1725865E-08  0.3698206E+04  0.7818609E-02  0.8068359E-01
        2   -1    0    0  501    0  0.00000000000E+00  0.00000000000E+00  0.17229773841E+04  0.17229773841E+04  0.25500000920E-02 0.  1.
       -2   -1    0    0    0  501  0.00000000000E+00  0.00000000000E+00 -0.19844614457E+04  0.19844614457E+04  0.25500000920E-02 0. -1.
    10030    2    1    2    0    0  0.00000000000E+00  0.00000000000E+00 -0.26148406161E+03  0.37074388298E+04  0.36982061547E+04 0.  0.
        1    1    3    3  502    0  0.16362990943E+04 -0.21886486393E+03  0.70428741205E+03  0.17948251485E+04  0.50400001928E-02 0.  1.
       -1    1    3    3    0  502 -0.16362990943E+04  0.21886486393E+03 -0.96577147366E+03  0.19126136814E+04  0.50400001928E-02 0. -1.
</event>
<event>
 5   0  0.5714125E-09  0.3700987E+04  0.7818609E-02  0.8067743E-01
       -1   -1    0    0    0  501  0.00000000000E+00  0.00000000000E+00  0.13599561586E+04  0.13599561586E+04  0.50400001928E-02 0. -1.
        1   -1    0    0  501    0  0.00000000000E+00  0.00000000000E+00 -0.25179684481E+04  0.25179684481E+04  0.50400001928E-02 0.  1.
    10030    2    1    2    0    0  0.00000000000E+00  0.00000000000E+00 -0.11580122894E+04  0.38779246067E+04  0.37009872727E+04 0.  0.
        2    1    3    3  502    0  0.16230287070E+03 -0.16668324448E+03  0.13445713286E+04  0.13645503228E+04  0.25500000920E-02 0. -1.
       -2    1    3    3    0  502 -0.16230287070E+03  0.16668324448E+03 -0.25025836180E+04  0.25133742839E+04  0.25500000920E-02 0.  1.
</event>
<event>
 5   0  0.5714125E-09  0.3698804E+04  0.7818609E-02  0.8068227E-01
        1   -1    0    0  501    0  0.00000000000E+00  0.00000000000E+00  0.24650133690E+04  0.24650133690E+04  0.50400001928E-02 0.  1.
       -1   -1    0    0    0  501  0.00000000000E+00  0.00000000000E+00 -0.13875332699E+04  0.13875332699E+04  0.50400001928E-02 0. -1.
    10030    2    1    2    0    0  0.00000000000E+00  0.00000000000E+00  0.10774800991E+04  0.38525466389E+04  0.36988041636E+04 0.  0.
        3    1    3    3  502    0  0.15311447456E+04  0.23787877577E+03  0.15903072898E+04  0.22203756057E+04  0.10100000352E+00 0.  1.
       -3    1    3    3    0  502 -0.15311447456E+04 -0.23787877577E+03 -0.51282719065E+03  0.16321710332E+04  0.10100000352E+00 0. -1.
</event>
<event>
 5   0  0.1725865E-08  0.3701155E+04  0.7818609E-02  0.8067706E-01
       -2   -1    0    0    0  501  0.00000000000E+00  0.00000000000E+00  0.14092455147E+04  0.14092455147E+04  0.25500000920E-02 0.  1.
        2   -1    0    0  501    0  0.00000000000E+00  0.00000000000E+00 -0.24301208037E+04  0.24301208037E+04  0.25500000920E-02 0. -1.
    10030    2    1    2    0    0  0.00000000000E+00  0.00000000000E+00 -0.10208752890E+04  0.38393663184E+04  0.37011548699E+04 0.  0.
        1    1    3    3  502    0  0.55423448731E+03 -0.13057600536E+04  0.72240908987E+03  0.15918731349E+04  0.50400001928E-02 0.  1.
       -1    1    3    3    0  502 -0.55423448731E+03  0.13057600536E+04 -0.17432843788E+04  0.22474931835E+04  0.50400001928E-02 0. -1.
</event>
<event>
 5   0  0.5714125E-09  0.3714164E+04  0.7818609E-02  0.8064830E-01
        1   -1    0    0  501    0  0.00000000000E+00  0.00000000000E+00  0.15973836504E+04  0.15973836504E+04  0.50400001928E-02 0.  1.
       -1   -1    0    0    0  501  0.00000000000E+00  0.00000000000E+00 -0.21590012549E+04  0.21590012549E+04  0.50400001928E-02 0. -1.
    10030    2    1    2    0    0  0.00000000000E+00  0.00000000000E+00 -0.56161760450E+03  0.37563849054E+04  0.37141638660E+04 0.  0.
        4    1    3    3  502    0  0.42714717042E+03 -0.17391281483E+04  0.21644091642E+03  0.18038485814E+04  0.12699999809E+01 0. -1.
       -4    1    3    3    0  502 -0.42714717042E+03  0.17391281483E+04 -0.77805852091E+03  0.19525363239E+04  0.12699999809E+01 0.  1.
</event>
<event>
 5   0  0.1856107E-08  0.3700821E+04  0.7818609E-02  0.8067780E-01
        2   -1    0    0  501    0  0.00000000000E+00  0.00000000000E+00  0.18789358484E+04  0.18789358484E+04  0.25500000920E-02 0.  1.
       -2   -1    0    0    0  501  0.00000000000E+00  0.00000000000E+00 -0.18223186416E+04  0.18223186416E+04  0.25500000920E-02 0. -1.
    10030    2    1    2    0    0  0.00000000000E+00  0.00000000000E+00  0.56617206808E+02  0.37012544900E+04  0.37008214348E+04 0.  0.
        2    1    3    3  502    0 -0.84672716026E+03 -0.12600332600E+04 -0.10298270736E+04  0.18344411960E+04  0.25500000920E-02 0. -1.
       -2    1    3    3    0  502  0.84672716026E+03  0.12600332600E+04  0.10864442804E+04  0.18668132940E+04  0.25500000920E-02 0.  1.
</event>
<event>
 5   0  0.5714125E-09  0.3699476E+04  0.7818609E-02  0.8068078E-01
       -1   -1    0    0    0  501  0.00000000000E+00  0.00000000000E+00  0.23098658815E+04  0.23098658815E+04  0.50400001928E-02 0. -1.
        1   -1    0    0  501    0  0.00000000000E+00  0.00000000000E+00 -0.14812682195E+04  0.14812682195E+04  0.50400001928E-02 0.  1.
    10030    2    1    2    0    0  0.00000000000E+00  0.00000000000E+00  0.82859766204E+03  0.37911341010E+04  0.36994761367E+04 0.  0.
        5    1    3    3  502    0 -0.96926485804E+03  0.13755193228E+04  0.12014315242E+04  0.20676043069E+04  0.46999998093E+01 0. -1.
       -5    1    3    3    0  502  0.96926485804E+03 -0.13755193228E+04 -0.37283386213E+03  0.17235297941E+04  0.46999998093E+01 0.  1.
</event>
<event>
 5   0  0.1757996E-08  0.3700510E+04  0.7818609E-02  0.8067849E-01
        2   -1    0    0  501    0  0.00000000000E+00  0.00000000000E+00  0.18080519195E+04  0.18080519195E+04  0.25500000920E-02 0. -1.
       -2   -1    0    0    0  501  0.00000000000E+00  0.00000000000E+00 -0.18934434918E+04  0.18934434918E+04  0.25500000920E-02 0.  1.
    10030    2    1    2    0    0  0.00000000000E+00  0.00000000000E+00 -0.85391572309E+02  0.37014954113E+04  0.37005103107E+04 0.  0.
        3    1    3    3  502    0  0.14817834145E+04  0.26708609901E+03  0.10329634708E+04  0.18259328065E+04  0.10100000352E+00 0. -1.
       -3    1    3    3    0  502 -0.14817834145E+04 -0.26708609901E+03 -0.11183550431E+04  0.18755626048E+04  0.10100000352E+00 0.  1.
</event>
<event>
 5   0  0.5714125E-09  0.3698658E+04  0.7818609E-02  0.8068259E-01
       -1   -1    0    0    0  501  0.00000000000E+00  0.00000000000E+00  0.21167567999E+04  0.21167567999E+04  0.50400001928E-02 0.  1.
        1   -1    0    0  501    0  0.00000000000E+00  0.00000000000E+00 -0.16156875691E+04  0.16156875691E+04  0.50400001928E-02 0. -1.
    10030    2    1    2    0    0  0.00000000000E+00  0.00000000000E+00  0.50106923086E+03  0.37324443690E+04  0.36986579450E+04 0.  0.
        2    1    3    3  502    0  0.13955530685E+04  0.11007157867E+04 -0.26488934614E+03  0.17970280955E+04  0.25500000920E-02 0. -1.
       -2    1    3    3    0  502 -0.13955530685E+04 -0.11007157867E+04  0.76595857700E+03  0.19354162736E+04  0.25500000920E-02 0.  1.
</event>
<event>
 5   0  0.1856107E-08  0.3699702E+04  0.7818609E-02  0.8068028E-01
        2   -1    0    0  501    0  0.00000000000E+00  0.00000000000E+00  0.12809781050E+04  0.12809781050E+04  0.25500000920E-02 0.  1.
       -2   -1    0    0    0  501  0.00000000000E+00  0.00000000000E+00 -0.26713554463E+04  0.26713554463E+04  0.25500000920E-02 0. -1.
    10030    2    1    2    0    0  0.00000000000E+00  0.00000000000E+00 -0.13903773413E+04  0.39523335513E+04  0.36997015217E+04 0.  0.
        2    1    3    3  502    0  0.11778123542E+04  0.12326754771E+04 -0.14619885221E+04  0.22459165639E+04  0.25500000920E-02 0. -1.
       -2    1    3    3    0  502 -0.11778123542E+04 -0.12326754771E+04  0.71611180762E+02  0.17064169874E+04  0.25500000920E-02 0.  1.
</event>
<event>
 5   0  0.1725865E-08  0.3698865E+04  0.7818609E-02  0.8068213E-01
       -2   -1    0    0    0  501  0.00000000000E+00  0.00000000000E+00  0.13153721874E+04  0.13153721874E+04  0.25500000920E-02 0.  1.
        2   -1    0    0  501    0  0.00000000000E+00  0.00000000000E+00 -0.26003289578E+04  0.26003289578E+04  0.25500000920E-02 0. -1.
    10030    2    1    2    0    0  0.00000000000E+00  0.00000000000E+00 -0.12849567703E+04  0.39157011452E+04  0.36988649012E+04 0.  0.
        1    1    3    3  502    0  0.17057211862E+03 -0.14105306316E+04 -0.18958215041E+04  0.23691413393E+04  0.50400001928E-02 0. -1.
       -1    1    3    3    0  502 -0.17057211862E+03  0.14105306316E+04  0.61086473375E+03  0.15465598059E+04  0.50400001928E-02 0.  1.
</event>
<event>
 5   0  0.5714125E-09  0.3700648E+04  0.7818609E-02  0.8067818E-01
       -1   -1    0    0    0  501  0.00000000000E+00  0.00000000000E+00  0.14255293937E+04  0.14255293937E+04  0.50400001928E-02 0.  1.
        1   -1    0    0  501    0  0.00000000000E+00  0.00000000000E+00 -0.24017039117E+04  0.24017039118E+04  0.50400001928E-02 0. -1.
    10030    2    1    2    0    0  0.00000000000E+00  0.00000000000E+00 -0.97617451805E+03  0.38272333055E+04  0.37006483330E+04 0.  0.
        3    1    3    3  502    0 -0.17904259909E+03 -0.78182997350E+03 -0.22125729727E+04  0.23534641551E+04  0.10100000352E+00 0. -1.
       -3    1    3    3    0  502  0.17904259909E+03  0.78182997350E+03  0.12363984546E+04  0.14737691504E+04  0.10100000352E+00 0.  1.
</event>
<event>
 5   0  0.5714125E-09  0.3701093E+04  0.7818609E-02  0.8067720E-01
       -1   -1    0    0    0  501  0.00000000000E+00  0.00000000000E+00  0.10914738190E+04  0.10914738190E+04  0.50400001928E-02 0. -1.
        1   -1    0    0  501    0  0.00000000000E+00  0.00000000000E+00 -0.31375211900E+04  0.31375211900E+04  0.50400001928E-02 0.  1.
    10030    2    1    2    0    0  0.00000000000E+00  0.00000000000E+00 -0.20460473710E+04  0.42289950090E+04  0.37010929387E+04 0.  0.
        4    1    3    3  502    0  0.69104477171E+03 -0.17097109799E+04 -0.84650202268E+03  0.20290938368E+04  0.12699999809E+01 0.  1.
       -4    1    3    3    0  502 -0.69104477171E+03  0.17097109799E+04 -0.11995453483E+04  0.21999011721E+04  0.12699999809E+01 0. -1.
</event>
<event>
 5   0  0.1856107E-08  0.3700359E+04  0.7818609E-02  0.8067882E-01
       -2   -1    0    0    0  501  0.00000000000E+00  0.00000000000E+00  0.16304101024E+04  0.16304101024E+04  0.25500000920E-02 0. -1.
        2   -1    0    0  501    0  0.00000000000E+00  0.00000000000E+00 -0.20995725932E+04  0.20995725932E+04  0.25500000920E-02 0.  1.
    10030    2    1    2    0    0  0.00000000000E+00  0.00000000000E+00 -0.46916249079E+03  0.37299826955E+04  0.37003590996E+04 0.  0.
        2    1    3    3  502    0 -0.56686284802E+02 -0.12831496364E+04  0.11077999287E+04  0.16961447480E+04  0.25500000920E-02 0. -1.
       -2    1    3    3    0  502  0.56686284802E+02  0.12831496364E+04 -0.15769624195E+04  0.20338379475E+04  0.25500000920E-02 0.  1.
</event>
<event>
 5   0  0.1825308E-08  0.3700697E+04  0.7818609E-02  0.8067807E-01
       -2   -1    0    0    0  501  0.00000000000E+00  0.00000000000E+00  0.14530778326E+04  0.14530778326E+04  0.25500000920E-02 0.  1.
        2   -1    0    0  501    0  0.00000000000E+00  0.00000000000E+00 -0.23562321394E+04  0.23562321394E+04  0.25500000920E-02 0. -1.
    10030    2    1    2    0    0  0.00000000000E+00  0.00000000000E+00 -0.90315430677E+03  0.38093099720E+04  0.37006965237E+04 0.  0.
        4    1    3    3  502    0  0.10579232523E+04  0.76767816443E+03 -0.17996931987E+04  0.22242815906E+04  0.12699999809E+01 0.  1.
       -4    1    3    3    0  502 -0.10579232523E+04 -0.76767816443E+03  0.89653889198E+03  0.15850283813E+04  0.12699999809E+01 0. -1.
</event>
<event>
 5   0  0.1757996E-08  0.3700841E+04  0.7818609E-02  0.8067775E-01
        2   -1    0    0  501    0  0.00000000000E+00  0.00000000000E+00  0.22415336390E+04  0.22415336390E+04  0.25500000920E-02 0.  1.
       -2   -1    0    0    0  501  0.00000000000E+00  0.00000000000E+00 -0.15275507697E+04  0.15275507697E+04  0.25500000920E-02 0. -1.
    10030    2    1    2    0    0  0.00000000000E+00  0.00000000000E+00  0.71398286930E+03  0.37690844086E+04  0.37008412208E+04 0.  0.
        3    1    3    3  502    0 -0.94198480558E+03 -0.43576173673E+03  0.19171778131E+04  0.21800904665E+04  0.10100000352E+00 0.  1.
       -3    1    3    3    0  502  0.94198480558E+03  0.43576173673E+03 -0.12031949438E+04  0.15889939421E+04  0.10100000352E+00 0. -1.
</event>
<event>
 5   0  0.1740290E-08  0.3700017E+04  0.7818609E-02  0.8067958E-01
        2   -1    0    0  501    0  0.00000000000E+00  0.00000000000E+00  0.21026375341E+04  0.21026375341E+04  0.25500000920E-02 0.  1.
       -2   -1    0    0    0  501  0.00000000000E+00  0.00000000000E+00 -0.16277323700E+04  0.16277323700E+04  0.25500000920E-02 0. -1.
    10030    2    1    2    0    0  0.00000000000E+00  0.00000000000E+00  0.47490516412E+03  0.37303699040E+04  0.37000168521E+04 0.  0.
        5    1    3    3  502    0 -0.53001876668E+03  0.10189325586E+04 -0.12247433911E+04  0.16790360080E+04  0.46999998093E+01 0. -1.
       -5    1    3    3    0  502  0.53001876668E+03 -0.10189325586E+04  0.16996485552E+04  0.20513338961E+04  0.46999998093E+01 0.  1.
</event>
<event>
 5   0  0.5714125E-09  0.3700526E+04  0.7818609E-02  0.8067845E-01
        1   -1    0    0  501    0  0.00000000000E+00  0.00000000000E+00  0.10688294068E+04  0.10688294068E+04  0.50400001928E-02 0.  1.
       -1   -1    0    0    0  501  0.00000000000E+00  0.00000000000E+00 -0.32030111700E+04  0.32030111700E+04  0.50400001928E-02 0. -1.
    10030    2    1    2    0    0  0.00000000000E+00  0.00000000000E+00 -0.21341817632E+04  0.42718405769E+04  0.37005256540E+04 0.  0.
        4    1    3    3  502    0 -0.29162847031E+03 -0.21755608881E+03  0.10271262178E+04  0.10896640293E+04  0.12699999809E+01 0.  1.
       -4    1    3    3    0  502  0.29162847031E+03  0.21755608881E+03 -0.31613079810E+04  0.31821765476E+04  0.12699999809E+01 0. -1.
</event>
<event>
 5   0  0.5714125E-09  0.3700969E+04  0.7818609E-02  0.8067747E-01
       -1   -1    0    0    0  501  0.00000000000E+00  0.00000000000E+00  0.14197483405E+04  0.14197483405E+04  0.50400001928E-02 0. -1.
        1   -1    0    0  501    0  0.00000000000E+00  0.00000000000E+00 -0.24119008150E+04  0.24119008150E+04  0.50400001928E-02 0.  1.
    10030    2    1    2    0    0  0.00000000000E+00  0.00000000000E+00 -0.99215247453E+03  0.38316491555E+04  0.37009686189E+04 0.  0.
        5    1    3    3  502    0 -0.28190098093E+03 -0.13684146791E+04  0.76012758609E+03  0.15905479981E+04  0.46999998093E+01 0. -1.
       -5    1    3    3    0  502  0.28190098093E+03  0.13684146791E+04 -0.17522800606E+04  0.22411011574E+04  0.46999998093E+01 0.  1.
</event>
<event>
 5   0  0.5714125E-09  0.3699239E+04  0.7818609E-02  0.8068131E-01
        1   -1    0    0  501    0  0.00000000000E+00  0.00000000000E+00  0.18959733248E+04  0.18959733248E+04  0.50400001928E-02 0.  1.
       -1   -1    0    0    0  501  0.00000000000E+00  0.00000000000E+00 -0.18043985266E+04  0.18043985266E+04  0.50400001928E-02 0. -1.
    10030    2    1    2    0    0  0.00000000000E+00  0.00000000000E+00  0.91574798185E+02  0.37003718515E+04  0.36992385562E+04 0.  0.
        1    1    3    3  502    0 -0.75010384444E+03  0.61423635988E+03 -0.15298616319E+04  0.18111926170E+04  0.50400001928E-02 0. -1.
       -1    1    3    3    0  502  0.75010384444E+03 -0.61423635988E+03  0.16214364300E+04  0.18891792345E+04  0.50400001928E-02 0.  1.
</event>
<event>
 5   0  0.1825308E-08  0.3699878E+04  0.7818609E-02  0.8067989E-01
       -2   -1    0    0    0  501  0.00000000000E+00  0.00000000000E+00  0.21083650314E+04  0.21083650314E+04  0.25500000920E-02 0.  1.
        2   -1    0    0  501    0  0.00000000000E+00  0.00000000000E+00 -0.16231887820E+04  0.16231887820E+04  0.25500000920E-02 0. -1.
    10030    2    1    2    0    0  0.00000000000E+00  0.00000000000E+00  0.48517624946E+03  0.37315538134E+04  0.36998780884E+04 0.  0.
        4    1    3    3  502    0 -0.62862935966E+03  0.30150616971E+02 -0.15118995168E+04  0.16376586010E+04  0.12699999809E+01 0. -1.
       -4    1    3    3    0  502  0.62862935966E+03 -0.30150616971E+02  0.19970757663E+04  0.20938952124E+04  0.12699999809E+01 0.  1.
</event>
<event>
 5   0  0.1825308E-08  0.3700082E+04  0.7818609E-02  0.8067944E-01
       -2   -1    0    0    0  501  0.00000000000E+00  0.00000000000E+00  0.19332393487E+04  0.19332393487E+04  0.25500000920E-02 0. -1.
        2   -1    0    0  501    0  0.00000000000E+00  0.00000000000E+00 -0.17704231580E+04  0.17704231580E+04  0.25500000920E-02 0.  1.
    10030    2    1    2    0    0  0.00000000000E+00  0.00000000000E+00  0.16281619071E+03  0.37036625066E+04  0.37000820060E+04 0.  0.
        4    1    3    3  502    0 -0.81789980709E+03 -0.37018041707E+03  0.17005816791E+04  0.19230115173E+04  0.12699999809E+01 0. -1.
       -4    1    3    3    0  502  0.81789980709E+03  0.37018041707E+03 -0.15377654884E+04  0.17806509893E+04  0.12699999809E+01 0.  1.
</event>
<event>
 5   0  0.5714125E-09  0.3700206E+04  0.7818609E-02  0.8067916E-01
       -3   -1    0    0    0  501  0.00000000000E+00  0.00000000000E+00  0.23802456629E+04  0.23802456650E+04  0.10100000352E+00 0.  1.
        3   -1    0    0  501    0  0.00000000000E+00  0.00000000000E+00 -0.14380367249E+04  0.14380367284E+04  0.10100000352E+00 0. -1.
    10030    2    1    2    0    0  0.00000000000E+00  0.00000000000E+00  0.94220893801E+03  0.38182823934E+04  0.37002057717E+04 0.  0.
        1    1    3    3  502    0 -0.54767312524E+03  0.12736884966E+04 -0.79299785408E+03  0.15972081377E+04  0.50400001928E-02 0. -1.
       -1    1    3    3    0  502  0.54767312524E+03 -0.12736884966E+04  0.17352067921E+04  0.22210742558E+04  0.50400001928E-02 0.  1.
</event>
<event>
 5   0  0.1856107E-08  0.3697248E+04  0.7818609E-02  0.8068572E-01
        2   -1    0    0  501    0  0.00000000000E+00  0.00000000000E+00  0.21269063279E+04  0.21269063279E+04  0.25500000920E-02 0.  1.
       -2   -1    0    0    0  501  0.00000000000E+00  0.00000000000E+00 -0.16067515887E+04  0.16067515887E+04  0.25500000920E-02 0. -1.
    10030    2    1    2    0    0  0.00000000000E+00  0.00000000000E+00  0.52015473920E+03  0.37336579166E+04  0.36972476906E+04 0.  0.
        2    1    3    3  502    0  0.49639969924E+03  0.64906177135E+03  0.19346343141E+04  0.21001199427E+04  0.25500000920E-02 0.  1.
       -2    1    3    3    0  502 -0.49639969924E+03 -0.64906177135E+03 -0.14144795749E+04  0.16335379739E+04  0.25500000920E-02 0. -1.
</event>
<event>
 5   0  0.5714125E-09  0.3701899E+04  0.7818609E-02  0.8067541E-01
       -1   -1    0    0    0  501  0.00000000000E+00  0.00000000000E+00  0.19561842852E+04  0.19561842852E+04  0.50400001928E-02 0.  1.
        1   -1    0    0  501    0  0.00000000000E+00  0.00000000000E+00 -0.17513763668E+04  0.17513763668E+04  0.50400001928E-02 0. -1.
    10030    2    1    2    0    0  0.00000000000E+00  0.00000000000E+00  0.20480791844E+03  0.37075606521E+04  0.37018994726E+04 0.  0.
        2    1    3    3  502    0 -0.23367078543E+03 -0.18220540782E+04  0.32975733686E+03  0.18663394657E+04  0.25500000920E-02 0.  1.
       -2    1    3    3    0  502  0.23367078543E+03  0.18220540782E+04 -0.12494941842E+03  0.18412211864E+04  0.25500000920E-02 0. -1.
</event>
<event>
 5   0  0.5714125E-09  0.3698244E+04  0.7818609E-02  0.8068351E-01
       -1   -1    0    0    0  501  0.00000000000E+00  0.00000000000E+00  0.14590035376E+04  0.14590035377E+04  0.50400001928E-02 0. -1.
        1   -1    0    0  501    0  0.00000000000E+00  0.00000000000E+00 -0.23435528523E+04  0.23435528523E+04  0.50400001928E-02 0.  1.
    10030    2    1    2    0    0  0.00000000000E+00  0.00000000000E+00 -0.88454931469E+03  0.38025563900E+04  0.36982438547E+04 0.  0.
        3    1    3    3  502    0  0.70813269966E+03 -0.17043630891E+04 -0.55926638931E+03  0.19284927701E+04  0.10100000352E+00 0.  1.
       -3    1    3    3    0  502 -0.70813269966E+03  0.17043630891E+04 -0.32528292538E+03  0.18740636199E+04  0.10100000352E+00 0. -1.
</event>
<event>
 5   0  0.1740290E-08  0.3699029E+04  0.7818609E-02  0.8068177E-01
       -2   -1    0    0    0  501  0.00000000000E+00  0.00000000000E+00  0.20961058873E+04  0.20961058873E+04  0.25500000920E-02 0.  1.
        2   -1    0    0  501    0  0.00000000000E+00  0.00000000000E+00 -0.16319323690E+04  0.16319323690E+04  0.25500000920E-02 0. -1.
    10030    2    1    2    0    0  0.00000000000E+00  0.00000000000E+00  0.46417351832E+03  0.37280382563E+04  0.36990285462E+04 0.  0.
        5    1    3    3  502    0  0.88259240358E+03 -0.45059170440E+02  0.18695381764E+04  0.20678962166E+04  0.46999998093E+01 0.  1.
       -5    1    3    3    0  502 -0.88259240358E+03  0.45059170440E+02 -0.14053646581E+04  0.16601420397E+04  0.46999998093E+01 0. -1.
</event>
<event>
 5   0  0.1725865E-08  0.3700599E+04  0.7818609E-02  0.8067829E-01
        2   -1    0    0  501    0  0.00000000000E+00  0.00000000000E+00  0.12570415847E+04  0.12570415847E+04  0.25500000920E-02 0. -1.
       -2   -1    0    0    0  501  0.00000000000E+00  0.00000000000E+00 -0.27235445689E+04  0.27235445689E+04  0.25500000920E-02 0.  1.
    10030    2    1    2    0    0  0.00000000000E+00  0.00000000000E+00 -0.14665029842E+04  0.39805861537E+04  0.37005992926E+04 0.  0.
        1    1    3    3  502    0 -0.71327002658E+02  0.72630554012E+03  0.10956871051E+04  0.13164868063E+04  0.50400001928E-02 0. -1.
       -1    1    3    3    0  502  0.71327002658E+02 -0.72630554012E+03 -0.25621900893E+04  0.26640993474E+04  0.50400001928E-02 0.  1.
</event>
<event>
 5   0  0.5714125E-09  0.3700058E+04  0.7818609E-02  0.8067949E-01
       -1   -1    0    0    0  501  0.00000000000E+00  0.00000000000E+00  0.22596119718E+04  0.22596119718E+04  0.50400001928E-02 0. -1.
        1   -1    0    0  501    0  0.00000000000E+00  0.00000000000E+00 -0.15146882400E+04  0.15146882400E+04  0.50400001928E-02 0.  1.
    10030    2    1    2    0    0  0.00000000000E+00  0.00000000000E+00  0.74492373185E+03  0.37743002118E+04  0.37000582053E+04 0.  0.
        4    1    3    3  502    0 -0.36485912155E+02 -0.59628424544E+03  0.21585139733E+04  0.22396585251E+04  0.12699999809E+01 0. -1.
       -4    1    3    3    0  502  0.36485912155E+02  0.59628424544E+03 -0.14135902414E+04  0.15346416867E+04  0.12699999809E+01 0.  1.
</event>
<event>
 5   0  0.5714125E-09  0.3699743E+04  0.7818609E-02  0.8068019E-01
       -1   -1    0    0    0  501  0.00000000000E+00  0.00000000000E+00  0.25854771959E+04  0.25854771959E+04  0.50400001928E-02 0.  1.
        1   -1    0    0  501    0  0.00000000000E+00  0.00000000000E+00 -0.13235560391E+04  0.13235560391E+04  0.50400001928E-02 0. -1.
    10030    2    1    2    0    0  0.00000000000E+00  0.00000000000E+00  0.12619211569E+04  0.39090332350E+04  0.36997426703E+04 0.  0.
        4    1    3    3  502    0  0.87084271805E+03  0.15877788443E+04  0.23195553472E+03  0.18257090899E+04  0.12699999809E+01 0. -1.
       -4    1    3    3    0  502 -0.87084271805E+03 -0.15877788443E+04  0.10299656222E+04  0.20833241451E+04  0.12699999809E+01 0.  1.
</event>
<event>
 5   0  0.5714125E-09  0.3699905E+04  0.7818609E-02  0.8067983E-01
       -1   -1    0    0    0  501  0.00000000000E+00  0.00000000000E+00  0.17228405008E+04  0.17228405008E+04  0.50400001928E-02 0. -1.
        1   -1    0    0  501    0  0.00000000000E+00  0.00000000000E+00 -0.19864428379E+04  0.19864428379E+04  0.50400001928E-02 0.  1.
    10030    2    1    2    0    0  0.00000000000E+00  0.00000000000E+00 -0.26360233711E+03  0.37092833387E+04  0.36999049575E+04 0.  0.
        5    1    3    3  502    0 -0.17309820110E+04  0.43125294620E+03 -0.62296571202E+03  0.18895465579E+04  0.46999998093E+01 0.  1.
       -5    1    3    3    0  502  0.17309820110E+04 -0.43125294620E+03  0.35936337491E+03  0.18197367808E+04  0.46999998093E+01 0. -1.
</event>
<event>
 5   0  0.1825308E-08  0.3699713E+04  0.7818609E-02  0.8068025E-01
       -2   -1    0    0    0  501  0.00000000000E+00  0.00000000000E+00  0.17773735650E+04  0.17773735650E+04  0.25500000920E-02 0.  1.
        2   -1    0    0  501    0  0.00000000000E+00  0.00000000000E+00 -0.19252952961E+04  0.19252952961E+04  0.25500000920E-02 0. -1.
    10030    2    1    2    0    0  0.00000000000E+00  0.00000000000E+00 -0.14792173115E+03  0.37026688611E+04  0.36997129424E+04 0.  0.
        4    1    3    3  502    0 -0.86765108175E+02  0.28952147299E+03  0.17524948994E+04  0.17783674684E+04  0.12699999809E+01 0.  1.
       -4    1    3    3    0  502  0.86765108175E+02 -0.28952147299E+03 -0.19004166305E+04  0.19243013927E+04  0.12699999809E+01 0. -1.
</event>
<event>
 5   0  0.5714125E-09  0.3697920E+04  0.7818609E-02  0.8068423E-01
        1   -1    0    0  501    0  0.00000000000E+00  0.00000000000E+00  0.14619995546E+04  0.14619995546E+04  0.50400001928E-02 0.  1.
       -1   -1    0    0    0  501  0.00000000000E+00  0.00000000000E+00 -0.23383407107E+04  0.23383407107E+04  0.50400001928E-02 0. -1.
    10030    2    1    2    0    0  0.00000000000E+00  0.00000000000E+00 -0.87634115613E+03  0.38003402653E+04  0.36979199978E+04 0.  0.
        5    1    3    3  502    0 -0.14774124287E+04 -0.62284127905E+02  0.70252843127E+03  0.16371301365E+04  0.46999998093E+01 0.  1.
       -5    1    3    3    0  502  0.14774124287E+04  0.62284127905E+02 -0.15788695874E+04  0.21632101288E+04  0.46999998093E+01 0. -1.
</event>
<event>
 5   0  0.1757996E-08  0.3698871E+04  0.7818609E-02  0.8068212E-01
        2   -1    0    0  501    0  0.00000000000E+00  0.00000000000E+00  0.28746753493E+04  0.28746753493E+04  0.25500000920E-02 0.  1.
       -2   -1    0    0    0  501  0.00000000000E+00  0.00000000000E+00 -0.11898427860E+04  0.11898427860E+04  0.25500000920E-02 0. -1.
    10030    2    1    2    0    0  0.00000000000E+00  0.00000000000E+00  0.16848325633E+04  0.40645181354E+04  0.36988710313E+04 0.  0.
        3    1    3    3  502    0 -0.49574118095E+03  0.10504449708E+04 -0.73902385701E+03  0.13767171919E+04  0.10100000352E+00 0. -1.
       -3    1    3    3    0  502  0.49574118095E+03 -0.10504449708E+04  0.24238564203E+04  0.26878009434E+04  0.10100000352E+00 0.  1.
</event>
<event>
 5   0  0.1757996E-08  0.3695326E+04  0.7818609E-02  0.8068998E-01
       -2   -1    0    0    0  501  0.00000000000E+00  0.00000000000E+00  0.18876205140E+04  0.18876205140E+04  0.25500000920E-02 0. -1.
        2   -1    0    0  501    0  0.00000000000E+00  0.00000000000E+00 -0.18085516852E+04  0.18085516852E+04  0.25500000920E-02 0.  1.
    10030    2    1    2    0    0  0.00000000000E+00  0.00000000000E+00  0.79068828807E+02  0.36961721993E+04  0.36953263790E+04 0.  0.
        3    1    3    3  502    0 -0.67072372779E+03 -0.17214346741E+04  0.65066623609E+02  0.18486322868E+04  0.10100000352E+00 0. -1.
       -3    1    3    3    0  502  0.67072372779E+03  0.17214346741E+04  0.14002205198E+02  0.18475399125E+04  0.10100000352E+00 0.  1.
</event>
<event>
 5   0  0.5714125E-09  0.3700200E+04  0.7818609E-02  0.8067918E-01
       -3   -1    0    0    0  501  0.00000000000E+00  0.00000000000E+00  0.18967550288E+04  0.18967550315E+04  0.10100000352E+00 0.  1.
        3   -1    0    0  501    0  0.00000000000E+00  0.00000000000E+00 -0.18045925265E+04  0.18045925294E+04  0.10100000352E+00 0. -1.
    10030    2    1    2    0    0  0.00000000000E+00  0.00000000000E+00  0.92162502318E+02  0.37013475609E+04  0.37001999729E+04 0.  0.
        5    1    3    3  502    0  0.14973285567E+04  0.33177596735E+03 -0.98902457029E+03  0.18248999397E+04  0.46999998093E+01 0. -1.
       -5    1    3    3    0  502 -0.14973285567E+04 -0.33177596735E+03  0.10811870726E+04  0.18764476212E+04  0.46999998093E+01 0.  1.
</event>
<event>
 5   0  0.5714125E-09  0.3699410E+04  0.7818609E-02  0.8068093E-01
        1   -1    0    0  501    0  0.00000000000E+00  0.00000000000E+00  0.22839409644E+04  0.22839409644E+04  0.50400001928E-02 0.  1.
       -1   -1    0    0    0  501  0.00000000000E+00  0.00000000000E+00 -0.14980287227E+04  0.14980287228E+04  0.50400001928E-02 0. -1.
    10030    2    1    2    0    0  0.00000000000E+00  0.00000000000E+00  0.78591224166E+03  0.37819696872E+04  0.36994103129E+04 0.  0.
        5    1    3    3  502    0 -0.51322717506E+03 -0.10204467678E+04 -0.10943914218E+04  0.15819065754E+04  0.46999998093E+01 0. -1.
       -5    1    3    3    0  502  0.51322717506E+03  0.10204467678E+04  0.18803036635E+04  0.22000631118E+04  0.46999998093E+01 0.  1.
</event>
<event>
 5   0  0.1757996E-08  0.3700044E+04  0.7818609E-02  0.8067952E-01
        2   -1    0    0  501    0  0.00000000000E+00  0.00000000000E+00  0.25305133935E+04  0.25305133935E+04  0.25500000920E-02 0. -1.
       -2   -1    0    0    0  501  0.00000000000E+00  0.00000000000E+00 -0.13525243656E+04  0.13525243656E+04  0.25500000920E-02 0.  1.
    10030    2    1    2    0    0  0.00000000000E+00  0.00000000000E+00  0.11779890279E+04  0.38830377592E+04  0.37000437956E+04 0.  0.
        3    1    3    3  502    0  0.68692326487E+03  0.72769754153E+03 -0.10439736786E+04  0.14461287410E+04  0.10100000352E+00 0.  1.
       -3    1    3    3    0  502 -0.68692326487E+03 -0.72769754153E+03  0.22219627064E+04  0.24369090182E+04  0.10100000352E+00 0. -1.
</event>
<event>
 5   0  0.1856107E-08  0.3698816E+04  0.7818609E-02  0.8068224E-01
       -2   -1    0    0    0  501  0.00000000000E+00  0.00000000000E+00  0.16644366181E+04  0.16644366181E+04  0.25500000920E-02 0.  1.
        2   -1    0    0  501    0  0.00000000000E+00  0.00000000000E+00 -0.20549357894E+04  0.20549357894E+04  0.25500000920E-02 0. -1.
    10030    2    1    2    0    0  0.00000000000E+00  0.00000000000E+00 -0.39049917129E+03  0.37193724075E+04  0.36988162300E+04 0.  0.
        2    1    3    3  502    0 -0.31749251867E+03 -0.10071474755E+04 -0.17219636809E+04  0.20199768452E+04  0.25500000920E-02 0. -1.
       -2    1    3    3    0  502  0.31749251867E+03  0.10071474755E+04  0.13314645096E+04  0.16993955623E+04  0.25500000920E-02 0.  1.
</event>
<event>
 5   0  0.1725865E-08  0.3701195E+04  0.7818609E-02  0.8067697E-01
       -2   -1    0    0    0  501  0.00000000000E+00  0.00000000000E+00  0.13822380571E+04  0.13822380571E+04  0.25500000920E-02 0.  1.
        2   -1    0    0  501    0  0.00000000000E+00  0.00000000000E+00 -0.24776565431E+04  0.24776565431E+04  0.25500000920E-02 0. -1.
    10030    2    1    2    0    0  0.00000000000E+00  0.00000000000E+00 -0.10954184860E+04  0.38598946002E+04  0.37011950321E+04 0.  0.
        1    1    3    3  502    0  0.32888661694E+03 -0.79684124271E+03  0.11600614889E+04  0.14452906389E+04  0.50400001928E-02 0.  1.
       -1    1    3    3    0  502 -0.32888661694E+03  0.79684124271E+03 -0.22554799749E+04  0.24146039613E+04  0.50400001928E-02 0. -1.
</event>
<event>
 5   0  0.5714125E-09  0.3697755E+04  0.7818609E-02  0.8068459E-01
        1   -1    0    0  501    0  0.00000000000E+00  0.00000000000E+00  0.16475149842E+04  0.16475149842E+04  0.50400001928E-02 0. -1.
       -1   -1    0    0    0  501  0.00000000000E+00  0.00000000000E+00 -0.20748511570E+04  0.20748511570E+04  0.50400001928E-02 0.  1.
    10030    2    1    2    0    0  0.00000000000E+00  0.00000000000E+00 -0.42733617279E+03  0.37223661412E+04  0.36977551953E+04 0.  0.
        1    1    3    3  502    0  0.48674890039E+03  0.16862242252E+04  0.37164113805E+03  0.17939882288E+04  0.50400001928E-02 0. -1.
       -1    1    3    3    0  502 -0.48674890039E+03 -0.16862242252E+04 -0.79897731084E+03  0.19283779124E+04  0.50400001928E-02 0.  1.
</event>
<event>
 5   0  0.1825308E-08  0.3714416E+04  0.7818609E-02  0.8064775E-01
        2   -1    0    0  501    0  0.00000000000E+00  0.00000000000E+00  0.17576137652E+04  0.17576137652E+04  0.25500000920E-02 0. -1.
       -2   -1    0    0    0  501  0.00000000000E+00  0.00000000000E+00 -0.19624456402E+04  0.19624456402E+04  0.25500000920E-02 0.  1.
    10030    2    1    2    0    0  0.00000000000E+00  0.00000000000E+00 -0.20483187500E+03  0.37200594053E+04  0.37144159544E+04 0.  0.
        4    1    3    3  502    0  0.13379326026E+04  0.11114676801E+04 -0.75440102975E+03  0.18959289490E+04  0.12699999809E+01 0.  1.
       -4    1    3    3    0  502 -0.13379326026E+04 -0.11114676801E+04  0.54956915476E+03  0.18241304563E+04  0.12699999809E+01 0. -1.
</event>
<event>
 5   0  0.1825308E-08  0.3692641E+04  0.7818609E-02  0.8069595E-01
       -2   -1    0    0    0  501  0.00000000000E+00  0.00000000000E+00  0.13664656722E+04  0.13664656722E+04  0.25500000920E-02 0.  1.
        2   -1    0    0  501    0  0.00000000000E+00  0.00000000000E+00 -0.24946835533E+04  0.24946835533E+04  0.25500000920E-02 0. -1.
    10030    2    1    2    0    0  0.00000000000E+00  0.00000000000E+00 -0.11282178812E+04  0.38611492255E+04  0.36926410270E+04 0.  0.
        4    1    3    3  502    0 -0.97559185368E+03  0.15625342235E+04 -0.69473012701E+03  0.19687417877E+04  0.12699999809E+01 0.  1.
       -4    1    3    3    0  502  0.97559185368E+03 -0.15625342235E+04 -0.43348775415E+03  0.18924074377E+04  0.12699999809E+01 0. -1.
</event>
<event>
 5   0  0.1757996E-08  0.3698725E+04  0.7818609E-02  0.8068244E-01
       -2   -1    0    0    0  501  0.00000000000E+00  0.00000000000E+00  0.15806711179E+04  0.15806711179E+04  0.25500000920E-02 0. -1.
        2   -1    0    0  501    0  0.00000000000E+00  0.00000000000E+00 -0.21637278829E+04  0.21637278829E+04  0.25500000920E-02 0.  1.
    10030    2    1    2    0    0  0.00000000000E+00  0.00000000000E+00 -0.58305676502E+03  0.37443990008E+04  0.36987252786E+04 0.  0.
        3    1    3    3  502    0 -0.13481874698E+02  0.17566207727E+04  0.29374903177E+03  0.17810633913E+04  0.10100000352E+00 0. -1.
       -3    1    3    3    0  502  0.13481874698E+02 -0.17566207727E+04 -0.87680579678E+03  0.19633356095E+04  0.10100000352E+00 0.  1.
</event>
<event>
 5   0  0.5714125E-09  0.3700219E+04  0.7818609E-02  0.8067913E-01
       -1   -1    0    0    0  501  0.00000000000E+00  0.00000000000E+00  0.13845581653E+04  0.13845581653E+04  0.50400001928E-02 0.  1.
        1   -1    0    0  501    0  0.00000000000E+00  0.00000000000E+00 -0.24722003633E+04  0.24722003633E+04  0.50400001928E-02 0. -1.
    10030    2    1    2    0    0  0.00000000000E+00  0.00000000000E+00 -0.10876421980E+04  0.38567585286E+04  0.37002190202E+04 0.  0.
        4    1    3    3  502    0  0.35459425369E+02  0.17994838739E+04 -0.99031732145E+03  0.20542954007E+04  0.12699999809E+01 0.  1.
       -4    1    3    3    0  502 -0.35459425369E+02 -0.17994838739E+04 -0.97324876513E+02  0.18024631280E+04  0.12699999809E+01 0. -1.
</event>
<event>
 5   0  0.5714125E-09  0.3702861E+04  0.7818609E-02  0.8067328E-01
        1   -1    0    0  501    0  0.00000000000E+00  0.00000000000E+00  0.22607429645E+04  0.22607429645E+04  0.50400001928E-02 0. -1.
       -1   -1    0    0    0  501  0.00000000000E+00  0.00000000000E+00 -0.15162250247E+04  0.15162250247E+04  0.50400001928E-02 0.  1.
    10030    2    1    2    0    0  0.00000000000E+00  0.00000000000E+00  0.74451793986E+03  0.37769679892E+04  0.37028610868E+04 0.  0.
        2    1    3    3  502    0 -0.15457064422E+04  0.58061937118E+03 -0.48203974595E+03  0.17200841771E+04  0.25500000920E-02 0.  1.
       -2    1    3    3    0  502  0.15457064422E+04 -0.58061937118E+03  0.12265576858E+04  0.20568838121E+04  0.25500000920E-02 0. -1.
</event>
<event>
 5   0  0.1757996E-08  0.3699820E+04  0.7818609E-02  0.8068002E-01
       -2   -1    0    0    0  501  0.00000000000E+00  0.00000000000E+00  0.11554934821E+04  0.11554934821E+04  0.25500000920E-02 0.  1.
        2   -1    0    0  501    0  0.00000000000E+00  0.00000000000E+00 -0.29616496319E+04  0.29616496319E+04  0.25500000920E-02 0. -1.
    10030    2    1    2    0    0  0.00000000000E+00  0.00000000000E+00 -0.18061561498E+04  0.41171431141E+04  0.36998199124E+04 0.  0.
        3    1    3    3  502    0 -0.13730224248E+04 -0.50432239678E+03  0.35720165561E+03  0.15056974104E+04  0.10100000352E+00 0.  1.
       -3    1    3    3    0  502  0.13730224248E+04  0.50432239678E+03 -0.21633578054E+04  0.26114457037E+04  0.10100000352E+00 0. -1.
</event>
<event>
 5   0  0.1725865E-08  0.3699319E+04  0.7818609E-02  0.8068113E-01
       -2   -1    0    0    0  501  0.00000000000E+00  0.00000000000E+00  0.22553257880E+04  0.22553257880E+04  0.25500000920E-02 0.  1.
        2   -1    0    0  501    0  0.00000000000E+00  0.00000000000E+00 -0.15169609313E+04  0.15169609313E+04  0.25500000920E-02 0. -1.
    10030    2    1    2    0    0  0.00000000000E+00  0.00000000000E+00  0.73836485671E+03  0.37722867193E+04  0.36993194551E+04 0.  0.
        1    1    3    3  502    0 -0.77903350342E+03  0.37867775035E+03 -0.12973578871E+04  0.15599447186E+04  0.50400001928E-02 0. -1.
       -1    1    3    3    0  502  0.77903350342E+03 -0.37867775035E+03  0.20357227438E+04  0.22123420006E+04  0.50400001928E-02 0.  1.
</event>
<event>
 5   0  0.1825308E-08  0.3700990E+04  0.7818609E-02  0.8067743E-01
       -2   -1    0    0    0  501  0.00000000000E+00  0.00000000000E+00  0.10988621385E+04  0.10988621385E+04  0.25500000920E-02 0. -1.
        2   -1    0    0  501    0  0.00000000000E+00  0.00000000000E+00 -0.31162518610E+04  0.31162518610E+04  0.25500000920E-02 0.  1.
    10030    2    1    2    0    0  0.00000000000E+00  0.00000000000E+00 -0.20173897225E+04  0.42151139994E+04  0.37009896968E+04 0.  0.
        4    1    3    3  502    0  0.14299466547E+04 -0.46391788883E+02  0.32798131508E+03  0.14678123141E+04  0.12699999809E+01 0. -1.
       -4    1    3    3    0  502 -0.14299466547E+04  0.46391788883E+02 -0.23453710376E+04  0.27473016853E+04  0.12699999809E+01 0.  1.
</event>
<event>
 5   0  0.5714125E-09  0.3701750E+04  0.7818609E-02  0.8067574E-01
        1   -1    0    0  501    0  0.00000000000E+00  0.00000000000E+00  0.21788023709E+04  0.21788023709E+04  0.50400001928E-02 0. -1.
       -1   -1    0    0    0  501  0.00000000000E+00  0.00000000000E+00 -0.15723034691E+04  0.15723034691E+04  0.50400001928E-02 0.  1.
    10030    2    1    2    0    0  0.00000000000E+00  0.00000000000E+00  0.60649890177E+03  0.37511058400E+04  0.37017501408E+04 0.  0.
        3    1    3    3  502    0 -0.30264038132E+03 -0.10412811463E+04  0.18232088248E+04  0.21213081000E+04  0.10100000352E+00 0. -1.
       -3    1    3    3    0  502  0.30264038132E+03  0.10412811463E+04 -0.12167099230E+04  0.16297977400E+04  0.10100000352E+00 0.  1.
</event>
<event>
 5   0  0.5714125E-09  0.3702846E+04  0.7818609E-02  0.8067331E-01
        1   -1    0    0  501    0  0.00000000000E+00  0.00000000000E+00  0.18614904060E+04  0.18614904060E+04  0.50400001928E-02 0. -1.
       -1   -1    0    0    0  501  0.00000000000E+00  0.00000000000E+00 -0.18414105185E+04  0.18414105185E+04  0.50400001928E-02 0.  1.
    10030    2    1    2    0    0  0.00000000000E+00  0.00000000000E+00  0.20079887521E+02  0.37029009245E+04  0.37028464801E+04 0.  0.
        1    1    3    3  502    0  0.23232878233E+03  0.11957210802E+04 -0.13842697842E+04  0.18438894761E+04  0.50400001928E-02 0.  1.
       -1    1    3    3    0  502 -0.23232878233E+03 -0.11957210802E+04  0.14043496717E+04  0.18590114484E+04  0.50400001928E-02 0. -1.
</event>
<event>
 5   0  0.5714125E-09  0.3702321E+04  0.7818609E-02  0.8067448E-01
        1   -1    0    0  501    0  0.00000000000E+00  0.00000000000E+00  0.26341183564E+04  0.26341183564E+04  0.50400001928E-02 0. -1.
       -1   -1    0    0    0  501  0.00000000000E+00  0.00000000000E+00 -0.13009269721E+04  0.13009269721E+04  0.50400001928E-02 0.  1.
    10030    2    1    2    0    0  0.00000000000E+00  0.00000000000E+00  0.13331913843E+04  0.39350453286E+04  0.37023212273E+04 0.  0.
        2    1    3    3  502    0  0.51023517965E+03  0.17210561225E+03 -0.12158458711E+04  0.13297524065E+04  0.25500000920E-02 0.  1.
       -2    1    3    3    0  502 -0.51023517965E+03 -0.17210561225E+03  0.25490372554E+04  0.26052929221E+04  0.25500000920E-02 0. -1.
</event>
<event>
 5   0  0.1725865E-08  0.3704299E+04  0.7818609E-02  0.8067010E-01
        2   -1    0    0  501    0  0.00000000000E+00  0.00000000000E+00  0.30567708475E+04  0.30567708475E+04  0.25500000920E-02 0. -1.
       -2   -1    0    0    0  501  0.00000000000E+00  0.00000000000E+00 -0.11222488571E+04  0.11222488571E+04  0.25500000920E-02 0.  1.
    10030    2    1    2    0    0  0.00000000000E+00  0.00000000000E+00  0.19345219904E+04  0.41790197046E+04  0.37042989026E+04 0.  0.
        1    1    3    3  502    0 -0.67264256178E+03 -0.60736417511E+03  0.27895417312E+04  0.29330670513E+04  0.50400001928E-02 0. -1.
       -1    1    3    3    0  502  0.67264256178E+03  0.60736417511E+03 -0.85501974078E+03  0.12459526533E+04  0.50400001928E-02 0.  1.
</event>
<event>
 5   0  0.1825308E-08  0.3691246E+04  0.7818609E-02  0.8069905E-01
        2   -1    0    0  501    0  0.00000000000E+00  0.00000000000E+00  0.14722530599E+04  0.14722530599E+04  0.25500000920E-02 0.  1.
       -2   -1    0    0    0  501  0.00000000000E+00  0.00000000000E+00 -0.23136809619E+04  0.23136809619E+04  0.25500000920E-02 0. -1.
    10030    2    1    2    0    0  0.00000000000E+00  0.00000000000E+00 -0.84142790201E+03  0.37859340218E+04  0.36912457929E+04 0.  0.
        4    1    3    3  502    0  0.15766272635E+04 -0.60413240913E+03  0.34378759478E+03  0.17230557214E+04  0.12699999809E+01 0.  1.
       -4    1    3    3    0  502 -0.15766272635E+04  0.60413240913E+03 -0.11852154968E+04  0.20628783005E+04  0.12699999809E+01 0. -1.
</event>
<event>
 5   0  0.5714125E-09  0.3699613E+04  0.7818609E-02  0.8068048E-01
       -1   -1    0    0    0  501  0.00000000000E+00  0.00000000000E+00  0.16235924345E+04  0.16235924345E+04  0.50400001928E-02 0. -1.
        1   -1    0    0  501    0  0.00000000000E+00  0.00000000000E+00 -0.21075386782E+04  0.21075386782E+04  0.50400001928E-02 0.  1.
    10030    2    1    2    0    0  0.00000000000E+00  0.00000000000E+00 -0.48394624370E+03  0.37311311128E+04  0.36996128735E+04 0.  0.
        5    1    3    3  502    0  0.64340841655E+03 -0.25155794631E+03 -0.19725482125E+04  0.20900297441E+04  0.46999998093E+01 0.  1.
       -5    1    3    3    0  502 -0.64340841655E+03  0.25155794631E+03  0.14886019688E+04  0.16411013687E+04  0.46999998093E+01 0. -1.
</event>
<event>
 5   0  0.1725865E-08  0.3699516E+04  0.7818609E-02  0.8068069E-01
       -2   -1    0    0    0  501  0.00000000000E+00  0.00000000000E+00  0.18484134150E+04  0.18484134150E+04  0.25500000920E-02 0.  1.
        2   -1    0    0  501    0  0.00000000000E+00  0.00000000000E+00 -0.18511038395E+04  0.18511038395E+04  0.25500000920E-02 0. -1.
    10030    2    1    2    0    0  0.00000000000E+00  0.00000000000E+00 -0.26904244834E+01  0.36995172545E+04  0.36995162762E+04 0.  0.
        1    1    3    3  502    0  0.77463008840E+03 -0.10316720999E+04 -0.13269420601E+04  0.18507226498E+04  0.50400001928E-02 0. -1.
       -1    1    3    3    0  502 -0.77463008840E+03  0.10316720999E+04  0.13242516357E+04  0.18487946046E+04  0.50400001928E-02 0.  1.
</event>
<event>
 5   0  0.5714125E-09  0.3699368E+04  0.7818609E-02  0.8068102E-01
       -1   -1    0    0    0  501  0.00000000000E+00  0.00000000000E+00  0.20310808893E+04  0.20310808894E+04  0.50400001928E-02 0. -1.
        1   -1    0    0  501    0  0.00000000000E+00  0.00000000000E+00 -0.16844880381E+04  0.16844880381E+04  0.50400001928E-02 0.  1.
    10030    2    1    2    0    0  0.00000000000E+00  0.00000000000E+00  0.34659285129E+03  0.37155689274E+04  0.36993683042E+04 0.  0.
        3    1    3    3  502    0  0.11558718050E+04  0.13749203401E+04  0.61668851388E+03  0.18991446245E+04  0.10100000352E+00 0.  1.
       -3    1    3    3    0  502 -0.11558718050E+04 -0.13749203401E+04 -0.27009566259E+03  0.18164243030E+04  0.10100000352E+00 0. -1.
</event>
<event>
 5   0  0.5714125E-09  0.3698238E+04  0.7818609E-02  0.8068352E-01
       -3   -1    0    0    0  501  0.00000000000E+00  0.00000000000E+00  0.15624426515E+04  0.15624426547E+04  0.10100000352E+00 0.  1.
        3   -1    0    0  501    0  0.00000000000E+00  0.00000000000E+00 -0.21883949539E+04  0.21883949562E+04  0.10100000352E+00 0. -1.
    10030    2    1    2    0    0  0.00000000000E+00  0.00000000000E+00 -0.62595230241E+03  0.37508376109E+04  0.36982382966E+04 0.  0.
        4    1    3    3  502    0 -0.17765585411E+04 -0.38286389794E+03  0.33191920466E+02  0.18176491220E+04  0.12699999809E+01 0. -1.
       -4    1    3    3    0  502  0.17765585411E+04  0.38286389794E+03 -0.65914422287E+03  0.19331884889E+04  0.12699999809E+01 0.  1.
</event>
<event>
 5   0  0.5714125E-09  0.3700245E+04  0.7818609E-02  0.8067908E-01
        1   -1    0    0  501    0  0.00000000000E+00  0.00000000000E+00  0.22140757491E+04  0.22140757491E+04  0.50400001928E-02 0. -1.
       -1   -1    0    0    0  501  0.00000000000E+00  0.00000000000E+00 -0.15459961203E+04  0.15459961203E+04  0.50400001928E-02 0.  1.
    10030    2    1    2    0    0  0.00000000000E+00  0.00000000000E+00  0.66807962878E+03  0.37600718694E+04  0.37002445963E+04 0.  0.
        5    1    3    3  502    0 -0.81372654293E+03 -0.74844346328E+03 -0.11733911914E+04  0.16121995790E+04  0.46999998093E+01 0.  1.
       -5    1    3    3    0  502  0.81372654293E+03  0.74844346328E+03  0.18414708202E+04  0.21478722904E+04  0.46999998093E+01 0. -1.
</event>
<event>
 5   0  0.1740290E-08  0.3703810E+04  0.7818609E-02  0.8067118E-01
        2   -1    0    0  501    0  0.00000000000E+00  0.00000000000E+00  0.20185849756E+04  0.20185849756E+04  0.25500000920E-02 0. -1.
       -2   -1    0    0    0  501  0.00000000000E+00  0.00000000000E+00 -0.16989881782E+04  0.16989881782E+04  0.25500000920E-02 0.  1.
    10030    2    1    2    0    0  0.00000000000E+00  0.00000000000E+00  0.31959679746E+03  0.37175731538E+04  0.37038099358E+04 0.  0.
        5    1    3    3  502    0  0.25429870725E+03 -0.51706165553E+03  0.19263126385E+04  0.20106523964E+04  0.46999998093E+01 0. -1.
       -5    1    3    3    0  502 -0.25429870725E+03  0.51706165553E+03 -0.16067158410E+04  0.17069207573E+04  0.46999998093E+01 0.  1.
</event>
<event>
 5   0  0.1740290E-08  0.3700575E+04  0.7818609E-02  0.8067834E-01
       -2   -1    0    0    0  501  0.00000000000E+00  0.00000000000E+00  0.15398131849E+04  0.15398131849E+04  0.25500000920E-02 0. -1.
        2   -1    0    0  501    0  0.00000000000E+00  0.00000000000E+00 -0.22233630426E+04  0.22233630426E+04  0.25500000920E-02 0.  1.
    10030    2    1    2    0    0  0.00000000000E+00  0.00000000000E+00 -0.68354985771E+03  0.37631762275E+04  0.37005749433E+04 0.  0.
        5    1    3    3  502    0 -0.83727340337E+03 -0.50745163059E+03  0.12548190801E+04  0.15915800084E+04  0.46999998093E+01 0. -1.
       -5    1    3    3    0  502  0.83727340337E+03  0.50745163059E+03 -0.19383689379E+04  0.21715962191E+04  0.46999998093E+01 0.  1.
</event>
<event>
 5   0  0.1825308E-08  0.3693789E+04  0.7818609E-02  0.8069340E-01
       -2   -1    0    0    0  501  0.00000000000E+00  0.00000000000E+00  0.22408067658E+04  0.22408067658E+04  0.25500000920E-02 0. -1.
        2   -1    0    0  501    0  0.00000000000E+00  0.00000000000E+00 -0.15222282818E+04  0.15222282818E+04  0.25500000920E-02 0.  1.
    10030    2    1    2    0    0  0.00000000000E+00  0.00000000000E+00  0.71857848399E+03  0.37630350477E+04  0.36937890753E+04 0.  0.
        4    1    3    3  502    0 -0.76075080032E+03 -0.14644267419E+04 -0.48555231524E+03  0.17201889798E+04  0.12699999809E+01 0. -1.
       -4    1    3    3    0  502  0.76075080032E+03  0.14644267419E+04  0.12041307992E+04  0.20428460679E+04  0.12699999809E+01 0.  1.
</event>
<event>
 5   0  0.5714125E-09  0.3700973E+04  0.7818609E-02  0.8067746E-01
        1   -1    0    0  501    0  0.00000000000E+00  0.00000000000E+00  0.22446924961E+04  0.22446924962E+04  0.50400001928E-02 0.  1.
       -1   -1    0    0    0  501  0.00000000000E+00  0.00000000000E+00 -0.15255094723E+04  0.15255094723E+04  0.50400001928E-02 0. -1.
    10030    2    1    2    0    0  0.00000000000E+00  0.00000000000E+00  0.71918302383E+03  0.37702019685E+04  0.37009726642E+04 0.  0.
        1    1    3    3  502    0 -0.71430326044E+03  0.10911275563E+04 -0.97779146245E+03  0.16299891521E+04  0.50400001928E-02 0. -1.
       -1    1    3    3    0  502  0.71430326044E+03 -0.10911275563E+04  0.16969744863E+04  0.21402128163E+04  0.50400001928E-02 0.  1.
</event>
<event>
 5   0  0.1740290E-08  0.3698832E+04  0.7818609E-02  0.8068221E-01
       -2   -1    0    0    0  501  0.00000000000E+00  0.00000000000E+00  0.16470778332E+04  0.16470778332E+04  0.25500000920E-02 0.  1.
        2   -1    0    0  501    0  0.00000000000E+00  0.00000000000E+00 -0.20766102215E+04  0.20766102215E+04  0.25500000920E-02 0. -1.
    10030    2    1    2    0    0  0.00000000000E+00  0.00000000000E+00 -0.42953238830E+03  0.37236880547E+04  0.36988315258E+04 0.  0.
        5    1    3    3  502    0  0.15954429722E+04  0.68088320690E+03 -0.86038416731E+03  0.19363169225E+04  0.46999998093E+01 0.  1.
       -5    1    3    3    0  502 -0.15954429722E+04 -0.68088320690E+03  0.43085177901E+03  0.17873711322E+04  0.46999998093E+01 0. -1.
</event>
<event>
 5   0  0.5714125E-09  0.3700106E+04  0.7818609E-02  0.8067938E-01
        1   -1    0    0  501    0  0.00000000000E+00  0.00000000000E+00  0.19009351053E+04  0.19009351053E+04  0.50400001928E-02 0.  1.
       -1   -1    0    0    0  501  0.00000000000E+00  0.00000000000E+00 -0.18005326927E+04  0.18005326927E+04  0.50400001928E-02 0. -1.
    10030    2    1    2    0    0  0.00000000000E+00  0.00000000000E+00  0.10040241261E+03  0.37014677980E+04  0.37001058383E+04 0.  0.
        5    1    3    3  502    0 -0.73056647647E+03  0.11976124912E+04  0.12567424385E+04  0.18834613620E+04  0.46999998093E+01 0.  1.
       -5    1    3    3    0  502  0.73056647647E+03 -0.11976124912E+04 -0.11563400259E+04  0.18180064359E+04  0.46999998093E+01 0. -1.
</event>
<event>
 5   0  0.1757996E-08  0.3700442E+04  0.7818609E-02  0.8067864E-01
        2   -1    0    0  501    0  0.00000000000E+00  0.00000000000E+00  0.33041425046E+04  0.33041425046E+04  0.25500000920E-02 0.  1.
       -2   -1    0    0    0  501  0.00000000000E+00  0.00000000000E+00 -0.10360686471E+04  0.10360686472E+04  0.25500000920E-02 0. -1.
    10030    2    1    2    0    0  0.00000000000E+00  0.00000000000E+00  0.22680738575E+04  0.43402111518E+04  0.37004423815E+04 0.  0.
        3    1    3    3  502    0  0.11405724827E+04 -0.13802747064E+04  0.58734621908E+03  0.18844201879E+04  0.10100000352E+00 0.  1.
       -3    1    3    3    0  502 -0.11405724827E+04  0.13802747064E+04  0.16807276384E+04  0.24557909639E+04  0.10100000352E+00 0. -1.
</event>
<event>
 5   0  0.1740290E-08  0.3700490E+04  0.7818609E-02  0.8067853E-01
        2   -1    0    0  501    0  0.00000000000E+00  0.00000000000E+00  0.17414812440E+04  0.17414812440E+04  0.25500000920E-02 0.  1.
       -2   -1    0    0    0  501  0.00000000000E+00  0.00000000000E+00 -0.19658011512E+04  0.19658011512E+04  0.25500000920E-02 0. -1.
    10030    2    1    2    0    0  0.00000000000E+00  0.00000000000E+00 -0.22431990723E+03  0.37072823951E+04  0.37004896077E+04 0.  0.
        5    1    3    3  502    0 -0.11010584156E+04 -0.52417097498E+03  0.12819039403E+04  0.17692893058E+04  0.46999998093E+01 0.  1.
       -5    1    3    3    0  502  0.11010584156E+04  0.52417097498E+03 -0.15062238475E+04  0.19379930893E+04  0.46999998093E+01 0. -1.
</event>
<event>
 5   0  0.5714125E-09  0.3699650E+04  0.7818609E-02  0.8068039E-01
       -1   -1    0    0    0  501  0.00000000000E+00  0.00000000000E+00  0.29815630618E+04  0.29815630618E+04  0.50400001928E-02 0. -1.
        1   -1    0    0  501    0  0.00000000000E+00  0.00000000000E+00 -0.11476704047E+04  0.11476704047E+04  0.50400001928E-02 0.  1.
    10030    2    1    2    0    0  0.00000000000E+00  0.00000000000E+00  0.18338926571E+04  0.41292334665E+04  0.36996495433E+04 0.  0.
        4    1    3    3  502    0  0.78669930622E+03  0.93548854352E+02 -0.94873652589E+03  0.12360217615E+04  0.12699999809E+01 0.  1.
       -4    1    3    3    0  502 -0.78669930622E+03 -0.93548854352E+02  0.27826291830E+04  0.28932117050E+04  0.12699999809E+01 0. -1.
</event>
<event>
 5   0  0.1757996E-08  0.3700515E+04  0.7818609E-02  0.8067848E-01
        2   -1    0    0  501    0  0.00000000000E+00  0.00000000000E+00  0.15337742119E+04  0.15337742119E+04  0.25500000920E-02 0. -1.
       -2   -1    0    0    0  501  0.00000000000E+00  0.00000000000E+00 -0.22320443609E+04  0.22320443609E+04  0.25500000920E-02 0.  1.
    10030    2    1    2    0    0  0.00000000000E+00  0.00000000000E+00 -0.69827014899E+03  0.37658185727E+04  0.37005146023E+04 0.  0.
        3    1    3    3  502    0  0.19162946085E+03  0.18070645050E+04  0.52167981209E+01  0.18172042265E+04  0.10100000352E+00 0.  1.
       -3    1    3    3    0  502 -0.19162946085E+03 -0.18070645050E+04 -0.70348694711E+03  0.19486143463E+04  0.10100000352E+00 0. -1.
</event>
<event>
 5   0  0.1856107E-08  0.3699594E+04  0.7818609E-02  0.8068052E-01
        2   -1    0    0  501    0  0.00000000000E+00  0.00000000000E+00  0.19565710909E+04  0.19565710909E+04  0.25500000920E-02 0.  1.
       -2   -1    0    0    0  501  0.00000000000E+00  0.00000000000E+00 -0.17488501282E+04  0.17488501282E+04  0.25500000920E-02 0. -1.
    10030    2    1    2    0    0  0.00000000000E+00  0.00000000000E+00  0.20772096267E+03  0.37054212191E+04  0.36995943579E+04 0.  0.
        2    1    3    3  502    0 -0.15315663688E+04 -0.96373929123E+02  0.11383309190E+04  0.19107016401E+04  0.25500000920E-02 0.  1.
       -2    1    3    3    0  502  0.15315663688E+04  0.96373929123E+02 -0.93060995637E+03  0.17947195790E+04  0.25500000920E-02 0. -1.
</event>
<event>
 5   0  0.1825308E-08  0.3700472E+04  0.7818609E-02  0.8067857E-01
       -2   -1    0    0    0  501  0.00000000000E+00  0.00000000000E+00  0.13560457009E+04  0.13560457009E+04  0.25500000920E-02 0. -1.
        2   -1    0    0  501    0  0.00000000000E+00  0.00000000000E+00 -0.25245260025E+04  0.25245260025E+04  0.25500000920E-02 0.  1.
    10030    2    1    2    0    0  0.00000000000E+00  0.00000000000E+00 -0.11684803016E+04  0.38805717034E+04  0.37004716632E+04 0.  0.
        4    1    3    3  502    0 -0.53154117887E+03  0.31677021355E+03 -0.24128057095E+04  0.24908858661E+04  0.12699999809E+01 0.  1.
       -4    1    3    3    0  502  0.53154117887E+03 -0.31677021355E+03  0.12443254079E+04  0.13896858374E+04  0.12699999809E+01 0. -1.
</event>
<event>
 5   0  0.1757996E-08  0.3700978E+04  0.7818609E-02  0.8067745E-01
       -2   -1    0    0    0  501  0.00000000000E+00  0.00000000000E+00  0.18926076659E+04  0.18926076659E+04  0.25500000920E-02 0.  1.
        2   -1    0    0  501    0  0.00000000000E+00  0.00000000000E+00 -0.18093072274E+04  0.18093072274E+04  0.25500000920E-02 0. -1.
    10030    2    1    2    0    0  0.00000000000E+00  0.00000000000E+00  0.83300438506E+02  0.37019148932E+04  0.37009775619E+04 0.  0.
        3    1    3    3  502    0 -0.55470117648E+03 -0.88652727520E+03  0.15686948907E+04  0.18853189850E+04  0.10100000352E+00 0.  1.
       -3    1    3    3    0  502  0.55470117648E+03  0.88652727520E+03 -0.14853944522E+04  0.18165959082E+04  0.10100000352E+00 0. -1.
</event>
<event>
 5   0  0.1725865E-08  0.3703139E+04  0.7818609E-02  0.8067267E-01
        2   -1    0    0  501    0  0.00000000000E+00  0.00000000000E+00  0.20409434521E+04  0.20409434521E+04  0.25500000920E-02 0. -1.
       -2   -1    0    0    0  501  0.00000000000E+00  0.00000000000E+00 -0.16797670440E+04  0.16797670440E+04  0.25500000920E-02 0.  1.
    10030    2    1    2    0    0  0.00000000000E+00  0.00000000000E+00  0.36117640810E+03  0.37207104961E+04  0.37031389655E+04 0.  0.
        1    1    3    3  502    0  0.17526754060E+04 -0.59560849897E+03  0.22188049277E+03  0.18643635686E+04  0.50400001928E-02 0. -1.
       -1    1    3    3    0  502 -0.17526754060E+04  0.59560849897E+03  0.13929591533E+03  0.18563469274E+04  0.50400001928E-02 0.  1.
</event>
<event>
 5   0  0.1725865E-08  0.3696187E+04  0.7818609E-02  0.8068807E-01
       -2   -1    0    0    0  501  0.00000000000E+00  0.00000000000E+00  0.27176115882E+04  0.27176115882E+04  0.25500000920E-02 0.  1.
        2   -1    0    0  501    0  0.00000000000E+00  0.00000000000E+00 -0.12567837319E+04  0.12567837319E+04  0.25500000920E-02 0. -1.
    10030    2    1    2    0    0  0.00000000000E+00  0.00000000000E+00  0.14608278563E+04  0.39743953201E+04  0.36961872430E+04 0.  0.
        1    1    3    3  502    0 -0.10166140678E+04 -0.12758080839E+04  0.16642647888E+04  0.23304436739E+04  0.50400001928E-02 0.  1.
       -1    1    3    3    0  502  0.10166140678E+04  0.12758080839E+04 -0.20343693251E+03  0.16439516463E+04  0.50400001928E-02 0. -1.
</event>
<event>
 5   0  0.5714125E-09  0.3700061E+04  0.7818609E-02  0.8067948E-01
        1   -1    0    0  501    0  0.00000000000E+00  0.00000000000E+00  0.19991533504E+04  0.19991533504E+04  0.50400001928E-02 0. -1.
       -1   -1    0    0    0  501  0.00000000000E+00  0.00000000000E+00 -0.17120311136E+04  0.17120311136E+04  0.50400001928E-02 0.  1.
    10030    2    1    2    0    0  0.00000000000E+00  0.00000000000E+00  0.28712223682E+03  0.37111844640E+04  0.37000609383E+04 0.  0.
        1    1    3    3  502    0  0.84613700566E+03  0.13292834900E+04 -0.82871902563E+03  0.17803700887E+04  0.50400001928E-02 0. -1.
       -1    1    3    3    0  502 -0.84613700566E+03 -0.13292834900E+04  0.11158412624E+04  0.19308143754E+04  0.50400001928E-02 0.  1.
</event>
<event>
 5   0  0.5714125E-09  0.3699789E+04  0.7818609E-02  0.8068009E-01
        1   -1    0    0  501    0  0.00000000000E+00  0.00000000000E+00  0.25373691912E+04  0.25373691912E+04  0.50400001928E-02 0.  1.
       -1   -1    0    0    0  501  0.00000000000E+00  0.00000000000E+00 -0.13486839477E+04  0.13486839477E+04  0.50400001928E-02 0. -1.
    10030    2    1    2    0    0  0.00000000000E+00  0.00000000000E+00  0.11886852435E+04  0.38860531389E+04  0.36997886953E+04 0.  0.
        2    1    3    3  502    0 -0.15728221510E+04 -0.38610145696E+03  0.15333678879E+04  0.22302602838E+04  0.25500000920E-02 0.  1.
       -2    1    3    3    0  502  0.15728221510E+04  0.38610145696E+03 -0.34468264440E+03  0.16557928551E+04  0.25500000920E-02 0. -1.
</event>
<event>
 5   0  0.1725865E-08  0.3699310E+04  0.7818609E-02  0.8068115E-01
        2   -1    0    0  501    0  0.00000000000E+00  0.00000000000E+00  0.20611260721E+04  0.20611260721E+04  0.25500000920E-02 0.  1.
       -2   -1    0    0    0  501  0.00000000000E+00  0.00000000000E+00 -0.16598811735E+04  0.16598811735E+04  0.25500000920E-02 0. -1.
    10030    2    1    2    0    0  0.00000000000E+00  0.00000000000E+00  0.40124489861E+03  0.37210072456E+04  0.36993104024E+04 0.  0.
        1    1    3    3  502    0 -0.23123920402E+03  0.12752014515E+04  0.15280649002E+04  0.20036448414E+04  0.50400001928E-02 0.  1.
       -1    1    3    3    0  502  0.23123920402E+03 -0.12752014515E+04 -0.11268200016E+04  0.17173624042E+04  0.50400001928E-02 0. -1.
</event>
<event>
 5   0  0.5714125E-09  0.3700340E+04  0.7818609E-02  0.8067886E-01
        1   -1    0    0  501    0  0.00000000000E+00  0.00000000000E+00  0.22118834589E+04  0.22118834589E+04  0.50400001928E-02 0.  1.
       -1   -1    0    0    0  501  0.00000000000E+00  0.00000000000E+00 -0.15476085775E+04  0.15476085775E+04  0.50400001928E-02 0. -1.
    10030    2    1    2    0    0  0.00000000000E+00  0.00000000000E+00  0.66427488142E+03  0.37594920364E+04  0.37003404240E+04 0.  0.
        5    1    3    3  502    0 -0.90254100883E+02 -0.17529550690E+04  0.92638944755E+03  0.19847460228E+04  0.46999998093E+01 0.  1.
       -5    1    3    3    0  502  0.90254100883E+02  0.17529550690E+04 -0.26211456613E+03  0.17747460135E+04  0.46999998093E+01 0. -1.
</event>
<event>
 5   0  0.1740290E-08  0.3680689E+04  0.7818609E-02  0.8072255E-01
       -2   -1    0    0    0  501  0.00000000000E+00  0.00000000000E+00  0.17671195570E+04  0.17671195570E+04  0.25500000920E-02 0. -1.
        2   -1    0    0  501    0  0.00000000000E+00  0.00000000000E+00 -0.19166033012E+04  0.19166033012E+04  0.25500000920E-02 0.  1.
    10030    2    1    2    0    0  0.00000000000E+00  0.00000000000E+00 -0.14948374415E+03  0.36837228582E+04  0.36806886185E+04 0.  0.
        5    1    3    3  502    0 -0.12765906200E+04  0.57599345842E+03 -0.12696243245E+04  0.18903491981E+04  0.46999998093E+01 0.  1.
       -5    1    3    3    0  502  0.12765906200E+04 -0.57599345842E+03  0.11201405804E+04  0.17933736602E+04  0.46999998093E+01 0. -1.
</event>
<event>
 5   0  0.5714125E-09  0.3700252E+04  0.7818609E-02  0.8067906E-01
        1   -1    0    0  501    0  0.00000000000E+00  0.00000000000E+00  0.13067084399E+04  0.13067084399E+04  0.50400001928E-02 0.  1.
       -1   -1    0    0    0  501  0.00000000000E+00  0.00000000000E+00 -0.26195333715E+04  0.26195333715E+04  0.50400001928E-02 0. -1.
    10030    2    1    2    0    0  0.00000000000E+00  0.00000000000E+00 -0.13128249316E+04  0.39262418114E+04  0.37002520807E+04 0.  0.
        3    1    3    3  502    0 -0.38201030633E+03  0.17932288695E+03 -0.25677830770E+04  0.26022295272E+04  0.10100000352E+00 0. -1.
       -3    1    3    3    0  502  0.38201030633E+03 -0.17932288695E+03  0.12549581453E+04  0.13240122842E+04  0.10100000352E+00 0.  1.
</event>
<event>
 5   0  0.1856107E-08  0.3701257E+04  0.7818609E-02  0.8067683E-01
       -2   -1    0    0    0  501  0.00000000000E+00  0.00000000000E+00  0.14765768461E+04  0.14765768461E+04  0.25500000920E-02 0. -1.
        2   -1    0    0  501    0  0.00000000000E+00  0.00000000000E+00 -0.23194359310E+04  0.23194359310E+04  0.25500000920E-02 0.  1.
    10030    2    1    2    0    0  0.00000000000E+00  0.00000000000E+00 -0.84285908498E+03  0.37960127771E+04  0.37012567550E+04 0.  0.
        2    1    3    3  502    0 -0.64800317991E+03 -0.16725579320E+04 -0.88857616334E+03  0.20017306899E+04  0.25500000920E-02 0.  1.
       -2    1    3    3    0  502  0.64800317991E+03  0.16725579320E+04  0.45717078356E+02  0.17942820871E+04  0.25500000920E-02 0. -1.
</event>
<event>
 5   0  0.5714125E-09  0.3700233E+04  0.7818609E-02  0.8067910E-01
        1   -1    0    0  501    0  0.00000000000E+00  0.00000000000E+00  0.31188367120E+04  0.31188367120E+04  0.50400001928E-02 0. -1.
       -1   -1    0    0    0  501  0.00000000000E+00  0.00000000000E+00 -0.10975023332E+04  0.10975023332E+04  0.50400001928E-02 0.  1.
    10030    2    1    2    0    0  0.00000000000E+00  0.00000000000E+00  0.20213343788E+04  0.42163390452E+04  0.37002327323E+04 0.  0.
        4    1    3    3  502    0 -0.49671959391E+03  0.13902341532E+04  0.22813004803E+04  0.27173175836E+04  0.12699999809E+01 0. -1.
       -4    1    3    3    0  502  0.49671959391E+03 -0.13902341532E+04 -0.25996610153E+03  0.14990214617E+04  0.12699999809E+01 0.  1.
</event>
<event>
 5   0  0.5714125E-09  0.3699385E+04  0.7818609E-02  0.8068098E-01
        1   -1    0    0  501    0  0.00000000000E+00  0.00000000000E+00  0.15733263757E+04  0.15733263757E+04  0.50400001928E-02 0.  1.
       -1   -1    0    0    0  501  0.00000000000E+00  0.00000000000E+00 -0.21746045633E+04  0.21746045633E+04  0.50400001928E-02 0. -1.
    10030    2    1    2    0    0  0.00000000000E+00  0.00000000000E+00 -0.60127818763E+03  0.37479309390E+04  0.36993852009E+04 0.  0.
        5    1    3    3  502    0  0.32698626002E+03  0.98089000206E+03  0.12532002357E+04  0.16246840096E+04  0.46999998093E+01 0.  1.
       -5    1    3    3    0  502 -0.32698626002E+03 -0.98089000206E+03 -0.18544784233E+04  0.21232469294E+04  0.46999998093E+01 0. -1.
</event>
<event>
 5   0  0.5714125E-09  0.3700539E+04  0.7818609E-02  0.8067842E-01
       -1   -1    0    0    0  501  0.00000000000E+00  0.00000000000E+00  0.20475561073E+04  0.20475561074E+04  0.50400001928E-02 0.  1.
        1   -1    0    0  501    0  0.00000000000E+00  0.00000000000E+00 -0.16719917708E+04  0.16719917708E+04  0.50400001928E-02 0. -1.
    10030    2    1    2    0    0  0.00000000000E+00  0.00000000000E+00  0.37556433658E+03  0.37195478781E+04  0.37005388590E+04 0.  0.
        1    1    3    3  502    0 -0.78913978720E+03  0.14924974873E+04 -0.57321103617E+03  0.17829361305E+04  0.50400001928E-02 0. -1.
       -1    1    3    3    0  502  0.78913978720E+03 -0.14924974873E+04  0.94877537274E+03  0.19366117477E+04  0.50400001928E-02 0.  1.
</event>
<event>
 5   0  0.5714125E-09  0.3698672E+04  0.7818609E-02  0.8068256E-01
       -1   -1    0    0    0  501  0.00000000000E+00  0.00000000000E+00  0.13607468963E+04  0.13607468963E+04  0.50400001928E-02 0. -1.
        1   -1    0    0  501    0  0.00000000000E+00  0.00000000000E+00 -0.25133572304E+04  0.25133572304E+04  0.50400001928E-02 0.  1.
    10030    2    1    2    0    0  0.00000000000E+00  0.00000000000E+00 -0.11526103341E+04  0.38741041268E+04  0.36986716808E+04 0.  0.
        2    1    3    3  502    0 -0.11697353535E+04  0.13359017286E+04 -0.11176648189E+04  0.20981155529E+04  0.25500000920E-02 0. -1.
       -2    1    3    3    0  502  0.11697353535E+04 -0.13359017286E+04 -0.34945515194E+02  0.17759885739E+04  0.25500000920E-02 0.  1.
</event>
<event>
 5   0  0.1757996E-08  0.3699774E+04  0.7818609E-02  0.8068012E-01
        2   -1    0    0  501    0  0.00000000000E+00  0.00000000000E+00  0.19574434470E+04  0.19574434470E+04  0.25500000920E-02 0. -1.
       -2   -1    0    0    0  501  0.00000000000E+00  0.00000000000E+00 -0.17482408755E+04  0.17482408755E+04  0.25500000920E-02 0.  1.
    10030    2    1    2    0    0  0.00000000000E+00  0.00000000000E+00  0.20920257155E+03  0.37056843225E+04  0.36997743961E+04 0.  0.
        3    1    3    3  502    0 -0.15716086311E+04 -0.70939628568E+03 -0.56645838298E+03  0.18149578203E+04  0.10100000352E+00 0. -1.
       -3    1    3    3    0  502  0.15716086311E+04  0.70939628568E+03  0.77566095453E+03  0.18907265022E+04  0.10100000352E+00 0.  1.
</event>
<event>
 5   0  0.1725865E-08  0.3700233E+04  0.7818609E-02  0.8067910E-01
        2   -1    0    0  501    0  0.00000000000E+00  0.00000000000E+00  0.12649378469E+04  0.12649378469E+04  0.25500000920E-02 0. -1.
       -2   -1    0    0    0  501  0.00000000000E+00  0.00000000000E+00 -0.27060071430E+04  0.27060071430E+04  0.25500000920E-02 0.  1.
    10030    2    1    2    0    0  0.00000000000E+00  0.00000000000E+00 -0.14410692961E+04  0.39709449898E+04  0.37002328840E+04 0.  0.
        1    1    3    3  502    0 -0.18002516362E+02 -0.18409812277E+04 -0.52442238964E+03  0.19143026966E+04  0.50400001928E-02 0. -1.
       -1    1    3    3    0  502  0.18002516362E+02  0.18409812277E+04 -0.91664690650E+03  0.20566422933E+04  0.50400001928E-02 0.  1.
</event>
<event>
 5   0  0.5714125E-09  0.3688893E+04  0.7818609E-02  0.8070428E-01
       -1   -1    0    0    0  501  0.00000000000E+00  0.00000000000E+00  0.18357978064E+04  0.18357978064E+04  0.50400001928E-02 0.  1.
        1   -1    0    0  501    0  0.00000000000E+00  0.00000000000E+00 -0.18531359461E+04  0.18531359461E+04  0.50400001928E-02 0. -1.
    10030    2    1    2    0    0  0.00000000000E+00  0.00000000000E+00 -0.17338139638E+02  0.36889337525E+04  0.36888930073E+04 0.  0.
        2    1    3    3  502    0  0.16018472363E+04  0.32062211132E+03 -0.86499026920E+03  0.18484916209E+04  0.25500000920E-02 0. -1.
       -2    1    3    3    0  502 -0.16018472363E+04 -0.32062211132E+03  0.84765212957E+03  0.18404421316E+04  0.25500000920E-02 0.  1.
</event>
<event>
 5   0  0.5714125E-09  0.3700147E+04  0.7818609E-02  0.8067929E-01
       -1   -1    0    0    0  501  0.00000000000E+00  0.00000000000E+00  0.19303262943E+04  0.19303262943E+04  0.50400001928E-02 0.  1.
        1   -1    0    0  501    0  0.00000000000E+00  0.00000000000E+00 -0.17731567526E+04  0.17731567526E+04  0.50400001928E-02 0. -1.
    10030    2    1    2    0    0  0.00000000000E+00  0.00000000000E+00  0.15716954177E+03  0.37034830469E+04  0.37001465395E+04 0.  0.
        4    1    3    3  502    0 -0.95990985599E+03 -0.31109002804E+03  0.16306492067E+04  0.19176085068E+04  0.12699999809E+01 0.  1.
       -4    1    3    3    0  502  0.95990985599E+03  0.31109002804E+03 -0.14734796649E+04  0.17858745401E+04  0.12699999809E+01 0. -1.
</event>
<event>
 5   0  0.5714125E-09  0.3703469E+04  0.7818609E-02  0.8067194E-01
        1   -1    0    0  501    0  0.00000000000E+00  0.00000000000E+00  0.20924982414E+04  0.20924982414E+04  0.50400001928E-02 0.  1.
       -1   -1    0    0    0  501  0.00000000000E+00  0.00000000000E+00 -0.16386730262E+04  0.16386730262E+04  0.50400001928E-02 0. -1.
    10030    2    1    2    0    0  0.00000000000E+00  0.00000000000E+00  0.45382521523E+03  0.37311712676E+04  0.37034688742E+04 0.  0.
        3    1    3    3  502    0  0.76349504164E+03 -0.16841093503E+04  0.32650258139E+03  0.18776988385E+04  0.10100000352E+00 0.  1.
       -3    1    3    3    0  502 -0.76349504164E+03  0.16841093503E+04  0.12732263383E+03  0.18534724291E+04  0.10100000352E+00 0. -1.
</event>
<event>
 5   0  0.5714125E-09  0.3693706E+04  0.7818609E-02  0.8069358E-01
       -1   -1    0    0    0  501  0.00000000000E+00  0.00000000000E+00  0.16067604842E+04  0.16067604842E+04  0.50400001928E-02 0. -1.
        1   -1    0    0  501    0  0.00000000000E+00  0.00000000000E+00 -0.21228218176E+04  0.21228218176E+04  0.50400001928E-02 0.  1.
    10030    2    1    2    0    0  0.00000000000E+00  0.00000000000E+00 -0.51606133335E+03  0.37295823018E+04  0.36937061126E+04 0.  0.
        4    1    3    3  502    0  0.70494704794E+02  0.17280255724E+04  0.39619988955E+03  0.17742654389E+04  0.12699999809E+01 0.  1.
       -4    1    3    3    0  502 -0.70494704794E+02 -0.17280255724E+04 -0.91226122290E+03  0.19553168628E+04  0.12699999809E+01 0. -1.
</event>
<event>
 5   0  0.1856107E-08  0.3702303E+04  0.7818609E-02  0.8067452E-01
       -2   -1    0    0    0  501  0.00000000000E+00  0.00000000000E+00  0.18064103415E+04  0.18064103415E+04  0.25500000920E-02 0. -1.
        2   -1    0    0  501    0  0.00000000000E+00  0.00000000000E+00 -0.18970006704E+04  0.18970006704E+04  0.25500000920E-02 0.  1.
    10030    2    1    2    0    0  0.00000000000E+00  0.00000000000E+00 -0.90590328881E+02  0.37034110119E+04  0.37023028665E+04 0.  0.
        2    1    3    3  502    0  0.12604385372E+04 -0.56232449895E+03  0.11887059023E+04  0.18215202086E+04  0.25500000920E-02 0. -1.
       -2    1    3    3    0  502 -0.12604385372E+04  0.56232449895E+03 -0.12792962312E+04  0.18818908033E+04  0.25500000920E-02 0.  1.
</event>
<event>
 5   0  0.1725865E-08  0.3700200E+04  0.7818609E-02  0.8067917E-01
       -2   -1    0    0    0  501  0.00000000000E+00  0.00000000000E+00  0.17280570118E+04  0.17280570118E+04  0.25500000920E-02 0. -1.
        2   -1    0    0  501    0  0.00000000000E+00  0.00000000000E+00 -0.19807626113E+04  0.19807626113E+04  0.25500000920E-02 0.  1.
    10030    2    1    2    0    0  0.00000000000E+00  0.00000000000E+00 -0.25270559946E+03  0.37088196231E+04  0.37002003833E+04 0.  0.
        1    1    3    3  502    0 -0.11128358089E+04  0.11787652965E+04 -0.10200459902E+04  0.19153028439E+04  0.50400001928E-02 0.  1.
       -1    1    3    3    0  502  0.11128358089E+04 -0.11787652965E+04  0.76734039076E+03  0.17935167792E+04  0.50400001928E-02 0. -1.
</event>
<event>
 5   0  0.5714125E-09  0.3699529E+04  0.7818609E-02  0.8068066E-01
       -1   -1    0    0    0  501  0.00000000000E+00  0.00000000000E+00  0.28875267229E+04  0.28875267229E+04  0.50400001928E-02 0.  1.
        1   -1    0    0  501    0  0.00000000000E+00  0.00000000000E+00 -0.11849686259E+04  0.11849686259E+04  0.50400001928E-02 0. -1.
    10030    2    1    2    0    0  0.00000000000E+00  0.00000000000E+00  0.17025580970E+04  0.40724953489E+04  0.36995289285E+04 0.  0.
        1    1    3    3  502    0 -0.37833776279E+03 -0.21301046595E+03 -0.11280809506E+04  0.12087512368E+04  0.50400001928E-02 0. -1.
       -1    1    3    3    0  502  0.37833776279E+03  0.21301046595E+03  0.28306390476E+04  0.28637441120E+04  0.50400001928E-02 0.  1.
</event>
<event>
 5   0  0.1856107E-08  0.3702795E+04  0.7818609E-02  0.8067343E-01
       -2   -1    0    0    0  501  0.00000000000E+00  0.00000000000E+00  0.15563895523E+04  0.15563895523E+04  0.25500000920E-02 0. -1.
        2   -1    0    0  501    0  0.00000000000E+00  0.00000000000E+00 -0.22023235404E+04  0.22023235404E+04  0.25500000920E-02 0.  1.
    10030    2    1    2    0    0  0.00000000000E+00  0.00000000000E+00 -0.64593398810E+03  0.37587130926E+04  0.37027953489E+04 0.  0.
        2    1    3    3  502    0 -0.51982604227E+03  0.14607204162E+04  0.70411814611E+03  0.17028521991E+04  0.25500000920E-02 0. -1.
       -2    1    3    3    0  502  0.51982604227E+03 -0.14607204162E+04 -0.13500521342E+04  0.20558608935E+04  0.25500000920E-02 0.  1.
</event>
<event>
 5   0  0.5714125E-09  0.3700410E+04  0.7818609E-02  0.8067871E-01
        1   -1    0    0  501    0  0.00000000000E+00  0.00000000000E+00  0.19841704640E+04  0.19841704640E+04  0.50400001928E-02 0. -1.
       -1   -1    0    0    0  501  0.00000000000E+00  0.00000000000E+00 -0.17252848406E+04  0.17252848406E+04  0.50400001928E-02 0.  1.
    10030    2    1    2    0    0  0.00000000000E+00  0.00000000000E+00  0.25888562339E+03  0.37094553047E+04  0.37004103680E+04 0.  0.
        3    1    3    3  502    0  0.28382606816E+03  0.63210762108E+03  0.18491949440E+04  0.19747504229E+04  0.10100000352E+00 0. -1.
       -3    1    3    3    0  502 -0.28382606816E+03 -0.63210762108E+03 -0.15903093206E+04  0.17347048818E+04  0.10100000352E+00 0.  1.
</event>
<event>
 5   0  0.1725865E-08  0.3699120E+04  0.7818609E-02  0.8068157E-01
       -2   -1    0    0    0  501  0.00000000000E+00  0.00000000000E+00  0.13644150555E+04  0.13644150555E+04  0.25500000920E-02 0. -1.
        2   -1    0    0  501    0  0.00000000000E+00  0.00000000000E+00 -0.25072078113E+04  0.25072078113E+04  0.25500000920E-02 0.  1.
    10030    2    1    2    0    0  0.00000000000E+00  0.00000000000E+00 -0.11427927558E+04  0.38716228668E+04  0.36991199413E+04 0.  0.
        1    1    3    3  502    0  0.11933239029E+04 -0.13651761337E+04 -0.18949090987E+03  0.18230838209E+04  0.50400001928E-02 0.  1.
       -1    1    3    3    0  502 -0.11933239029E+04  0.13651761337E+04 -0.95330184596E+03  0.20485390459E+04  0.50400001928E-02 0. -1.
</event>
<event>
 5   0  0.5714125E-09  0.3702128E+04  0.7818609E-02  0.8067490E-01
       -1   -1    0    0    0  501  0.00000000000E+00  0.00000000000E+00  0.13641507270E+04  0.13641507270E+04  0.50400001928E-02 0. -1.
        1   -1    0    0  501    0  0.00000000000E+00  0.00000000000E+00 -0.25117734515E+04  0.25117734515E+04  0.50400001928E-02 0.  1.
    10030    2    1    2    0    0  0.00000000000E+00  0.00000000000E+00 -0.11476227245E+04  0.38759241785E+04  0.37021278097E+04 0.  0.
        3    1    3    3  502    0 -0.12804060225E+02 -0.75597166583E+03  0.11951169091E+04  0.14141999647E+04  0.10100000352E+00 0. -1.
       -3    1    3    3    0  502  0.12804060225E+02  0.75597166583E+03 -0.23427396336E+04  0.24617242138E+04  0.10100000352E+00 0.  1.
</event>
<event>
 5   0  0.1740290E-08  0.3707755E+04  0.7818609E-02  0.8066245E-01
       -2   -1    0    0    0  501  0.00000000000E+00  0.00000000000E+00  0.31559500204E+04  0.31559500204E+04  0.25500000920E-02 0. -1.
        2   -1    0    0  501    0  0.00000000000E+00  0.00000000000E+00 -0.10890102342E+04  0.10890102342E+04  0.25500000920E-02 0.  1.
    10030    2    1    2    0    0  0.00000000000E+00  0.00000000000E+00  0.20669397862E+04  0.42449602546E+04  0.37077550463E+04 0.  0.
        5    1    3    3  502    0 -0.75971899097E+03  0.11298714993E+04  0.24739620617E+04  0.28238790560E+04  0.46999998093E+01 0. -1.
       -5    1    3    3    0  502  0.75971899097E+03 -0.11298714993E+04 -0.40702227549E+03  0.14210811986E+04  0.46999998093E+01 0.  1.
</event>
<event>
 5   0  0.1725865E-08  0.3702370E+04  0.7818609E-02  0.8067437E-01
       -2   -1    0    0    0  501  0.00000000000E+00  0.00000000000E+00  0.14284401050E+04  0.14284401050E+04  0.25500000920E-02 0.  1.
        2   -1    0    0  501    0  0.00000000000E+00  0.00000000000E+00 -0.23990412367E+04  0.23990412367E+04  0.25500000920E-02 0. -1.
    10030    2    1    2    0    0  0.00000000000E+00  0.00000000000E+00 -0.97060113179E+03  0.38274813417E+04  0.37023704385E+04 0.  0.
        1    1    3    3  502    0 -0.16344460742E+03 -0.16419510177E+04 -0.13528051866E+04  0.21337289325E+04  0.50400001928E-02 0. -1.
       -1    1    3    3    0  502  0.16344460742E+03  0.16419510177E+04  0.38220405485E+03  0.16937524092E+04  0.50400001928E-02 0.  1.
</event>
<event>
 5   0  0.5714125E-09  0.3699560E+04  0.7818609E-02  0.8068059E-01
        1   -1    0    0  501    0  0.00000000000E+00  0.00000000000E+00  0.24247460405E+04  0.24247460405E+04  0.50400001928E-02 0. -1.
       -1   -1    0    0    0  501  0.00000000000E+00  0.00000000000E+00 -0.14111525452E+04  0.14111525452E+04  0.50400001928E-02 0.  1.
    10030    2    1    2    0    0  0.00000000000E+00  0.00000000000E+00  0.10135934953E+04  0.38358985857E+04  0.36995602693E+04 0.  0.
        2    1    3    3  502    0 -0.15588816102E+03  0.82215216736E+03 -0.12036804492E+04  0.14659747368E+04  0.25500000920E-02 0.  1.
       -2    1    3    3    0  502  0.15588816102E+03 -0.82215216736E+03  0.22172739445E+04  0.23699238490E+04  0.25500000920E-02 0. -1.
</event>
<event>
 5   0  0.1856107E-08  0.3700632E+04  0.7818609E-02  0.8067822E-01
        2   -1    0    0  501    0  0.00000000000E+00  0.00000000000E+00  0.25820107609E+04  0.25820107609E+04  0.25500000920E-02 0. -1.
       -2   -1    0    0    0  501  0.00000000000E+00  0.00000000000E+00 -0.13259703210E+04  0.13259703210E+04  0.25500000920E-02 0.  1.
    10030    2    1    2    0    0  0.00000000000E+00  0.00000000000E+00  0.12560404399E+04  0.39079810819E+04  0.37006321824E+04 0.  0.
        2    1    3    3  502    0  0.48097100402E+03  0.13119633659E+04  0.19088633841E+04  0.23656585551E+04  0.25500000920E-02 0.  1.
       -2    1    3    3    0  502 -0.48097100402E+03 -0.13119633659E+04 -0.65282294421E+03  0.15423225268E+04  0.25500000920E-02 0. -1.
</event>
<event>
 5   0  0.1725865E-08  0.3699250E+04  0.7818609E-02  0.8068128E-01
        2   -1    0    0  501    0  0.00000000000E+00  0.00000000000E+00  0.21149734914E+04  0.21149734914E+04  0.25500000920E-02 0. -1.
       -2   -1    0    0    0  501  0.00000000000E+00  0.00000000000E+00 -0.16175673175E+04  0.16175673175E+04  0.25500000920E-02 0.  1.
    10030    2    1    2    0    0  0.00000000000E+00  0.00000000000E+00  0.49740617392E+03  0.37325408089E+04  0.36992496521E+04 0.  0.
        1    1    3    3  502    0 -0.20711191269E+03  0.48262600627E+03 -0.15407535824E+04  0.16278036761E+04  0.50400001928E-02 0.  1.
       -1    1    3    3    0  502  0.20711191269E+03 -0.48262600627E+03  0.20381597563E+04  0.21047371329E+04  0.50400001928E-02 0. -1.
</event>
<event>
 5   0  0.5714125E-09  0.3701361E+04  0.7818609E-02  0.8067660E-01
       -1   -1    0    0    0  501  0.00000000000E+00  0.00000000000E+00  0.17154275899E+04  0.17154275899E+04  0.50400001928E-02 0. -1.
        1   -1    0    0  501    0  0.00000000000E+00  0.00000000000E+00 -0.19965976559E+04  0.19965976559E+04  0.50400001928E-02 0.  1.
    10030    2    1    2    0    0  0.00000000000E+00  0.00000000000E+00 -0.28117006606E+03  0.37120252458E+04  0.37013612117E+04 0.  0.
        2    1    3    3  502    0 -0.30514596783E+03  0.91560450915E+03  0.14430696794E+04  0.17360575389E+04  0.25500000920E-02 0. -1.
       -2    1    3    3    0  502  0.30514596783E+03 -0.91560450915E+03 -0.17242397455E+04  0.19759677069E+04  0.25500000920E-02 0.  1.
</event>
<event>
 5   0  0.5714125E-09  0.3701495E+04  0.7818609E-02  0.8067631E-01
        1   -1    0    0  501    0  0.00000000000E+00  0.00000000000E+00  0.11408760669E+04  0.11408760669E+04  0.50400001928E-02 0.  1.
       -1   -1    0    0    0  501  0.00000000000E+00  0.00000000000E+00 -0.30023116107E+04  0.30023116107E+04  0.50400001928E-02 0. -1.
    10030    2    1    2    0    0  0.00000000000E+00  0.00000000000E+00 -0.18614355439E+04  0.41431876776E+04  0.37014945425E+04 0.  0.
        4    1    3    3  502    0  0.66613527074E+03 -0.16722363262E+04 -0.14123585444E+04  0.22879835665E+04  0.12699999809E+01 0.  1.
       -4    1    3    3    0  502 -0.66613527074E+03  0.16722363262E+04 -0.44907699951E+03  0.18552041112E+04  0.12699999809E+01 0. -1.
</event>
<event>
 5   0  0.1740290E-08  0.3697177E+04  0.7818609E-02  0.8068588E-01
       -2   -1    0    0    0  501  0.00000000000E+00  0.00000000000E+00  0.19834762156E+04  0.19834762156E+04  0.25500000920E-02 0. -1.
        2   -1    0    0  501    0  0.00000000000E+00  0.00000000000E+00 -0.17228736030E+04  0.17228736030E+04  0.25500000920E-02 0.  1.
    10030    2    1    2    0    0  0.00000000000E+00  0.00000000000E+00  0.26060261262E+03  0.37063498186E+04  0.36971766601E+04 0.  0.
        5    1    3    3  502    0  0.12126703057E+04  0.90797540618E+03 -0.93169869350E+03  0.17785030655E+04  0.46999998093E+01 0.  1.
       -5    1    3    3    0  502 -0.12126703057E+04 -0.90797540618E+03  0.11923013061E+04  0.19278467530E+04  0.46999998093E+01 0. -1.
</event>
<event>
 5   0  0.5714125E-09  0.3699612E+04  0.7818609E-02  0.8068048E-01
       -1   -1    0    0    0  501  0.00000000000E+00  0.00000000000E+00  0.18232734687E+04  0.18232734687E+04  0.50400001928E-02 0.  1.
        1   -1    0    0  501    0  0.00000000000E+00  0.00000000000E+00 -0.18767242073E+04  0.18767242073E+04  0.50400001928E-02 0. -1.
    10030    2    1    2    0    0  0.00000000000E+00  0.00000000000E+00 -0.53450738564E+02  0.36999976760E+04  0.36996115770E+04 0.  0.
        5    1    3    3  502    0 -0.32335401654E+03  0.18067327160E+04 -0.25678945647E+03  0.18533223794E+04  0.46999998093E+01 0. -1.
       -5    1    3    3    0  502  0.32335401654E+03 -0.18067327160E+04  0.20333871790E+03  0.18466752966E+04  0.46999998093E+01 0.  1.
</event>
<event>
 5   0  0.5714125E-09  0.3696899E+04  0.7818609E-02  0.8068649E-01
        1   -1    0    0  501    0  0.00000000000E+00  0.00000000000E+00  0.15968372580E+04  0.15968372580E+04  0.50400001928E-02 0.  1.
       -1   -1    0    0    0  501  0.00000000000E+00  0.00000000000E+00 -0.21397075255E+04  0.21397075255E+04  0.50400001928E-02 0. -1.
    10030    2    1    2    0    0  0.00000000000E+00  0.00000000000E+00 -0.54287026752E+03  0.37365447835E+04  0.36968985368E+04 0.  0.
        3    1    3    3  502    0  0.87864311090E+03  0.12921002566E+04  0.72669167105E+03  0.17232578403E+04  0.10100000352E+00 0.  1.
       -3    1    3    3    0  502 -0.87864311090E+03 -0.12921002566E+04 -0.12695619386E+04  0.20132869431E+04  0.10100000352E+00 0. -1.
</event>
<event>
 5   0  0.1757996E-08  0.3699129E+04  0.7818609E-02  0.8068155E-01
       -2   -1    0    0    0  501  0.00000000000E+00  0.00000000000E+00  0.16027064600E+04  0.16027064600E+04  0.25500000920E-02 0. -1.
        2   -1    0    0  501    0  0.00000000000E+00  0.00000000000E+00 -0.21344454932E+04  0.21344454932E+04  0.25500000920E-02 0.  1.
    10030    2    1    2    0    0  0.00000000000E+00  0.00000000000E+00 -0.53173903324E+03  0.37371519532E+04  0.36991294005E+04 0.  0.
        3    1    3    3  502    0  0.87102853877E+03  0.14211949596E+04  0.54386986902E+03  0.17533625618E+04  0.10100000352E+00 0. -1.
       -3    1    3    3    0  502 -0.87102853877E+03 -0.14211949596E+04 -0.10756089023E+04  0.19837893914E+04  0.10100000352E+00 0.  1.
</event>
<event>
 5   0  0.1740290E-08  0.3698779E+04  0.7818609E-02  0.8068232E-01
       -2   -1    0    0    0  501  0.00000000000E+00  0.00000000000E+00  0.15784655607E+04  0.15784655607E+04  0.25500000920E-02 0. -1.
        2   -1    0    0  501    0  0.00000000000E+00  0.00000000000E+00 -0.21668140908E+04  0.21668140908E+04  0.25500000920E-02 0.  1.
    10030    2    1    2    0    0  0.00000000000E+00  0.00000000000E+00 -0.58834853013E+03  0.37452796516E+04  0.36987789438E+04 0.  0.
        5    1    3    3  502    0  0.98838407823E+03  0.12074903874E+04  0.71091912024E+03  0.17147490216E+04  0.46999998093E+01 0. -1.
       -5    1    3    3    0  502 -0.98838407823E+03 -0.12074903874E+04 -0.12992676504E+04  0.20305306299E+04  0.46999998093E+01 0.  1.
</event>
<event>
 5   0  0.5714125E-09  0.3699191E+04  0.7818609E-02  0.8068141E-01
       -1   -1    0    0    0  501  0.00000000000E+00  0.00000000000E+00  0.18672586693E+04  0.18672586693E+04  0.50400001928E-02 0.  1.
        1   -1    0    0  501    0  0.00000000000E+00  0.00000000000E+00 -0.18320996470E+04  0.18320996470E+04  0.50400001928E-02 0. -1.
    10030    2    1    2    0    0  0.00000000000E+00  0.00000000000E+00  0.35159022252E+02  0.36993583163E+04  0.36991912353E+04 0.  0.
        5    1    3    3  502    0  0.40381440251E+03  0.14014119610E+04  0.11551546487E+04  0.18604907709E+04  0.46999998093E+01 0.  1.
       -5    1    3    3    0  502 -0.40381440251E+03 -0.14014119610E+04 -0.11199956265E+04  0.18388675454E+04  0.46999998093E+01 0. -1.
</event>
<event>
 5   0  0.5714125E-09  0.3698499E+04  0.7818609E-02  0.8068294E-01
        1   -1    0    0  501    0  0.00000000000E+00  0.00000000000E+00  0.11279833936E+04  0.11279833936E+04  0.50400001928E-02 0.  1.
       -1   -1    0    0    0  501  0.00000000000E+00  0.00000000000E+00 -0.30317152716E+04  0.30317152716E+04  0.50400001928E-02 0. -1.
    10030    2    1    2    0    0  0.00000000000E+00  0.00000000000E+00 -0.19037318780E+04  0.41596986652E+04  0.36984994149E+04 0.  0.
        2    1    3    3  502    0 -0.82488176947E+03 -0.10038778191E+04 -0.24318279173E+04  0.27571702212E+04  0.25500000920E-02 0. -1.
       -2    1    3    3    0  502  0.82488176947E+03  0.10038778191E+04  0.52809603931E+03  0.14025284440E+04  0.25500000920E-02 0.  1.
</event>
<event>
 5   0  0.1825308E-08  0.3702991E+04  0.7818609E-02  0.8067299E-01
        2   -1    0    0  501    0  0.00000000000E+00  0.00000000000E+00  0.25621271693E+04  0.25621271693E+04  0.25500000920E-02 0. -1.
       -2   -1    0    0    0  501  0.00000000000E+00  0.00000000000E+00 -0.13379643893E+04  0.13379643893E+04  0.25500000920E-02 0.  1.
    10030    2    1    2    0    0  0.00000000000E+00  0.00000000000E+00  0.12241627800E+04  0.39000915586E+04  0.37029906364E+04 0.  0.
        4    1    3    3  502    0 -0.10046698478E+04  0.29241519520E+03  0.22208549842E+04  0.24550084772E+04  0.12699999809E+01 0. -1.
       -4    1    3    3    0  502  0.10046698478E+04 -0.29241519520E+03 -0.99669220411E+03  0.14450830814E+04  0.12699999809E+01 0.  1.
</event>
<event>
 5   0  0.1740290E-08  0.3699274E+04  0.7818609E-02  0.8068123E-01
       -2   -1    0    0    0  501  0.00000000000E+00  0.00000000000E+00  0.11240097000E+04  0.11240097000E+04  0.25500000920E-02 0.  1.
        2   -1    0    0  501    0  0.00000000000E+00  0.00000000000E+00 -0.30437073599E+04  0.30437073599E+04  0.25500000920E-02 0. -1.
    10030    2    1    2    0    0  0.00000000000E+00  0.00000000000E+00 -0.19196976598E+04  0.41677170599E+04  0.36992737647E+04 0.  0.
        5    1    3    3  502    0 -0.15899569598E+04 -0.14234573747E+03 -0.20124558368E+04  0.25687012337E+04  0.46999998093E+01 0. -1.
       -5    1    3    3    0  502  0.15899569598E+04  0.14234573747E+03  0.92758177004E+02  0.15990158262E+04  0.46999998093E+01 0.  1.
</event>
<event>
 5   0  0.5714125E-09  0.3701920E+04  0.7818609E-02  0.8067537E-01
       -1   -1    0    0    0  501  0.00000000000E+00  0.00000000000E+00  0.19308746715E+04  0.19308746716E+04  0.50400001928E-02 0.  1.
        1   -1    0    0  501    0  0.00000000000E+00  0.00000000000E+00 -0.17743524239E+04  0.17743524239E+04  0.50400001928E-02 0. -1.
    10030    2    1    2    0    0  0.00000000000E+00  0.00000000000E+00  0.15652224767E+03  0.37052270954E+04  0.37019195851E+04 0.  0.
        1    1    3    3  502    0 -0.76869209250E+03  0.12646249945E+04  0.11909594923E+04  0.18996179675E+04  0.50400001928E-02 0.  1.
       -1    1    3    3    0  502  0.76869209250E+03 -0.12646249945E+04 -0.10344372447E+04  0.18056091280E+04  0.50400001928E-02 0. -1.
</event>
<event>
 5   0  0.1856107E-08  0.3700920E+04  0.7818609E-02  0.8067758E-01
       -2   -1    0    0    0  501  0.00000000000E+00  0.00000000000E+00  0.23253594101E+04  0.23253594101E+04  0.25500000920E-02 0. -1.
        2   -1    0    0  501    0  0.00000000000E+00  0.00000000000E+00 -0.14725471176E+04  0.14725471176E+04  0.25500000920E-02 0.  1.
    10030    2    1    2    0    0  0.00000000000E+00  0.00000000000E+00  0.85281229253E+03  0.37979065277E+04  0.37009195056E+04 0.  0.
        2    1    3    3  502    0  0.12320548988E+04  0.11400455589E+04 -0.37280897565E+03  0.17194911114E+04  0.25500000920E-02 0.  1.
       -2    1    3    3    0  502 -0.12320548988E+04 -0.11400455589E+04  0.12256212682E+04  0.20784154163E+04  0.25500000920E-02 0. -1.
</event>
<event>
 5   0  0.5714125E-09  0.3698335E+04  0.7818609E-02  0.8068331E-01
       -1   -1    0    0    0  501  0.00000000000E+00  0.00000000000E+00  0.21601724752E+04  0.21601724752E+04  0.50400001928E-02 0.  1.
        1   -1    0    0  501    0  0.00000000000E+00  0.00000000000E+00 -0.15829382722E+04  0.15829382722E+04  0.50400001928E-02 0. -1.
    10030    2    1    2    0    0  0.00000000000E+00  0.00000000000E+00  0.57723420298E+03  0.37431107473E+04  0.36983345903E+04 0.  0.
        2    1    3    3  502    0 -0.15186297228E+04 -0.10430295406E+04  0.44951612093E+03  0.18963680024E+04  0.25500000920E-02 0.  1.
       -2    1    3    3    0  502  0.15186297228E+04  0.10430295406E+04  0.12771808205E+03  0.18467427450E+04  0.25500000920E-02 0. -1.
</event>
<event>
 5   0  0.1725865E-08  0.3702711E+04  0.7818609E-02  0.8067361E-01
        2   -1    0    0  501    0  0.00000000000E+00  0.00000000000E+00  0.17137688360E+04  0.17137688360E+04  0.25500000920E-02 0. -1.
       -2   -1    0    0    0  501  0.00000000000E+00  0.00000000000E+00 -0.19999882223E+04  0.19999882223E+04  0.25500000920E-02 0.  1.
    10030    2    1    2    0    0  0.00000000000E+00  0.00000000000E+00 -0.28621938635E+03  0.37137570583E+04  0.37027111622E+04 0.  0.
        1    1    3    3  502    0  0.51273059971E+03  0.17368134618E+04  0.24288095523E+03  0.18271302164E+04  0.50400001928E-02 0. -1.
       -1    1    3    3    0  502 -0.51273059971E+03 -0.17368134618E+04 -0.52910034158E+03  0.18866268419E+04  0.50400001928E-02 0.  1.
</event>
<event>
 5   0  0.5714125E-09  0.3700187E+04  0.7818609E-02  0.8067920E-01
       -1   -1    0    0    0  501  0.00000000000E+00  0.00000000000E+00  0.18148835664E+04  0.18148835664E+04  0.50400001928E-02 0.  1.
        1   -1    0    0  501    0  0.00000000000E+00  0.00000000000E+00 -0.18859862740E+04  0.18859862740E+04  0.50400001928E-02 0. -1.
    10030    2    1    2    0    0  0.00000000000E+00  0.00000000000E+00 -0.71102707636E+02  0.37008698404E+04  0.37001867494E+04 0.  0.
        3    1    3    3  502    0  0.36375534647E+03  0.88667364975E+03 -0.16183533338E+04  0.18808443945E+04  0.10100000352E+00 0. -1.
       -3    1    3    3    0  502 -0.36375534647E+03 -0.88667364975E+03  0.15472506261E+04  0.18200254458E+04  0.10100000352E+00 0.  1.
</event>
<event>
 5   0  0.5714125E-09  0.3699698E+04  0.7818609E-02  0.8068029E-01
        1   -1    0    0  501    0  0.00000000000E+00  0.00000000000E+00  0.13070255603E+04  0.13070255603E+04  0.50400001928E-02 0.  1.
       -1   -1    0    0    0  501  0.00000000000E+00  0.00000000000E+00 -0.26181131299E+04  0.26181131299E+04  0.50400001928E-02 0. -1.
    10030    2    1    2    0    0  0.00000000000E+00  0.00000000000E+00 -0.13110875696E+04  0.39251386902E+04  0.36996977068E+04 0.  0.
        3    1    3    3  502    0  0.71044921659E+03 -0.11090911839E+04 -0.20335833262E+04  0.24228665870E+04  0.10100000352E+00 0. -1.
       -3    1    3    3    0  502 -0.71044921659E+03  0.11090911839E+04  0.72249575658E+03  0.15022721032E+04  0.10100000352E+00 0.  1.
</event>
<event>
 5   0  0.1825308E-08  0.3699787E+04  0.7818609E-02  0.8068009E-01
       -2   -1    0    0    0  501  0.00000000000E+00  0.00000000000E+00  0.10306839933E+04  0.10306839933E+04  0.25500000920E-02 0.  1.
        2   -1    0    0  501    0  0.00000000000E+00  0.00000000000E+00 -0.33202281763E+04  0.33202281763E+04  0.25500000920E-02 0. -1.
    10030    2    1    2    0    0  0.00000000000E+00  0.00000000000E+00 -0.22895441830E+04  0.43509121696E+04  0.36997870401E+04 0.  0.
        4    1    3    3  502    0 -0.14694619785E+04 -0.49484873261E+03 -0.23312466180E+04  0.27998046684E+04  0.12699999809E+01 0. -1.
       -4    1    3    3    0  502  0.14694619785E+04  0.49484873261E+03  0.41702434991E+02  0.15511075012E+04  0.12699999809E+01 0.  1.
</event>
<event>
 5   0  0.1725865E-08  0.3699394E+04  0.7818609E-02  0.8068096E-01
        2   -1    0    0  501    0  0.00000000000E+00  0.00000000000E+00  0.23401022362E+04  0.23401022362E+04  0.25500000920E-02 0. -1.
       -2   -1    0    0    0  501  0.00000000000E+00  0.00000000000E+00 -0.14620642442E+04  0.14620642442E+04  0.25500000920E-02 0.  1.
    10030    2    1    2    0    0  0.00000000000E+00  0.00000000000E+00  0.87803799196E+03  0.38021664804E+04  0.36993944409E+04 0.  0.
        1    1    3    3  502    0 -0.25038133462E+03 -0.15364947086E+04 -0.58766815356E+03  0.16639893813E+04  0.50400001928E-02 0.  1.
       -1    1    3    3    0  502  0.25038133462E+03  0.15364947086E+04  0.14657061455E+04  0.21381770991E+04  0.50400001928E-02 0. -1.
</event>
<event>
 5   0  0.1740290E-08  0.3698041E+04  0.7818609E-02  0.8068396E-01
       -2   -1    0    0    0  501  0.00000000000E+00  0.00000000000E+00  0.11073818199E+04  0.11073818199E+04  0.25500000920E-02 0.  1.
        2   -1    0    0  501    0  0.00000000000E+00  0.00000000000E+00 -0.30873511330E+04  0.30873511330E+04  0.25500000920E-02 0. -1.
    10030    2    1    2    0    0  0.00000000000E+00  0.00000000000E+00 -0.19799693131E+04  0.41947329530E+04  0.36980408415E+04 0.  0.
        5    1    3    3  502    0 -0.88286152377E+03  0.86203895569E+03  0.57203321724E+03  0.13600734256E+04  0.46999998093E+01 0.  1.
       -5    1    3    3    0  502  0.88286152377E+03 -0.86203895569E+03 -0.25520025304E+04  0.28346595274E+04  0.46999998093E+01 0. -1.
</event>
<event>
 5   0  0.5714125E-09  0.3700628E+04  0.7818609E-02  0.8067823E-01
        1   -1    0    0  501    0  0.00000000000E+00  0.00000000000E+00  0.27738211112E+04  0.27738211112E+04  0.50400001928E-02 0.  1.
       -1   -1    0    0    0  501  0.00000000000E+00  0.00000000000E+00 -0.12342760642E+04  0.12342760642E+04  0.50400001928E-02 0. -1.
    10030    2    1    2    0    0  0.00000000000E+00  0.00000000000E+00  0.15395450470E+04  0.40080971754E+04  0.37006275165E+04 0.  0.
        4    1    3    3  502    0 -0.56602543321E+03  0.14034248913E+04  0.19229782857E+04  0.24470049687E+04  0.12699999809E+01 0. -1.
       -4    1    3    3    0  502  0.56602543321E+03 -0.14034248913E+04 -0.38343323872E+03  0.15610922068E+04  0.12699999809E+01 0.  1.
</event>
<event>
 5   0  0.5714125E-09  0.3700057E+04  0.7818609E-02  0.8067949E-01
       -1   -1    0    0    0  501  0.00000000000E+00  0.00000000000E+00  0.18536197650E+04  0.18536197650E+04  0.50400001928E-02 0.  1.
        1   -1    0    0  501    0  0.00000000000E+00  0.00000000000E+00 -0.18464442453E+04  0.18464442453E+04  0.50400001928E-02 0. -1.
    10030    2    1    2    0    0  0.00000000000E+00  0.00000000000E+00  0.71755197105E+01  0.37000640104E+04  0.37000570526E+04 0.  0.
        5    1    3    3  502    0  0.56829925684E+03  0.13354015649E+04 -0.11437251983E+04  0.18478070256E+04  0.46999998093E+01 0. -1.
       -5    1    3    3    0  502 -0.56829925684E+03 -0.13354015649E+04  0.11509007180E+04  0.18522569847E+04  0.46999998093E+01 0.  1.
</event>
<event>
 5   0  0.1856107E-08  0.3699961E+04  0.7818609E-02  0.8067970E-01
       -2   -1    0    0    0  501  0.00000000000E+00  0.00000000000E+00  0.21272418504E+04  0.21272418504E+04  0.25500000920E-02 0. -1.
        2   -1    0    0  501    0  0.00000000000E+00  0.00000000000E+00 -0.16088571843E+04  0.16088571843E+04  0.25500000920E-02 0.  1.
    10030    2    1    2    0    0  0.00000000000E+00  0.00000000000E+00  0.51838466612E+03  0.37360990347E+04  0.36999612613E+04 0.  0.
        2    1    3    3  502    0 -0.95555369936E+03  0.11052643874E+04  0.14050604545E+04  0.20270390029E+04  0.25500000920E-02 0. -1.
       -2    1    3    3    0  502  0.95555369936E+03 -0.11052643874E+04 -0.88667578840E+03  0.17090600318E+04  0.25500000920E-02 0.  1.
</event>
<event>
 5   0  0.5714125E-09  0.3696367E+04  0.7818609E-02  0.8068767E-01
        1   -1    0    0  501    0  0.00000000000E+00  0.00000000000E+00  0.21655909703E+04  0.21655909703E+04  0.50400001928E-02 0.  1.
       -1   -1    0    0    0  501  0.00000000000E+00  0.00000000000E+00 -0.15772982527E+04  0.15772982527E+04  0.50400001928E-02 0. -1.
    10030    2    1    2    0    0  0.00000000000E+00  0.00000000000E+00  0.58829271764E+03  0.37428892230E+04  0.36963673267E+04 0.  0.
        4    1    3    3  502    0 -0.58802214188E+03 -0.17508894960E+04  0.22700058640E+03  0.18608909011E+04  0.12699999809E+01 0. -1.
       -4    1    3    3    0  502  0.58802214188E+03  0.17508894960E+04  0.36129213124E+03  0.18819983219E+04  0.12699999809E+01 0.  1.
</event>
<event>
 5   0  0.1740290E-08  0.3700170E+04  0.7818609E-02  0.8067924E-01
       -2   -1    0    0    0  501  0.00000000000E+00  0.00000000000E+00  0.17782371916E+04  0.17782371916E+04  0.25500000920E-02 0.  1.
        2   -1    0    0  501    0  0.00000000000E+00  0.00000000000E+00 -0.19248359509E+04  0.19248359509E+04  0.25500000920E-02 0. -1.
    10030    2    1    2    0    0  0.00000000000E+00  0.00000000000E+00 -0.14659875931E+03  0.37030731425E+04  0.37001701992E+04 0.  0.
        5    1    3    3  502    0  0.38752521569E+03 -0.16508879772E+04 -0.81359985812E+03  0.18808438864E+04  0.46999998093E+01 0. -1.
       -5    1    3    3    0  502 -0.38752521569E+03  0.16508879772E+04  0.66700109880E+03  0.18222292561E+04  0.46999998093E+01 0.  1.
</event>
<event>
 5   0  0.5714125E-09  0.3696635E+04  0.7818609E-02  0.8068708E-01
       -1   -1    0    0    0  501  0.00000000000E+00  0.00000000000E+00  0.22650498969E+04  0.22650498969E+04  0.50400001928E-02 0.  1.
        1   -1    0    0  501    0  0.00000000000E+00  0.00000000000E+00 -0.15082574435E+04  0.15082574435E+04  0.50400001928E-02 0. -1.
    10030    2    1    2    0    0  0.00000000000E+00  0.00000000000E+00  0.75679245334E+03  0.37733073404E+04  0.36966354253E+04 0.  0.
        5    1    3    3  502    0  0.86821485691E+03 -0.11381004305E+04  0.15719155748E+04  0.21260315830E+04  0.46999998093E+01 0.  1.
       -5    1    3    3    0  502 -0.86821485691E+03  0.11381004305E+04 -0.81512312146E+03  0.16472757574E+04  0.46999998093E+01 0. -1.
</event>
<event>
 5   0  0.5714125E-09  0.3698447E+04  0.7818609E-02  0.8068306E-01
       -1   -1    0    0    0  501  0.00000000000E+00  0.00000000000E+00  0.30924132380E+04  0.30924132380E+04  0.50400001928E-02 0. -1.
        1   -1    0    0  501    0  0.00000000000E+00  0.00000000000E+00 -0.11058118712E+04  0.11058118712E+04  0.50400001928E-02 0.  1.
    10030    2    1    2    0    0  0.00000000000E+00  0.00000000000E+00  0.19866013668E+04  0.41982251093E+04  0.36984468467E+04 0.  0.
        1    1    3    3  502    0  0.13301552250E+04 -0.49082808544E+03  0.23409093744E+04  0.27368013869E+04  0.50400001928E-02 0. -1.
       -1    1    3    3    0  502 -0.13301552250E+04  0.49082808544E+03 -0.35430800763E+03  0.14614237224E+04  0.50400001928E-02 0.  1.
</event>
<event>
 5   0  0.1856107E-08  0.3699918E+04  0.7818609E-02  0.8067980E-01
       -2   -1    0    0    0  501  0.00000000000E+00  0.00000000000E+00  0.24584818665E+04  0.24584818665E+04  0.25500000920E-02 0. -1.
        2   -1    0    0  501    0  0.00000000000E+00  0.00000000000E+00 -0.13920579356E+04  0.13920579356E+04  0.25500000920E-02 0.  1.
    10030    2    1    2    0    0  0.00000000000E+00  0.00000000000E+00  0.10664239309E+04  0.38505398020E+04  0.36999184811E+04 0.  0.
        2    1    3    3  502    0 -0.17996012767E+04  0.42614937133E+03  0.58181598687E+03  0.19387309985E+04  0.25500000920E-02 0.  1.
       -2    1    3    3    0  502  0.17996012767E+04 -0.42614937133E+03  0.48460794402E+03  0.19118088036E+04  0.25500000920E-02 0. -1.
</event>
<event>
 5   0  0.5714125E-09  0.3698874E+04  0.7818609E-02  0.8068211E-01
        1   -1    0    0  501    0  0.00000000000E+00  0.00000000000E+00  0.24386614857E+04  0.24386614857E+04  0.50400001928E-02 0. -1.
       -1   -1    0    0    0  501  0.00000000000E+00  0.00000000000E+00 -0.14025800433E+04  0.14025800434E+04  0.50400001928E-02 0.  1.
    10030    2    1    2    0    0  0.00000000000E+00  0.00000000000E+00  0.10360814423E+04  0.38412415291E+04  0.36988743868E+04 0.  0.
        5    1    3    3  502    0  0.14867235141E+04 -0.10995874680E+04  0.48592410366E+03  0.19119580884E+04  0.46999998093E+01 0. -1.
       -5    1    3    3    0  502 -0.14867235141E+04  0.10995874680E+04  0.55015733868E+03  0.19292834407E+04  0.46999998093E+01 0.  1.
</event>
<event>
 5   0  0.1725865E-08  0.3697157E+04  0.7818609E-02  0.8068592E-01
        2   -1    0    0  501    0  0.00000000000E+00  0.00000000000E+00  0.10269494547E+04  0.10269494547E+04  0.25500000920E-02 0.  1.
       -2   -1    0    0    0  501  0.00000000000E+00  0.00000000000E+00 -0.33275670478E+04  0.33275670478E+04  0.25500000920E-02 0. -1.
    10030    2    1    2    0    0  0.00000000000E+00  0.00000000000E+00 -0.23006175932E+04  0.43545165025E+04  0.36971573757E+04 0.  0.
        1    1    3    3  502    0  0.17907114768E+04  0.24424853356E+03 -0.69272396074E+03  0.19355028869E+04  0.50400001928E-02 0.  1.
       -1    1    3    3    0  502 -0.17907114768E+04 -0.24424853356E+03 -0.16078936324E+04  0.24190136156E+04  0.50400001928E-02 0. -1.
</event>
<event>
 5   0  0.5714125E-09  0.3699612E+04  0.7818609E-02  0.8068048E-01
        1   -1    0    0  501    0  0.00000000000E+00  0.00000000000E+00  0.10661746428E+04  0.10661746428E+04  0.50400001928E-02 0.  1.
       -1   -1    0    0    0  501  0.00000000000E+00  0.00000000000E+00 -0.32094011682E+04  0.32094011682E+04  0.50400001928E-02 0. -1.
    10030    2    1    2    0    0  0.00000000000E+00  0.00000000000E+00 -0.21432265254E+04  0.42755758110E+04  0.36996119495E+04 0.  0.
        1    1    3    3  502    0  0.15884703893E+04 -0.76292417031E+03 -0.42145528096E+03  0.18118819004E+04  0.50400001928E-02 0. -1.
       -1    1    3    3    0  502 -0.15884703893E+04  0.76292417031E+03 -0.17217712444E+04  0.24636939106E+04  0.50400001928E-02 0.  1.
</event>
<event>
 5   0  0.5714125E-09  0.3702308E+04  0.7818609E-02  0.8067451E-01
        1   -1    0    0  501    0  0.00000000000E+00  0.00000000000E+00  0.11201708797E+04  0.11201708798E+04  0.50400001928E-02 0. -1.
       -1   -1    0    0    0  501  0.00000000000E+00  0.00000000000E+00 -0.30591502284E+04  0.30591502284E+04  0.50400001928E-02 0.  1.
    10030    2    1    2    0    0  0.00000000000E+00  0.00000000000E+00 -0.19389793486E+04  0.41793211081E+04  0.37023079303E+04 0.  0.
        2    1    3    3  502    0 -0.16736866348E+04  0.78422419289E+03 -0.85361708880E+03  0.20359019305E+04  0.25500000920E-02 0. -1.
       -2    1    3    3    0  502  0.16736866348E+04 -0.78422419289E+03 -0.10853622598E+04  0.21434191777E+04  0.25500000920E-02 0.  1.
</event>
<event>
 5   0  0.1825308E-08  0.3678952E+04  0.7818609E-02  0.8072642E-01
       -2   -1    0    0    0  501  0.00000000000E+00  0.00000000000E+00  0.14512568559E+04  0.14512568559E+04  0.25500000920E-02 0. -1.
        2   -1    0    0  501    0  0.00000000000E+00  0.00000000000E+00 -0.23315456137E+04  0.23315456137E+04  0.25500000920E-02 0.  1.
    10030    2    1    2    0    0  0.00000000000E+00  0.00000000000E+00 -0.88028875786E+03  0.37828024696E+04  0.36789517837E+04 0.  0.
        4    1    3    3  502    0  0.52966737718E+03 -0.14743348348E+04  0.55115477400E+03  0.16607178970E+04  0.12699999809E+01 0. -1.
       -4    1    3    3    0  502 -0.52966737718E+03  0.14743348348E+04 -0.14314435319E+04  0.21220845726E+04  0.12699999809E+01 0.  1.
</event>
<event>
 5   0  0.1856107E-08  0.3700049E+04  0.7818609E-02  0.8067951E-01
       -2   -1    0    0    0  501  0.00000000000E+00  0.00000000000E+00  0.12827503471E+04  0.12827503472E+04  0.25500000920E-02 0. -1.
        2   -1    0    0  501    0  0.00000000000E+00  0.00000000000E+00 -0.26681651369E+04  0.26681651369E+04  0.25500000920E-02 0.  1.
    10030    2    1    2    0    0  0.00000000000E+00  0.00000000000E+00 -0.13854147898E+04  0.39509154841E+04  0.37000485162E+04 0.  0.
        2    1    3    3  502    0  0.88048120407E+03  0.14305118769E+04 -0.15204965710E+04  0.22657275218E+04  0.25500000920E-02 0.  1.
       -2    1    3    3    0  502 -0.88048120407E+03 -0.14305118769E+04  0.13508178123E+03  0.16851879623E+04  0.25500000920E-02 0. -1.
</event>
<event>
 5   0  0.1825308E-08  0.3702862E+04  0.7818609E-02  0.8067328E-01
        2   -1    0    0  501    0  0.00000000000E+00  0.00000000000E+00  0.25198233276E+04  0.25198233276E+04  0.25500000920E-02 0.  1.
       -2   -1    0    0    0  501  0.00000000000E+00  0.00000000000E+00 -0.13603325030E+04  0.13603325030E+04  0.25500000920E-02 0. -1.
    10030    2    1    2    0    0  0.00000000000E+00  0.00000000000E+00  0.11594908246E+04  0.38801558307E+04  0.37028624466E+04 0.  0.
        4    1    3    3  502    0 -0.11458107413E+04 -0.10406371979E+04 -0.48476250818E+03  0.16219754420E+04  0.12699999809E+01 0. -1.
       -4    1    3    3    0  502  0.11458107413E+04  0.10406371979E+04  0.16442533328E+04  0.22581803886E+04  0.12699999809E+01 0.  1.
</event>
<event>
 5   0  0.5714125E-09  0.3704128E+04  0.7818609E-02  0.8067048E-01
        1   -1    0    0  501    0  0.00000000000E+00  0.00000000000E+00  0.15614524145E+04  0.15614524145E+04  0.50400001928E-02 0. -1.
       -1   -1    0    0    0  501  0.00000000000E+00  0.00000000000E+00 -0.21967627715E+04  0.21967627715E+04  0.50400001928E-02 0.  1.
    10030    2    1    2    0    0  0.00000000000E+00  0.00000000000E+00 -0.63531035707E+03  0.37582151860E+04  0.37041277158E+04 0.  0.
        2    1    3    3  502    0  0.56694504286E+03  0.62113759431E+03  0.13565616055E+04  0.15960883378E+04  0.25500000920E-02 0. -1.
       -2    1    3    3    0  502 -0.56694504286E+03 -0.62113759431E+03 -0.19918719625E+04  0.21621268482E+04  0.25500000920E-02 0.  1.
</event>
<event>
 5   0  0.1725865E-08  0.3690313E+04  0.7818609E-02  0.8070112E-01
       -2   -1    0    0    0  501  0.00000000000E+00  0.00000000000E+00  0.26933474733E+04  0.26933474733E+04  0.25500000920E-02 0. -1.
        2   -1    0    0  501    0  0.00000000000E+00  0.00000000000E+00 -0.12640786209E+04  0.12640786209E+04  0.25500000920E-02 0.  1.
    10030    2    1    2    0    0  0.00000000000E+00  0.00000000000E+00  0.14292688524E+04  0.39574260943E+04  0.36903132440E+04 0.  0.
        1    1    3    3  502    0 -0.80582932216E+01 -0.13230456199E+04 -0.66457090619E+03  0.14805975610E+04  0.50400001928E-02 0.  1.
       -1    1    3    3    0  502  0.80582932216E+01  0.13230456199E+04  0.20938397586E+04  0.24768285332E+04  0.50400001928E-02 0. -1.
</event>
<event>
 5   0  0.5714125E-09  0.3692211E+04  0.7818609E-02  0.8069690E-01
       -1   -1    0    0    0  501  0.00000000000E+00  0.00000000000E+00  0.21084470976E+04  0.21084470976E+04  0.50400001928E-02 0.  1.
        1   -1    0    0  501    0  0.00000000000E+00  0.00000000000E+00 -0.16164052999E+04  0.16164052999E+04  0.50400001928E-02 0. -1.
    10030    2    1    2    0    0  0.00000000000E+00  0.00000000000E+00  0.49204179763E+03  0.37248523975E+04  0.36922107541E+04 0.  0.
        4    1    3    3  502    0  0.91450541296E+03 -0.11911549252E+04 -0.83721904496E+03  0.17193334605E+04  0.12699999809E+01 0. -1.
       -4    1    3    3    0  502 -0.91450541296E+03  0.11911549252E+04  0.13292608426E+04  0.20055189370E+04  0.12699999809E+01 0.  1.
</event>
<event>
 5   0  0.5714125E-09  0.3700901E+04  0.7818609E-02  0.8067762E-01
        1   -1    0    0  501    0  0.00000000000E+00  0.00000000000E+00  0.21897115245E+04  0.21897115245E+04  0.50400001928E-02 0. -1.
       -1   -1    0    0    0  501  0.00000000000E+00  0.00000000000E+00 -0.15637528825E+04  0.15637528825E+04  0.50400001928E-02 0.  1.
    10030    2    1    2    0    0  0.00000000000E+00  0.00000000000E+00  0.62595864204E+03  0.37534644070E+04  0.37009013541E+04 0.  0.
        2    1    3    3  502    0 -0.24501748410E+03 -0.52196561320E+03  0.20962714186E+04  0.21741286828E+04  0.25500000920E-02 0. -1.
       -2    1    3    3    0  502  0.24501748410E+03  0.52196561320E+03 -0.14703127766E+04  0.15793357242E+04  0.25500000920E-02 0.  1.
</event>
<event>
 5   0  0.5714125E-09  0.3699290E+04  0.7818609E-02  0.8068119E-01
        1   -1    0    0  501    0  0.00000000000E+00  0.00000000000E+00  0.23201911813E+04  0.23201911813E+04  0.50400001928E-02 0. -1.
       -1   -1    0    0    0  501  0.00000000000E+00  0.00000000000E+00 -0.14745275982E+04  0.14745275982E+04  0.50400001928E-02 0.  1.
    10030    2    1    2    0    0  0.00000000000E+00  0.00000000000E+00  0.84566358313E+03  0.37947187795E+04  0.36992896237E+04 0.  0.
        1    1    3    3  502    0  0.65460468279E+03  0.11955346627E+04  0.17054367498E+04  0.21831914547E+04  0.50400001928E-02 0. -1.
       -1    1    3    3    0  502 -0.65460468279E+03 -0.11955346627E+04 -0.85977316668E+03  0.16115273248E+04  0.50400001928E-02 0.  1.
</event>
<event>
 5   0  0.1725865E-08  0.3699674E+04  0.7818609E-02  0.8068034E-01
       -2   -1    0    0    0  501  0.00000000000E+00  0.00000000000E+00  0.18887879741E+04  0.18887879741E+04  0.25500000920E-02 0. -1.
        2   -1    0    0  501    0  0.00000000000E+00  0.00000000000E+00 -0.18116895130E+04  0.18116895130E+04  0.25500000920E-02 0.  1.
    10030    2    1    2    0    0  0.00000000000E+00  0.00000000000E+00  0.77098461165E+02  0.37004774871E+04  0.36996742370E+04 0.  0.
        1    1    3    3  502    0 -0.30701074660E+03 -0.43434261826E+03  0.18106529068E+04  0.18871600508E+04  0.50400001928E-02 0. -1.
       -1    1    3    3    0  502  0.30701074660E+03  0.43434261826E+03 -0.17335544456E+04  0.18133174362E+04  0.50400001928E-02 0.  1.
</event>
<event>
 5   0  0.5714125E-09  0.3701742E+04  0.7818609E-02  0.8067576E-01
        1   -1    0    0  501    0  0.00000000000E+00  0.00000000000E+00  0.19354844228E+04  0.19354844228E+04  0.50400001928E-02 0.  1.
       -1   -1    0    0    0  501  0.00000000000E+00  0.00000000000E+00 -0.17699563458E+04  0.17699563458E+04  0.50400001928E-02 0. -1.
    10030    2    1    2    0    0  0.00000000000E+00  0.00000000000E+00  0.16552807706E+03  0.37054407686E+04  0.37017417178E+04 0.  0.
        3    1    3    3  502    0 -0.14033217386E+04 -0.20358014726E+03  0.12734761935E+04  0.19059114365E+04  0.10100000352E+00 0.  1.
       -3    1    3    3    0  502  0.14033217386E+04  0.20358014726E+03 -0.11079481164E+04  0.17995293321E+04  0.10100000352E+00 0. -1.
</event>
<event>
 5   0  0.5714125E-09  0.3698396E+04  0.7818609E-02  0.8068317E-01
        1   -1    0    0  501    0  0.00000000000E+00  0.00000000000E+00  0.31635345684E+04  0.31635345684E+04  0.50400001928E-02 0.  1.
       -1   -1    0    0    0  501  0.00000000000E+00  0.00000000000E+00 -0.10809215623E+04  0.10809215623E+04  0.50400001928E-02 0. -1.
    10030    2    1    2    0    0  0.00000000000E+00  0.00000000000E+00  0.20826130062E+04  0.42444561307E+04  0.36983957214E+04 0.  0.
        5    1    3    3  502    0 -0.14880409833E+04  0.44765280224E+02 -0.21757523990E+03  0.15045367969E+04  0.46999998093E+01 0. -1.
       -5    1    3    3    0  502  0.14880409833E+04 -0.44765280224E+02  0.23001882461E+04  0.27399193338E+04  0.46999998093E+01 0.  1.
</event>
<event>
 5   0  0.5714125E-09  0.3702714E+04  0.7818609E-02  0.8067361E-01
        1   -1    0    0  501    0  0.00000000000E+00  0.00000000000E+00  0.15682113496E+04  0.15682113496E+04  0.50400001928E-02 0.  1.
       -1   -1    0    0    0  501  0.00000000000E+00  0.00000000000E+00 -0.21856259531E+04  0.21856259531E+04  0.50400001928E-02 0. -1.
    10030    2    1    2    0    0  0.00000000000E+00  0.00000000000E+00 -0.61741460350E+03  0.37538373027E+04  0.37027143696E+04 0.  0.
        3    1    3    3  502    0  0.17384889093E+04  0.35059915020E+03  0.22990947259E+03  0.17883293398E+04  0.10100000352E+00 0.  1.
       -3    1    3    3    0  502 -0.17384889093E+04 -0.35059915020E+03 -0.84732407609E+03  0.19655079629E+04  0.10100000352E+00 0. -1.
</event>
<event>
 5   0  0.1856107E-08  0.3701398E+04  0.7818609E-02  0.8067652E-01
       -2   -1    0    0    0  501  0.00000000000E+00  0.00000000000E+00  0.20777480419E+04  0.20777480419E+04  0.25500000920E-02 0.  1.
        2   -1    0    0  501    0  0.00000000000E+00  0.00000000000E+00 -0.16484607335E+04  0.16484607335E+04  0.25500000920E-02 0. -1.
    10030    2    1    2    0    0  0.00000000000E+00  0.00000000000E+00  0.42928730848E+03  0.37262087754E+04  0.37013976069E+04 0.  0.
        2    1    3    3  502    0  0.90138716367E+03  0.16026444823E+04  0.42609423767E+03  0.18874650871E+04  0.25500000920E-02 0. -1.
       -2    1    3    3    0  502 -0.90138716367E+03 -0.16026444823E+04  0.31930708093E+01  0.18387436883E+04  0.25500000920E-02 0.  1.
</event>
<event>
 5   0  0.1825308E-08  0.3699102E+04  0.7818609E-02  0.8068161E-01
        2   -1    0    0  501    0  0.00000000000E+00  0.00000000000E+00  0.17230392281E+04  0.17230392281E+04  0.25500000920E-02 0. -1.
       -2   -1    0    0    0  501  0.00000000000E+00  0.00000000000E+00 -0.19853521607E+04  0.19853521607E+04  0.25500000920E-02 0.  1.
    10030    2    1    2    0    0  0.00000000000E+00  0.00000000000E+00 -0.26231293264E+03  0.37083913888E+04  0.36991024071E+04 0.  0.
        4    1    3    3  502    0 -0.10050217261E+03  0.18466523442E+04 -0.10634609472E+03  0.18524407337E+04  0.12699999809E+01 0. -1.
       -4    1    3    3    0  502  0.10050217261E+03 -0.18466523442E+04 -0.15596683792E+03  0.18559506552E+04  0.12699999809E+01 0.  1.
</event>
<event>
 5   0  0.1825308E-08  0.3699954E+04  0.7818609E-02  0.8067972E-01
        2   -1    0    0  501    0  0.00000000000E+00  0.00000000000E+00  0.22933568097E+04  0.22933568097E+04  0.25500000920E-02 0. -1.
       -2   -1    0    0    0  501  0.00000000000E+00  0.00000000000E+00 -0.14923164683E+04  0.14923164683E+04  0.25500000920E-02 0.  1.
    10030    2    1    2    0    0  0.00000000000E+00  0.00000000000E+00  0.80104034140E+03  0.37856732780E+04  0.36999535861E+04 0.  0.
        4    1    3    3  502    0 -0.34813928916E+03 -0.10322347824E+04  0.19303879555E+04  0.22165533791E+04  0.12699999809E+01 0. -1.
       -4    1    3    3    0  502  0.34813928916E+03  0.10322347824E+04 -0.11293476141E+04  0.15691198989E+04  0.12699999809E+01 0.  1.
</event>
<event>
 5   0  0.5714125E-09  0.3702678E+04  0.7818609E-02  0.8067369E-01
        3   -1    0    0  501    0  0.00000000000E+00  0.00000000000E+00  0.17085391965E+04  0.17085391994E+04  0.10100000352E+00 0.  1.
       -3   -1    0    0    0  501  0.00000000000E+00  0.00000000000E+00 -0.20060739726E+04  0.20060739751E+04  0.10100000352E+00 0. -1.
    10030    2    1    2    0    0  0.00000000000E+00  0.00000000000E+00 -0.29753477609E+03  0.37146131745E+04  0.37026779624E+04 0.  0.
        5    1    3    3  502    0 -0.47823656950E+03 -0.10811487827E+04  0.12805499653E+04  0.17428204756E+04  0.46999998093E+01 0.  1.
       -5    1    3    3    0  502  0.47823656950E+03  0.10811487827E+04 -0.15780847414E+04  0.19717926989E+04  0.46999998093E+01 0. -1.
</event>
<event>
 5   0  0.5714125E-09  0.3704383E+04  0.7818609E-02  0.8066991E-01
       -1   -1    0    0    0  501  0.00000000000E+00  0.00000000000E+00  0.12135726727E+04  0.12135726728E+04  0.50400001928E-02 0. -1.
        1   -1    0    0  501    0  0.00000000000E+00  0.00000000000E+00 -0.28268711414E+04  0.28268711414E+04  0.50400001928E-02 0.  1.
    10030    2    1    2    0    0  0.00000000000E+00  0.00000000000E+00 -0.16132984687E+04  0.40404438142E+04  0.37043831155E+04 0.  0.
        3    1    3    3  502    0 -0.30738003357E+02  0.10169471941E+04  0.88149712839E+03  0.13461662669E+04  0.10100000352E+00 0. -1.
       -3    1    3    3    0  502  0.30738003357E+02 -0.10169471941E+04 -0.24947955971E+04  0.26942775473E+04  0.10100000352E+00 0.  1.
</event>
<event>
 5   0  0.5714125E-09  0.3700445E+04  0.7818609E-02  0.8067863E-01
       -1   -1    0    0    0  501  0.00000000000E+00  0.00000000000E+00  0.14578255288E+04  0.14578255288E+04  0.50400001928E-02 0.  1.
        1   -1    0    0  501    0  0.00000000000E+00  0.00000000000E+00 -0.23482392700E+04  0.23482392700E+04  0.50400001928E-02 0. -1.
    10030    2    1    2    0    0  0.00000000000E+00  0.00000000000E+00 -0.89041374120E+03  0.38060647989E+04  0.37004449223E+04 0.  0.
        4    1    3    3  502    0  0.58740665077E+03  0.81365281575E+03 -0.20440013264E+04  0.22770640116E+04  0.12699999809E+01 0. -1.
       -4    1    3    3    0  502 -0.58740665077E+03 -0.81365281575E+03  0.11535875851E+04  0.15290007873E+04  0.12699999809E+01 0.  1.
</event>
<event>
 5   0  0.1740290E-08  0.3700200E+04  0.7818609E-02  0.8067918E-01
       -2   -1    0    0    0  501  0.00000000000E+00  0.00000000000E+00  0.22879651926E+04  0.22879651926E+04  0.25500000920E-02 0.  1.
        2   -1    0    0  501    0  0.00000000000E+00  0.00000000000E+00 -0.14960321511E+04  0.14960321511E+04  0.25500000920E-02 0. -1.
    10030    2    1    2    0    0  0.00000000000E+00  0.00000000000E+00  0.79193304151E+03  0.37839973437E+04  0.37001997183E+04 0.  0.
        5    1    3    3  502    0 -0.18128322559E+04 -0.31008282280E+03  0.60135120482E+03  0.19349825597E+04  0.46999998093E+01 0.  1.
       -5    1    3    3    0  502  0.18128322559E+04  0.31008282280E+03  0.19058183668E+03  0.18490147840E+04  0.46999998093E+01 0. -1.
</event>
<event>
 5   0  0.5714125E-09  0.3700808E+04  0.7818609E-02  0.8067783E-01
        1   -1    0    0  501    0  0.00000000000E+00  0.00000000000E+00  0.16123463967E+04  0.16123463967E+04  0.50400001928E-02 0.  1.
       -1   -1    0    0    0  501  0.00000000000E+00  0.00000000000E+00 -0.21236102247E+04  0.21236102247E+04  0.50400001928E-02 0. -1.
    10030    2    1    2    0    0  0.00000000000E+00  0.00000000000E+00 -0.51126382803E+03  0.37359566215E+04  0.37008081787E+04 0.  0.
        5    1    3    3  502    0  0.10104540633E+04  0.12689239834E+04 -0.11544746342E+04  0.19909844954E+04  0.46999998093E+01 0. -1.
       -5    1    3    3    0  502 -0.10104540633E+04 -0.12689239834E+04  0.64321080620E+03  0.17449721261E+04  0.46999998093E+01 0.  1.
</event>
<event>
 5   0  0.5714125E-09  0.3698728E+04  0.7818609E-02  0.8068244E-01
       -1   -1    0    0    0  501  0.00000000000E+00  0.00000000000E+00  0.30015221972E+04  0.30015221972E+04  0.50400001928E-02 0.  1.
        1   -1    0    0  501    0  0.00000000000E+00  0.00000000000E+00 -0.11394711880E+04  0.11394711880E+04  0.50400001928E-02 0. -1.
    10030    2    1    2    0    0  0.00000000000E+00  0.00000000000E+00  0.18620510092E+04  0.41409933853E+04  0.36987284647E+04 0.  0.
        2    1    3    3  502    0  0.70721235110E+03  0.71482518860E+03 -0.80666578385E+03  0.12891214243E+04  0.25500000920E-02 0. -1.
       -2    1    3    3    0  502 -0.70721235110E+03 -0.71482518860E+03  0.26687167931E+04  0.28518719609E+04  0.25500000920E-02 0.  1.
</event>
<event>
 5   0  0.1757996E-08  0.3698270E+04  0.7818609E-02  0.8068345E-01
        2   -1    0    0  501    0  0.00000000000E+00  0.00000000000E+00  0.12757812896E+04  0.12757812896E+04  0.25500000920E-02 0. -1.
       -2   -1    0    0    0  501  0.00000000000E+00  0.00000000000E+00 -0.26801613881E+04  0.26801613881E+04  0.25500000920E-02 0.  1.
    10030    2    1    2    0    0  0.00000000000E+00  0.00000000000E+00 -0.14043800985E+04  0.39559426778E+04  0.36982697317E+04 0.  0.
        3    1    3    3  502    0  0.47634348376E+03  0.11115907660E+04 -0.21984962512E+04  0.25091677748E+04  0.10100000352E+00 0.  1.
       -3    1    3    3    0  502 -0.47634348376E+03 -0.11115907660E+04  0.79411615268E+03  0.14467749029E+04  0.10100000352E+00 0. -1.
</event>
<event>
 5   0  0.5714125E-09  0.3700377E+04  0.7818609E-02  0.8067878E-01
        1   -1    0    0  501    0  0.00000000000E+00  0.00000000000E+00  0.26950669646E+04  0.26950669646E+04  0.50400001928E-02 0.  1.
       -1   -1    0    0    0  501  0.00000000000E+00  0.00000000000E+00 -0.12701717758E+04  0.12701717758E+04  0.50400001928E-02 0. -1.
    10030    2    1    2    0    0  0.00000000000E+00  0.00000000000E+00  0.14248951888E+04  0.39652387404E+04  0.37003772739E+04 0.  0.
        3    1    3    3  502    0 -0.15285780064E+04  0.95526916105E+03  0.11595765668E+04  0.21432936607E+04  0.10100000352E+00 0. -1.
       -3    1    3    3    0  502  0.15285780064E+04 -0.95526916105E+03  0.26531862205E+03  0.18219450796E+04  0.10100000352E+00 0.  1.
</event>
<event>
 5   0  0.5714125E-09  0.3701773E+04  0.7818609E-02  0.8067569E-01
       -1   -1    0    0    0  501  0.00000000000E+00  0.00000000000E+00  0.12286105694E+04  0.12286105694E+04  0.50400001928E-02 0. -1.
        1   -1    0    0  501    0  0.00000000000E+00  0.00000000000E+00 -0.27883369201E+04  0.27883369201E+04  0.50400001928E-02 0.  1.
    10030    2    1    2    0    0  0.00000000000E+00  0.00000000000E+00 -0.15597263508E+04  0.40169474895E+04  0.37017726624E+04 0.  0.
        3    1    3    3  502    0 -0.12033407819E+04  0.10664459210E+04 -0.17746748394E+04  0.23947456516E+04  0.10100000352E+00 0.  1.
       -3    1    3    3    0  502  0.12033407819E+04 -0.10664459210E+04  0.21494848865E+03  0.16222018379E+04  0.10100000352E+00 0. -1.
</event>
<event>
 5   0  0.5714125E-09  0.3698546E+04  0.7818609E-02  0.8068284E-01
       -1   -1    0    0    0  501  0.00000000000E+00  0.00000000000E+00  0.14338207461E+04  0.14338207461E+04  0.50400001928E-02 0. -1.
        1   -1    0    0  501    0  0.00000000000E+00  0.00000000000E+00 -0.23851030175E+04  0.23851030175E+04  0.50400001928E-02 0.  1.
    10030    2    1    2    0    0  0.00000000000E+00  0.00000000000E+00 -0.95128227141E+03  0.38189237636E+04  0.36985457618E+04 0.  0.
        3    1    3    3  502    0 -0.16094777991E+04  0.54707941306E+03 -0.12274147074E+04  0.20967263875E+04  0.10100000352E+00 0.  1.
       -3    1    3    3    0  502  0.16094777991E+04 -0.54707941306E+03  0.27613243602E+03  0.17221973761E+04  0.10100000352E+00 0. -1.
</event>
<event>
 5   0  0.1740290E-08  0.3699063E+04  0.7818609E-02  0.8068169E-01
        2   -1    0    0  501    0  0.00000000000E+00  0.00000000000E+00  0.22440303353E+04  0.22440303353E+04  0.25500000920E-02 0. -1.
       -2   -1    0    0    0  501  0.00000000000E+00  0.00000000000E+00 -0.15243853007E+04  0.15243853007E+04  0.25500000920E-02 0.  1.
    10030    2    1    2    0    0  0.00000000000E+00  0.00000000000E+00  0.71964503461E+03  0.37684156361E+04  0.36990630476E+04 0.  0.
        5    1    3    3  502    0 -0.29261647673E+03  0.15886742373E+04 -0.55774974854E+03  0.17089813067E+04  0.46999998093E+01 0.  1.
       -5    1    3    3    0  502  0.29261647673E+03 -0.15886742373E+04  0.12773947831E+04  0.20594343293E+04  0.46999998093E+01 0. -1.
</event>
<event>
 5   0  0.5714125E-09  0.3699056E+04  0.7818609E-02  0.8068171E-01
        1   -1    0    0  501    0  0.00000000000E+00  0.00000000000E+00  0.16941331030E+04  0.16941331030E+04  0.50400001928E-02 0.  1.
       -1   -1    0    0    0  501  0.00000000000E+00  0.00000000000E+00 -0.20191768496E+04  0.20191768496E+04  0.50400001928E-02 0. -1.
    10030    2    1    2    0    0  0.00000000000E+00  0.00000000000E+00 -0.32504374657E+03  0.37133099526E+04  0.36990562806E+04 0.  0.
        4    1    3    3  502    0  0.69428677295E+03  0.10237263425E+04 -0.15428486632E+04  0.19774815696E+04  0.12699999809E+01 0. -1.
       -4    1    3    3    0  502 -0.69428677295E+03 -0.10237263425E+04  0.12178049166E+04  0.17358283830E+04  0.12699999809E+01 0.  1.
</event>
<event>
 5   0  0.5714125E-09  0.3697431E+04  0.7818609E-02  0.8068531E-01
        1   -1    0    0  501    0  0.00000000000E+00  0.00000000000E+00  0.19164052924E+04  0.19164052924E+04  0.50400001928E-02 0.  1.
       -1   -1    0    0    0  501  0.00000000000E+00  0.00000000000E+00 -0.17834162423E+04  0.17834162423E+04  0.50400001928E-02 0. -1.
    10030    2    1    2    0    0  0.00000000000E+00  0.00000000000E+00  0.13298905008E+03  0.36998215347E+04  0.36974306350E+04 0.  0.
        4    1    3    3  502    0 -0.26856290964E+03 -0.15288178466E+04 -0.93831448527E+03  0.18137931885E+04  0.12699999809E+01 0. -1.
       -4    1    3    3    0  502  0.26856290964E+03  0.15288178466E+04  0.10713035353E+04  0.18860283461E+04  0.12699999809E+01 0.  1.
</event>
<event>
 5   0  0.1757996E-08  0.3699271E+04  0.7818609E-02  0.8068123E-01
       -2   -1    0    0    0  501  0.00000000000E+00  0.00000000000E+00  0.16681658468E+04  0.16681658468E+04  0.25500000920E-02 0.  1.
        2   -1    0    0  501    0  0.00000000000E+00  0.00000000000E+00 -0.20508459621E+04  0.20508459621E+04  0.25500000920E-02 0. -1.
    10030    2    1    2    0    0  0.00000000000E+00  0.00000000000E+00 -0.38268011531E+03  0.37190118089E+04  0.36992708422E+04 0.  0.
        3    1    3    3  502    0 -0.10803049554E+04 -0.14283222782E+04 -0.65639684737E+03  0.19073594728E+04  0.10100000352E+00 0. -1.
       -3    1    3    3    0  502  0.10803049554E+04  0.14283222782E+04  0.27371673207E+03  0.18116523360E+04  0.10100000352E+00 0.  1.
</event>
<event>
 5   0  0.1825308E-08  0.3694276E+04  0.7818609E-02  0.8069232E-01
       -2   -1    0    0    0  501  0.00000000000E+00  0.00000000000E+00  0.14012808393E+04  0.14012808393E+04  0.25500000920E-02 0.  1.
        2   -1    0    0  501    0  0.00000000000E+00  0.00000000000E+00 -0.24348570791E+04  0.24348570791E+04  0.25500000920E-02 0. -1.
    10030    2    1    2    0    0  0.00000000000E+00  0.00000000000E+00 -0.10335762398E+04  0.38361379184E+04  0.36942758810E+04 0.  0.
        4    1    3    3  502    0 -0.93858517000E+03  0.72436362368E+03  0.95403285113E+03  0.15217835177E+04  0.12699999809E+01 0.  1.
       -4    1    3    3    0  502  0.93858517000E+03 -0.72436362368E+03 -0.19876090910E+04  0.23143544007E+04  0.12699999809E+01 0. -1.
</event>
<event>
 5   0  0.1825308E-08  0.3699598E+04  0.7818609E-02  0.8068051E-01
       -2   -1    0    0    0  501  0.00000000000E+00  0.00000000000E+00  0.21175180944E+04  0.21175180944E+04  0.25500000920E-02 0. -1.
        2   -1    0    0  501    0  0.00000000000E+00  0.00000000000E+00 -0.16159278500E+04  0.16159278500E+04  0.25500000920E-02 0.  1.
    10030    2    1    2    0    0  0.00000000000E+00  0.00000000000E+00  0.50159024444E+03  0.37334459444E+04  0.36995980655E+04 0.  0.
        4    1    3    3  502    0 -0.15701568449E+04 -0.37278447577E+03  0.11631652641E+04  0.19893003362E+04  0.12699999809E+01 0. -1.
       -4    1    3    3    0  502  0.15701568449E+04  0.37278447577E+03 -0.66157501964E+03  0.17441456082E+04  0.12699999809E+01 0.  1.
</event>
<event>
 5   0  0.5714125E-09  0.3698542E+04  0.7818609E-02  0.8068285E-01
       -1   -1    0    0    0  501  0.00000000000E+00  0.00000000000E+00  0.30963149159E+04  0.30963149159E+04  0.50400001928E-02 0. -1.
        1   -1    0    0  501    0  0.00000000000E+00  0.00000000000E+00 -0.11044750762E+04  0.11044750762E+04  0.50400001928E-02 0.  1.
    10030    2    1    2    0    0  0.00000000000E+00  0.00000000000E+00  0.19918398397E+04  0.42007899921E+04  0.36985416870E+04 0.  0.
        5    1    3    3  502    0 -0.91612872544E+02  0.30005976893E+03 -0.10740207167E+04  0.11189152664E+04  0.46999998093E+01 0.  1.
       -5    1    3    3    0  502  0.91612872544E+02 -0.30005976893E+03  0.30658605565E+04  0.30818747257E+04  0.46999998093E+01 0. -1.
</event>
<event>
 5   0  0.5714125E-09  0.3699854E+04  0.7818609E-02  0.8067994E-01
       -1   -1    0    0    0  501  0.00000000000E+00  0.00000000000E+00  0.12054031220E+04  0.12054031220E+04  0.50400001928E-02 0. -1.
        1   -1    0    0  501    0  0.00000000000E+00  0.00000000000E+00 -0.28390746358E+04  0.28390746358E+04  0.50400001928E-02 0.  1.
    10030    2    1    2    0    0  0.00000000000E+00  0.00000000000E+00 -0.16336715138E+04  0.40444777578E+04  0.36998537428E+04 0.  0.
        3    1    3    3  502    0  0.11818203002E+04 -0.64428767423E+03 -0.22040641103E+04  0.25825770931E+04  0.10100000352E+00 0.  1.
       -3    1    3    3    0  502 -0.11818203002E+04  0.64428767423E+03  0.57039259646E+03  0.14619006647E+04  0.10100000352E+00 0. -1.
</event>
<event>
 5   0  0.1825308E-08  0.3700536E+04  0.7818609E-02  0.8067843E-01
        2   -1    0    0  501    0  0.00000000000E+00  0.00000000000E+00  0.27288599580E+04  0.27288599580E+04  0.25500000920E-02 0. -1.
       -2   -1    0    0    0  501  0.00000000000E+00  0.00000000000E+00 -0.12545504289E+04  0.12545504289E+04  0.25500000920E-02 0.  1.
    10030    2    1    2    0    0  0.00000000000E+00  0.00000000000E+00  0.14743095291E+04  0.39834103869E+04  0.37005364101E+04 0.  0.
        4    1    3    3  502    0 -0.16361805764E+03  0.89441677625E+03 -0.99746577658E+03  0.13497006434E+04  0.12699999809E+01 0.  1.
       -4    1    3    3    0  502  0.16361805764E+03 -0.89441677625E+03  0.24717753057E+04  0.26337097435E+04  0.12699999809E+01 0. -1.
</event>
<event>
 5   0  0.1740290E-08  0.3703156E+04  0.7818609E-02  0.8067263E-01
        2   -1    0    0  501    0  0.00000000000E+00  0.00000000000E+00  0.25333843492E+04  0.25333843492E+04  0.25500000920E-02 0.  1.
       -2   -1    0    0    0  501  0.00000000000E+00  0.00000000000E+00 -0.13532655543E+04  0.13532655543E+04  0.25500000920E-02 0. -1.
    10030    2    1    2    0    0  0.00000000000E+00  0.00000000000E+00  0.11801187949E+04  0.38866499035E+04  0.37031563702E+04 0.  0.
        5    1    3    3  502    0  0.96945667825E+03 -0.62421996632E+03  0.21105763457E+04  0.24050054924E+04  0.46999998093E+01 0.  1.
       -5    1    3    3    0  502 -0.96945667825E+03  0.62421996632E+03 -0.93045755075E+03  0.14816444112E+04  0.46999998093E+01 0. -1.
</event>
<event>
 5   0  0.5714125E-09  0.3691736E+04  0.7818609E-02  0.8069796E-01
        1   -1    0    0  501    0  0.00000000000E+00  0.00000000000E+00  0.16125535398E+04  0.16125535398E+04  0.50400001928E-02 0. -1.
       -1   -1    0    0    0  501  0.00000000000E+00  0.00000000000E+00 -0.21129399458E+04  0.21129399458E+04  0.50400001928E-02 0.  1.
    10030    2    1    2    0    0  0.00000000000E+00  0.00000000000E+00 -0.50038640598E+03  0.37254934856E+04  0.36917360626E+04 0.  0.
        5    1    3    3  502    0 -0.14937714629E+04  0.10835340091E+04 -0.29309745387E+03  0.18685093898E+04  0.46999998093E+01 0.  1.
       -5    1    3    3    0  502  0.14937714629E+04 -0.10835340091E+04 -0.20728895211E+03  0.18569840958E+04  0.46999998093E+01 0. -1.
</event>
<event>
 5   0  0.5714125E-09  0.3701134E+04  0.7818609E-02  0.8067710E-01
        1   -1    0    0  501    0  0.00000000000E+00  0.00000000000E+00  0.23076781601E+04  0.23076781601E+04  0.50400001928E-02 0. -1.
       -1   -1    0    0    0  501  0.00000000000E+00  0.00000000000E+00 -0.14840020515E+04  0.14840020516E+04  0.50400001928E-02 0.  1.
    10030    2    1    2    0    0  0.00000000000E+00  0.00000000000E+00  0.82367610856E+03  0.37916802117E+04  0.37011344877E+04 0.  0.
        3    1    3    3  502    0 -0.42824698920E+03 -0.13177273905E+04  0.16685506290E+04  0.21688388993E+04  0.10100000352E+00 0. -1.
       -3    1    3    3    0  502  0.42824698920E+03  0.13177273905E+04 -0.84487452043E+03  0.16228413123E+04  0.10100000352E+00 0.  1.
</event>
<event>
 5   0  0.1856107E-08  0.3701099E+04  0.7818609E-02  0.8067718E-01
        2   -1    0    0  501    0  0.00000000000E+00  0.00000000000E+00  0.26740126486E+04  0.26740126486E+04  0.25500000920E-02 0.  1.
       -2   -1    0    0    0  501  0.00000000000E+00  0.00000000000E+00 -0.12806718033E+04  0.12806718033E+04  0.25500000920E-02 0. -1.
    10030    2    1    2    0    0  0.00000000000E+00  0.00000000000E+00  0.13933408453E+04  0.39546844518E+04  0.37010985399E+04 0.  0.
        2    1    3    3  502    0  0.10324594053E+03  0.16251587372E+04  0.16359516109E+04  0.23082760490E+04  0.25500000920E-02 0.  1.
       -2    1    3    3    0  502 -0.10324594053E+03 -0.16251587372E+04 -0.24261076556E+03  0.16464084028E+04  0.25500000920E-02 0. -1.
</event>
<event>
 5   0  0.1740290E-08  0.3700853E+04  0.7818609E-02  0.8067773E-01
       -2   -1    0    0    0  501  0.00000000000E+00  0.00000000000E+00  0.14665421791E+04  0.14665421791E+04  0.25500000920E-02 0.  1.
        2   -1    0    0  501    0  0.00000000000E+00  0.00000000000E+00 -0.23347972799E+04  0.23347972799E+04  0.25500000920E-02 0. -1.
    10030    2    1    2    0    0  0.00000000000E+00  0.00000000000E+00 -0.86825510072E+03  0.38013394590E+04  0.37008532479E+04 0.  0.
        5    1    3    3  502    0  0.12312808403E+03  0.18462633257E+04 -0.44893450633E+03  0.19040517519E+04  0.46999998093E+01 0. -1.
       -5    1    3    3    0  502 -0.12312808403E+03 -0.18462633257E+04 -0.41932059438E+03  0.18972877071E+04  0.46999998093E+01 0.  1.
</event>
<event>
 5   0  0.1725865E-08  0.3700030E+04  0.7818609E-02  0.8067955E-01
       -2   -1    0    0    0  501  0.00000000000E+00  0.00000000000E+00  0.13733385536E+04  0.13733385536E+04  0.25500000920E-02 0.  1.
        2   -1    0    0  501    0  0.00000000000E+00  0.00000000000E+00 -0.24921420482E+04  0.24921420482E+04  0.25500000920E-02 0. -1.
    10030    2    1    2    0    0  0.00000000000E+00  0.00000000000E+00 -0.11188034947E+04  0.38654806018E+04  0.37000295976E+04 0.  0.
        1    1    3    3  502    0  0.43816800774E+03  0.11282530101E+04  0.90230833657E+03  0.15096709549E+04  0.50400001928E-02 0.  1.
       -1    1    3    3    0  502 -0.43816800774E+03 -0.11282530101E+04 -0.20211118312E+04  0.23558096469E+04  0.50400001928E-02 0. -1.
</event>
<event>
 5   0  0.1825308E-08  0.3707945E+04  0.7818609E-02  0.8066203E-01
       -2   -1    0    0    0  501  0.00000000000E+00  0.00000000000E+00  0.17583387859E+04  0.17583387859E+04  0.25500000920E-02 0. -1.
        2   -1    0    0  501    0  0.00000000000E+00  0.00000000000E+00 -0.19548076803E+04  0.19548076803E+04  0.25500000920E-02 0.  1.
    10030    2    1    2    0    0  0.00000000000E+00  0.00000000000E+00 -0.19646889433E+03  0.37131464662E+04  0.37079450715E+04 0.  0.
        4    1    3    3  502    0 -0.26646488377E+03  0.14075452549E+04  0.10802874412E+04  0.17942156357E+04  0.12699999809E+01 0. -1.
       -4    1    3    3    0  502  0.26646488377E+03 -0.14075452549E+04 -0.12767563355E+04  0.19189308305E+04  0.12699999809E+01 0.  1.
</event>
<event>
 5   0  0.1740290E-08  0.3700904E+04  0.7818609E-02  0.8067762E-01
        2   -1    0    0  501    0  0.00000000000E+00  0.00000000000E+00  0.20800509901E+04  0.20800509901E+04  0.25500000920E-02 0. -1.
       -2   -1    0    0    0  501  0.00000000000E+00  0.00000000000E+00 -0.16461962934E+04  0.16461962934E+04  0.25500000920E-02 0.  1.
    10030    2    1    2    0    0  0.00000000000E+00  0.00000000000E+00  0.43385469669E+03  0.37262472835E+04  0.37009037977E+04 0.  0.
        5    1    3    3  502    0 -0.13889182638E+04 -0.12112185777E+04  0.38542253857E+03  0.18827418861E+04  0.46999998093E+01 0. -1.
       -5    1    3    3    0  502  0.13889182638E+04  0.12112185777E+04  0.48432158116E+02  0.18435053974E+04  0.46999998093E+01 0.  1.
</event>
<event>
 5   0  0.1757996E-08  0.3699754E+04  0.7818609E-02  0.8068016E-01
        2   -1    0    0  501    0  0.00000000000E+00  0.00000000000E+00  0.22683309732E+04  0.22683309732E+04  0.25500000920E-02 0. -1.
       -2   -1    0    0    0  501  0.00000000000E+00  0.00000000000E+00 -0.15086181002E+04  0.15086181002E+04  0.25500000920E-02 0.  1.
    10030    2    1    2    0    0  0.00000000000E+00  0.00000000000E+00  0.75971287306E+03  0.37769490734E+04  0.36997541342E+04 0.  0.
        3    1    3    3  502    0 -0.34407043138E+03 -0.17923460452E+04  0.68807707653E+03  0.19504714510E+04  0.10100000352E+00 0. -1.
       -3    1    3    3    0  502  0.34407043138E+03  0.17923460452E+04  0.71635796533E+02  0.18264776224E+04  0.10100000352E+00 0.  1.
</event>
<event>
 5   0  0.5714125E-09  0.3699558E+04  0.7818609E-02  0.8068060E-01
       -1   -1    0    0    0  501  0.00000000000E+00  0.00000000000E+00  0.18118936211E+04  0.18118936211E+04  0.50400001928E-02 0.  1.
        1   -1    0    0  501    0  0.00000000000E+00  0.00000000000E+00 -0.18884567767E+04  0.18884567768E+04  0.50400001928E-02 0. -1.
    10030    2    1    2    0    0  0.00000000000E+00  0.00000000000E+00 -0.76563155681E+02  0.37003503978E+04  0.36995582371E+04 0.  0.
        4    1    3    3  502    0 -0.94700078150E+03 -0.15159778357E+04  0.43793159094E+03  0.18403219745E+04  0.12699999809E+01 0.  1.
       -4    1    3    3    0  502  0.94700078150E+03  0.15159778357E+04 -0.51449474663E+03  0.18600284234E+04  0.12699999809E+01 0. -1.
</event>
<event>
 5   0  0.1740290E-08  0.3697445E+04  0.7818609E-02  0.8068528E-01
       -2   -1    0    0    0  501  0.00000000000E+00  0.00000000000E+00  0.12402546957E+04  0.12402546957E+04  0.25500000920E-02 0.  1.
        2   -1    0    0  501    0  0.00000000000E+00  0.00000000000E+00 -0.27557041322E+04  0.27557041322E+04  0.25500000920E-02 0. -1.
    10030    2    1    2    0    0  0.00000000000E+00  0.00000000000E+00 -0.15154494364E+04  0.39959588279E+04  0.36974450584E+04 0.  0.
        5    1    3    3  502    0 -0.10741878855E+04 -0.79434257011E+03 -0.21387389732E+04  0.25217228669E+04  0.46999998093E+01 0. -1.
       -5    1    3    3    0  502  0.10741878855E+04  0.79434257011E+03  0.62328953671E+03  0.14742359610E+04  0.46999998093E+01 0.  1.
</event>
<event>
 5   0  0.5714125E-09  0.3699752E+04  0.7818609E-02  0.8068017E-01
        1   -1    0    0  501    0  0.00000000000E+00  0.00000000000E+00  0.13843444664E+04  0.13843444664E+04  0.50400001928E-02 0.  1.
       -1   -1    0    0    0  501  0.00000000000E+00  0.00000000000E+00 -0.24719578941E+04  0.24719578941E+04  0.50400001928E-02 0. -1.
    10030    2    1    2    0    0  0.00000000000E+00  0.00000000000E+00 -0.10876134277E+04  0.38563023605E+04  0.36997520089E+04 0.  0.
        5    1    3    3  502    0  0.74503852994E+03  0.11790078537E+03 -0.23043718593E+04  0.24246927150E+04  0.46999998093E+01 0. -1.
       -5    1    3    3    0  502 -0.74503852994E+03 -0.11790078537E+03  0.12167584316E+04  0.14316096455E+04  0.46999998093E+01 0.  1.
</event>
<event>
 5   0  0.5714125E-09  0.3701463E+04  0.7818609E-02  0.8067638E-01
        1   -1    0    0  501    0  0.00000000000E+00  0.00000000000E+00  0.19900891521E+04  0.19900891521E+04  0.50400001928E-02 0. -1.
       -1   -1    0    0    0  501  0.00000000000E+00  0.00000000000E+00 -0.17211326859E+04  0.17211326859E+04  0.50400001928E-02 0.  1.
    10030    2    1    2    0    0  0.00000000000E+00  0.00000000000E+00  0.26895646613E+03  0.37112218380E+04  0.37014632175E+04 0.  0.
        5    1    3    3  502    0 -0.16184138602E+04 -0.10165662645E+03  0.10287871543E+04  0.19204225033E+04  0.46999998093E+01 0. -1.
       -5    1    3    3    0  502  0.16184138602E+04  0.10165662645E+03 -0.75983068813E+03  0.17907993347E+04  0.46999998093E+01 0.  1.
</event>
<event>
 5   0  0.5714125E-09  0.3699205E+04  0.7818609E-02  0.8068138E-01
        1   -1    0    0  501    0  0.00000000000E+00  0.00000000000E+00  0.21134365367E+04  0.21134365367E+04  0.50400001928E-02 0. -1.
       -1   -1    0    0    0  501  0.00000000000E+00  0.00000000000E+00 -0.16187048685E+04  0.16187048685E+04  0.50400001928E-02 0.  1.
    10030    2    1    2    0    0  0.00000000000E+00  0.00000000000E+00  0.49473166817E+03  0.37321414052E+04  0.36992053262E+04 0.  0.
        5    1    3    3  502    0  0.10954094336E+04  0.14180262230E+04  0.71002014563E+03  0.19274000346E+04  0.46999998093E+01 0.  1.
       -5    1    3    3    0  502 -0.10954094336E+04 -0.14180262230E+04 -0.21528847746E+03  0.18047413706E+04  0.46999998093E+01 0. -1.
</event>
<event>
 5   0  0.5714125E-09  0.3704955E+04  0.7818609E-02  0.8066865E-01
       -1   -1    0    0    0  501  0.00000000000E+00  0.00000000000E+00  0.17500403616E+04  0.17500403616E+04  0.50400001928E-02 0.  1.
        1   -1    0    0  501    0  0.00000000000E+00  0.00000000000E+00 -0.19609102148E+04  0.19609102149E+04  0.50400001928E-02 0. -1.
    10030    2    1    2    0    0  0.00000000000E+00  0.00000000000E+00 -0.21086985325E+03  0.37109505765E+04  0.37049545322E+04 0.  0.
        1    1    3    3  502    0 -0.10299097950E+04  0.92625028892E+03 -0.13374736817E+04  0.19254842593E+04  0.50400001928E-02 0. -1.
       -1    1    3    3    0  502  0.10299097950E+04 -0.92625028892E+03  0.11266038285E+04  0.17854663172E+04  0.50400001928E-02 0.  1.
</event>
<event>
 5   0  0.1757996E-08  0.3701684E+04  0.7818609E-02  0.8067589E-01
        2   -1    0    0  501    0  0.00000000000E+00  0.00000000000E+00  0.26084102474E+04  0.26084102474E+04  0.25500000920E-02 0.  1.
       -2   -1    0    0    0  501  0.00000000000E+00  0.00000000000E+00 -0.13132962332E+04  0.13132962332E+04  0.25500000920E-02 0. -1.
    10030    2    1    2    0    0  0.00000000000E+00  0.00000000000E+00  0.12951140142E+04  0.39217064807E+04  0.37016835914E+04 0.  0.
        3    1    3    3  502    0  0.22741155425E+00  0.97817230981E+03  0.23121890042E+04  0.25105854140E+04  0.10100000352E+00 0.  1.
       -3    1    3    3    0  502 -0.22741155425E+00 -0.97817230981E+03 -0.10170749900E+04  0.14111210667E+04  0.10100000352E+00 0. -1.
</event>
<event>
 5   0  0.1740290E-08  0.3700057E+04  0.7818609E-02  0.8067949E-01
       -2   -1    0    0    0  501  0.00000000000E+00  0.00000000000E+00  0.16463501790E+04  0.16463501790E+04  0.25500000920E-02 0.  1.
        2   -1    0    0  501    0  0.00000000000E+00  0.00000000000E+00 -0.20789043790E+04  0.20789043790E+04  0.25500000920E-02 0. -1.
    10030    2    1    2    0    0  0.00000000000E+00  0.00000000000E+00 -0.43255420003E+03  0.37252545580E+04  0.37000565382E+04 0.  0.
        5    1    3    3  502    0  0.12749779311E+04  0.82029011409E+03 -0.12837513106E+04  0.19865759773E+04  0.46999998093E+01 0. -1.
       -5    1    3    3    0  502 -0.12749779311E+04 -0.82029011409E+03  0.85119711053E+03  0.17386785807E+04  0.46999998093E+01 0.  1.
</event>
<event>
 5   0  0.5714125E-09  0.3699752E+04  0.7818609E-02  0.8068017E-01
        1   -1    0    0  501    0  0.00000000000E+00  0.00000000000E+00  0.28968237472E+04  0.28968237472E+04  0.50400001928E-02 0.  1.
       -1   -1    0    0    0  501  0.00000000000E+00  0.00000000000E+00 -0.11813078619E+04  0.11813078619E+04  0.50400001928E-02 0. -1.
    10030    2    1    2    0    0  0.00000000000E+00  0.00000000000E+00  0.17155158852E+04  0.40781316091E+04  0.36997517036E+04 0.  0.
        4    1    3    3  502    0  0.16069321842E+04 -0.82623657100E+02  0.18637772018E+04  0.24622600968E+04  0.12699999809E+01 0.  1.
       -4    1    3    3    0  502 -0.16069321842E+04  0.82623657100E+02 -0.14826131660E+03  0.16158715123E+04  0.12699999809E+01 0. -1.
</event>
<event>
 5   0  0.1825308E-08  0.3696563E+04  0.7818609E-02  0.8068724E-01
        2   -1    0    0  501    0  0.00000000000E+00  0.00000000000E+00  0.30659799138E+04  0.30659799138E+04  0.25500000920E-02 0.  1.
       -2   -1    0    0    0  501  0.00000000000E+00  0.00000000000E+00 -0.11142094479E+04  0.11142094479E+04  0.25500000920E-02 0. -1.
    10030    2    1    2    0    0  0.00000000000E+00  0.00000000000E+00  0.19517704659E+04  0.41801893617E+04  0.36965626125E+04 0.  0.
        4    1    3    3  502    0  0.17356094992E+04  0.27647678064E+03  0.16228971906E+04  0.23921907633E+04  0.12699999809E+01 0.  1.
       -4    1    3    3    0  502 -0.17356094992E+04 -0.27647678064E+03  0.32887327534E+03  0.17879985984E+04  0.12699999809E+01 0. -1.
</event>
<event>
 5   0  0.1856107E-08  0.3698543E+04  0.7818609E-02  0.8068285E-01
        2   -1    0    0  501    0  0.00000000000E+00  0.00000000000E+00  0.13728888666E+04  0.13728888666E+04  0.25500000920E-02 0. -1.
       -2   -1    0    0    0  501  0.00000000000E+00  0.00000000000E+00 -0.24909552135E+04  0.24909552135E+04  0.25500000920E-02 0.  1.
    10030    2    1    2    0    0  0.00000000000E+00  0.00000000000E+00 -0.11180663469E+04  0.38638440802E+04  0.36985427833E+04 0.  0.
        2    1    3    3  502    0  0.17467654553E+04 -0.60711045252E+03 -0.56494493390E+03  0.19336327045E+04  0.25500000920E-02 0. -1.
       -2    1    3    3    0  502 -0.17467654553E+04  0.60711045252E+03 -0.55312141300E+03  0.19302113757E+04  0.25500000920E-02 0.  1.
</event>
<event>
 5   0  0.5714125E-09  0.3698487E+04  0.7818609E-02  0.8068297E-01
        1   -1    0    0  501    0  0.00000000000E+00  0.00000000000E+00  0.24825702048E+04  0.24825702048E+04  0.50400001928E-02 0. -1.
       -1   -1    0    0    0  501  0.00000000000E+00  0.00000000000E+00 -0.13774845673E+04  0.13774845673E+04  0.50400001928E-02 0.  1.
    10030    2    1    2    0    0  0.00000000000E+00  0.00000000000E+00  0.11050856375E+04  0.38600547722E+04  0.36984873364E+04 0.  0.
        1    1    3    3  502    0 -0.10946251698E+03 -0.18144162632E+04  0.19766894328E+03  0.18284314124E+04  0.50400001928E-02 0.  1.
       -1    1    3    3    0  502  0.10946251698E+03  0.18144162632E+04  0.90741669425E+03  0.20316233597E+04  0.50400001928E-02 0. -1.
</event>
<event>
 5   0  0.1740290E-08  0.3699669E+04  0.7818609E-02  0.8068035E-01
       -2   -1    0    0    0  501  0.00000000000E+00  0.00000000000E+00  0.32770567068E+04  0.32770567068E+04  0.25500000920E-02 0.  1.
        2   -1    0    0  501    0  0.00000000000E+00  0.00000000000E+00 -0.10441953622E+04  0.10441953622E+04  0.25500000920E-02 0. -1.
    10030    2    1    2    0    0  0.00000000000E+00  0.00000000000E+00  0.22328613446E+04  0.43212520691E+04  0.36996688582E+04 0.  0.
        5    1    3    3  502    0  0.24227135484E+03  0.47851074141E+03  0.31842372791E+04  0.32290953963E+04  0.46999998093E+01 0.  1.
       -5    1    3    3    0  502 -0.24227135484E+03 -0.47851074141E+03 -0.95137593451E+03  0.10921566727E+04  0.46999998093E+01 0. -1.
</event>
<event>
 5   0  0.5714125E-09  0.3701044E+04  0.7818609E-02  0.8067731E-01
       -1   -1    0    0    0  501  0.00000000000E+00  0.00000000000E+00  0.15542812223E+04  0.15542812224E+04  0.50400001928E-02 0.  1.
        1   -1    0    0  501    0  0.00000000000E+00  0.00000000000E+00 -0.22032249066E+04  0.22032249066E+04  0.50400001928E-02 0. -1.
    10030    2    1    2    0    0  0.00000000000E+00  0.00000000000E+00 -0.64894368425E+03  0.37575061290E+04  0.37010436912E+04 0.  0.
        3    1    3    3  502    0  0.89094543452E+03  0.10884883318E+04  0.89630329249E+03  0.16679179291E+04  0.10100000352E+00 0.  1.
       -3    1    3    3    0  502 -0.89094543452E+03 -0.10884883318E+04 -0.15452469767E+04  0.20895881999E+04  0.10100000352E+00 0. -1.
</event>
<event>
 5   0  0.1825308E-08  0.3699975E+04  0.7818609E-02  0.8067967E-01
        2   -1    0    0  501    0  0.00000000000E+00  0.00000000000E+00  0.22202571856E+04  0.22202571856E+04  0.25500000920E-02 0.  1.
       -2   -1    0    0    0  501  0.00000000000E+00  0.00000000000E+00 -0.15414671597E+04  0.15414671597E+04  0.25500000920E-02 0. -1.
    10030    2    1    2    0    0  0.00000000000E+00  0.00000000000E+00  0.67879002593E+03  0.37617243453E+04  0.36999748852E+04 0.  0.
        4    1    3    3  502    0  0.72248470700E+03  0.73711157743E+03 -0.12215239439E+04  0.15991997961E+04  0.12699999809E+01 0. -1.
       -4    1    3    3    0  502 -0.72248470700E+03 -0.73711157743E+03  0.19003139698E+04  0.21625245493E+04  0.12699999809E+01 0.  1.
</event>
<event>
 5   0  0.1740290E-08  0.3685830E+04  0.7818609E-02  0.8071109E-01
       -2   -1    0    0    0  501  0.00000000000E+00  0.00000000000E+00  0.14940657621E+04  0.14940657621E+04  0.25500000920E-02 0. -1.
        2   -1    0    0  501    0  0.00000000000E+00  0.00000000000E+00 -0.22732174857E+04  0.22732174857E+04  0.25500000920E-02 0.  1.
    10030    2    1    2    0    0  0.00000000000E+00  0.00000000000E+00 -0.77915172364E+03  0.37672832478E+04  0.36858303896E+04 0.  0.
        5    1    3    3  502    0 -0.55397518946E+03 -0.62065227958E+03 -0.20703666613E+04  0.22312637596E+04  0.46999998093E+01 0.  1.
       -5    1    3    3    0  502  0.55397518946E+03  0.62065227958E+03  0.12912149377E+04  0.15360194882E+04  0.46999998093E+01 0. -1.
</event>
<event>
 5   0  0.5714125E-09  0.3699605E+04  0.7818609E-02  0.8068049E-01
       -1   -1    0    0    0  501  0.00000000000E+00  0.00000000000E+00  0.21107099511E+04  0.21107099511E+04  0.50400001928E-02 0.  1.
        1   -1    0    0  501    0  0.00000000000E+00  0.00000000000E+00 -0.16211457731E+04  0.16211457731E+04  0.50400001928E-02 0. -1.
    10030    2    1    2    0    0  0.00000000000E+00  0.00000000000E+00  0.48956417799E+03  0.37318557243E+04  0.36996045819E+04 0.  0.
        1    1    3    3  502    0 -0.14939884965E+04  0.99402765054E+03 -0.20821619592E+03  0.18065011990E+04  0.50400001928E-02 0. -1.
       -1    1    3    3    0  502  0.14939884965E+04 -0.99402765054E+03  0.69778037391E+03  0.19253545253E+04  0.50400001928E-02 0.  1.
</event>
<event>
 5   0  0.5714125E-09  0.3699511E+04  0.7818609E-02  0.8068070E-01
        1   -1    0    0  501    0  0.00000000000E+00  0.00000000000E+00  0.21068431183E+04  0.21068431183E+04  0.50400001928E-02 0.  1.
       -1   -1    0    0    0  501  0.00000000000E+00  0.00000000000E+00 -0.16240391956E+04  0.16240391956E+04  0.50400001928E-02 0. -1.
    10030    2    1    2    0    0  0.00000000000E+00  0.00000000000E+00  0.48280392269E+03  0.37308823139E+04  0.36995112126E+04 0.  0.
        1    1    3    3  502    0 -0.12685597694E+04  0.13350881600E+04  0.67044234262E+02  0.18428779701E+04  0.50400001928E-02 0.  1.
       -1    1    3    3    0  502  0.12685597694E+04 -0.13350881600E+04  0.41575968843E+03  0.18880043437E+04  0.50400001928E-02 0. -1.
</event>
<event>
 5   0  0.5714125E-09  0.3702419E+04  0.7818609E-02  0.8067426E-01
        1   -1    0    0  501    0  0.00000000000E+00  0.00000000000E+00  0.25395626148E+04  0.25395626148E+04  0.50400001928E-02 0.  1.
       -1   -1    0    0    0  501  0.00000000000E+00  0.00000000000E+00 -0.13494358961E+04  0.13494358961E+04  0.50400001928E-02 0. -1.
    10030    2    1    2    0    0  0.00000000000E+00  0.00000000000E+00  0.11901267187E+04  0.38889985109E+04  0.37024191836E+04 0.  0.
        3    1    3    3  502    0 -0.29165690584E+03 -0.50540858925E+03 -0.12503072342E+04  0.13797716416E+04  0.10100000352E+00 0. -1.
       -3    1    3    3    0  502  0.29165690584E+03  0.50540858925E+03  0.24404339529E+04  0.25092268693E+04  0.10100000352E+00 0.  1.
</event>
<event>
 5   0  0.1825308E-08  0.3705836E+04  0.7818609E-02  0.8066670E-01
       -2   -1    0    0    0  501  0.00000000000E+00  0.00000000000E+00  0.28717554333E+04  0.28717554333E+04  0.25500000920E-02 0.  1.
        2   -1    0    0  501    0  0.00000000000E+00  0.00000000000E+00 -0.11955420203E+04  0.11955420203E+04  0.25500000920E-02 0. -1.
    10030    2    1    2    0    0  0.00000000000E+00  0.00000000000E+00  0.16762134131E+04  0.40672974536E+04  0.37058355563E+04 0.  0.
        4    1    3    3  502    0 -0.61479903320E+03 -0.22291966549E+03 -0.10646693096E+04  0.12494772428E+04  0.12699999809E+01 0. -1.
       -4    1    3    3    0  502  0.61479903320E+03  0.22291966549E+03  0.27408827227E+04  0.28178202109E+04  0.12699999809E+01 0.  1.
</event>
<event>
 5   0  0.1725865E-08  0.3705561E+04  0.7818609E-02  0.8066731E-01
       -2   -1    0    0    0  501  0.00000000000E+00  0.00000000000E+00  0.17479667862E+04  0.17479667862E+04  0.25500000920E-02 0. -1.
        2   -1    0    0  501    0  0.00000000000E+00  0.00000000000E+00 -0.19638791814E+04  0.19638791814E+04  0.25500000920E-02 0.  1.
    10030    2    1    2    0    0  0.00000000000E+00  0.00000000000E+00 -0.21591239516E+03  0.37118459676E+04  0.37055610001E+04 0.  0.
        1    1    3    3  502    0  0.14050611991E+04  0.10887790170E+03 -0.13128030722E+04  0.19260070813E+04  0.50400001928E-02 0.  1.
       -1    1    3    3    0  502 -0.14050611991E+04 -0.10887790170E+03  0.10968906770E+04  0.17858388864E+04  0.50400001928E-02 0. -1.
</event>
<event>
 5   0  0.1740290E-08  0.3695282E+04  0.7818609E-02  0.8069008E-01
       -2   -1    0    0    0  501  0.00000000000E+00  0.00000000000E+00  0.11841437842E+04  0.11841437842E+04  0.25500000920E-02 0.  1.
        2   -1    0    0  501    0  0.00000000000E+00  0.00000000000E+00 -0.28829071629E+04  0.28829071629E+04  0.25500000920E-02 0. -1.
    10030    2    1    2    0    0  0.00000000000E+00  0.00000000000E+00 -0.16987633787E+04  0.40670509471E+04  0.36952816387E+04 0.  0.
        5    1    3    3  502    0  0.99057210793E+03 -0.19297308366E+03 -0.25527574632E+04  0.27450071890E+04  0.46999998093E+01 0. -1.
       -5    1    3    3    0  502 -0.99057210793E+03  0.19297308366E+03  0.85399408445E+03  0.13220437581E+04  0.46999998093E+01 0.  1.
</event>
<event>
 5   0  0.5714125E-09  0.3700515E+04  0.7818609E-02  0.8067848E-01
       -1   -1    0    0    0  501  0.00000000000E+00  0.00000000000E+00  0.14491122353E+04  0.14491122353E+04  0.50400001928E-02 0.  1.
        1   -1    0    0  501    0  0.00000000000E+00  0.00000000000E+00 -0.23624479626E+04  0.23624479626E+04  0.50400001928E-02 0. -1.
    10030    2    1    2    0    0  0.00000000000E+00  0.00000000000E+00 -0.91333572728E+03  0.38115601978E+04  0.37005146927E+04 0.  0.
        2    1    3    3  502    0 -0.19389534473E+03  0.11871838577E+04  0.99138265192E+03  0.15587945596E+04  0.25500000920E-02 0.  1.
       -2    1    3    3    0  502  0.19389534473E+03 -0.11871838577E+04 -0.19047183792E+04  0.22527656382E+04  0.25500000920E-02 0. -1.
</event>
<event>
 5   0  0.5714125E-09  0.3700821E+04  0.7818609E-02  0.8067780E-01
       -3   -1    0    0    0  501  0.00000000000E+00  0.00000000000E+00  0.21185518695E+04  0.21185518719E+04  0.10100000352E+00 0.  1.
        3   -1    0    0  501    0  0.00000000000E+00  0.00000000000E+00 -0.16162074656E+04  0.16162074687E+04  0.10100000352E+00 0. -1.
    10030    2    1    2    0    0  0.00000000000E+00  0.00000000000E+00  0.50234440392E+03  0.37347593406E+04  0.37008211835E+04 0.  0.
        4    1    3    3  502    0  0.78253271207E+02  0.18234830534E+04 -0.56258491363E+02  0.18260286556E+04  0.12699999809E+01 0.  1.
       -4    1    3    3    0  502 -0.78253271207E+02 -0.18234830534E+04  0.55860289528E+03  0.19087306850E+04  0.12699999809E+01 0. -1.
</event>
<event>
 5   0  0.1825308E-08  0.3699431E+04  0.7818609E-02  0.8068088E-01
        2   -1    0    0  501    0  0.00000000000E+00  0.00000000000E+00  0.21635738188E+04  0.21635738188E+04  0.25500000920E-02 0.  1.
       -2   -1    0    0    0  501  0.00000000000E+00  0.00000000000E+00 -0.15813870119E+04  0.15813870119E+04  0.25500000920E-02 0. -1.
    10030    2    1    2    0    0  0.00000000000E+00  0.00000000000E+00  0.58218680685E+03  0.37449608307E+04  0.36994310570E+04 0.  0.
        4    1    3    3  502    0  0.15938029024E+04 -0.82757695445E+03 -0.15747935910E+03  0.18027458691E+04  0.12699999809E+01 0. -1.
       -4    1    3    3    0  502 -0.15938029024E+04  0.82757695445E+03  0.73966616596E+03  0.19422149616E+04  0.12699999809E+01 0.  1.
</event>
<event>
 5   0  0.5714125E-09  0.3699440E+04  0.7818609E-02  0.8068086E-01
       -1   -1    0    0    0  501  0.00000000000E+00  0.00000000000E+00  0.12105306991E+04  0.12105306991E+04  0.50400001928E-02 0. -1.
        1   -1    0    0  501    0  0.00000000000E+00  0.00000000000E+00 -0.28264167506E+04  0.28264167506E+04  0.50400001928E-02 0.  1.
    10030    2    1    2    0    0  0.00000000000E+00  0.00000000000E+00 -0.16158860515E+04  0.40369474497E+04  0.36994400901E+04 0.  0.
        3    1    3    3  502    0  0.12481757490E+04  0.42496862896E+03  0.60768530672E+03  0.14518341772E+04  0.10100000352E+00 0. -1.
       -3    1    3    3    0  502 -0.12481757490E+04 -0.42496862896E+03 -0.22235713583E+04  0.25851132725E+04  0.10100000352E+00 0.  1.
</event>
<event>
 5   0  0.1825308E-08  0.3697427E+04  0.7818609E-02  0.8068532E-01
       -2   -1    0    0    0  501  0.00000000000E+00  0.00000000000E+00  0.20935020115E+04  0.20935020116E+04  0.25500000920E-02 0. -1.
        2   -1    0    0  501    0  0.00000000000E+00  0.00000000000E+00 -0.16325476845E+04  0.16325476845E+04  0.25500000920E-02 0.  1.
    10030    2    1    2    0    0  0.00000000000E+00  0.00000000000E+00  0.46095432707E+03  0.37260496960E+04  0.36974271387E+04 0.  0.
        4    1    3    3  502    0  0.84802752491E+03  0.16212886544E+04 -0.36170216832E+02  0.18300375629E+04  0.12699999809E+01 0.  1.
       -4    1    3    3    0  502 -0.84802752491E+03 -0.16212886544E+04  0.49712454390E+03  0.18960121332E+04  0.12699999809E+01 0. -1.
</event>
<event>
 5   0  0.5714125E-09  0.3700103E+04  0.7818609E-02  0.8067939E-01
       -1   -1    0    0    0  501  0.00000000000E+00  0.00000000000E+00  0.27972084314E+04  0.27972084314E+04  0.50400001928E-02 0.  1.
        1   -1    0    0  501    0  0.00000000000E+00  0.00000000000E+00 -0.12236096074E+04  0.12236096074E+04  0.50400001928E-02 0. -1.
    10030    2    1    2    0    0  0.00000000000E+00  0.00000000000E+00  0.15735988241E+04  0.40208180388E+04  0.37001033015E+04 0.  0.
        3    1    3    3  502    0 -0.17020758434E+04 -0.45504287672E+03  0.17346188958E+03  0.17703714960E+04  0.10100000352E+00 0. -1.
       -3    1    3    3    0  502  0.17020758434E+04  0.45504287672E+03  0.14001369345E+04  0.22504465428E+04  0.10100000352E+00 0.  1.
</event>
<event>
 5   0  0.5714125E-09  0.3701247E+04  0.7818609E-02  0.8067686E-01
        1   -1    0    0  501    0  0.00000000000E+00  0.00000000000E+00  0.13274338117E+04  0.13274338117E+04  0.50400001928E-02 0. -1.
       -1   -1    0    0    0  501  0.00000000000E+00  0.00000000000E+00 -0.25800208334E+04  0.25800208334E+04  0.50400001928E-02 0.  1.
    10030    2    1    2    0    0  0.00000000000E+00  0.00000000000E+00 -0.12525870218E+04  0.39074546451E+04  0.37012467570E+04 0.  0.
        3    1    3    3  502    0  0.14807913941E+03 -0.49066869953E+03 -0.25036006501E+04  0.25555233182E+04  0.10100000352E+00 0.  1.
       -3    1    3    3    0  502 -0.14807913941E+03  0.49066869953E+03  0.12510136283E+04  0.13519313269E+04  0.10100000352E+00 0. -1.
</event>
<event>
 5   0  0.1725865E-08  0.3700688E+04  0.7818609E-02  0.8067809E-01
        2   -1    0    0  501    0  0.00000000000E+00  0.00000000000E+00  0.24597839639E+04  0.24597839639E+04  0.25500000920E-02 0. -1.
       -2   -1    0    0    0  501  0.00000000000E+00  0.00000000000E+00 -0.13919000587E+04  0.13919000587E+04  0.25500000920E-02 0.  1.
    10030    2    1    2    0    0  0.00000000000E+00  0.00000000000E+00  0.10678839052E+04  0.38516840226E+04  0.37006882839E+04 0.  0.
        1    1    3    3  502    0  0.82796596742E+03  0.15702328675E+04  0.10773707593E+04  0.20765082842E+04  0.50400001928E-02 0. -1.
       -1    1    3    3    0  502 -0.82796596742E+03 -0.15702328675E+04 -0.94868540607E+01  0.17751757383E+04  0.50400001928E-02 0.  1.
</event>
<event>
 5   0  0.1725865E-08  0.3694254E+04  0.7818609E-02  0.8069236E-01
       -2   -1    0    0    0  501  0.00000000000E+00  0.00000000000E+00  0.13242258467E+04  0.13242258467E+04  0.25500000920E-02 0. -1.
        2   -1    0    0  501    0  0.00000000000E+00  0.00000000000E+00 -0.25765073454E+04  0.25765073454E+04  0.25500000920E-02 0.  1.
    10030    2    1    2    0    0  0.00000000000E+00  0.00000000000E+00 -0.12522814987E+04  0.39007331922E+04  0.36942537114E+04 0.  0.
        1    1    3    3  502    0  0.75605490740E+03  0.13592944307E+04 -0.16781067063E+04  0.22880870810E+04  0.50400001928E-02 0. -1.
       -1    1    3    3    0  502 -0.75605490740E+03 -0.13592944307E+04  0.42582520762E+03  0.16126461112E+04  0.50400001928E-02 0.  1.
</event>
<event>
 5   0  0.1825308E-08  0.3699301E+04  0.7818609E-02  0.8068117E-01
        2   -1    0    0  501    0  0.00000000000E+00  0.00000000000E+00  0.19393256959E+04  0.19393256959E+04  0.25500000920E-02 0. -1.
       -2   -1    0    0    0  501  0.00000000000E+00  0.00000000000E+00 -0.17641216136E+04  0.17641216136E+04  0.25500000920E-02 0.  1.
    10030    2    1    2    0    0  0.00000000000E+00  0.00000000000E+00  0.17520408235E+03  0.37034473095E+04  0.36993006777E+04 0.  0.
        4    1    3    3  502    0  0.13657734683E+03 -0.83528925988E+03  0.17340863214E+04  0.19296161542E+04  0.12699999809E+01 0. -1.
       -4    1    3    3    0  502 -0.13657734683E+03  0.83528925988E+03 -0.15588822391E+04  0.17738311553E+04  0.12699999809E+01 0.  1.
</event>
<event>
 5   0  0.1825308E-08  0.3696020E+04  0.7818609E-02  0.8068844E-01
        2   -1    0    0  501    0  0.00000000000E+00  0.00000000000E+00  0.22650508745E+04  0.22650508746E+04  0.25500000920E-02 0.  1.
       -2   -1    0    0    0  501  0.00000000000E+00  0.00000000000E+00 -0.15077550410E+04  0.15077550410E+04  0.25500000920E-02 0. -1.
    10030    2    1    2    0    0  0.00000000000E+00  0.00000000000E+00  0.75729583355E+03  0.37728059156E+04  0.36960204947E+04 0.  0.
        4    1    3    3  502    0 -0.90816995610E+02 -0.13613817421E+04 -0.89365415810E+03  0.16310203376E+04  0.12699999809E+01 0. -1.
       -4    1    3    3    0  502  0.90816995610E+02  0.13613817421E+04  0.16509499916E+04  0.21417855780E+04  0.12699999809E+01 0.  1.
</event>
<event>
 5   0  0.5714125E-09  0.3698925E+04  0.7818609E-02  0.8068200E-01
       -1   -1    0    0    0  501  0.00000000000E+00  0.00000000000E+00  0.13255426103E+04  0.13255426103E+04  0.50400001928E-02 0.  1.
        1   -1    0    0  501    0  0.00000000000E+00  0.00000000000E+00 -0.25804614028E+04  0.25804614028E+04  0.50400001928E-02 0. -1.
    10030    2    1    2    0    0  0.00000000000E+00  0.00000000000E+00 -0.12549187925E+04  0.39060040131E+04  0.36989250026E+04 0.  0.
        1    1    3    3  502    0 -0.13362212679E+04 -0.45343416616E+03  0.63505793411E+03  0.15473811423E+04  0.50400001928E-02 0.  1.
       -1    1    3    3    0  502  0.13362212679E+04  0.45343416616E+03 -0.18899767266E+04  0.23586228708E+04  0.50400001928E-02 0. -1.
</event>
<event>
 5   0  0.5714125E-09  0.3699059E+04  0.7818609E-02  0.8068170E-01
       -1   -1    0    0    0  501  0.00000000000E+00  0.00000000000E+00  0.28439170747E+04  0.28439170747E+04  0.50400001928E-02 0.  1.
        1   -1    0    0  501    0  0.00000000000E+00  0.00000000000E+00 -0.12028340150E+04  0.12028340150E+04  0.50400001928E-02 0. -1.
    10030    2    1    2    0    0  0.00000000000E+00  0.00000000000E+00  0.16410830597E+04  0.40467510897E+04  0.36990594444E+04 0.  0.
        3    1    3    3  502    0  0.43523851105E+03 -0.10186877817E+04 -0.79975379971E+03  0.13662955421E+04  0.10100000352E+00 0. -1.
       -3    1    3    3    0  502 -0.43523851105E+03  0.10186877817E+04  0.24408368594E+04  0.26804555475E+04  0.10100000352E+00 0.  1.
</event>
<event>
 5   0  0.1856107E-08  0.3696978E+04  0.7818609E-02  0.8068632E-01
       -2   -1    0    0    0  501  0.00000000000E+00  0.00000000000E+00  0.14984533996E+04  0.14984533996E+04  0.25500000920E-02 0. -1.
        2   -1    0    0  501    0  0.00000000000E+00  0.00000000000E+00 -0.22802927327E+04  0.22802927327E+04  0.25500000920E-02 0.  1.
    10030    2    1    2    0    0  0.00000000000E+00  0.00000000000E+00 -0.78183933315E+03  0.37787461323E+04  0.36969784405E+04 0.  0.
        2    1    3    3  502    0 -0.10695186175E+04 -0.14983222493E+04 -0.56217470847E+03  0.19248064938E+04  0.25500000920E-02 0. -1.
       -2    1    3    3    0  502  0.10695186175E+04  0.14983222493E+04 -0.21966462468E+03  0.18539396385E+04  0.25500000920E-02 0.  1.
</event>
<event>
 5   0  0.5714125E-09  0.3700338E+04  0.7818609E-02  0.8067887E-01
       -1   -1    0    0    0  501  0.00000000000E+00  0.00000000000E+00  0.17181253209E+04  0.17181253209E+04  0.50400001928E-02 0. -1.
        1   -1    0    0  501    0  0.00000000000E+00  0.00000000000E+00 -0.19923610497E+04  0.19923610497E+04  0.50400001928E-02 0.  1.
    10030    2    1    2    0    0  0.00000000000E+00  0.00000000000E+00 -0.27423572882E+03  0.37104863706E+04  0.37003383455E+04 0.  0.
        2    1    3    3  502    0  0.21006689734E+03 -0.16647523021E+04 -0.91874106762E+03  0.19130116252E+04  0.25500000920E-02 0.  1.
       -2    1    3    3    0  502 -0.21006689734E+03  0.16647523021E+04  0.64450533880E+03  0.17974747454E+04  0.25500000920E-02 0. -1.
</event>
<event>
 5   0  0.5714125E-09  0.3700972E+04  0.7818609E-02  0.8067746E-01
       -1   -1    0    0    0  501  0.00000000000E+00  0.00000000000E+00  0.15290497736E+04  0.15290497736E+04  0.50400001928E-02 0.  1.
        1   -1    0    0  501    0  0.00000000000E+00  0.00000000000E+00 -0.22394944303E+04  0.22394944303E+04  0.50400001928E-02 0. -1.
    10030    2    1    2    0    0  0.00000000000E+00  0.00000000000E+00 -0.71044465669E+03  0.37685442039E+04  0.37009720084E+04 0.  0.
        4    1    3    3  502    0  0.13510612390E+04  0.11919120418E+04 -0.78515882893E+03  0.19653235831E+04  0.12699999809E+01 0.  1.
       -4    1    3    3    0  502 -0.13510612390E+04 -0.11919120418E+04  0.74714172239E+02  0.18032206208E+04  0.12699999809E+01 0. -1.
</event>
<event>
 5   0  0.5714125E-09  0.3700768E+04  0.7818609E-02  0.8067792E-01
       -1   -1    0    0    0  501  0.00000000000E+00  0.00000000000E+00  0.15402869391E+04  0.15402869391E+04  0.50400001928E-02 0.  1.
        1   -1    0    0  501    0  0.00000000000E+00  0.00000000000E+00 -0.22229108770E+04  0.22229108770E+04  0.50400001928E-02 0. -1.
    10030    2    1    2    0    0  0.00000000000E+00  0.00000000000E+00 -0.68262393788E+03  0.37631978161E+04  0.37007678072E+04 0.  0.
        4    1    3    3  502    0 -0.73666551340E+03  0.86940357268E+03 -0.18237738623E+04  0.21505095593E+04  0.12699999809E+01 0. -1.
       -4    1    3    3    0  502  0.73666551340E+03 -0.86940357268E+03  0.11411499244E+04  0.16126882568E+04  0.12699999809E+01 0.  1.
</event>
<event>
 5   0  0.1856107E-08  0.3702996E+04  0.7818609E-02  0.8067298E-01
        2   -1    0    0  501    0  0.00000000000E+00  0.00000000000E+00  0.19132368572E+04  0.19132368572E+04  0.25500000920E-02 0.  1.
       -2   -1    0    0    0  501  0.00000000000E+00  0.00000000000E+00 -0.17917518649E+04  0.17917518649E+04  0.25500000920E-02 0. -1.
    10030    2    1    2    0    0  0.00000000000E+00  0.00000000000E+00  0.12148499229E+03  0.37049887221E+04  0.37029964660E+04 0.  0.
        2    1    3    3  502    0 -0.70922254117E+01  0.11324264043E+04  0.15263192392E+04  0.19005499943E+04  0.25500000920E-02 0.  1.
       -2    1    3    3    0  502  0.70922254117E+01 -0.11324264043E+04 -0.14048342470E+04  0.18044387277E+04  0.25500000920E-02 0. -1.
</event>
<event>
 5   0  0.5714125E-09  0.3701261E+04  0.7818609E-02  0.8067682E-01
       -1   -1    0    0    0  501  0.00000000000E+00  0.00000000000E+00  0.17266105463E+04  0.17266105463E+04  0.50400001928E-02 0.  1.
        1   -1    0    0  501    0  0.00000000000E+00  0.00000000000E+00 -0.19835583531E+04  0.19835583531E+04  0.50400001928E-02 0. -1.
    10030    2    1    2    0    0  0.00000000000E+00  0.00000000000E+00 -0.25694780677E+03  0.37101688994E+04  0.37012607428E+04 0.  0.
        1    1    3    3  502    0 -0.92328000405E+03 -0.11866181512E+04 -0.12101094615E+04  0.19299931376E+04  0.50400001928E-02 0.  1.
       -1    1    3    3    0  502  0.92328000405E+03  0.11866181512E+04  0.95316165470E+03  0.17801757617E+04  0.50400001928E-02 0. -1.
</event>
<event>
 5   0  0.1856107E-08  0.3702500E+04  0.7818609E-02  0.8067408E-01
       -2   -1    0    0    0  501  0.00000000000E+00  0.00000000000E+00  0.23751455063E+04  0.23751455063E+04  0.25500000920E-02 0.  1.
        2   -1    0    0  501    0  0.00000000000E+00  0.00000000000E+00 -0.14429125239E+04  0.14429125239E+04  0.25500000920E-02 0. -1.
    10030    2    1    2    0    0  0.00000000000E+00  0.00000000000E+00  0.93223298243E+03  0.38180580302E+04  0.37025003429E+04 0.  0.
        2    1    3    3  502    0 -0.52026389235E+03 -0.17467235347E+04  0.80091802902E+03  0.19907755558E+04  0.25500000920E-02 0.  1.
       -2    1    3    3    0  502  0.52026389235E+03  0.17467235347E+04  0.13131495341E+03  0.18272824744E+04  0.25500000920E-02 0. -1.
</event>
<event>
 5   0  0.1856107E-08  0.3701024E+04  0.7818609E-02  0.8067735E-01
        2   -1    0    0  501    0  0.00000000000E+00  0.00000000000E+00  0.21270408748E+04  0.21270408748E+04  0.25500000920E-02 0.  1.
       -2   -1    0    0    0  501  0.00000000000E+00  0.00000000000E+00 -0.16099332894E+04  0.16099332894E+04  0.25500000920E-02 0. -1.
    10030    2    1    2    0    0  0.00000000000E+00  0.00000000000E+00  0.51710758535E+03  0.37369741642E+04  0.37010235948E+04 0.  0.
        2    1    3    3  502    0 -0.44183469267E+03  0.40359444760E+03 -0.15095374803E+04  0.16238256612E+04  0.25500000920E-02 0. -1.
       -2    1    3    3    0  502  0.44183469267E+03 -0.40359444760E+03  0.20266450656E+04  0.21131485030E+04  0.25500000920E-02 0.  1.
</event>
<event>
 5   0  0.1856107E-08  0.3699780E+04  0.7818609E-02  0.8068011E-01
       -2   -1    0    0    0  501  0.00000000000E+00  0.00000000000E+00  0.19188297655E+04  0.19188297655E+04  0.25500000920E-02 0. -1.
        2   -1    0    0  501    0  0.00000000000E+00  0.00000000000E+00 -0.17834266942E+04  0.17834266942E+04  0.25500000920E-02 0.  1.
    10030    2    1    2    0    0  0.00000000000E+00  0.00000000000E+00  0.13540307130E+03  0.37022564597E+04  0.36997795747E+04 0.  0.
        2    1    3    3  502    0 -0.73380000567E+03  0.15830543125E+04 -0.54717611949E+03  0.18286402353E+04  0.25500000920E-02 0.  1.
       -2    1    3    3    0  502  0.73380000567E+03 -0.15830543125E+04  0.68257919079E+03  0.18736162244E+04  0.25500000920E-02 0. -1.
</event>
<event>
 5   0  0.1725865E-08  0.3700469E+04  0.7818609E-02  0.8067858E-01
        2   -1    0    0  501    0  0.00000000000E+00  0.00000000000E+00  0.20189298411E+04  0.20189298411E+04  0.25500000920E-02 0.  1.
       -2   -1    0    0    0  501  0.00000000000E+00  0.00000000000E+00 -0.16956347678E+04  0.16956347678E+04  0.25500000920E-02 0. -1.
    10030    2    1    2    0    0  0.00000000000E+00  0.00000000000E+00  0.32329507325E+03  0.37145646089E+04  0.37004689607E+04 0.  0.
        1    1    3    3  502    0  0.37383406770E+03 -0.10308936359E+04  0.16575838823E+04  0.19874802957E+04  0.50400001928E-02 0.  1.
       -1    1    3    3    0  502 -0.37383406770E+03  0.10308936359E+04 -0.13342888091E+04  0.17270843132E+04  0.50400001928E-02 0. -1.
</event>
<event>
 5   0  0.5714125E-09  0.3700007E+04  0.7818609E-02  0.8067960E-01
        1   -1    0    0  501    0  0.00000000000E+00  0.00000000000E+00  0.11785361262E+04  0.11785361262E+04  0.50400001928E-02 0.  1.
       -1   -1    0    0    0  501  0.00000000000E+00  0.00000000000E+00 -0.29040374433E+04  0.29040374433E+04  0.50400001928E-02 0. -1.
    10030    2    1    2    0    0  0.00000000000E+00  0.00000000000E+00 -0.17255013171E+04  0.40825735695E+04  0.37000070480E+04 0.  0.
        2    1    3    3  502    0 -0.16878182040E+04  0.17321085960E+03 -0.16764114370E+04  0.23851808312E+04  0.25500000920E-02 0. -1.
       -2    1    3    3    0  502  0.16878182040E+04 -0.17321085960E+03 -0.49089880109E+02  0.16973927383E+04  0.25500000920E-02 0.  1.
</event>
<event>
 5   0  0.1825308E-08  0.3700615E+04  0.7818609E-02  0.8067826E-01
       -2   -1    0    0    0  501  0.00000000000E+00  0.00000000000E+00  0.33875818754E+04  0.33875818754E+04  0.25500000920E-02 0. -1.
        2   -1    0    0  501    0  0.00000000000E+00  0.00000000000E+00 -0.10106434034E+04  0.10106434034E+04  0.25500000920E-02 0.  1.
    10030    2    1    2    0    0  0.00000000000E+00  0.00000000000E+00  0.23769384720E+04  0.43982252788E+04  0.37006146926E+04 0.  0.
        4    1    3    3  502    0 -0.40511123628E+03  0.74351703141E+03 -0.76687804383E+03  0.11423818262E+04  0.12699999809E+01 0.  1.
       -4    1    3    3    0  502  0.40511123628E+03 -0.74351703141E+03  0.31438165159E+04  0.32558434526E+04  0.12699999809E+01 0. -1.
</event>
<event>
 5   0  0.1740290E-08  0.3700061E+04  0.7818609E-02  0.8067948E-01
       -2   -1    0    0    0  501  0.00000000000E+00  0.00000000000E+00  0.14940081550E+04  0.14940081550E+04  0.25500000920E-02 0.  1.
        2   -1    0    0  501    0  0.00000000000E+00  0.00000000000E+00 -0.22908927904E+04  0.22908927904E+04  0.25500000920E-02 0. -1.
    10030    2    1    2    0    0  0.00000000000E+00  0.00000000000E+00 -0.79688463534E+03  0.37849009454E+04  0.37000608163E+04 0.  0.
        5    1    3    3  502    0  0.16370118784E+04  0.68541052346E+03 -0.93291185684E+03  0.20049793261E+04  0.46999998093E+01 0.  1.
       -5    1    3    3    0  502 -0.16370118784E+04 -0.68541052346E+03  0.13602722149E+03  0.17799216192E+04  0.46999998093E+01 0. -1.
</event>
<event>
 5   0  0.5714125E-09  0.3699396E+04  0.7818609E-02  0.8068096E-01
        1   -1    0    0  501    0  0.00000000000E+00  0.00000000000E+00  0.26149402785E+04  0.26149402785E+04  0.50400001928E-02 0. -1.
       -1   -1    0    0    0  501  0.00000000000E+00  0.00000000000E+00 -0.13083978636E+04  0.13083978636E+04  0.50400001928E-02 0.  1.
    10030    2    1    2    0    0  0.00000000000E+00  0.00000000000E+00  0.13065424149E+04  0.39233381421E+04  0.36993957743E+04 0.  0.
        3    1    3    3  502    0  0.18051543758E+03 -0.14594092931E+04 -0.53666635956E+03  0.15653983837E+04  0.10100000352E+00 0.  1.
       -3    1    3    3    0  502 -0.18051543758E+03  0.14594092931E+04  0.18432087744E+04  0.23579397584E+04  0.10100000352E+00 0. -1.
</event>
<event>
 5   0  0.1740290E-08  0.3704140E+04  0.7818609E-02  0.8067045E-01
        2   -1    0    0  501    0  0.00000000000E+00  0.00000000000E+00  0.26766344561E+04  0.26766344561E+04  0.25500000920E-02 0. -1.
       -2   -1    0    0    0  501  0.00000000000E+00  0.00000000000E+00 -0.12815206921E+04  0.12815206921E+04  0.25500000920E-02 0.  1.
    10030    2    1    2    0    0  0.00000000000E+00  0.00000000000E+00  0.13951137639E+04  0.39581551482E+04  0.37041395442E+04 0.  0.
        5    1    3    3  502    0 -0.85356524153E+03  0.11597385596E+04 -0.54703536406E+03  0.15404015476E+04  0.46999998093E+01 0.  1.
       -5    1    3    3    0  502  0.85356524153E+03 -0.11597385596E+04  0.19421491280E+04  0.24177536007E+04  0.46999998093E+01 0. -1.
</event>
<event>
 5   0  0.5714125E-09  0.3700495E+04  0.7818609E-02  0.8067852E-01
       -1   -1    0    0    0  501  0.00000000000E+00  0.00000000000E+00  0.12365793267E+04  0.12365793267E+04  0.50400001928E-02 0. -1.
        1   -1    0    0  501    0  0.00000000000E+00  0.00000000000E+00 -0.27684569581E+04  0.27684569581E+04  0.50400001928E-02 0.  1.
    10030    2    1    2    0    0  0.00000000000E+00  0.00000000000E+00 -0.15318776314E+04  0.40050362848E+04  0.37004954486E+04 0.  0.
        5    1    3    3  502    0 -0.30378297390E+03 -0.43305705082E+03 -0.26848650921E+04  0.27364840868E+04  0.46999998093E+01 0.  1.
       -5    1    3    3    0  502  0.30378297390E+03  0.43305705082E+03  0.11529874607E+04  0.12685521980E+04  0.46999998093E+01 0. -1.
</event>
<event>
 5   0  0.1740290E-08  0.3698313E+04  0.7818609E-02  0.8068336E-01
        2   -1    0    0  501    0  0.00000000000E+00  0.00000000000E+00  0.20759742644E+04  0.20759742644E+04  0.25500000920E-02 0.  1.
       -2   -1    0    0    0  501  0.00000000000E+00  0.00000000000E+00 -0.16471207911E+04  0.16471207911E+04  0.25500000920E-02 0. -1.
    10030    2    1    2    0    0  0.00000000000E+00  0.00000000000E+00  0.42885347329E+03  0.37230950556E+04  0.36983133306E+04 0.  0.
        5    1    3    3  502    0  0.64384164414E+02 -0.13601326870E+04  0.14739104625E+04  0.20066241273E+04  0.46999998093E+01 0.  1.
       -5    1    3    3    0  502 -0.64384164414E+02  0.13601326870E+04 -0.10450569892E+04  0.17164709283E+04  0.46999998093E+01 0. -1.
</event>
<event>
 5   0  0.1856107E-08  0.3696485E+04  0.7818609E-02  0.8068741E-01
       -2   -1    0    0    0  501  0.00000000000E+00  0.00000000000E+00  0.15892911360E+04  0.15892911360E+04  0.25500000920E-02 0.  1.
        2   -1    0    0  501    0  0.00000000000E+00  0.00000000000E+00 -0.21493866102E+04  0.21493866102E+04  0.25500000920E-02 0. -1.
    10030    2    1    2    0    0  0.00000000000E+00  0.00000000000E+00 -0.56009547422E+03  0.37386777463E+04  0.36964854051E+04 0.  0.
        2    1    3    3  502    0  0.55006679870E+03 -0.15774925817E+04  0.51951004083E+03  0.17495562325E+04  0.25500000920E-02 0.  1.
       -2    1    3    3    0  502 -0.55006679870E+03  0.15774925817E+04 -0.10796055150E+04  0.19891215137E+04  0.25500000920E-02 0. -1.
</event>
<event>
 5   0  0.5714125E-09  0.3700809E+04  0.7818609E-02  0.8067783E-01
        1   -1    0    0  501    0  0.00000000000E+00  0.00000000000E+00  0.31692402210E+04  0.31692402210E+04  0.50400001928E-02 0. -1.
       -1   -1    0    0    0  501  0.00000000000E+00  0.00000000000E+00 -0.10803840967E+04  0.10803840967E+04  0.50400001928E-02 0.  1.
    10030    2    1    2    0    0  0.00000000000E+00  0.00000000000E+00  0.20888561244E+04  0.42496243177E+04  0.37008089566E+04 0.  0.
        1    1    3    3  502    0  0.58323090004E+03 -0.61067588080E+03 -0.84622436125E+03  0.11954827409E+04  0.50400001928E-02 0.  1.
       -1    1    3    3    0  502 -0.58323090004E+03  0.61067588080E+03  0.29350804856E+04  0.30541415768E+04  0.50400001928E-02 0. -1.
</event>
<event>
 5   0  0.5714125E-09  0.3699684E+04  0.7818609E-02  0.8068032E-01
        1   -1    0    0  501    0  0.00000000000E+00  0.00000000000E+00  0.10973379065E+04  0.10973379065E+04  0.50400001928E-02 0. -1.
       -1   -1    0    0    0  501  0.00000000000E+00  0.00000000000E+00 -0.31183794236E+04  0.31183794236E+04  0.50400001928E-02 0.  1.
    10030    2    1    2    0    0  0.00000000000E+00  0.00000000000E+00 -0.20210415171E+04  0.42157173301E+04  0.36996842829E+04 0.  0.
        3    1    3    3  502    0  0.11705890677E+04 -0.12136449617E+04 -0.18773523193E+04  0.25234231907E+04  0.10100000352E+00 0.  1.
       -3    1    3    3    0  502 -0.11705890677E+04  0.12136449617E+04 -0.14368919784E+03  0.16922941394E+04  0.10100000352E+00 0. -1.
</event>
<event>
 5   0  0.1825308E-08  0.3702020E+04  0.7818609E-02  0.8067514E-01
       -2   -1    0    0    0  501  0.00000000000E+00  0.00000000000E+00  0.14348676166E+04  0.14348676166E+04  0.25500000920E-02 0. -1.
        2   -1    0    0  501    0  0.00000000000E+00  0.00000000000E+00 -0.23878428624E+04  0.23878428624E+04  0.25500000920E-02 0.  1.
    10030    2    1    2    0    0  0.00000000000E+00  0.00000000000E+00 -0.95297524584E+03  0.38227104791E+04  0.37020202036E+04 0.  0.
        4    1    3    3  502    0 -0.28005706850E+03 -0.10356147035E+04  0.10811004924E+04  0.15230593105E+04  0.12699999809E+01 0. -1.
       -4    1    3    3    0  502  0.28005706850E+03  0.10356147035E+04 -0.20340757382E+04  0.22996511686E+04  0.12699999809E+01 0.  1.
</event>
<event>
 5   0  0.1825308E-08  0.3717256E+04  0.7818609E-02  0.8064149E-01
       -2   -1    0    0    0  501  0.00000000000E+00  0.00000000000E+00  0.16908251318E+04  0.16908251318E+04  0.25500000920E-02 0. -1.
        2   -1    0    0  501    0  0.00000000000E+00  0.00000000000E+00 -0.20430837346E+04  0.20430837346E+04  0.25500000920E-02 0.  1.
    10030    2    1    2    0    0  0.00000000000E+00  0.00000000000E+00 -0.35225860280E+03  0.37339088664E+04  0.37172556140E+04 0.  0.
        4    1    3    3  502    0  0.84193054618E+03 -0.38818590763E+03 -0.17942341254E+04  0.20196071532E+04  0.12699999809E+01 0.  1.
       -4    1    3    3    0  502 -0.84193054618E+03  0.38818590763E+03  0.14419755226E+04  0.17143017133E+04  0.12699999809E+01 0. -1.
</event>
<event>
 5   0  0.1725865E-08  0.3701287E+04  0.7818609E-02  0.8067677E-01
        2   -1    0    0  501    0  0.00000000000E+00  0.00000000000E+00  0.11647128082E+04  0.11647128082E+04  0.25500000920E-02 0.  1.
       -2   -1    0    0    0  501  0.00000000000E+00  0.00000000000E+00 -0.29405369493E+04  0.29405369493E+04  0.25500000920E-02 0. -1.
    10030    2    1    2    0    0  0.00000000000E+00  0.00000000000E+00 -0.17758241411E+04  0.41052497575E+04  0.37012868292E+04 0.  0.
        1    1    3    3  502    0 -0.63612578138E+03 -0.11009455731E+04 -0.23793436535E+04  0.26977793435E+04  0.50400001928E-02 0. -1.
       -1    1    3    3    0  502  0.63612578138E+03  0.11009455731E+04  0.60351951241E+03  0.14074704141E+04  0.50400001928E-02 0.  1.
</event>
<event>
 5   0  0.1740290E-08  0.3698242E+04  0.7818609E-02  0.8068352E-01
       -2   -1    0    0    0  501  0.00000000000E+00  0.00000000000E+00  0.19300484171E+04  0.19300484171E+04  0.25500000920E-02 0.  1.
        2   -1    0    0  501    0  0.00000000000E+00  0.00000000000E+00 -0.17715866461E+04  0.17715866461E+04  0.25500000920E-02 0. -1.
    10030    2    1    2    0    0  0.00000000000E+00  0.00000000000E+00  0.15846177101E+03  0.37016350633E+04  0.36982417456E+04 0.  0.
        5    1    3    3  502    0  0.12553314432E+04 -0.28361034785E+03  0.14082044335E+04  0.19077090130E+04  0.46999998093E+01 0.  1.
       -5    1    3    3    0  502 -0.12553314432E+04  0.28361034785E+03 -0.12497426625E+04  0.17939260503E+04  0.46999998093E+01 0. -1.
</event>
<event>
 5   0  0.5714125E-09  0.3699071E+04  0.7818609E-02  0.8068168E-01
       -1   -1    0    0    0  501  0.00000000000E+00  0.00000000000E+00  0.17794411881E+04  0.17794411881E+04  0.50400001928E-02 0. -1.
        1   -1    0    0  501    0  0.00000000000E+00  0.00000000000E+00 -0.19223906088E+04  0.19223906088E+04  0.50400001928E-02 0.  1.
    10030    2    1    2    0    0  0.00000000000E+00  0.00000000000E+00 -0.14294942067E+03  0.37018317969E+04  0.36990707098E+04 0.  0.
        3    1    3    3  502    0 -0.17358915071E+03 -0.18126761745E+04 -0.39552640424E+03  0.18634294335E+04  0.10100000352E+00 0.  1.
       -3    1    3    3    0  502  0.17358915071E+03  0.18126761745E+04  0.25257698357E+03  0.18384023634E+04  0.10100000352E+00 0. -1.
</event>
<event>
 5   0  0.5714125E-09  0.3700572E+04  0.7818609E-02  0.8067835E-01
        1   -1    0    0  501    0  0.00000000000E+00  0.00000000000E+00  0.30246544893E+04  0.30246544893E+04  0.50400001928E-02 0.  1.
       -1   -1    0    0    0  501  0.00000000000E+00  0.00000000000E+00 -0.11318840530E+04  0.11318840530E+04  0.50400001928E-02 0. -1.
    10030    2    1    2    0    0  0.00000000000E+00  0.00000000000E+00  0.18927704364E+04  0.41565385423E+04  0.37005719462E+04 0.  0.
        1    1    3    3  502    0  0.27400868311E+03 -0.17797844156E+04  0.46872833329E+03  0.18607577959E+04  0.50400001928E-02 0.  1.
       -1    1    3    3    0  502 -0.27400868311E+03  0.17797844156E+04  0.14240421031E+04  0.22957807464E+04  0.50400001928E-02 0. -1.
</event>
<event>
 5   0  0.1856107E-08  0.3699031E+04  0.7818609E-02  0.8068177E-01
        2   -1    0    0  501    0  0.00000000000E+00  0.00000000000E+00  0.21509130018E+04  0.21509130018E+04  0.25500000920E-02 0. -1.
       -2   -1    0    0    0  501  0.00000000000E+00  0.00000000000E+00 -0.15903516485E+04  0.15903516485E+04  0.25500000920E-02 0.  1.
    10030    2    1    2    0    0  0.00000000000E+00  0.00000000000E+00  0.56056135325E+03  0.37412646503E+04  0.36990312452E+04 0.  0.
        2    1    3    3  502    0 -0.42850975835E+03  0.80761972436E+01 -0.15394338821E+04  0.15979807619E+04  0.25500000920E-02 0.  1.
       -2    1    3    3    0  502  0.42850975835E+03 -0.80761972436E+01  0.20999952353E+04  0.21432838884E+04  0.25500000920E-02 0. -1.
</event>
<event>
 5   0  0.5714125E-09  0.3700990E+04  0.7818609E-02  0.8067742E-01
       -1   -1    0    0    0  501  0.00000000000E+00  0.00000000000E+00  0.16794192882E+04  0.16794192882E+04  0.50400001928E-02 0.  1.
        1   -1    0    0  501    0  0.00000000000E+00  0.00000000000E+00 -0.20389977658E+04  0.20389977658E+04  0.50400001928E-02 0. -1.
    10030    2    1    2    0    0  0.00000000000E+00  0.00000000000E+00 -0.35957847757E+03  0.37184170540E+04  0.37009902331E+04 0.  0.
        5    1    3    3  502    0  0.46613616308E+02 -0.93195449584E+03  0.14257333874E+04  0.17039512298E+04  0.46999998093E+01 0.  1.
       -5    1    3    3    0  502 -0.46613616308E+02  0.93195449584E+03 -0.17853118650E+04  0.20144658242E+04  0.46999998093E+01 0. -1.
</event>
<event>
 5   0  0.5714125E-09  0.3698090E+04  0.7818609E-02  0.8068385E-01
        1   -1    0    0  501    0  0.00000000000E+00  0.00000000000E+00  0.15876150534E+04  0.15876150534E+04  0.50400001928E-02 0. -1.
       -1   -1    0    0    0  501  0.00000000000E+00  0.00000000000E+00 -0.21535239312E+04  0.21535239312E+04  0.50400001928E-02 0.  1.
    10030    2    1    2    0    0  0.00000000000E+00  0.00000000000E+00 -0.56590887775E+03  0.37411389846E+04  0.36980897832E+04 0.  0.
        3    1    3    3  502    0  0.48708968286E+02 -0.26217166994E+02  0.15867778031E+04  0.15877417013E+04  0.10100000352E+00 0. -1.
       -3    1    3    3    0  502 -0.48708968286E+02  0.26217166994E+02 -0.21526866809E+04  0.21533972833E+04  0.10100000352E+00 0.  1.
</event>
<event>
 5   0  0.5714125E-09  0.3698331E+04  0.7818609E-02  0.8068332E-01
       -1   -1    0    0    0  501  0.00000000000E+00  0.00000000000E+00  0.17816512543E+04  0.17816512543E+04  0.50400001928E-02 0. -1.
        1   -1    0    0  501    0  0.00000000000E+00  0.00000000000E+00 -0.19192378422E+04  0.19192378422E+04  0.50400001928E-02 0.  1.
    10030    2    1    2    0    0  0.00000000000E+00  0.00000000000E+00 -0.13758658788E+03  0.37008890965E+04  0.36983307093E+04 0.  0.
        2    1    3    3  502    0  0.54760906546E+03  0.75093687229E+03  0.15309465801E+04  0.17909716094E+04  0.25500000920E-02 0. -1.
       -2    1    3    3    0  502 -0.54760906546E+03 -0.75093687229E+03 -0.16685331680E+04  0.19099174871E+04  0.25500000920E-02 0.  1.
</event>
<event>
 5   0  0.1856107E-08  0.3699776E+04  0.7818609E-02  0.8068012E-01
       -2   -1    0    0    0  501  0.00000000000E+00  0.00000000000E+00  0.24272758497E+04  0.24272758497E+04  0.25500000920E-02 0. -1.
        2   -1    0    0  501    0  0.00000000000E+00  0.00000000000E+00 -0.14098459842E+04  0.14098459842E+04  0.25500000920E-02 0.  1.
    10030    2    1    2    0    0  0.00000000000E+00  0.00000000000E+00  0.10174298655E+04  0.38371218339E+04  0.36997757280E+04 0.  0.
        2    1    3    3  502    0  0.17464233259E+04 -0.60201156132E+03  0.61071614003E+03  0.19456069893E+04  0.25500000920E-02 0. -1.
       -2    1    3    3    0  502 -0.17464233259E+04  0.60201156132E+03  0.40671372544E+03  0.18915148447E+04  0.25500000920E-02 0.  1.
</event>
<event>
 5   0  0.1757996E-08  0.3712908E+04  0.7818609E-02  0.8065107E-01
       -2   -1    0    0    0  501  0.00000000000E+00  0.00000000000E+00  0.17274180881E+04  0.17274180881E+04  0.25500000920E-02 0. -1.
        2   -1    0    0  501    0  0.00000000000E+00  0.00000000000E+00 -0.19951283369E+04  0.19951283369E+04  0.25500000920E-02 0.  1.
    10030    2    1    2    0    0  0.00000000000E+00  0.00000000000E+00 -0.26771024880E+03  0.37225464250E+04  0.37129076354E+04 0.  0.
        3    1    3    3  502    0 -0.95320275389E+02 -0.93492992079E+03 -0.17390238348E+04  0.19767103530E+04  0.10100000352E+00 0.  1.
       -3    1    3    3    0  502  0.95320275389E+02  0.93492992079E+03  0.14713135860E+04  0.17458360719E+04  0.10100000352E+00 0. -1.
</event>
<event>
 5   0  0.5714125E-09  0.3694605E+04  0.7818609E-02  0.8069158E-01
        1   -1    0    0  501    0  0.00000000000E+00  0.00000000000E+00  0.22385419123E+04  0.22385419123E+04  0.50400001928E-02 0. -1.
       -1   -1    0    0    0  501  0.00000000000E+00  0.00000000000E+00 -0.15244419817E+04  0.15244419817E+04  0.50400001928E-02 0.  1.
    10030    2    1    2    0    0  0.00000000000E+00  0.00000000000E+00  0.71409993059E+03  0.37629838940E+04  0.36946054019E+04 0.  0.
        5    1    3    3  502    0  0.99846354176E+02 -0.96153280741E+03 -0.12462475557E+04  0.15772348253E+04  0.46999998093E+01 0.  1.
       -5    1    3    3    0  502 -0.99846354176E+02  0.96153280741E+03  0.19603474863E+04  0.21857490687E+04  0.46999998093E+01 0. -1.
</event>
<event>
 5   0  0.5714125E-09  0.3699807E+04  0.7818609E-02  0.8068005E-01
       -1   -1    0    0    0  501  0.00000000000E+00  0.00000000000E+00  0.12766463767E+04  0.12766463768E+04  0.50400001928E-02 0.  1.
        1   -1    0    0  501    0  0.00000000000E+00  0.00000000000E+00 -0.26805725945E+04  0.26805725945E+04  0.50400001928E-02 0. -1.
    10030    2    1    2    0    0  0.00000000000E+00  0.00000000000E+00 -0.14039262178E+04  0.39572189713E+04  0.36998071790E+04 0.  0.
        1    1    3    3  502    0  0.11693575638E+04 -0.12098876311E+04  0.12023152423E+03  0.16869145833E+04  0.50400001928E-02 0. -1.
       -1    1    3    3    0  502 -0.11693575638E+04  0.12098876311E+04 -0.15241577420E+04  0.22703043880E+04  0.50400001928E-02 0.  1.
</event>
<event>
 5   0  0.5714125E-09  0.3698437E+04  0.7818609E-02  0.8068308E-01
        1   -1    0    0  501    0  0.00000000000E+00  0.00000000000E+00  0.12270123147E+04  0.12270123148E+04  0.50400001928E-02 0. -1.
       -1   -1    0    0    0  501  0.00000000000E+00  0.00000000000E+00 -0.27869402276E+04  0.27869402276E+04  0.50400001928E-02 0.  1.
    10030    2    1    2    0    0  0.00000000000E+00  0.00000000000E+00 -0.15599279128E+04  0.40139525423E+04  0.36984374970E+04 0.  0.
        5    1    3    3  502    0  0.10268376291E+04 -0.63461529654E+03 -0.23003500608E+04  0.25978384444E+04  0.46999998093E+01 0.  1.
       -5    1    3    3    0  502 -0.10268376291E+04  0.63461529654E+03  0.74042214795E+03  0.14161140979E+04  0.46999998093E+01 0. -1.
</event>
<event>
 5   0  0.1740290E-08  0.3700690E+04  0.7818609E-02  0.8067809E-01
       -2   -1    0    0    0  501  0.00000000000E+00  0.00000000000E+00  0.20385460899E+04  0.20385460899E+04  0.25500000920E-02 0.  1.
        2   -1    0    0  501    0  0.00000000000E+00  0.00000000000E+00 -0.16795189394E+04  0.16795189394E+04  0.25500000920E-02 0. -1.
    10030    2    1    2    0    0  0.00000000000E+00  0.00000000000E+00  0.35902715051E+03  0.37180650293E+04  0.37006900799E+04 0.  0.
        5    1    3    3  502    0 -0.66244934978E+03 -0.13535314114E+04  0.12582717645E+04  0.19632005364E+04  0.46999998093E+01 0.  1.
       -5    1    3    3    0  502  0.66244934978E+03  0.13535314114E+04 -0.89924461401E+03  0.17548644929E+04  0.46999998093E+01 0. -1.
</event>
<event>
 5   0  0.5714125E-09  0.3697853E+04  0.7818609E-02  0.8068438E-01
        3   -1    0    0  501    0  0.00000000000E+00  0.00000000000E+00  0.36155391946E+04  0.36155391960E+04  0.10100000352E+00 0. -1.
       -3   -1    0    0    0  501  0.00000000000E+00  0.00000000000E+00 -0.94551008703E+03  0.94551009243E+03  0.10100000352E+00 0.  1.
    10030    2    1    2    0    0  0.00000000000E+00  0.00000000000E+00  0.26700291076E+04  0.45610492885E+04  0.36978527792E+04 0.  0.
        5    1    3    3  502    0 -0.14160941575E+04  0.25388699808E+03  0.27674561447E+04  0.31190730792E+04  0.46999998093E+01 0. -1.
       -5    1    3    3    0  502  0.14160941575E+04 -0.25388699808E+03 -0.97427037074E+02  0.14419762093E+04  0.46999998093E+01 0.  1.
</event>
<event>
 5   0  0.1856107E-08  0.3699969E+04  0.7818609E-02  0.8067969E-01
       -2   -1    0    0    0  501  0.00000000000E+00  0.00000000000E+00  0.18007233363E+04  0.18007233363E+04  0.25500000920E-02 0. -1.
        2   -1    0    0  501    0  0.00000000000E+00  0.00000000000E+00 -0.19005928117E+04  0.19005928117E+04  0.25500000920E-02 0.  1.
    10030    2    1    2    0    0  0.00000000000E+00  0.00000000000E+00 -0.99869475339E+02  0.37013161480E+04  0.36999685560E+04 0.  0.
        2    1    3    3  502    0  0.92013373849E+03  0.81189891569E+02 -0.16533921804E+04  0.18939228066E+04  0.25500000920E-02 0.  1.
       -2    1    3    3    0  502 -0.92013373849E+03 -0.81189891569E+02  0.15535227051E+04  0.18073933414E+04  0.25500000920E-02 0. -1.
</event>
<event>
 5   0  0.1856107E-08  0.3700634E+04  0.7818609E-02  0.8067821E-01
        2   -1    0    0  501    0  0.00000000000E+00  0.00000000000E+00  0.29813962025E+04  0.29813962025E+04  0.25500000920E-02 0.  1.
       -2   -1    0    0    0  501  0.00000000000E+00  0.00000000000E+00 -0.11483452625E+04  0.11483452625E+04  0.25500000920E-02 0. -1.
    10030    2    1    2    0    0  0.00000000000E+00  0.00000000000E+00  0.18330509400E+04  0.41297414649E+04  0.37006335699E+04 0.  0.
        2    1    3    3  502    0 -0.73327738314E+03 -0.14241298196E+04 -0.11706282597E+03  0.16060962514E+04  0.25500000920E-02 0. -1.
       -2    1    3    3    0  502  0.73327738314E+03  0.14241298196E+04  0.19501137660E+04  0.25236452135E+04  0.25500000920E-02 0.  1.
</event>
<event>
 5   0  0.1740290E-08  0.3698082E+04  0.7818609E-02  0.8068387E-01
       -2   -1    0    0    0  501  0.00000000000E+00  0.00000000000E+00  0.12549229070E+04  0.12549229070E+04  0.25500000920E-02 0.  1.
        2   -1    0    0  501    0  0.00000000000E+00  0.00000000000E+00 -0.27244330550E+04  0.27244330550E+04  0.25500000920E-02 0. -1.
    10030    2    1    2    0    0  0.00000000000E+00  0.00000000000E+00 -0.14695101480E+04  0.39793559619E+04  0.36980824486E+04 0.  0.
        5    1    3    3  502    0  0.86374619842E+03  0.11333519858E+04  0.53316387137E+03  0.15214565464E+04  0.46999998093E+01 0.  1.
       -5    1    3    3    0  502 -0.86374619842E+03 -0.11333519858E+04 -0.20026740194E+04  0.24578994155E+04  0.46999998093E+01 0. -1.
</event>
<event>
 5   0  0.1725865E-08  0.3716027E+04  0.7818609E-02  0.8064419E-01
        2   -1    0    0  501    0  0.00000000000E+00  0.00000000000E+00  0.17876800156E+04  0.17876800156E+04  0.25500000920E-02 0. -1.
       -2   -1    0    0    0  501  0.00000000000E+00  0.00000000000E+00 -0.19311146542E+04  0.19311146542E+04  0.25500000920E-02 0.  1.
    10030    2    1    2    0    0  0.00000000000E+00  0.00000000000E+00 -0.14343463854E+03  0.37187946698E+04  0.37160274892E+04 0.  0.
        1    1    3    3  502    0 -0.52259247344E+03 -0.85034978849E+03  0.14966182894E+04  0.17989063234E+04  0.50400001928E-02 0. -1.
       -1    1    3    3    0  502  0.52259247344E+03  0.85034978849E+03 -0.16400529280E+04  0.19198883464E+04  0.50400001928E-02 0.  1.
</event>
<event>
 5   0  0.1856107E-08  0.3701226E+04  0.7818609E-02  0.8067690E-01
       -2   -1    0    0    0  501  0.00000000000E+00  0.00000000000E+00  0.13844844297E+04  0.13844844297E+04  0.25500000920E-02 0. -1.
        2   -1    0    0  501    0  0.00000000000E+00  0.00000000000E+00 -0.24736774942E+04  0.24736774942E+04  0.25500000920E-02 0.  1.
    10030    2    1    2    0    0  0.00000000000E+00  0.00000000000E+00 -0.10891930645E+04  0.38581619240E+04  0.37012257294E+04 0.  0.
        2    1    3    3  502    0 -0.90424896152E+03  0.15467962664E+04 -0.10274017011E+04  0.20653811100E+04  0.25500000920E-02 0. -1.
       -2    1    3    3    0  502  0.90424896152E+03 -0.15467962664E+04 -0.61791363389E+02  0.17927808139E+04  0.25500000920E-02 0.  1.
</event>
<event>
 5   0  0.1725865E-08  0.3695680E+04  0.7818609E-02  0.8068920E-01
        2   -1    0    0  501    0  0.00000000000E+00  0.00000000000E+00  0.10979745867E+04  0.10979745867E+04  0.25500000920E-02 0. -1.
       -2   -1    0    0    0  501  0.00000000000E+00  0.00000000000E+00 -0.31098292633E+04  0.31098292633E+04  0.25500000920E-02 0.  1.
    10030    2    1    2    0    0  0.00000000000E+00  0.00000000000E+00 -0.20118546766E+04  0.42078038500E+04  0.36956804516E+04 0.  0.
        1    1    3    3  502    0  0.90225465427E+03  0.87827868304E+03 -0.25457723838E+04  0.28401397741E+04  0.50400001928E-02 0.  1.
       -1    1    3    3    0  502 -0.90225465427E+03 -0.87827868304E+03  0.53391770726E+03  0.13676640759E+04  0.50400001928E-02 0. -1.
</event>
<event>
 5   0  0.5714125E-09  0.3699343E+04  0.7818609E-02  0.8068108E-01
       -1   -1    0    0    0  501  0.00000000000E+00  0.00000000000E+00  0.12550541992E+04  0.12550541992E+04  0.50400001928E-02 0.  1.
        1   -1    0    0  501    0  0.00000000000E+00  0.00000000000E+00 -0.27260048517E+04  0.27260048517E+04  0.50400001928E-02 0. -1.
    10030    2    1    2    0    0  0.00000000000E+00  0.00000000000E+00 -0.14709506525E+04  0.39810590509E+04  0.36993425557E+04 0.  0.
        4    1    3    3  502    0  0.14589610099E+04  0.65777329891E+03 -0.17334872727E+04  0.23592822380E+04  0.12699999809E+01 0. -1.
       -4    1    3    3    0  502 -0.14589610099E+04 -0.65777329891E+03  0.26253662019E+03  0.16217768129E+04  0.12699999809E+01 0.  1.
</event>
<event>
 5   0  0.5714125E-09  0.3701854E+04  0.7818609E-02  0.8067551E-01
       -1   -1    0    0    0  501  0.00000000000E+00  0.00000000000E+00  0.13839074673E+04  0.13839074673E+04  0.50400001928E-02 0.  1.
        1   -1    0    0  501    0  0.00000000000E+00  0.00000000000E+00 -0.24755486057E+04  0.24755486057E+04  0.50400001928E-02 0. -1.
    10030    2    1    2    0    0  0.00000000000E+00  0.00000000000E+00 -0.10916411384E+04  0.38594560730E+04  0.37018536984E+04 0.  0.
        4    1    3    3  502    0 -0.66868877876E+03  0.13341025187E+04  0.59576423648E+03  0.16068325525E+04  0.12699999809E+01 0.  1.
       -4    1    3    3    0  502  0.66868877876E+03 -0.13341025187E+04 -0.16874053749E+04  0.22526235205E+04  0.12699999809E+01 0. -1.
</event>
<event>
 5   0  0.5714125E-09  0.3697917E+04  0.7818609E-02  0.8068424E-01
        1   -1    0    0  501    0  0.00000000000E+00  0.00000000000E+00  0.18449686840E+04  0.18449686840E+04  0.50400001928E-02 0.  1.
       -1   -1    0    0    0  501  0.00000000000E+00  0.00000000000E+00 -0.18529573223E+04  0.18529573223E+04  0.50400001928E-02 0. -1.
    10030    2    1    2    0    0  0.00000000000E+00  0.00000000000E+00 -0.79886383001E+01  0.36979260062E+04  0.36979173773E+04 0.  0.
        4    1    3    3  502    0 -0.49027470489E+03  0.16662735691E+04  0.62989179162E+03  0.18475936175E+04  0.12699999809E+01 0.  1.
       -4    1    3    3    0  502  0.49027470489E+03 -0.16662735691E+04 -0.63788042992E+03  0.18503323888E+04  0.12699999809E+01 0. -1.
</event>
<event>
 5   0  0.1825308E-08  0.3700561E+04  0.7818609E-02  0.8067838E-01
        2   -1    0    0  501    0  0.00000000000E+00  0.00000000000E+00  0.24748865680E+04  0.24748865680E+04  0.25500000920E-02 0. -1.
       -2   -1    0    0    0  501  0.00000000000E+00  0.00000000000E+00 -0.13833110856E+04  0.13833110856E+04  0.25500000920E-02 0.  1.
    10030    2    1    2    0    0  0.00000000000E+00  0.00000000000E+00  0.10915754824E+04  0.38581976536E+04  0.37005610521E+04 0.  0.
        4    1    3    3  502    0  0.41604499347E+03  0.18009681028E+04  0.45882688828E+03  0.19044955422E+04  0.12699999809E+01 0. -1.
       -4    1    3    3    0  502 -0.41604499347E+03 -0.18009681028E+04  0.63274859413E+03  0.19537021114E+04  0.12699999809E+01 0.  1.
</event>
<event>
 5   0  0.5714125E-09  0.3700054E+04  0.7818609E-02  0.8067950E-01
       -1   -1    0    0    0  501  0.00000000000E+00  0.00000000000E+00  0.13083684887E+04  0.13083684887E+04  0.50400001928E-02 0.  1.
        1   -1    0    0  501    0  0.00000000000E+00  0.00000000000E+00 -0.26159291816E+04  0.26159291816E+04  0.50400001928E-02 0. -1.
    10030    2    1    2    0    0  0.00000000000E+00  0.00000000000E+00 -0.13075606929E+04  0.39242976703E+04  0.37000536806E+04 0.  0.
        5    1    3    3  502    0 -0.16933089423E+04 -0.62782048211E+03 -0.10795094549E+04  0.21040001152E+04  0.46999998093E+01 0.  1.
       -5    1    3    3    0  502  0.16933089423E+04  0.62782048211E+03 -0.22805123797E+03  0.18202975550E+04  0.46999998093E+01 0. -1.
</event>
<event>
 5   0  0.5714125E-09  0.3697744E+04  0.7818609E-02  0.8068462E-01
        1   -1    0    0  501    0  0.00000000000E+00  0.00000000000E+00  0.23962771511E+04  0.23962771511E+04  0.50400001928E-02 0. -1.
       -1   -1    0    0    0  501  0.00000000000E+00  0.00000000000E+00 -0.14265162046E+04  0.14265162046E+04  0.50400001928E-02 0.  1.
    10030    2    1    2    0    0  0.00000000000E+00  0.00000000000E+00  0.96976094653E+03  0.38227933558E+04  0.36977442783E+04 0.  0.
        2    1    3    3  502    0  0.16154098738E+04  0.66127013421E+02 -0.44233718197E+03  0.16761813818E+04  0.25500000920E-02 0.  1.
       -2    1    3    3    0  502 -0.16154098738E+04 -0.66127013421E+02  0.14120981285E+04  0.21466119739E+04  0.25500000920E-02 0. -1.
</event>
<event>
 5   0  0.5714125E-09  0.3699297E+04  0.7818609E-02  0.8068118E-01
        1   -1    0    0  501    0  0.00000000000E+00  0.00000000000E+00  0.26295461239E+04  0.26295461239E+04  0.50400001928E-02 0.  1.
       -1   -1    0    0    0  501  0.00000000000E+00  0.00000000000E+00 -0.13010609923E+04  0.13010609924E+04  0.50400001928E-02 0. -1.
    10030    2    1    2    0    0  0.00000000000E+00  0.00000000000E+00  0.13284851315E+04  0.39306071162E+04  0.36992971708E+04 0.  0.
        4    1    3    3  502    0  0.57252546231E+03 -0.17125838232E+04  0.23860819316E+03  0.18214456454E+04  0.12699999809E+01 0. -1.
       -4    1    3    3    0  502 -0.57252546231E+03  0.17125838232E+04  0.10898769384E+04  0.21091614708E+04  0.12699999809E+01 0.  1.
</event>
<event>
 5   0  0.5714125E-09  0.3698844E+04  0.7818609E-02  0.8068218E-01
        1   -1    0    0  501    0  0.00000000000E+00  0.00000000000E+00  0.15260755866E+04  0.15260755866E+04  0.50400001928E-02 0.  1.
       -1   -1    0    0    0  501  0.00000000000E+00  0.00000000000E+00 -0.22412792457E+04  0.22412792457E+04  0.50400001928E-02 0. -1.
    10030    2    1    2    0    0  0.00000000000E+00  0.00000000000E+00 -0.71520365910E+03  0.37673548323E+04  0.36988438949E+04 0.  0.
        4    1    3    3  502    0  0.14448756787E+03  0.12024846581E+04 -0.17811716698E+04  0.21539313222E+04  0.12699999809E+01 0. -1.
       -4    1    3    3    0  502 -0.14448756787E+03 -0.12024846581E+04  0.10659680107E+04  0.16134235101E+04  0.12699999809E+01 0.  1.
</event>
<event>
 5   0  0.1757996E-08  0.3699453E+04  0.7818609E-02  0.8068083E-01
       -2   -1    0    0    0  501  0.00000000000E+00  0.00000000000E+00  0.16570990960E+04  0.16570990960E+04  0.25500000920E-02 0. -1.
        2   -1    0    0  501    0  0.00000000000E+00  0.00000000000E+00 -0.20647456578E+04  0.20647456578E+04  0.25500000920E-02 0.  1.
    10030    2    1    2    0    0  0.00000000000E+00  0.00000000000E+00 -0.40764656177E+03  0.37218447538E+04  0.36994530206E+04 0.  0.
        3    1    3    3  502    0 -0.97372878698E+03 -0.67722331320E+03 -0.16318189786E+04  0.20173280238E+04  0.10100000352E+00 0.  1.
       -3    1    3    3    0  502  0.97372878698E+03  0.67722331320E+03  0.12241724168E+04  0.17045167300E+04  0.10100000352E+00 0. -1.
</event>
<event>
 5   0  0.5714125E-09  0.3701654E+04  0.7818609E-02  0.8067595E-01
       -1   -1    0    0    0  501  0.00000000000E+00  0.00000000000E+00  0.13730802965E+04  0.13730802965E+04  0.50400001928E-02 0. -1.
        1   -1    0    0  501    0  0.00000000000E+00  0.00000000000E+00 -0.24948001173E+04  0.24948001173E+04  0.50400001928E-02 0.  1.
    10030    2    1    2    0    0  0.00000000000E+00  0.00000000000E+00 -0.11217198208E+04  0.38678804138E+04  0.37016541625E+04 0.  0.
        2    1    3    3  502    0  0.11717098358E+03 -0.69462422399E+01 -0.24909071345E+04  0.24936711175E+04  0.25500000920E-02 0.  1.
       -2    1    3    3    0  502 -0.11717098358E+03  0.69462422399E+01  0.13691873138E+04  0.13742092962E+04  0.25500000920E-02 0. -1.
</event>
<event>
 5   0  0.1757996E-08  0.3699115E+04  0.7818609E-02  0.8068158E-01
       -2   -1    0    0    0  501  0.00000000000E+00  0.00000000000E+00  0.16117085872E+04  0.16117085873E+04  0.25500000920E-02 0. -1.
        2   -1    0    0  501    0  0.00000000000E+00  0.00000000000E+00 -0.21225068399E+04  0.21225068399E+04  0.25500000920E-02 0.  1.
    10030    2    1    2    0    0  0.00000000000E+00  0.00000000000E+00 -0.51079825263E+03  0.37342154271E+04  0.36991147591E+04 0.  0.
        3    1    3    3  502    0  0.14362268644E+04 -0.11053233513E+04  0.11739513751E+03  0.18161136929E+04  0.10100000352E+00 0. -1.
       -3    1    3    3    0  502 -0.14362268644E+04  0.11053233513E+04 -0.62819339013E+03  0.19181017342E+04  0.10100000352E+00 0.  1.
</event>
<event>
 5   0  0.5714125E-09  0.3697597E+04  0.7818609E-02  0.8068495E-01
        1   -1    0    0  501    0  0.00000000000E+00  0.00000000000E+00  0.11464706967E+04  0.11464706967E+04  0.50400001928E-02 0.  1.
       -1   -1    0    0    0  501  0.00000000000E+00  0.00000000000E+00 -0.29813717355E+04  0.29813717355E+04  0.50400001928E-02 0. -1.
    10030    2    1    2    0    0  0.00000000000E+00  0.00000000000E+00 -0.18349010388E+04  0.41278424322E+04  0.36975966955E+04 0.  0.
        5    1    3    3  502    0 -0.66588056968E+02 -0.15699906180E+04  0.16991259665E+03  0.15805685339E+04  0.46999998093E+01 0.  1.
       -5    1    3    3    0  502  0.66588056968E+02  0.15699906180E+04 -0.20048136355E+04  0.25472738983E+04  0.46999998093E+01 0. -1.
</event>
<event>
 5   0  0.1757996E-08  0.3700355E+04  0.7818609E-02  0.8067883E-01
       -2   -1    0    0    0  501  0.00000000000E+00  0.00000000000E+00  0.17703638793E+04  0.17703638793E+04  0.25500000920E-02 0. -1.
        2   -1    0    0  501    0  0.00000000000E+00  0.00000000000E+00 -0.19335888889E+04  0.19335888889E+04  0.25500000920E-02 0.  1.
    10030    2    1    2    0    0  0.00000000000E+00  0.00000000000E+00 -0.16322500953E+03  0.37039527682E+04  0.37003545378E+04 0.  0.
        3    1    3    3  502    0  0.69728538919E+02  0.18483864296E+04 -0.12362299164E+03  0.18538276934E+04  0.10100000352E+00 0. -1.
       -3    1    3    3    0  502 -0.69728538919E+02 -0.18483864296E+04 -0.39602017894E+02  0.18501250748E+04  0.10100000352E+00 0.  1.
</event>
<event>
 5   0  0.5714125E-09  0.3721579E+04  0.7818609E-02  0.8063196E-01
       -1   -1    0    0    0  501  0.00000000000E+00  0.00000000000E+00  0.15901440659E+04  0.15901440659E+04  0.50400001928E-02 0. -1.
        1   -1    0    0  501    0  0.00000000000E+00  0.00000000000E+00 -0.21774998000E+04  0.21774998000E+04  0.50400001928E-02 0.  1.
    10030    2    1    2    0    0  0.00000000000E+00  0.00000000000E+00 -0.58735573407E+03  0.37676438659E+04  0.37215794418E+04 0.  0.
        3    1    3    3  502    0 -0.17692708942E+04  0.25527021199E+03  0.22949319998E+03  0.18022623331E+04  0.10100000352E+00 0.  1.
       -3    1    3    3    0  502  0.17692708942E+04 -0.25527021199E+03 -0.81684893405E+03  0.19653815328E+04  0.10100000352E+00 0. -1.
</event>
<event>
 5   0  0.5714125E-09  0.3700255E+04  0.7818609E-02  0.8067905E-01
        1   -1    0    0  501    0  0.00000000000E+00  0.00000000000E+00  0.22253267059E+04  0.22253267059E+04  0.50400001928E-02 0. -1.
       -1   -1    0    0    0  501  0.00000000000E+00  0.00000000000E+00 -0.15381881629E+04  0.15381881629E+04  0.50400001928E-02 0.  1.
    10030    2    1    2    0    0  0.00000000000E+00  0.00000000000E+00  0.68713854306E+03  0.37635148688E+04  0.37002546926E+04 0.  0.
        5    1    3    3  502    0  0.16064489830E+04  0.70643567305E+03 -0.25229581529E+03  0.17729650204E+04  0.46999998093E+01 0.  1.
       -5    1    3    3    0  502 -0.16064489830E+04 -0.70643567305E+03  0.93943435835E+03  0.19905498484E+04  0.46999998093E+01 0. -1.
</event>
<event>
 5   0  0.1740290E-08  0.3700735E+04  0.7818609E-02  0.8067799E-01
        2   -1    0    0  501    0  0.00000000000E+00  0.00000000000E+00  0.14212721379E+04  0.14212721379E+04  0.25500000920E-02 0.  1.
       -2   -1    0    0    0  501  0.00000000000E+00  0.00000000000E+00 -0.24090110346E+04  0.24090110346E+04  0.25500000920E-02 0. -1.
    10030    2    1    2    0    0  0.00000000000E+00  0.00000000000E+00 -0.98773889666E+03  0.38302831725E+04  0.37007352044E+04 0.  0.
        5    1    3    3  502    0 -0.64519494683E+02 -0.18178134380E+03 -0.23985704386E+04  0.24063186533E+04  0.46999998093E+01 0. -1.
       -5    1    3    3    0  502  0.64519494683E+02  0.18178134380E+03  0.14108315419E+04  0.14239645192E+04  0.46999998093E+01 0.  1.
</event>
<event>
 5   0  0.5714125E-09  0.3713322E+04  0.7818609E-02  0.8065016E-01
       -1   -1    0    0    0  501  0.00000000000E+00  0.00000000000E+00  0.16338328575E+04  0.16338328575E+04  0.50400001928E-02 0.  1.
        1   -1    0    0  501    0  0.00000000000E+00  0.00000000000E+00 -0.21098788772E+04  0.21098788772E+04  0.50400001928E-02 0. -1.
    10030    2    1    2    0    0  0.00000000000E+00  0.00000000000E+00 -0.47604601971E+03  0.37437117347E+04  0.37133216585E+04 0.  0.
        3    1    3    3  502    0  0.16122083520E+04  0.11695272699E+03  0.68285019513E+03  0.17547587042E+04  0.10100000352E+00 0.  1.
       -3    1    3    3    0  502 -0.16122083520E+04 -0.11695272699E+03 -0.11588962148E+04  0.19889530305E+04  0.10100000352E+00 0. -1.
</event>
<event>
 5   0  0.5714125E-09  0.3703111E+04  0.7818609E-02  0.8067273E-01
        1   -1    0    0  501    0  0.00000000000E+00  0.00000000000E+00  0.27094093476E+04  0.27094093476E+04  0.50400001928E-02 0.  1.
       -1   -1    0    0    0  501  0.00000000000E+00  0.00000000000E+00 -0.12653156056E+04  0.12653156057E+04  0.50400001928E-02 0. -1.
    10030    2    1    2    0    0  0.00000000000E+00  0.00000000000E+00  0.14440937419E+04  0.39747249532E+04  0.37031110864E+04 0.  0.
        2    1    3    3  502    0  0.79011479389E+03 -0.66898213850E+03  0.23697102249E+04  0.25859901467E+04  0.25500000920E-02 0.  1.
       -2    1    3    3    0  502 -0.79011479389E+03  0.66898213850E+03 -0.92561648297E+03  0.13887348065E+04  0.25500000920E-02 0. -1.
</event>
<event>
 5   0  0.1856107E-08  0.3699887E+04  0.7818609E-02  0.8067987E-01
       -2   -1    0    0    0  501  0.00000000000E+00  0.00000000000E+00  0.18307577146E+04  0.18307577146E+04  0.25500000920E-02 0. -1.
        2   -1    0    0  501    0  0.00000000000E+00  0.00000000000E+00 -0.18693299439E+04  0.18693299439E+04  0.25500000920E-02 0.  1.
    10030    2    1    2    0    0  0.00000000000E+00  0.00000000000E+00 -0.38572229381E+02  0.37000876585E+04  0.36998866015E+04 0.  0.
        2    1    3    3  502    0 -0.19524542626E+03 -0.17696950743E+04 -0.52165670530E+03  0.18552808818E+04  0.25500000920E-02 0.  1.
       -2    1    3    3    0  502  0.19524542626E+03  0.17696950743E+04  0.48308447592E+03  0.18448067767E+04  0.25500000920E-02 0. -1.
</event>
<event>
 5   0  0.1856107E-08  0.3700386E+04  0.7818609E-02  0.8067876E-01
        2   -1    0    0  501    0  0.00000000000E+00  0.00000000000E+00  0.16475218767E+04  0.16475218767E+04  0.25500000920E-02 0.  1.
       -2   -1    0    0    0  501  0.00000000000E+00  0.00000000000E+00 -0.20777953543E+04  0.20777953543E+04  0.25500000920E-02 0. -1.
    10030    2    1    2    0    0  0.00000000000E+00  0.00000000000E+00 -0.43027347762E+03  0.37253172310E+04  0.37003855483E+04 0.  0.
        2    1    3    3  502    0  0.17331630675E+04  0.36777719828E+03  0.32146385538E+03  0.18006813423E+04  0.25500000920E-02 0.  1.
       -2    1    3    3    0  502 -0.17331630675E+04 -0.36777719828E+03 -0.75173733300E+03  0.19246358887E+04  0.25500000920E-02 0. -1.
</event>
<event>
 5   0  0.1825308E-08  0.3699884E+04  0.7818609E-02  0.8067988E-01
       -2   -1    0    0    0  501  0.00000000000E+00  0.00000000000E+00  0.16789281413E+04  0.16789281413E+04  0.25500000920E-02 0.  1.
        2   -1    0    0  501    0  0.00000000000E+00  0.00000000000E+00 -0.20383747010E+04  0.20383747010E+04  0.25500000920E-02 0. -1.
    10030    2    1    2    0    0  0.00000000000E+00  0.00000000000E+00 -0.35944655962E+03  0.37173028423E+04  0.36998835917E+04 0.  0.
        4    1    3    3  502    0 -0.98883299954E+03 -0.15427542881E+04 -0.43469265070E+03  0.18833058190E+04  0.12699999809E+01 0. -1.
       -4    1    3    3    0  502  0.98883299954E+03  0.15427542881E+04  0.75246091085E+02  0.18339970233E+04  0.12699999809E+01 0.  1.
</event>
<event>
 5   0  0.1725865E-08  0.3699708E+04  0.7818609E-02  0.8068027E-01
        2   -1    0    0  501    0  0.00000000000E+00  0.00000000000E+00  0.15552491183E+04  0.15552491183E+04  0.25500000920E-02 0.  1.
       -2   -1    0    0    0  501  0.00000000000E+00  0.00000000000E+00 -0.22002641876E+04  0.22002641876E+04  0.25500000920E-02 0. -1.
    10030    2    1    2    0    0  0.00000000000E+00  0.00000000000E+00 -0.64501506928E+03  0.37555133059E+04  0.36997075224E+04 0.  0.
        1    1    3    3  502    0 -0.54631522113E+03 -0.88742768745E+03  0.12289346984E+04  0.16112941116E+04  0.50400001928E-02 0.  1.
       -1    1    3    3    0  502  0.54631522113E+03  0.88742768745E+03 -0.18739497677E+04  0.21442191943E+04  0.50400001928E-02 0. -1.
</event>
<event>
 5   0  0.1740290E-08  0.3699820E+04  0.7818609E-02  0.8068002E-01
       -2   -1    0    0    0  501  0.00000000000E+00  0.00000000000E+00  0.14747509094E+04  0.14747509094E+04  0.25500000920E-02 0.  1.
        2   -1    0    0  501    0  0.00000000000E+00  0.00000000000E+00 -0.23205045768E+04  0.23205045768E+04  0.25500000920E-02 0. -1.
    10030    2    1    2    0    0  0.00000000000E+00  0.00000000000E+00 -0.84575366735E+03  0.37952554862E+04  0.36998195820E+04 0.  0.
        5    1    3    3  502    0  0.87243024953E+03  0.15731658922E+04  0.19713694973E+02  0.17989986616E+04  0.46999998093E+01 0.  1.
       -5    1    3    3    0  502 -0.87243024953E+03 -0.15731658922E+04 -0.86546736233E+03  0.19962568246E+04  0.46999998093E+01 0. -1.
</event>
<event>
 5   0  0.1825308E-08  0.3699098E+04  0.7818609E-02  0.8068162E-01
       -2   -1    0    0    0  501  0.00000000000E+00  0.00000000000E+00  0.14535265899E+04  0.14535265899E+04  0.25500000920E-02 0.  1.
        2   -1    0    0  501    0  0.00000000000E+00  0.00000000000E+00 -0.23534705508E+04  0.23534705508E+04  0.25500000920E-02 0. -1.
    10030    2    1    2    0    0  0.00000000000E+00  0.00000000000E+00 -0.89994396092E+03  0.38069971408E+04  0.36990982816E+04 0.  0.
        4    1    3    3  502    0 -0.17501347807E+04  0.36442388029E+03  0.38264187513E+02  0.17880834086E+04  0.12699999809E+01 0.  1.
       -4    1    3    3    0  502  0.17501347807E+04 -0.36442388029E+03 -0.93820814843E+03  0.20189137322E+04  0.12699999809E+01 0. -1.
</event>
<event>
 5   0  0.1757996E-08  0.3700253E+04  0.7818609E-02  0.8067906E-01
       -2   -1    0    0    0  501  0.00000000000E+00  0.00000000000E+00  0.22320408879E+04  0.22320408879E+04  0.25500000920E-02 0.  1.
        2   -1    0    0  501    0  0.00000000000E+00  0.00000000000E+00 -0.15335600462E+04  0.15335600462E+04  0.25500000920E-02 0. -1.
    10030    2    1    2    0    0  0.00000000000E+00  0.00000000000E+00  0.69848084169E+03  0.37656009342E+04  0.37002533574E+04 0.  0.
        3    1    3    3  502    0  0.57141694035E+03 -0.47688456764E+03 -0.13744948418E+04  0.15630650309E+04  0.10100000352E+00 0. -1.
       -3    1    3    3    0  502 -0.57141694035E+03  0.47688456764E+03  0.20729756835E+04  0.22025359032E+04  0.10100000352E+00 0.  1.
</event>
<event>
 5   0  0.5714125E-09  0.3697521E+04  0.7818609E-02  0.8068511E-01
       -1   -1    0    0    0  501  0.00000000000E+00  0.00000000000E+00  0.19311930395E+04  0.19311930395E+04  0.50400001928E-02 0.  1.
        1   -1    0    0  501    0  0.00000000000E+00  0.00000000000E+00 -0.17698468457E+04  0.17698468457E+04  0.50400001928E-02 0. -1.
    10030    2    1    2    0    0  0.00000000000E+00  0.00000000000E+00  0.16134619377E+03  0.37010398853E+04  0.36975212830E+04 0.  0.
        3    1    3    3  502    0  0.10642276077E+03  0.97319968406E+03 -0.14890898215E+04  0.17820863997E+04  0.10100000352E+00 0. -1.
       -3    1    3    3    0  502 -0.10642276077E+03 -0.97319968406E+03  0.16504360153E+04  0.19189534856E+04  0.10100000352E+00 0.  1.
</event>
<event>
 5   0  0.1740290E-08  0.3697773E+04  0.7818609E-02  0.8068455E-01
       -2   -1    0    0    0  501  0.00000000000E+00  0.00000000000E+00  0.23519634832E+04  0.23519634832E+04  0.25500000920E-02 0. -1.
        2   -1    0    0  501    0  0.00000000000E+00  0.00000000000E+00 -0.14534162227E+04  0.14534162227E+04  0.25500000920E-02 0.  1.
    10030    2    1    2    0    0  0.00000000000E+00  0.00000000000E+00  0.89854726051E+03  0.38053797058E+04  0.36977733200E+04 0.  0.
        5    1    3    3  502    0  0.13917371127E+04 -0.11843917910E+04  0.16067807128E+03  0.18345450766E+04  0.46999998093E+01 0. -1.
       -5    1    3    3    0  502 -0.13917371127E+04  0.11843917910E+04  0.73786918923E+03  0.19708346292E+04  0.46999998093E+01 0.  1.
</event>
<event>
 5   0  0.5714125E-09  0.3699262E+04  0.7818609E-02  0.8068125E-01
       -1   -1    0    0    0  501  0.00000000000E+00  0.00000000000E+00  0.15319486527E+04  0.15319486527E+04  0.50400001928E-02 0.  1.
        1   -1    0    0  501    0  0.00000000000E+00  0.00000000000E+00 -0.22331915084E+04  0.22331915084E+04  0.50400001928E-02 0. -1.
    10030    2    1    2    0    0  0.00000000000E+00  0.00000000000E+00 -0.70124285572E+03  0.37651401612E+04  0.36992619386E+04 0.  0.
        4    1    3    3  502    0 -0.12173708099E+04 -0.10433135935E+04 -0.12893466702E+04  0.20574040420E+04  0.12699999809E+01 0. -1.
       -4    1    3    3    0  502  0.12173708099E+04  0.10433135935E+04  0.58810381444E+03  0.17077361192E+04  0.12699999809E+01 0.  1.
</event>
<event>
 5   0  0.1725865E-08  0.3701063E+04  0.7818609E-02  0.8067726E-01
        2   -1    0    0  501    0  0.00000000000E+00  0.00000000000E+00  0.19903926534E+04  0.19903926534E+04  0.25500000920E-02 0.  1.
       -2   -1    0    0    0  501  0.00000000000E+00  0.00000000000E+00 -0.17204983919E+04  0.17204983919E+04  0.25500000920E-02 0. -1.
    10030    2    1    2    0    0  0.00000000000E+00  0.00000000000E+00  0.26989426142E+03  0.37108910453E+04  0.37010632848E+04 0.  0.
        1    1    3    3  502    0  0.10851027062E+04 -0.55758296944E+03  0.15300875055E+04  0.19569145166E+04  0.50400001928E-02 0.  1.
       -1    1    3    3    0  502 -0.10851027062E+04  0.55758296944E+03 -0.12601932440E+04  0.17539765287E+04  0.50400001928E-02 0. -1.
</event>
<event>
 5   0  0.1856107E-08  0.3698800E+04  0.7818609E-02  0.8068228E-01
       -2   -1    0    0    0  501  0.00000000000E+00  0.00000000000E+00  0.12880358410E+04  0.12880358410E+04  0.25500000920E-02 0. -1.
        2   -1    0    0  501    0  0.00000000000E+00  0.00000000000E+00 -0.26554236899E+04  0.26554236899E+04  0.25500000920E-02 0.  1.
    10030    2    1    2    0    0  0.00000000000E+00  0.00000000000E+00 -0.13673878489E+04  0.39434595309E+04  0.36988002842E+04 0.  0.
        2    1    3    3  502    0 -0.55334008199E+03  0.82649872980E+03 -0.23459907765E+04  0.25481283563E+04  0.25500000920E-02 0.  1.
       -2    1    3    3    0  502  0.55334008199E+03 -0.82649872980E+03  0.97860292762E+03  0.13953311745E+04  0.25500000920E-02 0. -1.
</event>
<event>
 5   0  0.5714125E-09  0.3699624E+04  0.7818609E-02  0.8068045E-01
       -1   -1    0    0    0  501  0.00000000000E+00  0.00000000000E+00  0.19674142256E+04  0.19674142256E+04  0.50400001928E-02 0.  1.
        1   -1    0    0  501    0  0.00000000000E+00  0.00000000000E+00 -0.17392398765E+04  0.17392398765E+04  0.50400001928E-02 0. -1.
    10030    2    1    2    0    0  0.00000000000E+00  0.00000000000E+00  0.22817434912E+03  0.37066541021E+04  0.36996244538E+04 0.  0.
        5    1    3    3  502    0  0.15697556068E+04 -0.92536542594E+03  0.43304620247E+03  0.18729615426E+04  0.46999998093E+01 0.  1.
       -5    1    3    3    0  502 -0.15697556068E+04  0.92536542594E+03 -0.20487185336E+03  0.18336925595E+04  0.46999998093E+01 0. -1.
</event>
<event>
 5   0  0.1825308E-08  0.3700039E+04  0.7818609E-02  0.8067953E-01
       -2   -1    0    0    0  501  0.00000000000E+00  0.00000000000E+00  0.18408470789E+04  0.18408470789E+04  0.25500000920E-02 0.  1.
        2   -1    0    0  501    0  0.00000000000E+00  0.00000000000E+00 -0.18592379594E+04  0.18592379594E+04  0.25500000920E-02 0. -1.
    10030    2    1    2    0    0  0.00000000000E+00  0.00000000000E+00 -0.18390880440E+02  0.37000850383E+04  0.37000393331E+04 0.  0.
        4    1    3    3  502    0 -0.65501333866E+03  0.85463574010E+03 -0.15135831373E+04  0.18575199187E+04  0.12699999809E+01 0. -1.
       -4    1    3    3    0  502  0.65501333866E+03 -0.85463574010E+03  0.14951922569E+04  0.18425651196E+04  0.12699999809E+01 0.  1.
</event>
<event>
 5   0  0.1740290E-08  0.3700388E+04  0.7818609E-02  0.8067876E-01
        2   -1    0    0  501    0  0.00000000000E+00  0.00000000000E+00  0.27998645626E+04  0.27998645626E+04  0.25500000920E-02 0. -1.
       -2   -1    0    0    0  501  0.00000000000E+00  0.00000000000E+00 -0.12226369687E+04  0.12226369687E+04  0.25500000920E-02 0.  1.
    10030    2    1    2    0    0  0.00000000000E+00  0.00000000000E+00  0.15772275938E+04  0.40225015313E+04  0.37003880454E+04 0.  0.
        5    1    3    3  502    0 -0.15802441158E+04  0.77998799448E+03  0.14012725717E+04  0.22514749937E+04  0.46999998093E+01 0. -1.
       -5    1    3    3    0  502  0.15802441158E+04 -0.77998799448E+03  0.17595502210E+03  0.17710265376E+04  0.46999998093E+01 0.  1.
</event>
<event>
 5   0  0.5714125E-09  0.3698191E+04  0.7818609E-02  0.8068363E-01
       -1   -1    0    0    0  501  0.00000000000E+00  0.00000000000E+00  0.15569948630E+04  0.15569948630E+04  0.50400001928E-02 0.  1.
        1   -1    0    0  501    0  0.00000000000E+00  0.00000000000E+00 -0.21959963760E+04  0.21959963760E+04  0.50400001928E-02 0. -1.
    10030    2    1    2    0    0  0.00000000000E+00  0.00000000000E+00 -0.63900151306E+03  0.37529912390E+04  0.36981914913E+04 0.  0.
        4    1    3    3  502    0 -0.65207253433E+03  0.11918425978E+03 -0.20712747264E+04  0.21747606955E+04  0.12699999809E+01 0. -1.
       -4    1    3    3    0  502  0.65207253433E+03 -0.11918425978E+03  0.14322732133E+04  0.15782305435E+04  0.12699999809E+01 0.  1.
</event>
<event>
 5   0  0.1757996E-08  0.3700273E+04  0.7818609E-02  0.8067901E-01
        2   -1    0    0  501    0  0.00000000000E+00  0.00000000000E+00  0.12724638368E+04  0.12724638368E+04  0.25500000920E-02 0.  1.
       -2   -1    0    0    0  501  0.00000000000E+00  0.00000000000E+00 -0.26900606487E+04  0.26900606487E+04  0.25500000920E-02 0. -1.
    10030    2    1    2    0    0  0.00000000000E+00  0.00000000000E+00 -0.14175968119E+04  0.39625244855E+04  0.37002729057E+04 0.  0.
        3    1    3    3  502    0 -0.30662328365E+03  0.17048628663E+04 -0.12788530939E+02  0.17322640641E+04  0.10100000352E+00 0.  1.
       -3    1    3    3    0  502  0.30662328365E+03 -0.17048628663E+04 -0.14048082809E+04  0.22302604214E+04  0.10100000352E+00 0. -1.
</event>
<event>
 5   0  0.5714125E-09  0.3704478E+04  0.7818609E-02  0.8066970E-01
       -3   -1    0    0    0  501  0.00000000000E+00  0.00000000000E+00  0.19791130943E+04  0.19791130969E+04  0.10100000352E+00 0.  1.
        3   -1    0    0  501    0  0.00000000000E+00  0.00000000000E+00 -0.17334983227E+04  0.17334983256E+04  0.10100000352E+00 0. -1.
    10030    2    1    2    0    0  0.00000000000E+00  0.00000000000E+00  0.24561477163E+03  0.37126114226E+04  0.37044779604E+04 0.  0.
        2    1    3    3  502    0 -0.12516799847E+03 -0.10854509733E+03  0.19716722166E+04  0.19786208317E+04  0.25500000920E-02 0.  1.
       -2    1    3    3    0  502  0.12516799847E+03  0.10854509733E+03 -0.17260574449E+04  0.17339905909E+04  0.25500000920E-02 0. -1.
</event>
<event>
 5   0  0.5714125E-09  0.3699656E+04  0.7818609E-02  0.8068038E-01
        1   -1    0    0  501    0  0.00000000000E+00  0.00000000000E+00  0.12762446457E+04  0.12762446457E+04  0.50400001928E-02 0.  1.
       -1   -1    0    0    0  501  0.00000000000E+00  0.00000000000E+00 -0.26811973503E+04  0.26811973503E+04  0.50400001928E-02 0. -1.
    10030    2    1    2    0    0  0.00000000000E+00  0.00000000000E+00 -0.14049527046E+04  0.39574419960E+04  0.36996560718E+04 0.  0.
        3    1    3    3  502    0 -0.19116758621E+03  0.84332096357E+03 -0.24516959650E+04  0.25997208328E+04  0.10100000352E+00 0. -1.
       -3    1    3    3    0  502  0.19116758621E+03 -0.84332096357E+03  0.10467432604E+04  0.13577211632E+04  0.10100000352E+00 0.  1.
</event>
<event>
 5   0  0.5714125E-09  0.3698918E+04  0.7818609E-02  0.8068202E-01
       -1   -1    0    0    0  501  0.00000000000E+00  0.00000000000E+00  0.13487613573E+04  0.13487613573E+04  0.50400001928E-02 0.  1.
        1   -1    0    0  501    0  0.00000000000E+00  0.00000000000E+00 -0.25360301772E+04  0.25360301772E+04  0.50400001928E-02 0. -1.
    10030    2    1    2    0    0  0.00000000000E+00  0.00000000000E+00 -0.11872688199E+04  0.38847915345E+04  0.36989184927E+04 0.  0.
        3    1    3    3  502    0 -0.92121409977E+03  0.60260449919E+03 -0.21544962327E+04  0.24194258879E+04  0.10100000352E+00 0. -1.
       -3    1    3    3    0  502  0.92121409977E+03 -0.60260449919E+03  0.96722741274E+03  0.14653656466E+04  0.10100000352E+00 0.  1.
</event>
<event>
 5   0  0.5714125E-09  0.3700095E+04  0.7818609E-02  0.8067941E-01
        1   -1    0    0  501    0  0.00000000000E+00  0.00000000000E+00  0.18196780514E+04  0.18196780515E+04  0.50400001928E-02 0.  1.
       -1   -1    0    0    0  501  0.00000000000E+00  0.00000000000E+00 -0.18809237398E+04  0.18809237398E+04  0.50400001928E-02 0. -1.
    10030    2    1    2    0    0  0.00000000000E+00  0.00000000000E+00 -0.61245688315E+02  0.37006017912E+04  0.37000949424E+04 0.  0.
        1    1    3    3  502    0  0.49335550142E+03  0.78504657260E+03  0.15705267706E+04  0.18238015542E+04  0.50400001928E-02 0.  1.
       -1    1    3    3    0  502 -0.49335550142E+03 -0.78504657260E+03 -0.16317724589E+04  0.18768002370E+04  0.50400001928E-02 0. -1.
</event>
<event>
 5   0  0.1757996E-08  0.3700207E+04  0.7818609E-02  0.8067916E-01
       -2   -1    0    0    0  501  0.00000000000E+00  0.00000000000E+00  0.14265628829E+04  0.14265628829E+04  0.25500000920E-02 0. -1.
        2   -1    0    0  501    0  0.00000000000E+00  0.00000000000E+00 -0.23993918603E+04  0.23993918603E+04  0.25500000920E-02 0.  1.
    10030    2    1    2    0    0  0.00000000000E+00  0.00000000000E+00 -0.97282897748E+03  0.38259547432E+04  0.37002072209E+04 0.  0.
        3    1    3    3  502    0 -0.13508815884E+04  0.10241113183E+04 -0.12526784046E+04  0.21078159915E+04  0.10100000352E+00 0.  1.
       -3    1    3    3    0  502  0.13508815884E+04 -0.10241113183E+04  0.27984942715E+03  0.17181387517E+04  0.10100000352E+00 0. -1.
</event>
<event>
 5   0  0.5714125E-09  0.3698396E+04  0.7818609E-02  0.8068317E-01
        3   -1    0    0  501    0  0.00000000000E+00  0.00000000000E+00  0.28938522930E+04  0.28938522948E+04  0.10100000352E+00 0. -1.
       -3   -1    0    0    0  501  0.00000000000E+00  0.00000000000E+00 -0.11816541775E+04  0.11816541819E+04  0.10100000352E+00 0.  1.
    10030    2    1    2    0    0  0.00000000000E+00  0.00000000000E+00  0.17121981155E+04  0.40755064766E+04  0.36983956866E+04 0.  0.
        3    1    3    3  502    0  0.60166091167E+02 -0.15063727785E+04  0.20361569062E+04  0.25335180803E+04  0.10100000352E+00 0. -1.
       -3    1    3    3    0  502 -0.60166091167E+02  0.15063727785E+04 -0.32395879074E+03  0.15419883964E+04  0.10100000352E+00 0.  1.
</event>
<event>
 5   0  0.1757996E-08  0.3700070E+04  0.7818609E-02  0.8067946E-01
       -2   -1    0    0    0  501  0.00000000000E+00  0.00000000000E+00  0.12359409070E+04  0.12359409070E+04  0.25500000920E-02 0.  1.
        2   -1    0    0  501    0  0.00000000000E+00  0.00000000000E+00 -0.27692504978E+04  0.27692504978E+04  0.25500000920E-02 0. -1.
    10030    2    1    2    0    0  0.00000000000E+00  0.00000000000E+00 -0.15333095908E+04  0.40051914048E+04  0.37000702545E+04 0.  0.
        3    1    3    3  502    0  0.51390828149E+03 -0.20033006652E+03  0.11448656383E+04  0.12708073014E+04  0.10100000352E+00 0.  1.
       -3    1    3    3    0  502 -0.51390828149E+03  0.20033006652E+03 -0.26781752291E+04  0.27343841035E+04  0.10100000352E+00 0. -1.
</event>
<event>
 5   0  0.1740290E-08  0.3699674E+04  0.7818609E-02  0.8068034E-01
        2   -1    0    0  501    0  0.00000000000E+00  0.00000000000E+00  0.21295857071E+04  0.21295857071E+04  0.25500000920E-02 0. -1.
       -2   -1    0    0    0  501  0.00000000000E+00  0.00000000000E+00 -0.16068367668E+04  0.16068367668E+04  0.25500000920E-02 0.  1.
    10030    2    1    2    0    0  0.00000000000E+00  0.00000000000E+00  0.52274894024E+03  0.37364224739E+04  0.36996738301E+04 0.  0.
        5    1    3    3  502    0  0.28969362197E+03 -0.52874670496E+03 -0.15048186677E+04  0.16211097388E+04  0.46999998093E+01 0.  1.
       -5    1    3    3    0  502 -0.28969362197E+03  0.52874670496E+03  0.20275676079E+04  0.21153127351E+04  0.46999998093E+01 0. -1.
</event>
<event>
 5   0  0.5714125E-09  0.3701015E+04  0.7818609E-02  0.8067737E-01
       -1   -1    0    0    0  501  0.00000000000E+00  0.00000000000E+00  0.18962378933E+04  0.18962378933E+04  0.50400001928E-02 0. -1.
        1   -1    0    0  501    0  0.00000000000E+00  0.00000000000E+00 -0.18058798816E+04  0.18058798816E+04  0.50400001928E-02 0.  1.
    10030    2    1    2    0    0  0.00000000000E+00  0.00000000000E+00  0.90358011717E+02  0.37021177749E+04  0.37010149214E+04 0.  0.
        2    1    3    3  502    0 -0.70967459392E+03 -0.55037082456E+03 -0.15732746324E+04  0.18115571045E+04  0.25500000920E-02 0.  1.
       -2    1    3    3    0  502  0.70967459392E+03  0.55037082456E+03  0.16636326441E+04  0.18905606704E+04  0.25500000920E-02 0. -1.
</event>
<event>
 5   0  0.5714125E-09  0.3706992E+04  0.7818609E-02  0.8066414E-01
        1   -1    0    0  501    0  0.00000000000E+00  0.00000000000E+00  0.22233112373E+04  0.22233112373E+04  0.50400001928E-02 0. -1.
       -1   -1    0    0    0  501  0.00000000000E+00  0.00000000000E+00 -0.15451939588E+04  0.15451939588E+04  0.50400001928E-02 0.  1.
    10030    2    1    2    0    0  0.00000000000E+00  0.00000000000E+00  0.67811727853E+03  0.37685051961E+04  0.37069918222E+04 0.  0.
        4    1    3    3  502    0  0.17981955266E+04 -0.21387843674E+03 -0.62713797775E+02  0.18119563380E+04  0.12699999809E+01 0. -1.
       -4    1    3    3    0  502 -0.17981955266E+04  0.21387843674E+03  0.74083107630E+03  0.19565488581E+04  0.12699999809E+01 0.  1.
</event>
<event>
 5   0  0.1856107E-08  0.3700616E+04  0.7818609E-02  0.8067825E-01
       -2   -1    0    0    0  501  0.00000000000E+00  0.00000000000E+00  0.14141462190E+04  0.14141462190E+04  0.25500000920E-02 0.  1.
        2   -1    0    0  501    0  0.00000000000E+00  0.00000000000E+00 -0.24209943374E+04  0.24209943374E+04  0.25500000920E-02 0. -1.
    10030    2    1    2    0    0  0.00000000000E+00  0.00000000000E+00 -0.10068481184E+04  0.38351405563E+04  0.37006161586E+04 0.  0.
        2    1    3    3  502    0 -0.15644446706E+04  0.56411125093E+03  0.33719171885E+03  0.16968815180E+04  0.25500000920E-02 0.  1.
       -2    1    3    3    0  502  0.15644446706E+04 -0.56411125093E+03 -0.13440398373E+04  0.21382590383E+04  0.25500000920E-02 0. -1.
</event>
<event>
 5   0  0.1757996E-08  0.3687471E+04  0.7818609E-02  0.8070744E-01
        2   -1    0    0  501    0  0.00000000000E+00  0.00000000000E+00  0.18568654547E+04  0.18568654547E+04  0.25500000920E-02 0.  1.
       -2   -1    0    0    0  501  0.00000000000E+00  0.00000000000E+00 -0.18306985231E+04  0.18306985231E+04  0.25500000920E-02 0. -1.
    10030    2    1    2    0    0  0.00000000000E+00  0.00000000000E+00  0.26166931636E+02  0.36875639778E+04  0.36874711364E+04 0.  0.
        3    1    3    3  502    0  0.16782978791E+04 -0.39065761910E+03  0.66889239012E+03  0.18484356050E+04  0.10100000352E+00 0. -1.
       -3    1    3    3    0  502 -0.16782978791E+04  0.39065761910E+03 -0.64272545848E+03  0.18391283727E+04  0.10100000352E+00 0.  1.
</event>
<event>
 5   0  0.5714125E-09  0.3704188E+04  0.7818609E-02  0.8067034E-01
       -1   -1    0    0    0  501  0.00000000000E+00  0.00000000000E+00  0.15468057463E+04  0.15468057463E+04  0.50400001928E-02 0.  1.
        1   -1    0    0  501    0  0.00000000000E+00  0.00000000000E+00 -0.22176362200E+04  0.22176362200E+04  0.50400001928E-02 0. -1.
    10030    2    1    2    0    0  0.00000000000E+00  0.00000000000E+00 -0.67083047362E+03  0.37644419663E+04  0.37041881423E+04 0.  0.
        1    1    3    3  502    0  0.49865621867E+02  0.10633292191E+04 -0.18756865301E+04  0.21567001571E+04  0.50400001928E-02 0. -1.
       -1    1    3    3    0  502 -0.49865621867E+02 -0.10633292191E+04  0.12048560565E+04  0.16077418092E+04  0.50400001928E-02 0.  1.
</event>
<event>
 5   0  0.1740290E-08  0.3699460E+04  0.7818609E-02  0.8068081E-01
        2   -1    0    0  501    0  0.00000000000E+00  0.00000000000E+00  0.13041826945E+04  0.13041826945E+04  0.25500000920E-02 0.  1.
       -2   -1    0    0    0  501  0.00000000000E+00  0.00000000000E+00 -0.26234831900E+04  0.26234831900E+04  0.25500000920E-02 0. -1.
    10030    2    1    2    0    0  0.00000000000E+00  0.00000000000E+00 -0.13193004955E+04  0.39276658845E+04  0.36994601638E+04 0.  0.
        5    1    3    3  502    0  0.20265818315E+03  0.16188985033E+03 -0.26040730212E+04  0.26169633265E+04  0.46999998093E+01 0. -1.
       -5    1    3    3    0  502 -0.20265818315E+03 -0.16188985033E+03  0.12847725257E+04  0.13107025580E+04  0.46999998093E+01 0.  1.
</event>
<event>
 5   0  0.5714125E-09  0.3698538E+04  0.7818609E-02  0.8068286E-01
        1   -1    0    0  501    0  0.00000000000E+00  0.00000000000E+00  0.13059136260E+04  0.13059136260E+04  0.50400001928E-02 0.  1.
       -1   -1    0    0    0  501  0.00000000000E+00  0.00000000000E+00 -0.26186995167E+04  0.26186995167E+04  0.50400001928E-02 0. -1.
    10030    2    1    2    0    0  0.00000000000E+00  0.00000000000E+00 -0.13127858907E+04  0.39246131427E+04  0.36985377550E+04 0.  0.
        4    1    3    3  502    0 -0.19677183816E+03 -0.15577727133E+04 -0.16930528153E+04  0.23090700360E+04  0.12699999809E+01 0. -1.
       -4    1    3    3    0  502  0.19677183816E+03  0.15577727133E+04  0.38026692464E+03  0.16155431067E+04  0.12699999809E+01 0.  1.
</event>
<event>
 5   0  0.5714125E-09  0.3705886E+04  0.7818609E-02  0.8066659E-01
       -1   -1    0    0    0  501  0.00000000000E+00  0.00000000000E+00  0.22126571262E+04  0.22126571262E+04  0.50400001928E-02 0. -1.
        1   -1    0    0  501    0  0.00000000000E+00  0.00000000000E+00 -0.15517076148E+04  0.15517076148E+04  0.50400001928E-02 0.  1.
    10030    2    1    2    0    0  0.00000000000E+00  0.00000000000E+00  0.66094951141E+03  0.37643647411E+04  0.37058855415E+04 0.  0.
        5    1    3    3  502    0  0.43105103210E+03  0.89834912867E+03 -0.12563996008E+04  0.16035579803E+04  0.46999998093E+01 0.  1.
       -5    1    3    3    0  502 -0.43105103210E+03 -0.89834912867E+03  0.19173491122E+04  0.21608067608E+04  0.46999998093E+01 0. -1.
</event>
<event>
 5   0  0.1856107E-08  0.3701861E+04  0.7818609E-02  0.8067550E-01
        2   -1    0    0  501    0  0.00000000000E+00  0.00000000000E+00  0.11273183249E+04  0.11273183249E+04  0.25500000920E-02 0.  1.
       -2   -1    0    0    0  501  0.00000000000E+00  0.00000000000E+00 -0.30390201529E+04  0.30390201529E+04  0.25500000920E-02 0. -1.
    10030    2    1    2    0    0  0.00000000000E+00  0.00000000000E+00 -0.19117018280E+04  0.41663384778E+04  0.37018606717E+04 0.  0.
        2    1    3    3  502    0 -0.10552716451E+03 -0.18252377221E+04 -0.63099223536E+03  0.19341095950E+04  0.25500000920E-02 0.  1.
       -2    1    3    3    0  502  0.10552716451E+03  0.18252377221E+04 -0.12807095926E+04  0.22322288828E+04  0.25500000920E-02 0. -1.
</event>
<event>
 5   0  0.5714125E-09  0.3699577E+04  0.7818609E-02  0.8068056E-01
       -1   -1    0    0    0  501  0.00000000000E+00  0.00000000000E+00  0.18040614441E+04  0.18040614441E+04  0.50400001928E-02 0. -1.
        1   -1    0    0  501    0  0.00000000000E+00  0.00000000000E+00 -0.18966747547E+04  0.18966747547E+04  0.50400001928E-02 0.  1.
    10030    2    1    2    0    0  0.00000000000E+00  0.00000000000E+00 -0.92613310579E+02  0.37007361989E+04  0.36995771635E+04 0.  0.
        1    1    3    3  502    0 -0.14111533970E+04  0.11740569305E+04 -0.27431272895E+03  0.18560740985E+04  0.50400001928E-02 0.  1.
       -1    1    3    3    0  502  0.14111533970E+04 -0.11740569305E+04  0.18169941837E+03  0.18446621004E+04  0.50400001928E-02 0. -1.
</event>
<event>
 5   0  0.5714125E-09  0.3698820E+04  0.7818609E-02  0.8068223E-01
       -1   -1    0    0    0  501  0.00000000000E+00  0.00000000000E+00  0.25412200871E+04  0.25412200871E+04  0.50400001928E-02 0. -1.
        1   -1    0    0  501    0  0.00000000000E+00  0.00000000000E+00 -0.13459348699E+04  0.13459348700E+04  0.50400001928E-02 0.  1.
    10030    2    1    2    0    0  0.00000000000E+00  0.00000000000E+00  0.11952852172E+04  0.38871549571E+04  0.36988196644E+04 0.  0.
        2    1    3    3  502    0 -0.17589386254E+04  0.12763050071E+03  0.12363454173E+02  0.17636063869E+04  0.25500000920E-02 0. -1.
       -2    1    3    3    0  502  0.17589386254E+04 -0.12763050071E+03  0.11829217630E+04  0.21235485702E+04  0.25500000920E-02 0.  1.
</event>
<event>
 5   0  0.1740290E-08  0.3700922E+04  0.7818609E-02  0.8067758E-01
       -2   -1    0    0    0  501  0.00000000000E+00  0.00000000000E+00  0.18098677530E+04  0.18098677530E+04  0.25500000920E-02 0.  1.
        2   -1    0    0  501    0  0.00000000000E+00  0.00000000000E+00 -0.18919643122E+04  0.18919643122E+04  0.25500000920E-02 0. -1.
    10030    2    1    2    0    0  0.00000000000E+00  0.00000000000E+00 -0.82096559210E+02  0.37018320652E+04  0.37009216141E+04 0.  0.
        5    1    3    3  502    0  0.15344516580E+04  0.31890210566E+03  0.94303452369E+03  0.18290917546E+04  0.46999998093E+01 0.  1.
       -5    1    3    3    0  502 -0.15344516580E+04 -0.31890210566E+03 -0.10251310829E+04  0.18727403106E+04  0.46999998093E+01 0. -1.
</event>
<event>
 5   0  0.1825308E-08  0.3694653E+04  0.7818609E-02  0.8069148E-01
       -2   -1    0    0    0  501  0.00000000000E+00  0.00000000000E+00  0.13187844317E+04  0.13187844317E+04  0.25500000920E-02 0.  1.
        2   -1    0    0  501    0  0.00000000000E+00  0.00000000000E+00 -0.25876974593E+04  0.25876974593E+04  0.25500000920E-02 0. -1.
    10030    2    1    2    0    0  0.00000000000E+00  0.00000000000E+00 -0.12689130275E+04  0.39064818910E+04  0.36946529598E+04 0.  0.
        4    1    3    3  502    0 -0.10134499208E+04 -0.10654300517E+04  0.54786388700E+03  0.15691967335E+04  0.12699999809E+01 0.  1.
       -4    1    3    3    0  502  0.10134499208E+04  0.10654300517E+04 -0.18167769145E+04  0.23372851574E+04  0.12699999809E+01 0. -1.
</event>
<event>
 5   0  0.5714125E-09  0.3699126E+04  0.7818609E-02  0.8068156E-01
       -1   -1    0    0    0  501  0.00000000000E+00  0.00000000000E+00  0.18152606304E+04  0.18152606305E+04  0.50400001928E-02 0. -1.
        1   -1    0    0  501    0  0.00000000000E+00  0.00000000000E+00 -0.18845130696E+04  0.18845130696E+04  0.50400001928E-02 0.  1.
    10030    2    1    2    0    0  0.00000000000E+00  0.00000000000E+00 -0.69252439151E+02  0.36997737001E+04  0.36991255090E+04 0.  0.
        2    1    3    3  502    0 -0.87092361274E+03  0.48742399472E+03 -0.15920735385E+04  0.18790391805E+04  0.25500000920E-02 0.  1.
       -2    1    3    3    0  502  0.87092361274E+03 -0.48742399472E+03  0.15228210994E+04  0.18207345195E+04  0.25500000920E-02 0. -1.
</event>
<event>
 5   0  0.5714125E-09  0.3698766E+04  0.7818609E-02  0.8068235E-01
        1   -1    0    0  501    0  0.00000000000E+00  0.00000000000E+00  0.16482645767E+04  0.16482645767E+04  0.50400001928E-02 0. -1.
       -1   -1    0    0    0  501  0.00000000000E+00  0.00000000000E+00 -0.20750417556E+04  0.20750417556E+04  0.50400001928E-02 0.  1.
    10030    2    1    2    0    0  0.00000000000E+00  0.00000000000E+00 -0.42677717897E+03  0.37233063323E+04  0.36987661840E+04 0.  0.
        3    1    3    3  502    0 -0.97044363342E+03 -0.12142813614E+04  0.79524617423E+03  0.17460402510E+04  0.10100000352E+00 0. -1.
       -3    1    3    3    0  502  0.97044363342E+03  0.12142813614E+04 -0.12220233532E+04  0.19772660813E+04  0.10100000352E+00 0.  1.
</event>
<event>
 5   0  0.5714125E-09  0.3700418E+04  0.7818609E-02  0.8067869E-01
        1   -1    0    0  501    0  0.00000000000E+00  0.00000000000E+00  0.10696299744E+04  0.10696299744E+04  0.50400001928E-02 0.  1.
       -1   -1    0    0    0  501  0.00000000000E+00  0.00000000000E+00 -0.32004270480E+04  0.32004270480E+04  0.50400001928E-02 0. -1.
    10030    2    1    2    0    0  0.00000000000E+00  0.00000000000E+00 -0.21307970736E+04  0.42700570224E+04  0.37004176529E+04 0.  0.
        2    1    3    3  502    0  0.82403385127E+03 -0.50653655953E+03 -0.28854286939E+04  0.30432400204E+04  0.25500000920E-02 0. -1.
       -2    1    3    3    0  502 -0.82403385127E+03  0.50653655953E+03  0.75463162024E+03  0.12268170020E+04  0.25500000920E-02 0.  1.
</event>
<event>
 5   0  0.1757996E-08  0.3700438E+04  0.7818609E-02  0.8067865E-01
       -2   -1    0    0    0  501  0.00000000000E+00  0.00000000000E+00  0.13764252507E+04  0.13764252507E+04  0.25500000920E-02 0. -1.
        2   -1    0    0  501    0  0.00000000000E+00  0.00000000000E+00 -0.24871020504E+04  0.24871020504E+04  0.25500000920E-02 0.  1.
    10030    2    1    2    0    0  0.00000000000E+00  0.00000000000E+00 -0.11106767997E+04  0.38635273011E+04  0.37004378461E+04 0.  0.
        3    1    3    3  502    0 -0.40344251489E+03  0.10206009324E+04 -0.21105929868E+04  0.23788642021E+04  0.10100000352E+00 0.  1.
       -3    1    3    3    0  502  0.40344251489E+03 -0.10206009324E+04  0.99991618712E+03  0.14846630990E+04  0.10100000352E+00 0. -1.
</event>
<event>
 5   0  0.5714125E-09  0.3699544E+04  0.7818609E-02  0.8068063E-01
       -3   -1    0    0    0  501  0.00000000000E+00  0.00000000000E+00  0.17616346007E+04  0.17616346036E+04  0.10100000352E+00 0. -1.
        3   -1    0    0  501    0  0.00000000000E+00  0.00000000000E+00 -0.19423186883E+04  0.19423186909E+04  0.10100000352E+00 0.  1.
    10030    2    1    2    0    0  0.00000000000E+00  0.00000000000E+00 -0.18068408759E+03  0.37039532945E+04  0.36995436568E+04 0.  0.
        4    1    3    3  502    0 -0.16905632659E+04 -0.49043529611E+03  0.47877482951E+03  0.18242143201E+04  0.12699999809E+01 0. -1.
       -4    1    3    3    0  502  0.16905632659E+04  0.49043529611E+03 -0.65945891709E+03  0.18797389744E+04  0.12699999809E+01 0.  1.
</event>
<event>
 5   0  0.5714125E-09  0.3699091E+04  0.7818609E-02  0.8068163E-01
       -1   -1    0    0    0  501  0.00000000000E+00  0.00000000000E+00  0.19840120658E+04  0.19840120658E+04  0.50400001928E-02 0. -1.
        1   -1    0    0  501    0  0.00000000000E+00  0.00000000000E+00 -0.17241928439E+04  0.17241928439E+04  0.50400001928E-02 0.  1.
    10030    2    1    2    0    0  0.00000000000E+00  0.00000000000E+00  0.25981922184E+03  0.37082049097E+04  0.36990914593E+04 0.  0.
        4    1    3    3  502    0  0.12957681045E+04 -0.46895649804E+03 -0.11067757882E+04  0.17674528101E+04  0.12699999809E+01 0.  1.
       -4    1    3    3    0  502 -0.12957681045E+04  0.46895649804E+03  0.13665950100E+04  0.19407520996E+04  0.12699999809E+01 0. -1.
</event>
<event>
 5   0  0.5714125E-09  0.3700480E+04  0.7818609E-02  0.8067856E-01
       -1   -1    0    0    0  501  0.00000000000E+00  0.00000000000E+00  0.31605109704E+04  0.31605109704E+04  0.50400001928E-02 0.  1.
        1   -1    0    0  501    0  0.00000000000E+00  0.00000000000E+00 -0.10831753875E+04  0.10831753875E+04  0.50400001928E-02 0. -1.
    10030    2    1    2    0    0  0.00000000000E+00  0.00000000000E+00  0.20773355829E+04  0.42436863579E+04  0.37004798041E+04 0.  0.
        3    1    3    3  502    0  0.70122180332E+03 -0.86337306784E+03 -0.65698295075E+03  0.12918017183E+04  0.10100000352E+00 0. -1.
       -3    1    3    3    0  502 -0.70122180332E+03  0.86337306784E+03  0.27343185337E+04  0.29518846396E+04  0.10100000352E+00 0.  1.
</event>
<event>
 5   0  0.1725865E-08  0.3699640E+04  0.7818609E-02  0.8068042E-01
       -2   -1    0    0    0  501  0.00000000000E+00  0.00000000000E+00  0.12596314911E+04  0.12596314911E+04  0.25500000920E-02 0.  1.
        2   -1    0    0  501    0  0.00000000000E+00  0.00000000000E+00 -0.27165364175E+04  0.27165364175E+04  0.25500000920E-02 0. -1.
    10030    2    1    2    0    0  0.00000000000E+00  0.00000000000E+00 -0.14569049264E+04  0.39761679086E+04  0.36996404248E+04 0.  0.
        1    1    3    3  502    0 -0.55293835289E+03 -0.15018482454E+04 -0.17254456841E+04  0.23533915491E+04  0.50400001928E-02 0. -1.
       -1    1    3    3    0  502  0.55293835289E+03  0.15018482454E+04  0.26854075767E+03  0.16227763595E+04  0.50400001928E-02 0.  1.
</event>
<event>
 5   0  0.5714125E-09  0.3700838E+04  0.7818609E-02  0.8067776E-01
        1   -1    0    0  501    0  0.00000000000E+00  0.00000000000E+00  0.14824976248E+04  0.14824976248E+04  0.50400001928E-02 0.  1.
       -1   -1    0    0    0  501  0.00000000000E+00  0.00000000000E+00 -0.23096494255E+04  0.23096494255E+04  0.50400001928E-02 0. -1.
    10030    2    1    2    0    0  0.00000000000E+00  0.00000000000E+00 -0.82715180064E+03  0.37921470503E+04  0.37008376281E+04 0.  0.
        1    1    3    3  502    0  0.11983314940E+04  0.41298994590E+03  0.96782978824E+03  0.15947581522E+04  0.50400001928E-02 0.  1.
       -1    1    3    3    0  502 -0.11983314940E+04 -0.41298994590E+03 -0.17949815889E+04  0.21973888981E+04  0.50400001928E-02 0. -1.
</event>
<event>
 5   0  0.1757996E-08  0.3698678E+04  0.7818609E-02  0.8068255E-01
        2   -1    0    0  501    0  0.00000000000E+00  0.00000000000E+00  0.15833498740E+04  0.15833498740E+04  0.25500000920E-02 0.  1.
       -2   -1    0    0    0  501  0.00000000000E+00  0.00000000000E+00 -0.21600118666E+04  0.21600118666E+04  0.25500000920E-02 0. -1.
    10030    2    1    2    0    0  0.00000000000E+00  0.00000000000E+00 -0.57666199260E+03  0.37433617405E+04  0.36986778809E+04 0.  0.
        3    1    3    3  502    0 -0.74515046616E+03 -0.21453279452E+03 -0.19875366818E+04  0.21334421972E+04  0.10100000352E+00 0. -1.
       -3    1    3    3    0  502  0.74515046616E+03  0.21453279452E+03  0.14108746892E+04  0.16099195433E+04  0.10100000352E+00 0.  1.
</event>
<event>
 5   0  0.1757996E-08  0.3698380E+04  0.7818609E-02  0.8068321E-01
       -2   -1    0    0    0  501  0.00000000000E+00  0.00000000000E+00  0.20117373703E+04  0.20117373703E+04  0.25500000920E-02 0.  1.
        2   -1    0    0  501    0  0.00000000000E+00  0.00000000000E+00 -0.16997761722E+04  0.16997761722E+04  0.25500000920E-02 0. -1.
    10030    2    1    2    0    0  0.00000000000E+00  0.00000000000E+00  0.31196119814E+03  0.37115135425E+04  0.36983797786E+04 0.  0.
        3    1    3    3  502    0 -0.10199533782E+04 -0.14658590465E+04 -0.32578210452E+03  0.18152635147E+04  0.10100000352E+00 0. -1.
       -3    1    3    3    0  502  0.10199533782E+04  0.14658590465E+04  0.63774330266E+03  0.18962500278E+04  0.10100000352E+00 0.  1.
</event>
<event>
 5   0  0.1825308E-08  0.3699933E+04  0.7818609E-02  0.8067977E-01
        2   -1    0    0  501    0  0.00000000000E+00  0.00000000000E+00  0.16808336539E+04  0.16808336539E+04  0.25500000920E-02 0. -1.
       -2   -1    0    0    0  501  0.00000000000E+00  0.00000000000E+00 -0.20361185774E+04  0.20361185774E+04  0.25500000920E-02 0.  1.
    10030    2    1    2    0    0  0.00000000000E+00  0.00000000000E+00 -0.35528492349E+03  0.37169522312E+04  0.36999333119E+04 0.  0.
        4    1    3    3  502    0  0.12144537840E+04  0.29405821042E+03  0.11928197412E+04  0.17274804696E+04  0.12699999809E+01 0. -1.
       -4    1    3    3    0  502 -0.12144537840E+04 -0.29405821042E+03 -0.15481046647E+04  0.19894717617E+04  0.12699999809E+01 0.  1.
</event>
<event>
 5   0  0.5714125E-09  0.3709182E+04  0.7818609E-02  0.8065930E-01
        1   -1    0    0  501    0  0.00000000000E+00  0.00000000000E+00  0.10265654667E+04  0.10265654667E+04  0.50400001928E-02 0. -1.
       -1   -1    0    0    0  501  0.00000000000E+00  0.00000000000E+00 -0.33505004373E+04  0.33505004373E+04  0.50400001928E-02 0.  1.
    10030    2    1    2    0    0  0.00000000000E+00  0.00000000000E+00 -0.23239349706E+04  0.43770659040E+04  0.37091821444E+04 0.  0.
        3    1    3    3  502    0 -0.98243736843E+03  0.15726950551E+04 -0.11984372432E+04  0.22078960019E+04  0.10100000352E+00 0. -1.
       -3    1    3    3    0  502  0.98243736843E+03 -0.15726950551E+04 -0.11254977274E+04  0.21691699020E+04  0.10100000352E+00 0.  1.
</event>
<event>
 5   0  0.1825308E-08  0.3680508E+04  0.7818609E-02  0.8072295E-01
       -2   -1    0    0    0  501  0.00000000000E+00  0.00000000000E+00  0.24789155207E+04  0.24789155207E+04  0.25500000920E-02 0.  1.
        2   -1    0    0  501    0  0.00000000000E+00  0.00000000000E+00 -0.13661352727E+04  0.13661352727E+04  0.25500000920E-02 0. -1.
    10030    2    1    2    0    0  0.00000000000E+00  0.00000000000E+00  0.11127802479E+04  0.38450507934E+04  0.36805075361E+04 0.  0.
        4    1    3    3  502    0 -0.42360827473E+03  0.71089663563E+03 -0.11607829991E+04  0.14255654250E+04  0.12699999809E+01 0. -1.
       -4    1    3    3    0  502  0.42360827473E+03 -0.71089663563E+03  0.22735632470E+04  0.24194853684E+04  0.12699999809E+01 0.  1.
</event>
<event>
 5   0  0.5714125E-09  0.3703681E+04  0.7818609E-02  0.8067147E-01
        1   -1    0    0  501    0  0.00000000000E+00  0.00000000000E+00  0.12711711300E+04  0.12711711300E+04  0.50400001928E-02 0. -1.
       -1   -1    0    0    0  501  0.00000000000E+00  0.00000000000E+00 -0.26977588356E+04  0.26977588356E+04  0.50400001928E-02 0.  1.
    10030    2    1    2    0    0  0.00000000000E+00  0.00000000000E+00 -0.14265877056E+04  0.39689299656E+04  0.37036809515E+04 0.  0.
        5    1    3    3  502    0 -0.66508114163E+03  0.16974845201E+04 -0.10613707739E+04  0.21095773583E+04  0.46999998093E+01 0.  1.
       -5    1    3    3    0  502  0.66508114163E+03 -0.16974845201E+04 -0.36521693170E+03  0.18593526073E+04  0.46999998093E+01 0. -1.
</event>
<event>
 5   0  0.1725865E-08  0.3700138E+04  0.7818609E-02  0.8067931E-01
       -2   -1    0    0    0  501  0.00000000000E+00  0.00000000000E+00  0.14176251214E+04  0.14176251214E+04  0.25500000920E-02 0.  1.
        2   -1    0    0  501    0  0.00000000000E+00  0.00000000000E+00 -0.24144284314E+04  0.24144284314E+04  0.25500000920E-02 0. -1.
    10030    2    1    2    0    0  0.00000000000E+00  0.00000000000E+00 -0.99680330994E+03  0.38320535528E+04  0.37001375100E+04 0.  0.
        1    1    3    3  502    0  0.43410800347E+03 -0.17371243200E+04 -0.16290805230E+02  0.17906189020E+04  0.50400001928E-02 0.  1.
       -1    1    3    3    0  502 -0.43410800347E+03  0.17371243200E+04 -0.98051250471E+03  0.20414346508E+04  0.50400001928E-02 0. -1.
</event>
<event>
 5   0  0.5714125E-09  0.3697498E+04  0.7818609E-02  0.8068517E-01
        1   -1    0    0  501    0  0.00000000000E+00  0.00000000000E+00  0.11253987694E+04  0.11253987694E+04  0.50400001928E-02 0. -1.
       -1   -1    0    0    0  501  0.00000000000E+00  0.00000000000E+00 -0.30370328617E+04  0.30370328617E+04  0.50400001928E-02 0.  1.
    10030    2    1    2    0    0  0.00000000000E+00  0.00000000000E+00 -0.19116340923E+04  0.41624316310E+04  0.36974980974E+04 0.  0.
        2    1    3    3  502    0 -0.10757068322E+04 -0.12290216383E+03 -0.26427878624E+04  0.28559723066E+04  0.25500000920E-02 0.  1.
       -2    1    3    3    0  502  0.10757068322E+04  0.12290216383E+03  0.73115377010E+03  0.13064593244E+04  0.25500000920E-02 0. -1.
</event>
<event>
 5   0  0.1740290E-08  0.3700605E+04  0.7818609E-02  0.8067828E-01
        2   -1    0    0  501    0  0.00000000000E+00  0.00000000000E+00  0.19341275144E+04  0.19341275144E+04  0.25500000920E-02 0. -1.
       -2   -1    0    0    0  501  0.00000000000E+00  0.00000000000E+00 -0.17701105103E+04  0.17701105103E+04  0.25500000920E-02 0.  1.
    10030    2    1    2    0    0  0.00000000000E+00  0.00000000000E+00  0.16401700411E+03  0.37042380246E+04  0.37006050540E+04 0.  0.
        5    1    3    3  502    0  0.91039193716E+03 -0.14575932712E+04  0.76839717122E+03  0.18825110693E+04  0.46999998093E+01 0. -1.
       -5    1    3    3    0  502 -0.91039193716E+03  0.14575932712E+04 -0.60438016711E+03  0.18217269553E+04  0.46999998093E+01 0.  1.
</event>
<event>
 5   0  0.5714125E-09  0.3698902E+04  0.7818609E-02  0.8068205E-01
       -1   -1    0    0    0  501  0.00000000000E+00  0.00000000000E+00  0.11427926066E+04  0.11427926066E+04  0.50400001928E-02 0.  1.
        1   -1    0    0  501    0  0.00000000000E+00  0.00000000000E+00 -0.29930796257E+04  0.29930796257E+04  0.50400001928E-02 0. -1.
    10030    2    1    2    0    0  0.00000000000E+00  0.00000000000E+00 -0.18502870191E+04  0.41358722322E+04  0.36989021436E+04 0.  0.
        3    1    3    3  502    0  0.13165651338E+04  0.75695200260E+03  0.25508456891E+03  0.15399312430E+04  0.10100000352E+00 0.  1.
       -3    1    3    3    0  502 -0.13165651338E+04 -0.75695200260E+03 -0.21053715880E+04  0.25959409892E+04  0.10100000352E+00 0. -1.
</event>
<event>
 5   0  0.5714125E-09  0.3699788E+04  0.7818609E-02  0.8068009E-01
       -1   -1    0    0    0  501  0.00000000000E+00  0.00000000000E+00  0.14507124272E+04  0.14507124272E+04  0.50400001928E-02 0.  1.
        1   -1    0    0  501    0  0.00000000000E+00  0.00000000000E+00 -0.23589151727E+04  0.23589151727E+04  0.50400001928E-02 0. -1.
    10030    2    1    2    0    0  0.00000000000E+00  0.00000000000E+00 -0.90820274548E+03  0.38096275999E+04  0.36997878619E+04 0.  0.
        3    1    3    3  502    0 -0.74715621115E+03  0.10213600793E+04  0.93528665791E+03  0.15735882429E+04  0.10100000352E+00 0.  1.
       -3    1    3    3    0  502  0.74715621115E+03 -0.10213600793E+04 -0.18434894034E+04  0.22360393570E+04  0.10100000352E+00 0. -1.
</event>
<event>
 5   0  0.5714125E-09  0.3702693E+04  0.7818609E-02  0.8067365E-01
       -1   -1    0    0    0  501  0.00000000000E+00  0.00000000000E+00  0.13831793885E+04  0.13831793885E+04  0.50400001928E-02 0. -1.
        1   -1    0    0  501    0  0.00000000000E+00  0.00000000000E+00 -0.24779755785E+04  0.24779755785E+04  0.50400001928E-02 0.  1.
    10030    2    1    2    0    0  0.00000000000E+00  0.00000000000E+00 -0.10947961899E+04  0.38611549670E+04  0.37026934766E+04 0.  0.
        3    1    3    3  502    0  0.69904607007E+03  0.17013833999E+04 -0.76641970713E+03  0.19926791159E+04  0.10100000352E+00 0.  1.
       -3    1    3    3    0  502 -0.69904607007E+03 -0.17013833999E+04 -0.32837648279E+03  0.18684758511E+04  0.10100000352E+00 0. -1.
</event>
<event>
 5   0  0.5714125E-09  0.3704972E+04  0.7818609E-02  0.8066861E-01
        1   -1    0    0  501    0  0.00000000000E+00  0.00000000000E+00  0.24688737810E+04  0.24688737810E+04  0.50400001928E-02 0.  1.
       -1   -1    0    0    0  501  0.00000000000E+00  0.00000000000E+00 -0.13899877871E+04  0.13899877871E+04  0.50400001928E-02 0. -1.
    10030    2    1    2    0    0  0.00000000000E+00  0.00000000000E+00  0.10788859940E+04  0.38588615681E+04  0.37049720126E+04 0.  0.
        2    1    3    3  502    0  0.15199406682E+04  0.77466624098E+03  0.12914990222E+04  0.21396955728E+04  0.25500000920E-02 0.  1.
       -2    1    3    3    0  502 -0.15199406682E+04 -0.77466624098E+03 -0.21261302827E+03  0.17191659953E+04  0.25500000920E-02 0. -1.
</event>
<event>
 5   0  0.5714125E-09  0.3700170E+04  0.7818609E-02  0.8067924E-01
       -1   -1    0    0    0  501  0.00000000000E+00  0.00000000000E+00  0.18835395161E+04  0.18835395161E+04  0.50400001928E-02 0.  1.
        1   -1    0    0  501    0  0.00000000000E+00  0.00000000000E+00 -0.18172245960E+04  0.18172245960E+04  0.50400001928E-02 0. -1.
    10030    2    1    2    0    0  0.00000000000E+00  0.00000000000E+00  0.66314920061E+02  0.37007641121E+04  0.37001699076E+04 0.  0.
        5    1    3    3  502    0  0.12090952262E+04  0.62627313944E+03  0.12858213391E+04  0.18728288542E+04  0.46999998093E+01 0.  1.
       -5    1    3    3    0  502 -0.12090952262E+04 -0.62627313944E+03 -0.12195064190E+04  0.18279352579E+04  0.46999998093E+01 0. -1.
</event>
<event>
 5   0  0.1740290E-08  0.3699511E+04  0.7818609E-02  0.8068070E-01
        2   -1    0    0  501    0  0.00000000000E+00  0.00000000000E+00  0.24441259361E+04  0.24441259361E+04  0.25500000920E-02 0.  1.
       -2   -1    0    0    0  501  0.00000000000E+00  0.00000000000E+00 -0.13999258375E+04  0.13999258375E+04  0.25500000920E-02 0. -1.
    10030    2    1    2    0    0  0.00000000000E+00  0.00000000000E+00  0.10442000986E+04  0.38440517736E+04  0.36995108045E+04 0.  0.
        5    1    3    3  502    0 -0.21860344042E+02 -0.16642043121E+04  0.13608036381E+04  0.21498517387E+04  0.46999998093E+01 0. -1.
       -5    1    3    3    0  502  0.21860344042E+02  0.16642043121E+04 -0.31660353957E+03  0.16942000349E+04  0.46999998093E+01 0.  1.
</event>
<event>
 5   0  0.5714125E-09  0.3700422E+04  0.7818609E-02  0.8067868E-01
       -3   -1    0    0    0  501  0.00000000000E+00  0.00000000000E+00  0.17296197731E+04  0.17296197760E+04  0.10100000352E+00 0.  1.
        3   -1    0    0  501    0  0.00000000000E+00  0.00000000000E+00 -0.19792102747E+04  0.19792102773E+04  0.10100000352E+00 0. -1.
    10030    2    1    2    0    0  0.00000000000E+00  0.00000000000E+00 -0.24959050159E+03  0.37088300533E+04  0.37004222659E+04 0.  0.
        2    1    3    3  502    0 -0.18117289604E+04  0.12757373110E+03  0.22905699206E+03  0.18306020836E+04  0.25500000920E-02 0.  1.
       -2    1    3    3    0  502  0.18117289604E+04 -0.12757373110E+03 -0.47864749365E+03  0.18782279697E+04  0.25500000920E-02 0. -1.
</event>
<event>
 5   0  0.1725865E-08  0.3701406E+04  0.7818609E-02  0.8067650E-01
        2   -1    0    0  501    0  0.00000000000E+00  0.00000000000E+00  0.27223213116E+04  0.27223213116E+04  0.25500000920E-02 0.  1.
       -2   -1    0    0    0  501  0.00000000000E+00  0.00000000000E+00 -0.12581548472E+04  0.12581548472E+04  0.25500000920E-02 0. -1.
    10030    2    1    2    0    0  0.00000000000E+00  0.00000000000E+00  0.14641664643E+04  0.39804761588E+04  0.37014060863E+04 0.  0.
        1    1    3    3  502    0  0.12514103546E+03  0.29155364302E+03 -0.12286901735E+04  0.12689930449E+04  0.50400001928E-02 0. -1.
       -1    1    3    3    0  502 -0.12514103546E+03 -0.29155364302E+03  0.26928566378E+04  0.27114831139E+04  0.50400001928E-02 0.  1.
</event>
<event>
 5   0  0.5714125E-09  0.3700086E+04  0.7818609E-02  0.8067943E-01
        1   -1    0    0  501    0  0.00000000000E+00  0.00000000000E+00  0.14332183796E+04  0.14332183796E+04  0.50400001928E-02 0. -1.
       -1   -1    0    0    0  501  0.00000000000E+00  0.00000000000E+00 -0.23880931565E+04  0.23880931565E+04  0.50400001928E-02 0.  1.
    10030    2    1    2    0    0  0.00000000000E+00  0.00000000000E+00 -0.95487477693E+03  0.38213115361E+04  0.37000859472E+04 0.  0.
        1    1    3    3  502    0  0.83736761182E+03 -0.13198780529E+04 -0.14995056155E+04  0.21660516344E+04  0.50400001928E-02 0.  1.
       -1    1    3    3    0  502 -0.83736761182E+03  0.13198780529E+04  0.54463083855E+03  0.16552599017E+04  0.50400001928E-02 0. -1.
</event>
<event>
 5   0  0.1825308E-08  0.3698817E+04  0.7818609E-02  0.8068224E-01
        2   -1    0    0  501    0  0.00000000000E+00  0.00000000000E+00  0.16555865113E+04  0.16555865113E+04  0.25500000920E-02 0.  1.
       -2   -1    0    0    0  501  0.00000000000E+00  0.00000000000E+00 -0.20659217386E+04  0.20659217386E+04  0.25500000920E-02 0. -1.
    10030    2    1    2    0    0  0.00000000000E+00  0.00000000000E+00 -0.41033522731E+03  0.37215082499E+04  0.36988171968E+04 0.  0.
        4    1    3    3  502    0  0.15394977173E+04  0.61997292762E+02  0.82405144386E+03  0.17472719539E+04  0.12699999809E+01 0.  1.
       -4    1    3    3    0  502 -0.15394977173E+04 -0.61997292762E+02 -0.12343866712E+04  0.19742362961E+04  0.12699999809E+01 0. -1.
</event>
<event>
 5   0  0.1757996E-08  0.3700658E+04  0.7818609E-02  0.8067816E-01
       -2   -1    0    0    0  501  0.00000000000E+00  0.00000000000E+00  0.11539620667E+04  0.11539620667E+04  0.25500000920E-02 0.  1.
        2   -1    0    0  501    0  0.00000000000E+00  0.00000000000E+00 -0.29669235284E+04  0.29669235284E+04  0.25500000920E-02 0. -1.
    10030    2    1    2    0    0  0.00000000000E+00  0.00000000000E+00 -0.18129614617E+04  0.41208855951E+04  0.37006578910E+04 0.  0.
        3    1    3    3  502    0 -0.12001302985E+03 -0.59983028526E+03  0.10381054646E+04  0.12049325559E+04  0.10100000352E+00 0.  1.
       -3    1    3    3    0  502  0.12001302985E+03  0.59983028526E+03 -0.28510669263E+04  0.29159530392E+04  0.10100000352E+00 0. -1.
</event>
<event>
 5   0  0.5714125E-09  0.3683235E+04  0.7818609E-02  0.8071687E-01
        1   -1    0    0  501    0  0.00000000000E+00  0.00000000000E+00  0.21917554753E+04  0.21917554753E+04  0.50400001928E-02 0.  1.
       -1   -1    0    0    0  501  0.00000000000E+00  0.00000000000E+00 -0.15474150999E+04  0.15474150999E+04  0.50400001928E-02 0. -1.
    10030    2    1    2    0    0  0.00000000000E+00  0.00000000000E+00  0.64434037549E+03  0.37391705752E+04  0.36832352723E+04 0.  0.
        3    1    3    3  502    0 -0.14111039730E+04  0.11204589285E+04 -0.64285142737E+02  0.18029906331E+04  0.10100000352E+00 0. -1.
       -3    1    3    3    0  502  0.14111039730E+04 -0.11204589285E+04  0.70862551823E+03  0.19361799422E+04  0.10100000352E+00 0.  1.
</event>
<event>
 5   0  0.5714125E-09  0.3695760E+04  0.7818609E-02  0.8068902E-01
        1   -1    0    0  501    0  0.00000000000E+00  0.00000000000E+00  0.15245620558E+04  0.15245620558E+04  0.50400001928E-02 0.  1.
       -1   -1    0    0    0  501  0.00000000000E+00  0.00000000000E+00 -0.22397650199E+04  0.22397650199E+04  0.50400001928E-02 0. -1.
    10030    2    1    2    0    0  0.00000000000E+00  0.00000000000E+00 -0.71520296414E+03  0.37643270757E+04  0.36957601455E+04 0.  0.
        5    1    3    3  502    0 -0.72226891058E+03 -0.14967245862E+04  0.46533742367E+03  0.17258093388E+04  0.46999998093E+01 0.  1.
       -5    1    3    3    0  502  0.72226891058E+03  0.14967245862E+04 -0.11805403878E+04  0.20385177368E+04  0.46999998093E+01 0. -1.
</event>
<event>
 5   0  0.5714125E-09  0.3708020E+04  0.7818609E-02  0.8066187E-01
        1   -1    0    0  501    0  0.00000000000E+00  0.00000000000E+00  0.17787258650E+04  0.17787258650E+04  0.50400001928E-02 0.  1.
       -1   -1    0    0    0  501  0.00000000000E+00  0.00000000000E+00 -0.19324801040E+04  0.19324801040E+04  0.50400001928E-02 0. -1.
    10030    2    1    2    0    0  0.00000000000E+00  0.00000000000E+00 -0.15375423898E+03  0.37112059690E+04  0.37080196033E+04 0.  0.
        4    1    3    3  502    0 -0.15957013439E+04 -0.25172893454E+03  0.83369613768E+03  0.18178781858E+04  0.12699999809E+01 0.  1.
       -4    1    3    3    0  502  0.15957013439E+04  0.25172893454E+03 -0.98745037665E+03  0.18933277832E+04  0.12699999809E+01 0. -1.
</event>
<event>
 5   0  0.1757996E-08  0.3696219E+04  0.7818609E-02  0.8068800E-01
       -2   -1    0    0    0  501  0.00000000000E+00  0.00000000000E+00  0.19076445454E+04  0.19076445454E+04  0.25500000920E-02 0.  1.
        2   -1    0    0  501    0  0.00000000000E+00  0.00000000000E+00 -0.17904327294E+04  0.17904327294E+04  0.25500000920E-02 0. -1.
    10030    2    1    2    0    0  0.00000000000E+00  0.00000000000E+00  0.11721181606E+03  0.36980772748E+04  0.36962192739E+04 0.  0.
        3    1    3    3  502    0 -0.17217916595E+04  0.18684968877E+03 -0.58672211463E+03  0.18285847464E+04  0.10100000352E+00 0. -1.
       -3    1    3    3    0  502  0.17217916595E+04 -0.18684968877E+03  0.70393393069E+03  0.18694925284E+04  0.10100000352E+00 0.  1.
</event>
<event>
 5   0  0.1856107E-08  0.3694713E+04  0.7818609E-02  0.8069135E-01
       -2   -1    0    0    0  501  0.00000000000E+00  0.00000000000E+00  0.22100407616E+04  0.22100407616E+04  0.25500000920E-02 0.  1.
        2   -1    0    0  501    0  0.00000000000E+00  0.00000000000E+00 -0.15441910456E+04  0.15441910456E+04  0.25500000920E-02 0. -1.
    10030    2    1    2    0    0  0.00000000000E+00  0.00000000000E+00  0.66584971603E+03  0.37542318072E+04  0.36947125217E+04 0.  0.
        2    1    3    3  502    0 -0.14930086213E+04  0.35267957134E+03 -0.71286219915E+03  0.16916353444E+04  0.25500000920E-02 0. -1.
       -2    1    3    3    0  502  0.14930086213E+04 -0.35267957134E+03  0.13787119152E+04  0.20625964628E+04  0.25500000920E-02 0.  1.
</event>
<event>
 5   0  0.1757996E-08  0.3698956E+04  0.7818609E-02  0.8068193E-01
       -2   -1    0    0    0  501  0.00000000000E+00  0.00000000000E+00  0.28114056201E+04  0.28114056201E+04  0.25500000920E-02 0. -1.
        2   -1    0    0  501    0  0.00000000000E+00  0.00000000000E+00 -0.12166756929E+04  0.12166756929E+04  0.25500000920E-02 0.  1.
    10030    2    1    2    0    0  0.00000000000E+00  0.00000000000E+00  0.15947299272E+04  0.40280813130E+04  0.36989560046E+04 0.  0.
        3    1    3    3  502    0 -0.14598796001E+04 -0.27443199233E+03  0.19972226802E+04  0.24890680605E+04  0.10100000352E+00 0. -1.
       -3    1    3    3    0  502  0.14598796001E+04  0.27443199233E+03 -0.40249275303E+03  0.15390132526E+04  0.10100000352E+00 0.  1.
</event>
<event>
 5   0  0.1856107E-08  0.3700878E+04  0.7818609E-02  0.8067767E-01
       -2   -1    0    0    0  501  0.00000000000E+00  0.00000000000E+00  0.28018104402E+04  0.28018104402E+04  0.25500000920E-02 0.  1.
        2   -1    0    0  501    0  0.00000000000E+00  0.00000000000E+00 -0.12221112016E+04  0.12221112016E+04  0.25500000920E-02 0. -1.
    10030    2    1    2    0    0  0.00000000000E+00  0.00000000000E+00  0.15796992386E+04  0.40239216419E+04  0.37008776926E+04 0.  0.
        2    1    3    3  502    0  0.17115833526E+03 -0.15148323907E+04  0.19302652200E+04  0.24596617993E+04  0.25500000920E-02 0.  1.
       -2    1    3    3    0  502 -0.17115833526E+03  0.15148323907E+04 -0.35056598136E+03  0.15642598425E+04  0.25500000920E-02 0. -1.
</event>
<event>
 5   0  0.1757996E-08  0.3699519E+04  0.7818609E-02  0.8068068E-01
       -2   -1    0    0    0  501  0.00000000000E+00  0.00000000000E+00  0.12241924131E+04  0.12241924131E+04  0.25500000920E-02 0.  1.
        2   -1    0    0  501    0  0.00000000000E+00  0.00000000000E+00 -0.27949935694E+04  0.27949935694E+04  0.25500000920E-02 0. -1.
    10030    2    1    2    0    0  0.00000000000E+00  0.00000000000E+00 -0.15708011563E+04  0.40191859826E+04  0.36995188457E+04 0.  0.
        3    1    3    3  502    0 -0.15303016912E+04  0.71899079630E+03  0.29650646845E+02  0.16910500295E+04  0.10100000352E+00 0.  1.
       -3    1    3    3    0  502  0.15303016912E+04 -0.71899079630E+03 -0.16004518032E+04  0.23281359530E+04  0.10100000352E+00 0. -1.
</event>
<event>
 5   0  0.1740290E-08  0.3699713E+04  0.7818609E-02  0.8068025E-01
       -2   -1    0    0    0  501  0.00000000000E+00  0.00000000000E+00  0.14115225605E+04  0.14115225605E+04  0.25500000920E-02 0. -1.
        2   -1    0    0  501    0  0.00000000000E+00  0.00000000000E+00 -0.24243102646E+04  0.24243102646E+04  0.25500000920E-02 0.  1.
    10030    2    1    2    0    0  0.00000000000E+00  0.00000000000E+00 -0.10127877041E+04  0.38358328251E+04  0.36997127630E+04 0.  0.
        5    1    3    3  502    0 -0.15338084679E+04 -0.60632418980E+03 -0.13749193973E+04  0.21472361022E+04  0.46999998093E+01 0.  1.
       -5    1    3    3    0  502  0.15338084679E+04  0.60632418980E+03  0.36213169326E+03  0.16885967229E+04  0.46999998093E+01 0. -1.
</event>
<event>
 5   0  0.1825308E-08  0.3695415E+04  0.7818609E-02  0.8068979E-01
        2   -1    0    0  501    0  0.00000000000E+00  0.00000000000E+00  0.22260532931E+04  0.22260532931E+04  0.25500000920E-02 0.  1.
       -2   -1    0    0    0  501  0.00000000000E+00  0.00000000000E+00 -0.15336666429E+04  0.15336666429E+04  0.25500000920E-02 0. -1.
    10030    2    1    2    0    0  0.00000000000E+00  0.00000000000E+00  0.69238665021E+03  0.37597199360E+04  0.36954153655E+04 0.  0.
        4    1    3    3  502    0  0.43675909198E+03 -0.87257929582E+03  0.19425307637E+04  0.21738400385E+04  0.12699999809E+01 0.  1.
       -4    1    3    3    0  502 -0.43675909198E+03  0.87257929582E+03 -0.12501441135E+04  0.15858798975E+04  0.12699999809E+01 0. -1.
</event>
<event>
 5   0  0.1825308E-08  0.3701163E+04  0.7818609E-02  0.8067704E-01
       -2   -1    0    0    0  501  0.00000000000E+00  0.00000000000E+00  0.15133538457E+04  0.15133538457E+04  0.25500000920E-02 0. -1.
        2   -1    0    0  501    0  0.00000000000E+00  0.00000000000E+00 -0.22629554137E+04  0.22629554137E+04  0.25500000920E-02 0.  1.
    10030    2    1    2    0    0  0.00000000000E+00  0.00000000000E+00 -0.74960156808E+03  0.37763092594E+04  0.37011632107E+04 0.  0.
        4    1    3    3  502    0 -0.28529771745E+03  0.11657450798E+04 -0.18120509178E+04  0.21734503722E+04  0.12699999809E+01 0.  1.
       -4    1    3    3    0  502  0.28529771745E+03 -0.11657450798E+04  0.10624493497E+04  0.16028588872E+04  0.12699999809E+01 0. -1.
</event>
<event>
 5   0  0.5714125E-09  0.3699009E+04  0.7818609E-02  0.8068182E-01
        1   -1    0    0  501    0  0.00000000000E+00  0.00000000000E+00  0.17991349308E+04  0.17991349308E+04  0.50400001928E-02 0.  1.
       -1   -1    0    0    0  501  0.00000000000E+00  0.00000000000E+00 -0.19012837456E+04  0.19012837456E+04  0.50400001928E-02 0. -1.
    10030    2    1    2    0    0  0.00000000000E+00  0.00000000000E+00 -0.10214881477E+03  0.37004186764E+04  0.36990085159E+04 0.  0.
        1    1    3    3  502    0  0.30399566885E+03 -0.12715157669E+04  0.12576675364E+04  0.18140819564E+04  0.50400001928E-02 0.  1.
       -1    1    3    3    0  502 -0.30399566885E+03  0.12715157669E+04 -0.13598163512E+04  0.18863367200E+04  0.50400001928E-02 0. -1.
</event>
<event>
 5   0  0.1856107E-08  0.3699405E+04  0.7818609E-02  0.8068094E-01
        2   -1    0    0  501    0  0.00000000000E+00  0.00000000000E+00  0.30323797610E+04  0.30323797610E+04  0.25500000920E-02 0. -1.
       -2   -1    0    0    0  501  0.00000000000E+00  0.00000000000E+00 -0.11282884510E+04  0.11282884510E+04  0.25500000920E-02 0.  1.
    10030    2    1    2    0    0  0.00000000000E+00  0.00000000000E+00  0.19040913100E+04  0.41606682120E+04  0.36994048513E+04 0.  0.
        2    1    3    3  502    0 -0.36568503912E+03 -0.31149949771E+02  0.29910186163E+04  0.30134512159E+04  0.25500000920E-02 0. -1.
       -2    1    3    3    0  502  0.36568503912E+03  0.31149949771E+02 -0.10869273063E+04  0.11472169962E+04  0.25500000920E-02 0.  1.
</event>
<event>
 5   0  0.5714125E-09  0.3699132E+04  0.7818609E-02  0.8068154E-01
       -1   -1    0    0    0  501  0.00000000000E+00  0.00000000000E+00  0.21331735655E+04  0.21331735655E+04  0.50400001928E-02 0.  1.
        1   -1    0    0  501    0  0.00000000000E+00  0.00000000000E+00 -0.16036645249E+04  0.16036645249E+04  0.50400001928E-02 0. -1.
    10030    2    1    2    0    0  0.00000000000E+00  0.00000000000E+00  0.52950904061E+03  0.37368380904E+04  0.36991322076E+04 0.  0.
        5    1    3    3  502    0  0.17398388038E+03 -0.11706547605E+04  0.17005690928E+04  0.20718736178E+04  0.46999998093E+01 0.  1.
       -5    1    3    3    0  502 -0.17398388038E+03  0.11706547605E+04 -0.11710600522E+04  0.16649644725E+04  0.46999998093E+01 0. -1.
</event>
<event>
 5   0  0.5714125E-09  0.3699145E+04  0.7818609E-02  0.8068151E-01
       -1   -1    0    0    0  501  0.00000000000E+00  0.00000000000E+00  0.16105369764E+04  0.16105369764E+04  0.50400001928E-02 0. -1.
        1   -1    0    0  501    0  0.00000000000E+00  0.00000000000E+00 -0.21240856485E+04  0.21240856485E+04  0.50400001928E-02 0.  1.
    10030    2    1    2    0    0  0.00000000000E+00  0.00000000000E+00 -0.51354867203E+03  0.37346226249E+04  0.36991450245E+04 0.  0.
        4    1    3    3  502    0  0.54466058481E+03  0.17483616282E+04  0.55120760870E+01  0.18312442577E+04  0.12699999809E+01 0. -1.
       -4    1    3    3    0  502 -0.54466058481E+03 -0.17483616282E+04 -0.51906074812E+03  0.19033783672E+04  0.12699999809E+01 0.  1.
</event>
<event>
 5   0  0.5714125E-09  0.3699611E+04  0.7818609E-02  0.8068048E-01
       -1   -1    0    0    0  501  0.00000000000E+00  0.00000000000E+00  0.13273851275E+04  0.13273851275E+04  0.50400001928E-02 0. -1.
        1   -1    0    0  501    0  0.00000000000E+00  0.00000000000E+00 -0.25778353338E+04  0.25778353338E+04  0.50400001928E-02 0.  1.
    10030    2    1    2    0    0  0.00000000000E+00  0.00000000000E+00 -0.12504502063E+04  0.39052204613E+04  0.36996109434E+04 0.  0.
        5    1    3    3  502    0 -0.70336473723E+03 -0.13277803271E+04  0.51364092931E+03  0.15879457311E+04  0.46999998093E+01 0.  1.
       -5    1    3    3    0  502  0.70336473723E+03  0.13277803271E+04 -0.17640911356E+04  0.23172747302E+04  0.46999998093E+01 0. -1.
</event>
<event>
 5   0  0.1725865E-08  0.3700727E+04  0.7818609E-02  0.8067801E-01
       -2   -1    0    0    0  501  0.00000000000E+00  0.00000000000E+00  0.18343360966E+04  0.18343360966E+04  0.25500000920E-02 0.  1.
        2   -1    0    0  501    0  0.00000000000E+00  0.00000000000E+00 -0.18665305818E+04  0.18665305818E+04  0.25500000920E-02 0. -1.
    10030    2    1    2    0    0  0.00000000000E+00  0.00000000000E+00 -0.32194485198E+02  0.37008666785E+04  0.37007266431E+04 0.  0.
        1    1    3    3  502    0 -0.69800755800E+03  0.11259518610E+04 -0.13079906512E+04  0.18616717455E+04  0.50400001928E-02 0. -1.
       -1    1    3    3    0  502  0.69800755800E+03 -0.11259518610E+04  0.12757961660E+04  0.18391949330E+04  0.50400001928E-02 0.  1.
</event>
<event>
 5   0  0.1757996E-08  0.3699522E+04  0.7818609E-02  0.8068068E-01
        2   -1    0    0  501    0  0.00000000000E+00  0.00000000000E+00  0.12448369557E+04  0.12448369557E+04  0.25500000920E-02 0. -1.
       -2   -1    0    0    0  501  0.00000000000E+00  0.00000000000E+00 -0.27486450607E+04  0.27486450607E+04  0.25500000920E-02 0.  1.
    10030    2    1    2    0    0  0.00000000000E+00  0.00000000000E+00 -0.15038081050E+04  0.39934820165E+04  0.36995215636E+04 0.  0.
        3    1    3    3  502    0  0.18093961233E+04  0.37421337837E+03 -0.65739769843E+03  0.19611531627E+04  0.10100000352E+00 0.  1.
       -3    1    3    3    0  502 -0.18093961233E+04 -0.37421337837E+03 -0.84641040656E+03  0.20323288538E+04  0.10100000352E+00 0. -1.
</event>
<event>
 5   0  0.1740290E-08  0.3700795E+04  0.7818609E-02  0.8067786E-01
       -2   -1    0    0    0  501  0.00000000000E+00  0.00000000000E+00  0.16900479490E+04  0.16900479490E+04  0.25500000920E-02 0.  1.
        2   -1    0    0  501    0  0.00000000000E+00  0.00000000000E+00 -0.20259611404E+04  0.20259611404E+04  0.25500000920E-02 0. -1.
    10030    2    1    2    0    0  0.00000000000E+00  0.00000000000E+00 -0.33591319139E+03  0.37160090894E+04  0.37007953038E+04 0.  0.
        5    1    3    3  502    0 -0.12200748080E+04  0.10249384092E+04  0.77658474924E+03  0.17726215734E+04  0.46999998093E+01 0.  1.
       -5    1    3    3    0  502  0.12200748080E+04 -0.10249384092E+04 -0.11124979406E+04  0.19433875160E+04  0.46999998093E+01 0. -1.
</event>
<event>
 5   0  0.5714125E-09  0.3698201E+04  0.7818609E-02  0.8068361E-01
        1   -1    0    0  501    0  0.00000000000E+00  0.00000000000E+00  0.22962709704E+04  0.22962709704E+04  0.50400001928E-02 0. -1.
       -1   -1    0    0    0  501  0.00000000000E+00  0.00000000000E+00 -0.14890110743E+04  0.14890110743E+04  0.50400001928E-02 0.  1.
    10030    2    1    2    0    0  0.00000000000E+00  0.00000000000E+00  0.80725989607E+03  0.37852820447E+04  0.36982011327E+04 0.  0.
        5    1    3    3  502    0 -0.81136571829E+03 -0.45712717969E+03  0.20387027520E+04  0.22413412476E+04  0.46999998093E+01 0. -1.
       -5    1    3    3    0  502  0.81136571829E+03  0.45712717969E+03 -0.12314428560E+04  0.15439407970E+04  0.46999998093E+01 0.  1.
</event>
<event>
 5   0  0.1757996E-08  0.3699702E+04  0.7818609E-02  0.8068028E-01
       -2   -1    0    0    0  501  0.00000000000E+00  0.00000000000E+00  0.18475358242E+04  0.18475358242E+04  0.25500000920E-02 0. -1.
        2   -1    0    0  501    0  0.00000000000E+00  0.00000000000E+00 -0.18521688667E+04  0.18521688667E+04  0.25500000920E-02 0.  1.
    10030    2    1    2    0    0  0.00000000000E+00  0.00000000000E+00 -0.46330425071E+01  0.36997046908E+04  0.36997017899E+04 0.  0.
        3    1    3    3  502    0 -0.11551777846E+04 -0.31416381692E+02  0.14421657017E+04  0.18480434585E+04  0.10100000352E+00 0. -1.
       -3    1    3    3    0  502  0.11551777846E+04  0.31416381692E+02 -0.14467987442E+04  0.18516612324E+04  0.10100000352E+00 0.  1.
</event>
<event>
 5   0  0.1825308E-08  0.3699071E+04  0.7818609E-02  0.8068168E-01
       -2   -1    0    0    0  501  0.00000000000E+00  0.00000000000E+00  0.14996062261E+04  0.14996062261E+04  0.25500000920E-02 0. -1.
        2   -1    0    0  501    0  0.00000000000E+00  0.00000000000E+00 -0.22811195024E+04  0.22811195024E+04  0.25500000920E-02 0.  1.
    10030    2    1    2    0    0  0.00000000000E+00  0.00000000000E+00 -0.78151327634E+03  0.37807257284E+04  0.36990706985E+04 0.  0.
        4    1    3    3  502    0 -0.53078258222E+03  0.15180524411E+04  0.54295526001E+03  0.16973554109E+04  0.12699999809E+01 0. -1.
       -4    1    3    3    0  502  0.53078258222E+03 -0.15180524411E+04 -0.13244685363E+04  0.20833703176E+04  0.12699999809E+01 0.  1.
</event>
<event>
 5   0  0.1740290E-08  0.3698282E+04  0.7818609E-02  0.8068343E-01
       -2   -1    0    0    0  501  0.00000000000E+00  0.00000000000E+00  0.13193901041E+04  0.13193901042E+04  0.25500000920E-02 0. -1.
        2   -1    0    0  501    0  0.00000000000E+00  0.00000000000E+00 -0.25915937776E+04  0.25915937776E+04  0.25500000920E-02 0.  1.
    10030    2    1    2    0    0  0.00000000000E+00  0.00000000000E+00 -0.12722036734E+04  0.39109838817E+04  0.36982824036E+04 0.  0.
        5    1    3    3  502    0 -0.14888254090E+04  0.11204795625E+03  0.51757969118E+03  0.15802109573E+04  0.46999998093E+01 0. -1.
       -5    1    3    3    0  502  0.14888254090E+04 -0.11204795625E+03 -0.17897833646E+04  0.23307729244E+04  0.46999998093E+01 0.  1.
</event>
<event>
 5   0  0.5714125E-09  0.3700058E+04  0.7818609E-02  0.8067949E-01
        1   -1    0    0  501    0  0.00000000000E+00  0.00000000000E+00  0.20800560409E+04  0.20800560409E+04  0.50400001928E-02 0.  1.
       -1   -1    0    0    0  501  0.00000000000E+00  0.00000000000E+00 -0.16454398589E+04  0.16454398589E+04  0.50400001928E-02 0. -1.
    10030    2    1    2    0    0  0.00000000000E+00  0.00000000000E+00  0.43461618194E+03  0.37254958998E+04  0.37000579014E+04 0.  0.
        5    1    3    3  502    0 -0.10076952484E+04  0.58924513049E+03  0.16624194855E+04  0.20313345793E+04  0.46999998093E+01 0.  1.
       -5    1    3    3    0  502  0.10076952484E+04 -0.58924513049E+03 -0.12278033036E+04  0.16941613204E+04  0.46999998093E+01 0. -1.
</event>
<event>
 5   0  0.1757996E-08  0.3700499E+04  0.7818609E-02  0.8067851E-01
        2   -1    0    0  501    0  0.00000000000E+00  0.00000000000E+00  0.18098096318E+04  0.18098096318E+04  0.25500000920E-02 0. -1.
       -2   -1    0    0    0  501  0.00000000000E+00  0.00000000000E+00 -0.18915933654E+04  0.18915933654E+04  0.25500000920E-02 0.  1.
    10030    2    1    2    0    0  0.00000000000E+00  0.00000000000E+00 -0.81783733557E+02  0.37014029972E+04  0.37004993675E+04 0.  0.
        3    1    3    3  502    0 -0.56303814842E+02 -0.13064289022E+03  0.18043312789E+04  0.18099306779E+04  0.10100000352E+00 0. -1.
       -3    1    3    3    0  502  0.56303814842E+02  0.13064289022E+03 -0.18861150125E+04  0.18914723194E+04  0.10100000352E+00 0.  1.
</event>
<event>
 5   0  0.1725865E-08  0.3696401E+04  0.7818609E-02  0.8068760E-01
        2   -1    0    0  501    0  0.00000000000E+00  0.00000000000E+00  0.27382080820E+04  0.27382080820E+04  0.25500000920E-02 0.  1.
       -2   -1    0    0    0  501  0.00000000000E+00  0.00000000000E+00 -0.12474746387E+04  0.12474746387E+04  0.25500000920E-02 0. -1.
    10030    2    1    2    0    0  0.00000000000E+00  0.00000000000E+00  0.14907334432E+04  0.39856827207E+04  0.36964010269E+04 0.  0.
        1    1    3    3  502    0  0.70794691912E+03 -0.79102558471E+03  0.23766912067E+04  0.26029927791E+04  0.50400001928E-02 0.  1.
       -1    1    3    3    0  502 -0.70794691912E+03  0.79102558471E+03 -0.88595776348E+03  0.13826899416E+04  0.50400001928E-02 0. -1.
</event>
<event>
 5   0  0.1825308E-08  0.3699893E+04  0.7818609E-02  0.8067986E-01
       -2   -1    0    0    0  501  0.00000000000E+00  0.00000000000E+00  0.13797411109E+04  0.13797411109E+04  0.25500000920E-02 0.  1.
        2   -1    0    0  501    0  0.00000000000E+00  0.00000000000E+00 -0.24803939772E+04  0.24803939772E+04  0.25500000920E-02 0. -1.
    10030    2    1    2    0    0  0.00000000000E+00  0.00000000000E+00 -0.11006528663E+04  0.38601350881E+04  0.36998927237E+04 0.  0.
        4    1    3    3  502    0  0.15063896954E+04  0.10155593577E+04 -0.18631857062E+03  0.18262767989E+04  0.12699999809E+01 0.  1.
       -4    1    3    3    0  502 -0.15063896954E+04 -0.10155593577E+04 -0.91433429565E+03  0.20338582892E+04  0.12699999809E+01 0. -1.
</event>
<event>
 5   0  0.1725865E-08  0.3695088E+04  0.7818609E-02  0.8069051E-01
       -2   -1    0    0    0  501  0.00000000000E+00  0.00000000000E+00  0.15201815012E+04  0.15201815012E+04  0.25500000920E-02 0. -1.
        2   -1    0    0  501    0  0.00000000000E+00  0.00000000000E+00 -0.22454027703E+04  0.22454027703E+04  0.25500000920E-02 0.  1.
    10030    2    1    2    0    0  0.00000000000E+00  0.00000000000E+00 -0.72522126918E+03  0.37655842715E+04  0.36950884992E+04 0.  0.
        1    1    3    3  502    0 -0.47395819619E+03  0.59052952754E+03  0.13547881507E+04  0.15520349313E+04  0.50400001928E-02 0. -1.
       -1    1    3    3    0  502  0.47395819619E+03 -0.59052952754E+03 -0.20800094199E+04  0.22135493402E+04  0.50400001928E-02 0.  1.
</event>
<event>
 5   0  0.1757996E-08  0.3700676E+04  0.7818609E-02  0.8067812E-01
        2   -1    0    0  501    0  0.00000000000E+00  0.00000000000E+00  0.22221408682E+04  0.22221408682E+04  0.25500000920E-02 0. -1.
       -2   -1    0    0    0  501  0.00000000000E+00  0.00000000000E+00 -0.15407446201E+04  0.15407446201E+04  0.25500000920E-02 0.  1.
    10030    2    1    2    0    0  0.00000000000E+00  0.00000000000E+00  0.68139624807E+03  0.37628854883E+04  0.37006764721E+04 0.  0.
        3    1    3    3  502    0  0.73427835492E+03 -0.14548849055E+04  0.12317260349E+04  0.20427931433E+04  0.10100000352E+00 0.  1.
       -3    1    3    3    0  502 -0.73427835492E+03  0.14548849055E+04 -0.55032978687E+03  0.17200923450E+04  0.10100000352E+00 0. -1.
</event>
<event>
 5   0  0.1856107E-08  0.3699953E+04  0.7818609E-02  0.8067972E-01
       -2   -1    0    0    0  501  0.00000000000E+00  0.00000000000E+00  0.15906826658E+04  0.15906826658E+04  0.25500000920E-02 0.  1.
        2   -1    0    0  501    0  0.00000000000E+00  0.00000000000E+00 -0.21515372516E+04  0.21515372517E+04  0.25500000920E-02 0. -1.
    10030    2    1    2    0    0  0.00000000000E+00  0.00000000000E+00 -0.56085458589E+03  0.37422199174E+04  0.36999529786E+04 0.  0.
        2    1    3    3  502    0 -0.85475063815E+03  0.16018532375E+04 -0.63927687048E+03  0.19248915204E+04  0.25500000920E-02 0. -1.
       -2    1    3    3    0  502  0.85475063815E+03 -0.16018532375E+04  0.78422284596E+02  0.18173283971E+04  0.25500000920E-02 0.  1.
</event>
<event>
 5   0  0.1725865E-08  0.3699757E+04  0.7818609E-02  0.8068016E-01
        2   -1    0    0  501    0  0.00000000000E+00  0.00000000000E+00  0.18167295493E+04  0.18167295493E+04  0.25500000920E-02 0. -1.
       -2   -1    0    0    0  501  0.00000000000E+00  0.00000000000E+00 -0.18836317968E+04  0.18836317968E+04  0.25500000920E-02 0.  1.
    10030    2    1    2    0    0  0.00000000000E+00  0.00000000000E+00 -0.66902247472E+02  0.37003613461E+04  0.36997565030E+04 0.  0.
        1    1    3    3  502    0 -0.16375933148E+04 -0.25993288734E+03  0.78691011675E+03  0.18353486052E+04  0.50400001928E-02 0.  1.
       -1    1    3    3    0  502  0.16375933148E+04  0.25993288734E+03 -0.85381236422E+03  0.18650127410E+04  0.50400001928E-02 0. -1.
</event>
<event>
 5   0  0.1856107E-08  0.3700235E+04  0.7818609E-02  0.8067910E-01
       -2   -1    0    0    0  501  0.00000000000E+00  0.00000000000E+00  0.13357756008E+04  0.13357756008E+04  0.25500000920E-02 0. -1.
        2   -1    0    0  501    0  0.00000000000E+00  0.00000000000E+00 -0.25625075987E+04  0.25625075987E+04  0.25500000920E-02 0.  1.
    10030    2    1    2    0    0  0.00000000000E+00  0.00000000000E+00 -0.12267319979E+04  0.38982831995E+04  0.37002351965E+04 0.  0.
        2    1    3    3  502    0  0.49905607366E+02  0.11160563056E+04 -0.21670403524E+04  0.24380599123E+04  0.25500000920E-02 0.  1.
       -2    1    3    3    0  502 -0.49905607366E+02 -0.11160563056E+04  0.94030835457E+03  0.14602232872E+04  0.25500000920E-02 0. -1.
</event>
<event>
 5   0  0.5714125E-09  0.3699383E+04  0.7818609E-02  0.8068098E-01
        1   -1    0    0  501    0  0.00000000000E+00  0.00000000000E+00  0.21318890939E+04  0.21318890939E+04  0.50400001928E-02 0. -1.
       -1   -1    0    0    0  501  0.00000000000E+00  0.00000000000E+00 -0.16048487100E+04  0.16048487100E+04  0.50400001928E-02 0.  1.
    10030    2    1    2    0    0  0.00000000000E+00  0.00000000000E+00  0.52704038388E+03  0.37367378039E+04  0.36993834417E+04 0.  0.
        1    1    3    3  502    0  0.74095797312E+03  0.12511235178E+02 -0.14483444539E+04  0.16269225261E+04  0.50400001928E-02 0.  1.
       -1    1    3    3    0  502 -0.74095797312E+03 -0.12511235178E+02  0.19753848377E+04  0.21098152777E+04  0.50400001928E-02 0. -1.
</event>
<event>
 5   0  0.5714125E-09  0.3702360E+04  0.7818609E-02  0.8067439E-01
       -1   -1    0    0    0  501  0.00000000000E+00  0.00000000000E+00  0.19582177700E+04  0.19582177700E+04  0.50400001928E-02 0.  1.
        1   -1    0    0  501    0  0.00000000000E+00  0.00000000000E+00 -0.17499930199E+04  0.17499930199E+04  0.50400001928E-02 0. -1.
    10030    2    1    2    0    0  0.00000000000E+00  0.00000000000E+00  0.20822475010E+03  0.37082107899E+04  0.37023600197E+04 0.  0.
        2    1    3    3  502    0  0.10831599583E+04  0.13823624471E+04  0.69044845466E+03  0.18870295437E+04  0.25500000920E-02 0.  1.
       -2    1    3    3    0  502 -0.10831599583E+04 -0.13823624471E+04 -0.48222370456E+03  0.18211812462E+04  0.25500000920E-02 0. -1.
</event>
<event>
 5   0  0.5714125E-09  0.3702997E+04  0.7818609E-02  0.8067298E-01
        1   -1    0    0  501    0  0.00000000000E+00  0.00000000000E+00  0.22704033268E+04  0.22704033268E+04  0.50400001928E-02 0. -1.
       -1   -1    0    0    0  501  0.00000000000E+00  0.00000000000E+00 -0.15098842754E+04  0.15098842754E+04  0.50400001928E-02 0.  1.
    10030    2    1    2    0    0  0.00000000000E+00  0.00000000000E+00  0.76051905139E+03  0.37802876023E+04  0.37029967767E+04 0.  0.
        4    1    3    3  502    0 -0.54621868596E+03 -0.12488822513E+04  0.16594021601E+04  0.21474819842E+04  0.12699999809E+01 0. -1.
       -4    1    3    3    0  502  0.54621868596E+03  0.12488822513E+04 -0.89888310871E+03  0.16328056181E+04  0.12699999809E+01 0.  1.
</event>
<event>
 5   0  0.5714125E-09  0.3697525E+04  0.7818609E-02  0.8068511E-01
        1   -1    0    0  501    0  0.00000000000E+00  0.00000000000E+00  0.30121394377E+04  0.30121394377E+04  0.50400001928E-02 0.  1.
       -1   -1    0    0    0  501  0.00000000000E+00  0.00000000000E+00 -0.11347159170E+04  0.11347159170E+04  0.50400001928E-02 0. -1.
    10030    2    1    2    0    0  0.00000000000E+00  0.00000000000E+00  0.18774235208E+04  0.41468553547E+04  0.36975248825E+04 0.  0.
        5    1    3    3  502    0 -0.96245935538E+03  0.50696300567E+03  0.26152130303E+04  0.28324372515E+04  0.46999998093E+01 0.  1.
       -5    1    3    3    0  502  0.96245935538E+03 -0.50696300567E+03 -0.73778950950E+03  0.13144181033E+04  0.46999998093E+01 0. -1.
</event>
<event>
 5   0  0.1757996E-08  0.3697328E+04  0.7818609E-02  0.8068554E-01
       -2   -1    0    0    0  501  0.00000000000E+00  0.00000000000E+00  0.20929615992E+04  0.20929615992E+04  0.25500000920E-02 0.  1.
        2   -1    0    0  501    0  0.00000000000E+00  0.00000000000E+00 -0.16328816324E+04  0.16328816324E+04  0.25500000920E-02 0. -1.
    10030    2    1    2    0    0  0.00000000000E+00  0.00000000000E+00  0.46007996677E+03  0.37258432317E+04  0.36973279826E+04 0.  0.
        3    1    3    3  502    0  0.50722716597E+03  0.28658156465E+03  0.19980368880E+04  0.20812399686E+04  0.10100000352E+00 0.  1.
       -3    1    3    3    0  502 -0.50722716597E+03 -0.28658156465E+03 -0.15379569212E+04  0.16446032630E+04  0.10100000352E+00 0. -1.
</event>
<event>
 5   0  0.1757996E-08  0.3699254E+04  0.7818609E-02  0.8068127E-01
       -2   -1    0    0    0  501  0.00000000000E+00  0.00000000000E+00  0.21762372132E+04  0.21762372132E+04  0.25500000920E-02 0. -1.
        2   -1    0    0  501    0  0.00000000000E+00  0.00000000000E+00 -0.15720342455E+04  0.15720342456E+04  0.25500000920E-02 0.  1.
    10030    2    1    2    0    0  0.00000000000E+00  0.00000000000E+00  0.60420296769E+03  0.37482714588E+04  0.36992536683E+04 0.  0.
        3    1    3    3  502    0 -0.13749824300E+03  0.49533368548E+03 -0.14981967665E+04  0.15839364849E+04  0.10100000352E+00 0.  1.
       -3    1    3    3    0  502  0.13749824300E+03 -0.49533368548E+03  0.21023997342E+04  0.21643349739E+04  0.10100000352E+00 0. -1.
</event>
<event>
 5   0  0.5714125E-09  0.3698664E+04  0.7818609E-02  0.8068258E-01
        1   -1    0    0  501    0  0.00000000000E+00  0.00000000000E+00  0.17723117337E+04  0.17723117337E+04  0.50400001928E-02 0.  1.
       -1   -1    0    0    0  501  0.00000000000E+00  0.00000000000E+00 -0.19296995131E+04  0.19296995131E+04  0.50400001928E-02 0. -1.
    10030    2    1    2    0    0  0.00000000000E+00  0.00000000000E+00 -0.15738777936E+03  0.37020112468E+04  0.36986641316E+04 0.  0.
        3    1    3    3  502    0  0.11182143435E+04  0.63711617265E+03 -0.14079426751E+04  0.19075174762E+04  0.10100000352E+00 0. -1.
       -3    1    3    3    0  502 -0.11182143435E+04 -0.63711617265E+03  0.12505548957E+04  0.17944937706E+04  0.10100000352E+00 0.  1.
</event>
<event>
 5   0  0.5714125E-09  0.3699429E+04  0.7818609E-02  0.8068088E-01
        1   -1    0    0  501    0  0.00000000000E+00  0.00000000000E+00  0.23411098072E+04  0.23411098072E+04  0.50400001928E-02 0.  1.
       -1   -1    0    0    0  501  0.00000000000E+00  0.00000000000E+00 -0.14614625180E+04  0.14614625181E+04  0.50400001928E-02 0. -1.
    10030    2    1    2    0    0  0.00000000000E+00  0.00000000000E+00  0.87964728918E+03  0.38025723253E+04  0.36994292716E+04 0.  0.
        4    1    3    3  502    0 -0.13312737142E+04 -0.45521003279E+03  0.16741098040E+04  0.21868130064E+04  0.12699999809E+01 0.  1.
       -4    1    3    3    0  502  0.13312737142E+04  0.45521003279E+03 -0.79446251486E+03  0.16157593189E+04  0.12699999809E+01 0. -1.
</event>
<event>
 5   0  0.5714125E-09  0.3699093E+04  0.7818609E-02  0.8068163E-01
        1   -1    0    0  501    0  0.00000000000E+00  0.00000000000E+00  0.24014657768E+04  0.24014657768E+04  0.50400001928E-02 0. -1.
       -1   -1    0    0    0  501  0.00000000000E+00  0.00000000000E+00 -0.14244727418E+04  0.14244727418E+04  0.50400001928E-02 0.  1.
    10030    2    1    2    0    0  0.00000000000E+00  0.00000000000E+00  0.97699303499E+03  0.38259385186E+04  0.36990931535E+04 0.  0.
        5    1    3    3  502    0  0.14742200555E+03  0.10095092751E+04  0.20841088549E+04  0.23204253992E+04  0.46999998093E+01 0. -1.
       -5    1    3    3    0  502 -0.14742200555E+03 -0.10095092751E+04 -0.11071158199E+04  0.15055131194E+04  0.46999998093E+01 0.  1.
</event>
<event>
 5   0  0.1825308E-08  0.3700482E+04  0.7818609E-02  0.8067855E-01
       -2   -1    0    0    0  501  0.00000000000E+00  0.00000000000E+00  0.20000961114E+04  0.20000961114E+04  0.25500000920E-02 0.  1.
        2   -1    0    0  501    0  0.00000000000E+00  0.00000000000E+00 -0.17116131731E+04  0.17116131731E+04  0.25500000920E-02 0. -1.
    10030    2    1    2    0    0  0.00000000000E+00  0.00000000000E+00  0.28848293823E+03  0.37117092845E+04  0.37004815102E+04 0.  0.
        4    1    3    3  502    0 -0.16070142464E+04 -0.26262645396E+03  0.10254980370E+04  0.19243480141E+04  0.12699999809E+01 0. -1.
       -4    1    3    3    0  502  0.16070142464E+04  0.26262645396E+03 -0.73701509881E+03  0.17873612704E+04  0.12699999809E+01 0.  1.
</event>
<event>
 5   0  0.1825308E-08  0.3700051E+04  0.7818609E-02  0.8067951E-01
        2   -1    0    0  501    0  0.00000000000E+00  0.00000000000E+00  0.15574760435E+04  0.15574760435E+04  0.25500000920E-02 0.  1.
       -2   -1    0    0    0  501  0.00000000000E+00  0.00000000000E+00 -0.21975260745E+04  0.21975260745E+04  0.25500000920E-02 0. -1.
    10030    2    1    2    0    0  0.00000000000E+00  0.00000000000E+00 -0.64005003096E+03  0.37550021180E+04  0.37000509273E+04 0.  0.
        4    1    3    3  502    0 -0.65905566687E+03  0.16614717559E+04  0.16429399969E+03  0.17949476034E+04  0.12699999809E+01 0.  1.
       -4    1    3    3    0  502  0.65905566687E+03 -0.16614717559E+04 -0.80434403066E+03  0.19600545146E+04  0.12699999809E+01 0. -1.
</event>
<event>
 5   0  0.1757996E-08  0.3710200E+04  0.7818609E-02  0.8065705E-01
       -2   -1    0    0    0  501  0.00000000000E+00  0.00000000000E+00  0.19496884422E+04  0.19496884422E+04  0.25500000920E-02 0.  1.
        2   -1    0    0  501    0  0.00000000000E+00  0.00000000000E+00 -0.17651003114E+04  0.17651003114E+04  0.25500000920E-02 0. -1.
    10030    2    1    2    0    0  0.00000000000E+00  0.00000000000E+00  0.18458813076E+03  0.37147887536E+04  0.37101998202E+04 0.  0.
        3    1    3    3  502    0  0.60619665010E+03  0.48982603771E+03  0.17778226115E+04  0.19411484162E+04  0.10100000352E+00 0.  1.
       -3    1    3    3    0  502 -0.60619665010E+03 -0.48982603771E+03 -0.15932344807E+04  0.17736403374E+04  0.10100000352E+00 0. -1.
</event>
<event>
 5   0  0.5714125E-09  0.3699608E+04  0.7818609E-02  0.8068049E-01
        1   -1    0    0  501    0  0.00000000000E+00  0.00000000000E+00  0.24267923767E+04  0.24267923767E+04  0.50400001928E-02 0. -1.
       -1   -1    0    0    0  501  0.00000000000E+00  0.00000000000E+00 -0.14099988486E+04  0.14099988486E+04  0.50400001928E-02 0.  1.
    10030    2    1    2    0    0  0.00000000000E+00  0.00000000000E+00  0.10167935281E+04  0.38367912253E+04  0.36996077938E+04 0.  0.
        1    1    3    3  502    0 -0.12307254438E+03  0.57322233033E+03 -0.13110940940E+04  0.14362097390E+04  0.50400001928E-02 0.  1.
       -1    1    3    3    0  502  0.12307254438E+03 -0.57322233033E+03  0.23278876220E+04  0.24005814862E+04  0.50400001928E-02 0. -1.
</event>
<event>
 5   0  0.1825308E-08  0.3702915E+04  0.7818609E-02  0.8067316E-01
        2   -1    0    0  501    0  0.00000000000E+00  0.00000000000E+00  0.19496660981E+04  0.19496660981E+04  0.25500000920E-02 0.  1.
       -2   -1    0    0    0  501  0.00000000000E+00  0.00000000000E+00 -0.17581957583E+04  0.17581957583E+04  0.25500000920E-02 0. -1.
    10030    2    1    2    0    0  0.00000000000E+00  0.00000000000E+00  0.19147033980E+03  0.37078618563E+04  0.37029148862E+04 0.  0.
        4    1    3    3  502    0 -0.12967161891E+03  0.13246188797E+04  0.13844911827E+04  0.19204810212E+04  0.12699999809E+01 0.  1.
       -4    1    3    3    0  502  0.12967161891E+03 -0.13246188797E+04 -0.11930208429E+04  0.17873808351E+04  0.12699999809E+01 0. -1.
</event>
<event>
 5   0  0.5714125E-09  0.3701486E+04  0.7818609E-02  0.8067633E-01
       -1   -1    0    0    0  501  0.00000000000E+00  0.00000000000E+00  0.14889619692E+04  0.14889619692E+04  0.50400001928E-02 0. -1.
        1   -1    0    0  501    0  0.00000000000E+00  0.00000000000E+00 -0.23004276153E+04  0.23004276153E+04  0.50400001928E-02 0.  1.
    10030    2    1    2    0    0  0.00000000000E+00  0.00000000000E+00 -0.81146564609E+03  0.37893895845E+04  0.37014857730E+04 0.  0.
        4    1    3    3  502    0  0.17282213640E+03  0.33294785092E+03 -0.22610984871E+04  0.22920056160E+04  0.12699999809E+01 0.  1.
       -4    1    3    3    0  502 -0.17282213640E+03 -0.33294785092E+03  0.14496328411E+04  0.14973839685E+04  0.12699999809E+01 0. -1.
</event>
<event>
 5   0  0.1725865E-08  0.3701005E+04  0.7818609E-02  0.8067739E-01
       -2   -1    0    0    0  501  0.00000000000E+00  0.00000000000E+00  0.27975682563E+04  0.27975682563E+04  0.25500000920E-02 0.  1.
        2   -1    0    0  501    0  0.00000000000E+00  0.00000000000E+00 -0.12240484766E+04  0.12240484766E+04  0.25500000920E-02 0. -1.
    10030    2    1    2    0    0  0.00000000000E+00  0.00000000000E+00  0.15735197797E+04  0.40216167328E+04  0.37010048161E+04 0.  0.
        1    1    3    3  502    0  0.31497754684E+02 -0.15954250906E+04  0.18049404087E+04  0.24091872504E+04  0.50400001928E-02 0.  1.
       -1    1    3    3    0  502 -0.31497754684E+02  0.15954250906E+04 -0.23142062900E+03  0.16124294825E+04  0.50400001928E-02 0. -1.
</event>
<event>
 5   0  0.1740290E-08  0.3695764E+04  0.7818609E-02  0.8068901E-01
       -2   -1    0    0    0  501  0.00000000000E+00  0.00000000000E+00  0.36264591334E+04  0.36264591334E+04  0.25500000920E-02 0.  1.
        2   -1    0    0  501    0  0.00000000000E+00  0.00000000000E+00 -0.94159857028E+03  0.94159857029E+03  0.25500000920E-02 0. -1.
    10030    2    1    2    0    0  0.00000000000E+00  0.00000000000E+00  0.26848605632E+04  0.45680577037E+04  0.36957644596E+04 0.  0.
        5    1    3    3  502    0 -0.12565986078E+04  0.72670769785E+02  0.30146427867E+04  0.32668661318E+04  0.46999998093E+01 0.  1.
       -5    1    3    3    0  502  0.12565986078E+04 -0.72670769785E+02 -0.32978222356E+03  0.13011915719E+04  0.46999998093E+01 0. -1.
</event>
<event>
 5   0  0.5714125E-09  0.3699239E+04  0.7818609E-02  0.8068131E-01
       -1   -1    0    0    0  501  0.00000000000E+00  0.00000000000E+00  0.22073010266E+04  0.22073010266E+04  0.50400001928E-02 0.  1.
        1   -1    0    0  501    0  0.00000000000E+00  0.00000000000E+00 -0.15498979868E+04  0.15498979868E+04  0.50400001928E-02 0. -1.
    10030    2    1    2    0    0  0.00000000000E+00  0.00000000000E+00  0.65740303974E+03  0.37571990134E+04  0.36992385257E+04 0.  0.
        1    1    3    3  502    0  0.80162606703E+02  0.73049179585E+03 -0.13952579213E+04  0.15769556031E+04  0.50400001928E-02 0. -1.
       -1    1    3    3    0  502 -0.80162606703E+02 -0.73049179585E+03  0.20526609610E+04  0.21802434103E+04  0.50400001928E-02 0.  1.
</event>
<event>
 5   0  0.5714125E-09  0.3699101E+04  0.7818609E-02  0.8068161E-01
       -1   -1    0    0    0  501  0.00000000000E+00  0.00000000000E+00  0.19082871280E+04  0.19082871280E+04  0.50400001928E-02 0. -1.
        1   -1    0    0  501    0  0.00000000000E+00  0.00000000000E+00 -0.17926215293E+04  0.17926215293E+04  0.50400001928E-02 0.  1.
    10030    2    1    2    0    0  0.00000000000E+00  0.00000000000E+00  0.11566559865E+03  0.37009086573E+04  0.36991007500E+04 0.  0.
        1    1    3    3  502    0 -0.79533200985E+03 -0.11880197899E+04 -0.11161513501E+04  0.18137634530E+04  0.50400001928E-02 0.  1.
       -1    1    3    3    0  502  0.79533200985E+03  0.11880197899E+04  0.12318169487E+04  0.18871452043E+04  0.50400001928E-02 0. -1.
</event>
<event>
 5   0  0.5714125E-09  0.3699726E+04  0.7818609E-02  0.8068023E-01
       -1   -1    0    0    0  501  0.00000000000E+00  0.00000000000E+00  0.28474488487E+04  0.28474488487E+04  0.50400001928E-02 0.  1.
        1   -1    0    0  501    0  0.00000000000E+00  0.00000000000E+00 -0.12017749151E+04  0.12017749151E+04  0.50400001928E-02 0. -1.
    10030    2    1    2    0    0  0.00000000000E+00  0.00000000000E+00  0.16456739336E+04  0.40492237638E+04  0.36997257186E+04 0.  0.
        4    1    3    3  502    0 -0.10966601733E+04  0.14305252971E+04  0.12779622053E+04  0.22095825788E+04  0.12699999809E+01 0. -1.
       -4    1    3    3    0  502  0.10966601733E+04 -0.14305252971E+04  0.36771172835E+03  0.18396411850E+04  0.12699999809E+01 0.  1.
</event>
<event>
 5   0  0.1825308E-08  0.3700624E+04  0.7818609E-02  0.8067824E-01
        2   -1    0    0  501    0  0.00000000000E+00  0.00000000000E+00  0.17153561470E+04  0.17153561470E+04  0.25500000920E-02 0.  1.
       -2   -1    0    0    0  501  0.00000000000E+00  0.00000000000E+00 -0.19958855055E+04  0.19958855055E+04  0.25500000920E-02 0. -1.
    10030    2    1    2    0    0  0.00000000000E+00  0.00000000000E+00 -0.28052935842E+03  0.37112416525E+04  0.37006239856E+04 0.  0.
        4    1    3    3  502    0  0.11220226263E+03 -0.26915228390E+03  0.16921670623E+04  0.17171089887E+04  0.12699999809E+01 0.  1.
       -4    1    3    3    0  502 -0.11220226263E+03  0.26915228390E+03 -0.19726964207E+04  0.19941326638E+04  0.12699999809E+01 0. -1.
</event>
<event>
 5   0  0.5714125E-09  0.3699473E+04  0.7818609E-02  0.8068079E-01
        1   -1    0    0  501    0  0.00000000000E+00  0.00000000000E+00  0.10231386316E+04  0.10231386316E+04  0.50400001928E-02 0.  1.
       -1   -1    0    0    0  501  0.00000000000E+00  0.00000000000E+00 -0.33441465833E+04  0.33441465833E+04  0.50400001928E-02 0. -1.
    10030    2    1    2    0    0  0.00000000000E+00  0.00000000000E+00 -0.23210079517E+04  0.43672852149E+04  0.36994732377E+04 0.  0.
        1    1    3    3  502    0  0.15437366222E+04 -0.36833434577E+03 -0.22821381448E+04  0.27797387397E+04  0.50400001928E-02 0. -1.
       -1    1    3    3    0  502 -0.15437366222E+04  0.36833434577E+03 -0.38869806899E+02  0.15875464752E+04  0.50400001928E-02 0.  1.
</event>
<event>
 5   0  0.1725865E-08  0.3699915E+04  0.7818609E-02  0.8067981E-01
       -2   -1    0    0    0  501  0.00000000000E+00  0.00000000000E+00  0.12635246142E+04  0.12635246142E+04  0.25500000920E-02 0. -1.
        2   -1    0    0  501    0  0.00000000000E+00  0.00000000000E+00 -0.27085683718E+04  0.27085683718E+04  0.25500000920E-02 0.  1.
    10030    2    1    2    0    0  0.00000000000E+00  0.00000000000E+00 -0.14450437576E+04  0.39720929860E+04  0.36999150299E+04 0.  0.
        1    1    3    3  502    0  0.73853475848E+03  0.11659820671E+04 -0.20449649512E+04  0.24671500606E+04  0.50400001928E-02 0.  1.
       -1    1    3    3    0  502 -0.73853475848E+03 -0.11659820671E+04  0.59992119352E+03  0.15049429254E+04  0.50400001928E-02 0. -1.
</event>
<event>
 5   0  0.5714125E-09  0.3697987E+04  0.7818609E-02  0.8068408E-01
       -1   -1    0    0    0  501  0.00000000000E+00  0.00000000000E+00  0.12274898559E+04  0.12274898559E+04  0.50400001928E-02 0.  1.
        1   -1    0    0  501    0  0.00000000000E+00  0.00000000000E+00 -0.27851780246E+04  0.27851780246E+04  0.50400001928E-02 0. -1.
    10030    2    1    2    0    0  0.00000000000E+00  0.00000000000E+00 -0.15576881687E+04  0.40126678805E+04  0.36979874376E+04 0.  0.
        5    1    3    3  502    0 -0.10318667482E+04  0.14712173704E+03  0.87832091663E+03  0.13630346709E+04  0.46999998093E+01 0.  1.
       -5    1    3    3    0  502  0.10318667482E+04 -0.14712173704E+03 -0.24360090854E+04  0.26496332096E+04  0.46999998093E+01 0. -1.
</event>
<event>
 5   0  0.1757996E-08  0.3700376E+04  0.7818609E-02  0.8067878E-01
        2   -1    0    0  501    0  0.00000000000E+00  0.00000000000E+00  0.25169299105E+04  0.25169299105E+04  0.25500000920E-02 0.  1.
       -2   -1    0    0    0  501  0.00000000000E+00  0.00000000000E+00 -0.13600682861E+04  0.13600682861E+04  0.25500000920E-02 0. -1.
    10030    2    1    2    0    0  0.00000000000E+00  0.00000000000E+00  0.11568616244E+04  0.38769981966E+04  0.37003764941E+04 0.  0.
        3    1    3    3  502    0  0.19729606910E+03  0.12067133182E+04 -0.87641180123E+03  0.15043870601E+04  0.10100000352E+00 0. -1.
       -3    1    3    3    0  502 -0.19729606910E+03 -0.12067133182E+04  0.20332734257E+04  0.23726111365E+04  0.10100000352E+00 0.  1.
</event>
<event>
 5   0  0.5714125E-09  0.3699269E+04  0.7818609E-02  0.8068124E-01
       -1   -1    0    0    0  501  0.00000000000E+00  0.00000000000E+00  0.15912394198E+04  0.15912394198E+04  0.50400001928E-02 0. -1.
        1   -1    0    0  501    0  0.00000000000E+00  0.00000000000E+00 -0.21499893435E+04  0.21499893435E+04  0.50400001928E-02 0.  1.
    10030    2    1    2    0    0  0.00000000000E+00  0.00000000000E+00 -0.55874992369E+03  0.37412287634E+04  0.36992690065E+04 0.  0.
        1    1    3    3  502    0  0.18157428860E+04  0.35222731755E+03 -0.26652316724E+03  0.18686949751E+04  0.50400001928E-02 0. -1.
       -1    1    3    3    0  502 -0.18157428860E+04 -0.35222731755E+03 -0.29222675645E+03  0.18725337883E+04  0.50400001928E-02 0.  1.
</event>
<event>
 5   0  0.5714125E-09  0.3698821E+04  0.7818609E-02  0.8068223E-01
        3   -1    0    0  501    0  0.00000000000E+00  0.00000000000E+00  0.15066077302E+04  0.15066077336E+04  0.10100000352E+00 0. -1.
       -3   -1    0    0    0  501  0.00000000000E+00  0.00000000000E+00 -0.22702116770E+04  0.22702116793E+04  0.10100000352E+00 0.  1.
    10030    2    1    2    0    0  0.00000000000E+00  0.00000000000E+00 -0.76360394686E+03  0.37768194128E+04  0.36988206079E+04 0.  0.
        2    1    3    3  502    0 -0.12191283441E+04  0.71791796454E+03 -0.15979846106E+04  0.21342996366E+04  0.25500000920E-02 0.  1.
       -2    1    3    3    0  502  0.12191283441E+04 -0.71791796454E+03  0.83438066372E+03  0.16425197762E+04  0.25500000920E-02 0. -1.
</event>
<event>
 5   0  0.1740290E-08  0.3701341E+04  0.7818609E-02  0.8067665E-01
        2   -1    0    0  501    0  0.00000000000E+00  0.00000000000E+00  0.13820053659E+04  0.13820053659E+04  0.25500000920E-02 0. -1.
       -2   -1    0    0    0  501  0.00000000000E+00  0.00000000000E+00 -0.24782689672E+04  0.24782689672E+04  0.25500000920E-02 0.  1.
    10030    2    1    2    0    0  0.00000000000E+00  0.00000000000E+00 -0.10962636013E+04  0.38602743332E+04  0.37013408441E+04 0.  0.
        5    1    3    3  502    0 -0.86065222673E+03  0.12149804141E+04 -0.16944447770E+04  0.22556739247E+04  0.46999998093E+01 0.  1.
       -5    1    3    3    0  502  0.86065222673E+03 -0.12149804141E+04  0.59818117573E+03  0.16046004085E+04  0.46999998093E+01 0. -1.
</event>
<event>
 5   0  0.5714125E-09  0.3702056E+04  0.7818609E-02  0.8067506E-01
        1   -1    0    0  501    0  0.00000000000E+00  0.00000000000E+00  0.28624296380E+04  0.28624296380E+04  0.50400001928E-02 0.  1.
       -1   -1    0    0    0  501  0.00000000000E+00  0.00000000000E+00 -0.11969914445E+04  0.11969914445E+04  0.50400001928E-02 0. -1.
    10030    2    1    2    0    0  0.00000000000E+00  0.00000000000E+00  0.16654381935E+04  0.40594210825E+04  0.37020555302E+04 0.  0.
        1    1    3    3  502    0  0.14591740884E+04 -0.60293969583E+03  0.18922084394E+04  0.24643818850E+04  0.50400001928E-02 0.  1.
       -1    1    3    3    0  502 -0.14591740884E+04  0.60293969583E+03 -0.22677024590E+03  0.15950391975E+04  0.50400001928E-02 0. -1.
</event>
<event>
 5   0  0.5714125E-09  0.3699679E+04  0.7818609E-02  0.8068033E-01
       -1   -1    0    0    0  501  0.00000000000E+00  0.00000000000E+00  0.17888849435E+04  0.17888849435E+04  0.50400001928E-02 0.  1.
        1   -1    0    0  501    0  0.00000000000E+00  0.00000000000E+00 -0.19128705358E+04  0.19128705358E+04  0.50400001928E-02 0. -1.
    10030    2    1    2    0    0  0.00000000000E+00  0.00000000000E+00 -0.12398559221E+03  0.37017554793E+04  0.36996785268E+04 0.  0.
        5    1    3    3  502    0  0.22199859951E+03  0.21736202606E+03  0.17625861286E+04  0.17897657889E+04  0.46999998093E+01 0.  1.
       -5    1    3    3    0  502 -0.22199859951E+03 -0.21736202606E+03 -0.18865717208E+04  0.19119896904E+04  0.46999998093E+01 0. -1.
</event>
<event>
 5   0  0.5714125E-09  0.3690137E+04  0.7818609E-02  0.8070151E-01
        1   -1    0    0  501    0  0.00000000000E+00  0.00000000000E+00  0.28847844974E+04  0.28847844974E+04  0.50400001928E-02 0.  1.
       -1   -1    0    0    0  501  0.00000000000E+00  0.00000000000E+00 -0.11800804509E+04  0.11800804509E+04  0.50400001928E-02 0. -1.
    10030    2    1    2    0    0  0.00000000000E+00  0.00000000000E+00  0.17047040464E+04  0.40648649483E+04  0.36901370113E+04 0.  0.
        3    1    3    3  502    0  0.55744377387E+02  0.47005212546E+03 -0.11120587341E+04  0.12086070803E+04  0.10100000352E+00 0. -1.
       -3    1    3    3    0  502 -0.55744377387E+02 -0.47005212546E+03  0.28167627806E+04  0.28562578680E+04  0.10100000352E+00 0.  1.
</event>
<event>
 5   0  0.1825308E-08  0.3701424E+04  0.7818609E-02  0.8067646E-01
       -2   -1    0    0    0  501  0.00000000000E+00  0.00000000000E+00  0.18249461769E+04  0.18249461769E+04  0.25500000920E-02 0. -1.
        2   -1    0    0  501    0  0.00000000000E+00  0.00000000000E+00 -0.18768412098E+04  0.18768412098E+04  0.25500000920E-02 0.  1.
    10030    2    1    2    0    0  0.00000000000E+00  0.00000000000E+00 -0.51895032903E+02  0.37017873866E+04  0.37014236128E+04 0.  0.
        4    1    3    3  502    0 -0.97886339549E+03  0.12037227957E+04 -0.10350117218E+04  0.18650396760E+04  0.12699999809E+01 0.  1.
       -4    1    3    3    0  502  0.97886339549E+03 -0.12037227957E+04  0.98311668887E+03  0.18367477107E+04  0.12699999809E+01 0. -1.
</event>
<event>
 5   0  0.5714125E-09  0.3692882E+04  0.7818609E-02  0.8069541E-01
        1   -1    0    0  501    0  0.00000000000E+00  0.00000000000E+00  0.20306604121E+04  0.20306604121E+04  0.50400001928E-02 0.  1.
       -1   -1    0    0    0  501  0.00000000000E+00  0.00000000000E+00 -0.16789339282E+04  0.16789339282E+04  0.50400001928E-02 0. -1.
    10030    2    1    2    0    0  0.00000000000E+00  0.00000000000E+00  0.35172648387E+03  0.37095943403E+04  0.36928821603E+04 0.  0.
        2    1    3    3  502    0 -0.95601191636E+03  0.10609640418E+04 -0.99979265643E+03  0.17433269452E+04  0.25500000920E-02 0.  1.
       -2    1    3    3    0  502  0.95601191636E+03 -0.10609640418E+04  0.13515191403E+04  0.19662673950E+04  0.25500000920E-02 0. -1.
</event>
<event>
 5   0  0.5714125E-09  0.3699871E+04  0.7818609E-02  0.8067990E-01
        3   -1    0    0  501    0  0.00000000000E+00  0.00000000000E+00  0.20166048156E+04  0.20166048181E+04  0.10100000352E+00 0.  1.
       -3   -1    0    0    0  501  0.00000000000E+00  0.00000000000E+00 -0.16970411788E+04  0.16970411818E+04  0.10100000352E+00 0. -1.
    10030    2    1    2    0    0  0.00000000000E+00  0.00000000000E+00  0.31956363686E+03  0.37136459999E+04  0.36998710376E+04 0.  0.
        5    1    3    3  502    0 -0.24801895188E+03 -0.37731474959E+02  0.19994455976E+04  0.20151282471E+04  0.46999998093E+01 0.  1.
       -5    1    3    3    0  502  0.24801895188E+03  0.37731474959E+02 -0.16798819607E+04  0.16985177528E+04  0.46999998093E+01 0. -1.
</event>
<event>
 5   0  0.1725865E-08  0.3701409E+04  0.7818609E-02  0.8067650E-01
       -2   -1    0    0    0  501  0.00000000000E+00  0.00000000000E+00  0.12849701709E+04  0.12849701709E+04  0.25500000920E-02 0.  1.
        2   -1    0    0  501    0  0.00000000000E+00  0.00000000000E+00 -0.26655151622E+04  0.26655151622E+04  0.25500000920E-02 0. -1.
    10030    2    1    2    0    0  0.00000000000E+00  0.00000000000E+00 -0.13805449913E+04  0.39504853331E+04  0.37014091768E+04 0.  0.
        1    1    3    3  502    0  0.60387644632E+03 -0.16118625272E+04  0.35439072267E+02  0.17216339613E+04  0.50400001928E-02 0.  1.
       -1    1    3    3    0  502 -0.60387644632E+03  0.16118625272E+04 -0.14159840636E+04  0.22288513718E+04  0.50400001928E-02 0. -1.
</event>
<event>
 5   0  0.1825308E-08  0.3695083E+04  0.7818609E-02  0.8069052E-01
       -2   -1    0    0    0  501  0.00000000000E+00  0.00000000000E+00  0.12488596839E+04  0.12488596839E+04  0.25500000920E-02 0. -1.
        2   -1    0    0  501    0  0.00000000000E+00  0.00000000000E+00 -0.27332207184E+04  0.27332207184E+04  0.25500000920E-02 0.  1.
    10030    2    1    2    0    0  0.00000000000E+00  0.00000000000E+00 -0.14843610345E+04  0.39820804023E+04  0.36950827663E+04 0.  0.
        4    1    3    3  502    0 -0.18311969890E+04 -0.24026230663E+03 -0.79496612567E+03  0.20107165744E+04  0.12699999809E+01 0.  1.
       -4    1    3    3    0  502  0.18311969890E+04  0.24026230663E+03 -0.68939490882E+03  0.19713638279E+04  0.12699999809E+01 0. -1.
</event>
<event>
 5   0  0.1825308E-08  0.3699227E+04  0.7818609E-02  0.8068133E-01
        2   -1    0    0  501    0  0.00000000000E+00  0.00000000000E+00  0.19314147727E+04  0.19314147727E+04  0.25500000920E-02 0. -1.
       -2   -1    0    0    0  501  0.00000000000E+00  0.00000000000E+00 -0.17712771703E+04  0.17712771703E+04  0.25500000920E-02 0.  1.
    10030    2    1    2    0    0  0.00000000000E+00  0.00000000000E+00  0.16013760238E+03  0.37026919430E+04  0.36992274292E+04 0.  0.
        4    1    3    3  502    0  0.15778072910E+04 -0.60358781303E+03 -0.67381331571E+03  0.18187413485E+04  0.12699999809E+01 0.  1.
       -4    1    3    3    0  502 -0.15778072910E+04  0.60358781303E+03  0.83395091809E+03  0.18839505944E+04  0.12699999809E+01 0. -1.
</event>
<event>
 5   0  0.1825308E-08  0.3704679E+04  0.7818609E-02  0.8066926E-01
        2   -1    0    0  501    0  0.00000000000E+00  0.00000000000E+00  0.23293477340E+04  0.23293477340E+04  0.25500000920E-02 0. -1.
       -2   -1    0    0    0  501  0.00000000000E+00  0.00000000000E+00 -0.14730137849E+04  0.14730137849E+04  0.25500000920E-02 0.  1.
    10030    2    1    2    0    0  0.00000000000E+00  0.00000000000E+00  0.85633394910E+03  0.38023615188E+04  0.37046788373E+04 0.  0.
        4    1    3    3  502    0  0.21343920709E+03  0.15893864387E+04 -0.52334487536E+03  0.16868897468E+04  0.12699999809E+01 0.  1.
       -4    1    3    3    0  502 -0.21343920709E+03 -0.15893864387E+04  0.13796788245E+04  0.21154717720E+04  0.12699999809E+01 0. -1.
</event>
<event>
 5   0  0.1757996E-08  0.3699620E+04  0.7818609E-02  0.8068046E-01
        2   -1    0    0  501    0  0.00000000000E+00  0.00000000000E+00  0.25920041631E+04  0.25920041631E+04  0.25500000920E-02 0. -1.
       -2   -1    0    0    0  501  0.00000000000E+00  0.00000000000E+00 -0.13201358450E+04  0.13201358450E+04  0.25500000920E-02 0.  1.
    10030    2    1    2    0    0  0.00000000000E+00  0.00000000000E+00  0.12718683180E+04  0.39121400081E+04  0.36996203082E+04 0.  0.
        3    1    3    3  502    0 -0.10380371668E+04 -0.70131756398E+03  0.20751573555E+04  0.24239730910E+04  0.10100000352E+00 0. -1.
       -3    1    3    3    0  502  0.10380371668E+04  0.70131756398E+03 -0.80328903753E+03  0.14881669171E+04  0.10100000352E+00 0.  1.
</event>
<event>
 5   0  0.5714125E-09  0.3701030E+04  0.7818609E-02  0.8067734E-01
        1   -1    0    0  501    0  0.00000000000E+00  0.00000000000E+00  0.23241189642E+04  0.23241189642E+04  0.50400001928E-02 0.  1.
       -1   -1    0    0    0  501  0.00000000000E+00  0.00000000000E+00 -0.14734210547E+04  0.14734210548E+04  0.50400001928E-02 0. -1.
    10030    2    1    2    0    0  0.00000000000E+00  0.00000000000E+00  0.85069790942E+03  0.37975400189E+04  0.37010300272E+04 0.  0.
        3    1    3    3  502    0 -0.98976723528E+03  0.62983007373E+03 -0.10430811634E+04  0.15698227369E+04  0.10100000352E+00 0. -1.
       -3    1    3    3    0  502  0.98976723528E+03 -0.62983007373E+03  0.18937790728E+04  0.22277172820E+04  0.10100000352E+00 0.  1.
</event>
<event>
 5   0  0.5714125E-09  0.3701093E+04  0.7818609E-02  0.8067720E-01
       -1   -1    0    0    0  501  0.00000000000E+00  0.00000000000E+00  0.16197780141E+04  0.16197780141E+04  0.50400001928E-02 0. -1.
        1   -1    0    0  501    0  0.00000000000E+00  0.00000000000E+00 -0.21141928397E+04  0.21141928397E+04  0.50400001928E-02 0.  1.
    10030    2    1    2    0    0  0.00000000000E+00  0.00000000000E+00 -0.49441482567E+03  0.37339708538E+04  0.37010933948E+04 0.  0.
        4    1    3    3  502    0  0.55628944841E+03 -0.15477582482E+04  0.60856576227E+03  0.17536725592E+04  0.12699999809E+01 0. -1.
       -4    1    3    3    0  502 -0.55628944841E+03  0.15477582482E+04 -0.11029805879E+04  0.19802982946E+04  0.12699999809E+01 0.  1.
</event>
<event>
 5   0  0.1757996E-08  0.3699412E+04  0.7818609E-02  0.8068092E-01
       -2   -1    0    0    0  501  0.00000000000E+00  0.00000000000E+00  0.20744788910E+04  0.20744788910E+04  0.25500000920E-02 0. -1.
        2   -1    0    0  501    0  0.00000000000E+00  0.00000000000E+00 -0.16492876159E+04  0.16492876159E+04  0.25500000920E-02 0.  1.
    10030    2    1    2    0    0  0.00000000000E+00  0.00000000000E+00  0.42519127510E+03  0.37237665068E+04  0.36994120313E+04 0.  0.
        3    1    3    3  502    0 -0.10304215048E+02 -0.21083831406E+03 -0.16371237041E+04  0.16506765293E+04  0.10100000352E+00 0.  1.
       -3    1    3    3    0  502  0.10304215048E+02  0.21083831406E+03  0.20623149792E+04  0.20730899776E+04  0.10100000352E+00 0. -1.
</event>
<event>
 5   0  0.1856107E-08  0.3699438E+04  0.7818609E-02  0.8068086E-01
        2   -1    0    0  501    0  0.00000000000E+00  0.00000000000E+00  0.24174279383E+04  0.24174279383E+04  0.25500000920E-02 0. -1.
       -2   -1    0    0    0  501  0.00000000000E+00  0.00000000000E+00 -0.14153305498E+04  0.14153305498E+04  0.25500000920E-02 0.  1.
    10030    2    1    2    0    0  0.00000000000E+00  0.00000000000E+00  0.10020973885E+04  0.38327584880E+04  0.36994375858E+04 0.  0.
        2    1    3    3  502    0 -0.36361313535E+03 -0.85318821506E+03 -0.11570380351E+04  0.14828626562E+04  0.25500000920E-02 0.  1.
       -2    1    3    3    0  502  0.36361313535E+03  0.85318821506E+03  0.21591354237E+04  0.23498958318E+04  0.25500000920E-02 0. -1.
</event>
<event>
 5   0  0.5714125E-09  0.3699599E+04  0.7818609E-02  0.8068051E-01
        1   -1    0    0  501    0  0.00000000000E+00  0.00000000000E+00  0.18369053951E+04  0.18369053951E+04  0.50400001928E-02 0.  1.
       -1   -1    0    0    0  501  0.00000000000E+00  0.00000000000E+00 -0.18627836156E+04  0.18627836156E+04  0.50400001928E-02 0. -1.
    10030    2    1    2    0    0  0.00000000000E+00  0.00000000000E+00 -0.25878220550E+02  0.36996890107E+04  0.36995985044E+04 0.  0.
        1    1    3    3  502    0 -0.18338119389E+04 -0.17876939426E+03 -0.17705451979E+03  0.18509924437E+04  0.50400001928E-02 0. -1.
       -1    1    3    3    0  502  0.18338119389E+04  0.17876939426E+03  0.15117629924E+03  0.18486965670E+04  0.50400001928E-02 0.  1.
</event>
<event>
 5   0  0.1725865E-08  0.3698727E+04  0.7818609E-02  0.8068244E-01
       -2   -1    0    0    0  501  0.00000000000E+00  0.00000000000E+00  0.17262809329E+04  0.17262809329E+04  0.25500000920E-02 0.  1.
        2   -1    0    0  501    0  0.00000000000E+00  0.00000000000E+00 -0.19812215636E+04  0.19812215636E+04  0.25500000920E-02 0. -1.
    10030    2    1    2    0    0  0.00000000000E+00  0.00000000000E+00 -0.25494063068E+03  0.37075024966E+04  0.36987268129E+04 0.  0.
        1    1    3    3  502    0 -0.72862976338E+03 -0.16778845641E+04 -0.40004760669E+03  0.18724946009E+04  0.50400001928E-02 0. -1.
       -1    1    3    3    0  502  0.72862976338E+03  0.16778845641E+04  0.14510697601E+03  0.18350078957E+04  0.50400001928E-02 0.  1.
</event>
<event>
 5   0  0.5714125E-09  0.3699958E+04  0.7818609E-02  0.8067971E-01
        1   -1    0    0  501    0  0.00000000000E+00  0.00000000000E+00  0.19236963153E+04  0.19236963153E+04  0.50400001928E-02 0.  1.
       -1   -1    0    0    0  501  0.00000000000E+00  0.00000000000E+00 -0.17790861175E+04  0.17790861175E+04  0.50400001928E-02 0. -1.
    10030    2    1    2    0    0  0.00000000000E+00  0.00000000000E+00  0.14461019776E+03  0.37027824328E+04  0.36999575180E+04 0.  0.
        2    1    3    3  502    0  0.35607486350E+03  0.14515871754E+04  0.11633332122E+04  0.18940007389E+04  0.25500000920E-02 0.  1.
       -2    1    3    3    0  502 -0.35607486350E+03 -0.14515871754E+04 -0.10187230145E+04  0.18087816939E+04  0.25500000920E-02 0. -1.
</event>
<event>
 5   0  0.1740290E-08  0.3700162E+04  0.7818609E-02  0.8067926E-01
       -2   -1    0    0    0  501  0.00000000000E+00  0.00000000000E+00  0.11241045758E+04  0.11241045758E+04  0.25500000920E-02 0. -1.
        2   -1    0    0  501    0  0.00000000000E+00  0.00000000000E+00 -0.30449117507E+04  0.30449117507E+04  0.25500000920E-02 0.  1.
    10030    2    1    2    0    0  0.00000000000E+00  0.00000000000E+00 -0.19208071749E+04  0.41690163264E+04  0.37001617433E+04 0.  0.
        5    1    3    3  502    0  0.48561406915E+03 -0.17799995366E+04 -0.11138920553E+04  0.21552255045E+04  0.46999998093E+01 0. -1.
       -5    1    3    3    0  502 -0.48561406915E+03  0.17799995366E+04 -0.80691511958E+03  0.20137908219E+04  0.46999998093E+01 0.  1.
</event>
<event>
 5   0  0.5714125E-09  0.3696543E+04  0.7818609E-02  0.8068728E-01
       -1   -1    0    0    0  501  0.00000000000E+00  0.00000000000E+00  0.12668606160E+04  0.12668606160E+04  0.50400001928E-02 0.  1.
        1   -1    0    0  501    0  0.00000000000E+00  0.00000000000E+00 -0.26965140184E+04  0.26965140184E+04  0.50400001928E-02 0. -1.
    10030    2    1    2    0    0  0.00000000000E+00  0.00000000000E+00 -0.14296534024E+04  0.39633746344E+04  0.36965429311E+04 0.  0.
        2    1    3    3  502    0  0.15497226073E+04 -0.58948597765E+02 -0.17928876089E+04  0.23705613417E+04  0.25500000920E-02 0. -1.
       -2    1    3    3    0  502 -0.15497226073E+04  0.58948597765E+02  0.36323420644E+03  0.15928132927E+04  0.25500000920E-02 0.  1.
</event>
<event>
 5   0  0.5714125E-09  0.3689227E+04  0.7818609E-02  0.8070354E-01
        1   -1    0    0  501    0  0.00000000000E+00  0.00000000000E+00  0.22243502228E+04  0.22243502229E+04  0.50400001928E-02 0.  1.
       -1   -1    0    0    0  501  0.00000000000E+00  0.00000000000E+00 -0.15297043830E+04  0.15297043830E+04  0.50400001928E-02 0. -1.
    10030    2    1    2    0    0  0.00000000000E+00  0.00000000000E+00  0.69464583985E+03  0.37540546059E+04  0.36892266318E+04 0.  0.
        3    1    3    3  502    0 -0.21936502319E+03 -0.22488137102E+03 -0.15022824068E+04  0.15347785132E+04  0.10100000352E+00 0. -1.
       -3    1    3    3    0  502  0.21936502319E+03  0.22488137102E+03  0.21969282467E+04  0.22192760927E+04  0.10100000352E+00 0.  1.
</event>
<event>
 5   0  0.5714125E-09  0.3701641E+04  0.7818609E-02  0.8067598E-01
        1   -1    0    0  501    0  0.00000000000E+00  0.00000000000E+00  0.23600144916E+04  0.23600144916E+04  0.50400001928E-02 0.  1.
       -1   -1    0    0    0  501  0.00000000000E+00  0.00000000000E+00 -0.14514892552E+04  0.14514892552E+04  0.50400001928E-02 0. -1.
    10030    2    1    2    0    0  0.00000000000E+00  0.00000000000E+00  0.90852523641E+03  0.38115037467E+04  0.37016405426E+04 0.  0.
        5    1    3    3  502    0 -0.10286642059E+04  0.67884136763E+03 -0.96749260831E+03  0.15668566265E+04  0.46999998093E+01 0. -1.
       -5    1    3    3    0  502  0.10286642059E+04 -0.67884136763E+03  0.18760178447E+04  0.22446471203E+04  0.46999998093E+01 0.  1.
</event>
<event>
 5   0  0.1725865E-08  0.3700868E+04  0.7818609E-02  0.8067769E-01
        2   -1    0    0  501    0  0.00000000000E+00  0.00000000000E+00  0.26941838450E+04  0.26941838450E+04  0.25500000920E-02 0.  1.
       -2   -1    0    0    0  501  0.00000000000E+00  0.00000000000E+00 -0.12709253637E+04  0.12709253637E+04  0.25500000920E-02 0. -1.
    10030    2    1    2    0    0  0.00000000000E+00  0.00000000000E+00  0.14232584813E+04  0.39651092087E+04  0.37008683214E+04 0.  0.
        1    1    3    3  502    0  0.13351987800E+04  0.12266447280E+04  0.11077480562E+04  0.21247397080E+04  0.50400001928E-02 0. -1.
       -1    1    3    3    0  502 -0.13351987800E+04 -0.12266447280E+04  0.31551042514E+03  0.18403695007E+04  0.50400001928E-02 0.  1.
</event>
<event>
 5   0  0.5714125E-09  0.3699945E+04  0.7818609E-02  0.8067974E-01
        1   -1    0    0  501    0  0.00000000000E+00  0.00000000000E+00  0.23897480395E+04  0.23897480395E+04  0.50400001928E-02 0.  1.
       -1   -1    0    0    0  501  0.00000000000E+00  0.00000000000E+00 -0.14321168024E+04  0.14321168024E+04  0.50400001928E-02 0. -1.
    10030    2    1    2    0    0  0.00000000000E+00  0.00000000000E+00  0.95763123705E+03  0.38218648419E+04  0.36999450380E+04 0.  0.
        3    1    3    3  502    0  0.67847849918E+03 -0.48128853899E+03 -0.12280341718E+04  0.14832530697E+04  0.10100000352E+00 0. -1.
       -3    1    3    3    0  502 -0.67847849918E+03  0.48128853899E+03  0.21856654088E+04  0.23386117722E+04  0.10100000352E+00 0.  1.
</event>
<event>
 5   0  0.1856107E-08  0.3699998E+04  0.7818609E-02  0.8067962E-01
       -2   -1    0    0    0  501  0.00000000000E+00  0.00000000000E+00  0.14304808130E+04  0.14304808130E+04  0.25500000920E-02 0.  1.
        2   -1    0    0  501    0  0.00000000000E+00  0.00000000000E+00 -0.23925496738E+04  0.23925496738E+04  0.25500000920E-02 0. -1.
    10030    2    1    2    0    0  0.00000000000E+00  0.00000000000E+00 -0.96206886081E+03  0.38230304868E+04  0.36999980555E+04 0.  0.
        2    1    3    3  502    0 -0.44491168309E+03 -0.89710439402E+03  0.11262467037E+04  0.15070415844E+04  0.25500000920E-02 0.  1.
       -2    1    3    3    0  502  0.44491168309E+03  0.89710439402E+03 -0.20883155645E+04  0.23159889025E+04  0.25500000920E-02 0. -1.
</event>
<event>
 5   0  0.5714125E-09  0.3698479E+04  0.7818609E-02  0.8068299E-01
       -1   -1    0    0    0  501  0.00000000000E+00  0.00000000000E+00  0.30606816737E+04  0.30606816737E+04  0.50400001928E-02 0. -1.
        1   -1    0    0  501    0  0.00000000000E+00  0.00000000000E+00 -0.11172960316E+04  0.11172960316E+04  0.50400001928E-02 0.  1.
    10030    2    1    2    0    0  0.00000000000E+00  0.00000000000E+00  0.19433856421E+04  0.41779777053E+04  0.36984794108E+04 0.  0.
        4    1    3    3  502    0 -0.14088868508E+04  0.71808940802E+03  0.20546655476E+04  0.25927334382E+04  0.12699999809E+01 0. -1.
       -4    1    3    3    0  502  0.14088868508E+04 -0.71808940802E+03 -0.11127990550E+03  0.15852442671E+04  0.12699999809E+01 0.  1.
</event>
<event>
 5   0  0.5714125E-09  0.3700108E+04  0.7818609E-02  0.8067938E-01
       -1   -1    0    0    0  501  0.00000000000E+00  0.00000000000E+00  0.16519716608E+04  0.16519716608E+04  0.50400001928E-02 0.  1.
        1   -1    0    0  501    0  0.00000000000E+00  0.00000000000E+00 -0.20718877982E+04  0.20718877982E+04  0.50400001928E-02 0. -1.
    10030    2    1    2    0    0  0.00000000000E+00  0.00000000000E+00 -0.41991613746E+03  0.37238594590E+04  0.37001080671E+04 0.  0.
        5    1    3    3  502    0  0.18456999029E+04  0.58734970913E+02 -0.96898590433E+02  0.18491807254E+04  0.46999998093E+01 0. -1.
       -5    1    3    3    0  502 -0.18456999029E+04 -0.58734970913E+02 -0.32301754703E+03  0.18746787336E+04  0.46999998093E+01 0.  1.
</event>
<event>
 5   0  0.1740290E-08  0.3696990E+04  0.7818609E-02  0.8068629E-01
        2   -1    0    0  501    0  0.00000000000E+00  0.00000000000E+00  0.23030044578E+04  0.23030044578E+04  0.25500000920E-02 0.  1.
       -2   -1    0    0    0  501  0.00000000000E+00  0.00000000000E+00 -0.14836855158E+04  0.14836855158E+04  0.25500000920E-02 0. -1.
    10030    2    1    2    0    0  0.00000000000E+00  0.00000000000E+00  0.81931894198E+03  0.37866899736E+04  0.36969903202E+04 0.  0.
        5    1    3    3  502    0 -0.15507885546E+04 -0.82809228103E+03  0.99468333758E+03  0.20199254935E+04  0.46999998093E+01 0.  1.
       -5    1    3    3    0  502  0.15507885546E+04  0.82809228103E+03 -0.17536439560E+03  0.17667644802E+04  0.46999998093E+01 0. -1.
</event>
<event>
 5   0  0.5714125E-09  0.3699699E+04  0.7818609E-02  0.8068029E-01
        1   -1    0    0  501    0  0.00000000000E+00  0.00000000000E+00  0.21364885539E+04  0.21364885539E+04  0.50400001928E-02 0. -1.
       -1   -1    0    0    0  501  0.00000000000E+00  0.00000000000E+00 -0.16016666533E+04  0.16016666534E+04  0.50400001928E-02 0.  1.
    10030    2    1    2    0    0  0.00000000000E+00  0.00000000000E+00  0.53482190051E+03  0.37381552072E+04  0.36996986212E+04 0.  0.
        5    1    3    3  502    0 -0.71897425642E+03 -0.64575819921E+02  0.19882959475E+04  0.21152864777E+04  0.46999998093E+01 0. -1.
       -5    1    3    3    0  502  0.71897425642E+03  0.64575819921E+02 -0.14534740470E+04  0.16228687295E+04  0.46999998093E+01 0.  1.
</event>
<event>
 5   0  0.5714125E-09  0.3699762E+04  0.7818609E-02  0.8068015E-01
        1   -1    0    0  501    0  0.00000000000E+00  0.00000000000E+00  0.22986337454E+04  0.22986337455E+04  0.50400001928E-02 0.  1.
       -1   -1    0    0    0  501  0.00000000000E+00  0.00000000000E+00 -0.14887360026E+04  0.14887360026E+04  0.50400001928E-02 0. -1.
    10030    2    1    2    0    0  0.00000000000E+00  0.00000000000E+00  0.80989774287E+03  0.37873697480E+04  0.36997615132E+04 0.  0.
        2    1    3    3  502    0 -0.75792526608E+03 -0.11966119831E+04 -0.81306957577E+03  0.16332216880E+04  0.25500000920E-02 0. -1.
       -2    1    3    3    0  502  0.75792526608E+03  0.11966119831E+04  0.16229673186E+04  0.21541480600E+04  0.25500000920E-02 0.  1.
</event>
<event>
 5   0  0.1725865E-08  0.3701630E+04  0.7818609E-02  0.8067601E-01
        2   -1    0    0  501    0  0.00000000000E+00  0.00000000000E+00  0.25903863007E+04  0.25903863007E+04  0.25500000920E-02 0. -1.
       -2   -1    0    0    0  501  0.00000000000E+00  0.00000000000E+00 -0.13223958889E+04  0.13223958889E+04  0.25500000920E-02 0.  1.
    10030    2    1    2    0    0  0.00000000000E+00  0.00000000000E+00  0.12679904118E+04  0.39127821897E+04  0.37016300165E+04 0.  0.
        1    1    3    3  502    0 -0.15683666397E+04  0.60254134146E+03 -0.18661760393E+03  0.16904603263E+04  0.50400001928E-02 0.  1.
       -1    1    3    3    0  502  0.15683666397E+04 -0.60254134146E+03  0.14546080157E+04  0.22223218633E+04  0.50400001928E-02 0. -1.
</event>
<event>
 5   0  0.5714125E-09  0.3703893E+04  0.7818609E-02  0.8067100E-01
       -1   -1    0    0    0  501  0.00000000000E+00  0.00000000000E+00  0.28609709072E+04  0.28609709072E+04  0.50400001928E-02 0. -1.
        1   -1    0    0  501    0  0.00000000000E+00  0.00000000000E+00 -0.11987908962E+04  0.11987908963E+04  0.50400001928E-02 0.  1.
    10030    2    1    2    0    0  0.00000000000E+00  0.00000000000E+00  0.16621800110E+04  0.40597618035E+04  0.37038930211E+04 0.  0.
        4    1    3    3  502    0 -0.11993009558E+04 -0.13677024169E+04  0.45017814555E+03  0.18739249343E+04  0.12699999809E+01 0.  1.
       -4    1    3    3    0  502  0.11993009558E+04  0.13677024169E+04  0.12120018654E+04  0.21858368692E+04  0.12699999809E+01 0. -1.
</event>
<event>
 5   0  0.1725865E-08  0.3701999E+04  0.7818609E-02  0.8067519E-01
        2   -1    0    0  501    0  0.00000000000E+00  0.00000000000E+00  0.11695904059E+04  0.11695904059E+04  0.25500000920E-02 0.  1.
       -2   -1    0    0    0  501  0.00000000000E+00  0.00000000000E+00 -0.29294013426E+04  0.29294013426E+04  0.25500000920E-02 0. -1.
    10030    2    1    2    0    0  0.00000000000E+00  0.00000000000E+00 -0.17598109368E+04  0.40989917485E+04  0.37019993005E+04 0.  0.
        1    1    3    3  502    0 -0.47488594088E+03 -0.32752089794E+02  0.11006602524E+04  0.11991840341E+04  0.50400001928E-02 0.  1.
       -1    1    3    3    0  502  0.47488594088E+03  0.32752089794E+02 -0.28604711892E+04  0.28998077144E+04  0.50400001928E-02 0. -1.
</event>
<event>
 5   0  0.1725865E-08  0.3704366E+04  0.7818609E-02  0.8066995E-01
       -2   -1    0    0    0  501  0.00000000000E+00  0.00000000000E+00  0.17712797733E+04  0.17712797733E+04  0.25500000920E-02 0.  1.
        2   -1    0    0  501    0  0.00000000000E+00  0.00000000000E+00 -0.19367814657E+04  0.19367814657E+04  0.25500000920E-02 0. -1.
    10030    2    1    2    0    0  0.00000000000E+00  0.00000000000E+00 -0.16550169240E+03  0.37080612390E+04  0.37043659838E+04 0.  0.
        1    1    3    3  502    0 -0.95028566074E+03 -0.15502693067E+04  0.27002669840E+03  0.18382851188E+04  0.50400001928E-02 0.  1.
       -1    1    3    3    0  502  0.95028566074E+03  0.15502693067E+04 -0.43552839079E+03  0.18697761201E+04  0.50400001928E-02 0. -1.
</event>
<event>
 5   0  0.5714125E-09  0.3701459E+04  0.7818609E-02  0.8067639E-01
        1   -1    0    0  501    0  0.00000000000E+00  0.00000000000E+00  0.11808336666E+04  0.11808336666E+04  0.50400001928E-02 0.  1.
       -1   -1    0    0    0  501  0.00000000000E+00  0.00000000000E+00 -0.29006621361E+04  0.29006621361E+04  0.50400001928E-02 0. -1.
    10030    2    1    2    0    0  0.00000000000E+00  0.00000000000E+00 -0.17198284695E+04  0.40814958027E+04  0.37014589046E+04 0.  0.
        4    1    3    3  502    0 -0.12577972685E+04 -0.66784872146E+03 -0.21632718368E+04  0.25899464350E+04  0.12699999809E+01 0. -1.
       -4    1    3    3    0  502  0.12577972685E+04  0.66784872146E+03  0.44344336721E+03  0.14915493677E+04  0.12699999809E+01 0.  1.
</event>
<event>
 5   0  0.5714125E-09  0.3700357E+04  0.7818609E-02  0.8067883E-01
       -1   -1    0    0    0  501  0.00000000000E+00  0.00000000000E+00  0.12111581621E+04  0.12111581622E+04  0.50400001928E-02 0.  1.
        1   -1    0    0  501    0  0.00000000000E+00  0.00000000000E+00 -0.28263533909E+04  0.28263533909E+04  0.50400001928E-02 0. -1.
    10030    2    1    2    0    0  0.00000000000E+00  0.00000000000E+00 -0.16151952288E+04  0.40375115531E+04  0.37003572684E+04 0.  0.
        3    1    3    3  502    0 -0.94204866131E+03 -0.12727538756E+04  0.23657216287E+03  0.16010385713E+04  0.10100000352E+00 0.  1.
       -3    1    3    3    0  502  0.94204866131E+03  0.12727538756E+04 -0.18517673916E+04  0.24364729818E+04  0.10100000352E+00 0. -1.
</event>
<event>
 5   0  0.1825308E-08  0.3700476E+04  0.7818609E-02  0.8067856E-01
       -2   -1    0    0    0  501  0.00000000000E+00  0.00000000000E+00  0.15670630086E+04  0.15670630086E+04  0.25500000920E-02 0.  1.
        2   -1    0    0  501    0  0.00000000000E+00  0.00000000000E+00 -0.21845842309E+04  0.21845842309E+04  0.25500000920E-02 0. -1.
    10030    2    1    2    0    0  0.00000000000E+00  0.00000000000E+00 -0.61752122227E+03  0.37516472395E+04  0.37004762598E+04 0.  0.
        4    1    3    3  502    0 -0.27757940071E+03  0.16484384346E+04 -0.11128100748E+04  0.20081701800E+04  0.12699999809E+01 0. -1.
       -4    1    3    3    0  502  0.27757940071E+03 -0.16484384346E+04  0.49528885251E+03  0.17434770595E+04  0.12699999809E+01 0.  1.
</event>
<event>
 5   0  0.5714125E-09  0.3699453E+04  0.7818609E-02  0.8068083E-01
       -1   -1    0    0    0  501  0.00000000000E+00  0.00000000000E+00  0.14450032816E+04  0.14450032816E+04  0.50400001928E-02 0.  1.
        1   -1    0    0  501    0  0.00000000000E+00  0.00000000000E+00 -0.23678062463E+04  0.23678062463E+04  0.50400001928E-02 0. -1.
    10030    2    1    2    0    0  0.00000000000E+00  0.00000000000E+00 -0.92280296476E+03  0.38128095279E+04  0.36994528223E+04 0.  0.
        4    1    3    3  502    0 -0.39085096830E+03  0.39159390451E+03 -0.22805277550E+04  0.23466824923E+04  0.12699999809E+01 0. -1.
       -4    1    3    3    0  502  0.39085096830E+03 -0.39159390451E+03  0.13577247902E+04  0.14661270356E+04  0.12699999809E+01 0.  1.
</event>
<event>
 5   0  0.5714125E-09  0.3699257E+04  0.7818609E-02  0.8068127E-01
       -1   -1    0    0    0  501  0.00000000000E+00  0.00000000000E+00  0.25428061509E+04  0.25428061509E+04  0.50400001928E-02 0. -1.
        1   -1    0    0  501    0  0.00000000000E+00  0.00000000000E+00 -0.13454131679E+04  0.13454131680E+04  0.50400001928E-02 0.  1.
    10030    2    1    2    0    0  0.00000000000E+00  0.00000000000E+00  0.11973929830E+04  0.38882193189E+04  0.36992566167E+04 0.  0.
        1    1    3    3  502    0 -0.44458279128E+03  0.17774512903E+04  0.33250524572E+03  0.18621349806E+04  0.50400001928E-02 0.  1.
       -1    1    3    3    0  502  0.44458279128E+03 -0.17774512903E+04  0.86488773725E+03  0.20260843382E+04  0.50400001928E-02 0. -1.
</event>
<event>
 5   0  0.5714125E-09  0.3700672E+04  0.7818609E-02  0.8067813E-01
        1   -1    0    0  501    0  0.00000000000E+00  0.00000000000E+00  0.20240549150E+04  0.20240549150E+04  0.50400001928E-02 0. -1.
       -1   -1    0    0    0  501  0.00000000000E+00  0.00000000000E+00 -0.16915264442E+04  0.16915264442E+04  0.50400001928E-02 0.  1.
    10030    2    1    2    0    0  0.00000000000E+00  0.00000000000E+00  0.33252847083E+03  0.37155813593E+04  0.37006715138E+04 0.  0.
        5    1    3    3  502    0  0.52608270658E+03 -0.12352717179E+04  0.14446029135E+04  0.19721964656E+04  0.46999998093E+01 0. -1.
       -5    1    3    3    0  502 -0.52608270658E+03  0.12352717179E+04 -0.11120744427E+04  0.17433848936E+04  0.46999998093E+01 0.  1.
</event>
<event>
 5   0  0.1825308E-08  0.3699458E+04  0.7818609E-02  0.8068082E-01
        2   -1    0    0  501    0  0.00000000000E+00  0.00000000000E+00  0.34214913754E+04  0.34214913754E+04  0.25500000920E-02 0.  1.
       -2   -1    0    0    0  501  0.00000000000E+00  0.00000000000E+00 -0.10000018438E+04  0.10000018438E+04  0.25500000920E-02 0. -1.
    10030    2    1    2    0    0  0.00000000000E+00  0.00000000000E+00  0.24214895316E+04  0.44214932193E+04  0.36994581680E+04 0.  0.
        4    1    3    3  502    0  0.28858339300E+03  0.10013411515E+02 -0.97289762925E+03  0.10148458272E+04  0.12699999809E+01 0. -1.
       -4    1    3    3    0  502 -0.28858339300E+03 -0.10013411515E+02  0.33943871609E+04  0.34066473921E+04  0.12699999809E+01 0.  1.
</event>
<event>
 5   0  0.1856107E-08  0.3700003E+04  0.7818609E-02  0.8067961E-01
       -2   -1    0    0    0  501  0.00000000000E+00  0.00000000000E+00  0.12602852663E+04  0.12602852663E+04  0.25500000920E-02 0.  1.
        2   -1    0    0  501    0  0.00000000000E+00  0.00000000000E+00 -0.27156588986E+04  0.27156588986E+04  0.25500000920E-02 0. -1.
    10030    2    1    2    0    0  0.00000000000E+00  0.00000000000E+00 -0.14553736323E+04  0.39759441649E+04  0.37000026477E+04 0.  0.
        2    1    3    3  502    0  0.12148643676E+03  0.60276988228E+03 -0.26026386983E+04  0.26742884435E+04  0.25500000920E-02 0. -1.
       -2    1    3    3    0  502 -0.12148643676E+03 -0.60276988228E+03  0.11472650660E+04  0.13016557214E+04  0.25500000920E-02 0.  1.
</event>
<event>
 5   0  0.5714125E-09  0.3695328E+04  0.7818609E-02  0.8068998E-01
        1   -1    0    0  501    0  0.00000000000E+00  0.00000000000E+00  0.14356876303E+04  0.14356876303E+04  0.50400001928E-02 0. -1.
       -1   -1    0    0    0  501  0.00000000000E+00  0.00000000000E+00 -0.23778580155E+04  0.23778580155E+04  0.50400001928E-02 0.  1.
    10030    2    1    2    0    0  0.00000000000E+00  0.00000000000E+00 -0.94217038526E+03  0.38135456458E+04  0.36953275034E+04 0.  0.
        5    1    3    3  502    0  0.13449731701E+04  0.50966416970E+02  0.83522531216E+03  0.15840371889E+04  0.46999998093E+01 0.  1.
       -5    1    3    3    0  502 -0.13449731701E+04 -0.50966416970E+02 -0.17773956974E+04  0.22295084568E+04  0.46999998093E+01 0. -1.
</event>
<event>
 5   0  0.5714125E-09  0.3704890E+04  0.7818609E-02  0.8066879E-01
        1   -1    0    0  501    0  0.00000000000E+00  0.00000000000E+00  0.18599546608E+04  0.18599546608E+04  0.50400001928E-02 0. -1.
       -1   -1    0    0    0  501  0.00000000000E+00  0.00000000000E+00 -0.18449660901E+04  0.18449660901E+04  0.50400001928E-02 0.  1.
    10030    2    1    2    0    0  0.00000000000E+00  0.00000000000E+00  0.14988570669E+02  0.37049207509E+04  0.37048904320E+04 0.  0.
        1    1    3    3  502    0 -0.37481433670E+03 -0.17816545068E+04  0.34922022941E+03  0.18538428567E+04  0.50400001928E-02 0. -1.
       -1    1    3    3    0  502  0.37481433670E+03  0.17816545068E+04 -0.33423165874E+03  0.18510778942E+04  0.50400001928E-02 0.  1.
</event>
<event>
 5   0  0.1757996E-08  0.3699538E+04  0.7818609E-02  0.8068064E-01
        2   -1    0    0  501    0  0.00000000000E+00  0.00000000000E+00  0.13703859142E+04  0.13703859142E+04  0.25500000920E-02 0.  1.
       -2   -1    0    0    0  501  0.00000000000E+00  0.00000000000E+00 -0.24968485844E+04  0.24968485844E+04  0.25500000920E-02 0. -1.
    10030    2    1    2    0    0  0.00000000000E+00  0.00000000000E+00 -0.11264626702E+04  0.38672344986E+04  0.36995384199E+04 0.  0.
        3    1    3    3  502    0 -0.11370547538E+04 -0.12559216532E+04  0.21300081484E+03  0.17075134171E+04  0.10100000352E+00 0.  1.
       -3    1    3    3    0  502  0.11370547538E+04  0.12559216532E+04 -0.13394634850E+04  0.21597210815E+04  0.10100000352E+00 0. -1.
</event>
<event>
 5   0  0.1825308E-08  0.3700219E+04  0.7818609E-02  0.8067913E-01
       -2   -1    0    0    0  501  0.00000000000E+00  0.00000000000E+00  0.20494734182E+04  0.20494734182E+04  0.25500000920E-02 0. -1.
        2   -1    0    0  501    0  0.00000000000E+00  0.00000000000E+00 -0.16701390342E+04  0.16701390342E+04  0.25500000920E-02 0.  1.
    10030    2    1    2    0    0  0.00000000000E+00  0.00000000000E+00  0.37933438400E+03  0.37196124523E+04  0.37002192125E+04 0.  0.
        4    1    3    3  502    0  0.14395428712E+03  0.16219172810E+04 -0.69332450978E+03  0.17697567607E+04  0.12699999809E+01 0.  1.
       -4    1    3    3    0  502 -0.14395428712E+03 -0.16219172810E+04  0.10726588938E+04  0.19498556917E+04  0.12699999809E+01 0. -1.
</event>
<event>
 5   0  0.1825308E-08  0.3699338E+04  0.7818609E-02  0.8068109E-01
       -2   -1    0    0    0  501  0.00000000000E+00  0.00000000000E+00  0.14846876041E+04  0.14846876041E+04  0.25500000920E-02 0.  1.
        2   -1    0    0  501    0  0.00000000000E+00  0.00000000000E+00 -0.23043736096E+04  0.23043736096E+04  0.25500000920E-02 0. -1.
    10030    2    1    2    0    0  0.00000000000E+00  0.00000000000E+00 -0.81968600546E+03  0.37890612137E+04  0.36993377426E+04 0.  0.
        4    1    3    3  502    0  0.84877708661E+03  0.13955529796E+04  0.47912601036E+03  0.17022203172E+04  0.12699999809E+01 0.  1.
       -4    1    3    3    0  502 -0.84877708661E+03 -0.13955529796E+04 -0.12988120158E+04  0.20868408964E+04  0.12699999809E+01 0. -1.
</event>
<event>
 5   0  0.5714125E-09  0.3699486E+04  0.7818609E-02  0.8068076E-01
       -1   -1    0    0    0  501  0.00000000000E+00  0.00000000000E+00  0.14082281242E+04  0.14082281242E+04  0.50400001928E-02 0. -1.
        1   -1    0    0  501    0  0.00000000000E+00  0.00000000000E+00 -0.24296841180E+04  0.24296841180E+04  0.50400001928E-02 0.  1.
    10030    2    1    2    0    0  0.00000000000E+00  0.00000000000E+00 -0.10214559937E+04  0.38379122422E+04  0.36994861848E+04 0.  0.
        3    1    3    3  502    0  0.79086948563E+03  0.13278340654E+04 -0.15650892129E+04  0.21995731638E+04  0.10100000352E+00 0.  1.
       -3    1    3    3    0  502 -0.79086948563E+03 -0.13278340654E+04  0.54363321916E+03  0.16383390784E+04  0.10100000352E+00 0. -1.
</event>
<event>
 5   0  0.5714125E-09  0.3699979E+04  0.7818609E-02  0.8067966E-01
        1   -1    0    0  501    0  0.00000000000E+00  0.00000000000E+00  0.19755741396E+04  0.19755741396E+04  0.50400001928E-02 0. -1.
       -1   -1    0    0    0  501  0.00000000000E+00  0.00000000000E+00 -0.17323881542E+04  0.17323881543E+04  0.50400001928E-02 0.  1.
    10030    2    1    2    0    0  0.00000000000E+00  0.00000000000E+00  0.24318598532E+03  0.37079622938E+04  0.36999790471E+04 0.  0.
        3    1    3    3  502    0 -0.61849328727E+02 -0.70731402662E+03 -0.15904087145E+04  0.17416998482E+04  0.10100000352E+00 0.  1.
       -3    1    3    3    0  502  0.61849328727E+02  0.70731402662E+03  0.18335946998E+04  0.19662624457E+04  0.10100000352E+00 0. -1.
</event>
<event>
 5   0  0.5714125E-09  0.3700258E+04  0.7818609E-02  0.8067905E-01
        1   -1    0    0  501    0  0.00000000000E+00  0.00000000000E+00  0.21038008757E+04  0.21038008757E+04  0.50400001928E-02 0.  1.
       -1   -1    0    0    0  501  0.00000000000E+00  0.00000000000E+00 -0.16270447295E+04  0.16270447295E+04  0.50400001928E-02 0. -1.
    10030    2    1    2    0    0  0.00000000000E+00  0.00000000000E+00  0.47675614620E+03  0.37308456052E+04  0.37002584379E+04 0.  0.
        1    1    3    3  502    0 -0.87457791046E+03 -0.22948836729E+03 -0.13890981353E+04  0.16574513754E+04  0.50400001928E-02 0. -1.
       -1    1    3    3    0  502  0.87457791046E+03  0.22948836729E+03  0.18658542815E+04  0.20733942298E+04  0.50400001928E-02 0.  1.
</event>
<event>
 5   0  0.5714125E-09  0.3695312E+04  0.7818609E-02  0.8069002E-01
       -1   -1    0    0    0  501  0.00000000000E+00  0.00000000000E+00  0.12898094815E+04  0.12898094815E+04  0.50400001928E-02 0. -1.
        1   -1    0    0  501    0  0.00000000000E+00  0.00000000000E+00 -0.26467726063E+04  0.26467726064E+04  0.50400001928E-02 0.  1.
    10030    2    1    2    0    0  0.00000000000E+00  0.00000000000E+00 -0.13569631248E+04  0.39365820879E+04  0.36953118424E+04 0.  0.
        2    1    3    3  502    0  0.13027332723E+04  0.12908370113E+04 -0.43918622105E+03  0.18858045247E+04  0.25500000920E-02 0. -1.
       -2    1    3    3    0  502 -0.13027332723E+04 -0.12908370113E+04 -0.91777690377E+03  0.20507775632E+04  0.25500000920E-02 0.  1.
</event>
<event>
 5   0  0.1757996E-08  0.3701901E+04  0.7818609E-02  0.8067541E-01
       -2   -1    0    0    0  501  0.00000000000E+00  0.00000000000E+00  0.28060537535E+04  0.28060537535E+04  0.25500000920E-02 0.  1.
        2   -1    0    0  501    0  0.00000000000E+00  0.00000000000E+00 -0.12209377736E+04  0.12209377736E+04  0.25500000920E-02 0. -1.
    10030    2    1    2    0    0  0.00000000000E+00  0.00000000000E+00  0.15851159799E+04  0.40269915272E+04  0.37019006051E+04 0.  0.
        3    1    3    3  502    0 -0.55838565864E+02  0.12456345267E+04 -0.69552426836E+03  0.14277525478E+04  0.10100000352E+00 0. -1.
       -3    1    3    3    0  502  0.55838565864E+02 -0.12456345267E+04  0.22806402483E+04  0.25992389794E+04  0.10100000352E+00 0.  1.
</event>
<event>
 5   0  0.1757996E-08  0.3699289E+04  0.7818609E-02  0.8068119E-01
        2   -1    0    0  501    0  0.00000000000E+00  0.00000000000E+00  0.20545742032E+04  0.20545742032E+04  0.25500000920E-02 0.  1.
       -2   -1    0    0    0  501  0.00000000000E+00  0.00000000000E+00 -0.16651550987E+04  0.16651550987E+04  0.25500000920E-02 0. -1.
    10030    2    1    2    0    0  0.00000000000E+00  0.00000000000E+00  0.38941910455E+03  0.37197293019E+04  0.36992889642E+04 0.  0.
        3    1    3    3  502    0  0.81465769442E+03 -0.42546593191E+02 -0.14744952464E+04  0.16851153116E+04  0.10100000352E+00 0. -1.
       -3    1    3    3    0  502 -0.81465769442E+03  0.42546593191E+02  0.18639143509E+04  0.20346139903E+04  0.10100000352E+00 0.  1.
</event>
<event>
 5   0  0.5714125E-09  0.3717063E+04  0.7818609E-02  0.8064191E-01
        1   -1    0    0  501    0  0.00000000000E+00  0.00000000000E+00  0.24432027751E+04  0.24432027751E+04  0.50400001928E-02 0. -1.
       -1   -1    0    0    0  501  0.00000000000E+00  0.00000000000E+00 -0.14137750467E+04  0.14137750467E+04  0.50400001928E-02 0.  1.
    10030    2    1    2    0    0  0.00000000000E+00  0.00000000000E+00  0.10294277284E+04  0.38569778218E+04  0.37170628822E+04 0.  0.
        3    1    3    3  502    0 -0.12820675709E+04 -0.62699087909E+03  0.17500406211E+04  0.22581977337E+04  0.10100000352E+00 0. -1.
       -3    1    3    3    0  502  0.12820675709E+04  0.62699087909E+03 -0.72061289271E+03  0.15987800881E+04  0.10100000352E+00 0.  1.
</event>
<event>
 5   0  0.1856107E-08  0.3699926E+04  0.7818609E-02  0.8067978E-01
       -2   -1    0    0    0  501  0.00000000000E+00  0.00000000000E+00  0.19453107316E+04  0.19453107316E+04  0.25500000920E-02 0.  1.
        2   -1    0    0  501    0  0.00000000000E+00  0.00000000000E+00 -0.17592883758E+04  0.17592883758E+04  0.25500000920E-02 0. -1.
    10030    2    1    2    0    0  0.00000000000E+00  0.00000000000E+00  0.18602235580E+03  0.37045991074E+04  0.36999257060E+04 0.  0.
        2    1    3    3  502    0 -0.99260215389E+02  0.74701771072E+03  0.17846642374E+04  0.19372440452E+04  0.25500000920E-02 0.  1.
       -2    1    3    3    0  502  0.99260215389E+02 -0.74701771072E+03 -0.15986418816E+04  0.17673550622E+04  0.25500000920E-02 0. -1.
</event>
<event>
 5   0  0.1725865E-08  0.3699414E+04  0.7818609E-02  0.8068092E-01
       -2   -1    0    0    0  501  0.00000000000E+00  0.00000000000E+00  0.19092471852E+04  0.19092471852E+04  0.25500000920E-02 0. -1.
        2   -1    0    0  501    0  0.00000000000E+00  0.00000000000E+00 -0.17920235625E+04  0.17920235625E+04  0.25500000920E-02 0.  1.
    10030    2    1    2    0    0  0.00000000000E+00  0.00000000000E+00  0.11722362269E+03  0.37012707478E+04  0.36994139767E+04 0.  0.
        1    1    3    3  502    0  0.10294516310E+04  0.66424565051E+03 -0.13278770054E+04  0.18067236330E+04  0.50400001928E-02 0.  1.
       -1    1    3    3    0  502 -0.10294516310E+04 -0.66424565051E+03  0.14451006281E+04  0.18945471147E+04  0.50400001928E-02 0. -1.
</event>
<event>
 5   0  0.1825308E-08  0.3695650E+04  0.7818609E-02  0.8068927E-01
        2   -1    0    0  501    0  0.00000000000E+00  0.00000000000E+00  0.23370486144E+04  0.23370486144E+04  0.25500000920E-02 0. -1.
       -2   -1    0    0    0  501  0.00000000000E+00  0.00000000000E+00 -0.14610124731E+04  0.14610124731E+04  0.25500000920E-02 0.  1.
    10030    2    1    2    0    0  0.00000000000E+00  0.00000000000E+00  0.87603614132E+03  0.37980610874E+04  0.36956499703E+04 0.  0.
        4    1    3    3  502    0 -0.85884278332E+03 -0.14208380731E+03 -0.12370746217E+04  0.15126645257E+04  0.12699999809E+01 0.  1.
       -4    1    3    3    0  502  0.85884278332E+03  0.14208380731E+03  0.21131107630E+04  0.22853965617E+04  0.12699999809E+01 0. -1.
</event>
<event>
 5   0  0.5714125E-09  0.3698248E+04  0.7818609E-02  0.8068350E-01
       -1   -1    0    0    0  501  0.00000000000E+00  0.00000000000E+00  0.24402535767E+04  0.24402535767E+04  0.50400001928E-02 0.  1.
        1   -1    0    0  501    0  0.00000000000E+00  0.00000000000E+00 -0.14011901745E+04  0.14011901745E+04  0.50400001928E-02 0. -1.
    10030    2    1    2    0    0  0.00000000000E+00  0.00000000000E+00  0.10390634021E+04  0.38414437512E+04  0.36982478743E+04 0.  0.
        5    1    3    3  502    0 -0.76198111002E+03 -0.10132015815E+04 -0.87871209814E+03  0.15425140837E+04  0.46999998093E+01 0. -1.
       -5    1    3    3    0  502  0.76198111002E+03  0.10132015815E+04  0.19177755003E+04  0.22989296675E+04  0.46999998093E+01 0.  1.
</event>
<event>
 5   0  0.1725865E-08  0.3700147E+04  0.7818609E-02  0.8067929E-01
        2   -1    0    0  501    0  0.00000000000E+00  0.00000000000E+00  0.22509913211E+04  0.22509913211E+04  0.25500000920E-02 0.  1.
       -2   -1    0    0    0  501  0.00000000000E+00  0.00000000000E+00 -0.15205619673E+04  0.15205619673E+04  0.25500000920E-02 0. -1.
    10030    2    1    2    0    0  0.00000000000E+00  0.00000000000E+00  0.73042935382E+03  0.37715532884E+04  0.37001469114E+04 0.  0.
        1    1    3    3  502    0 -0.10834773504E+04 -0.11325192857E+03  0.18894056217E+04  0.21809637254E+04  0.50400001928E-02 0.  1.
       -1    1    3    3    0  502  0.10834773504E+04  0.11325192857E+03 -0.11589762679E+04  0.15905895630E+04  0.50400001928E-02 0. -1.
</event>
<event>
 5   0  0.1757996E-08  0.3700832E+04  0.7818609E-02  0.8067777E-01
        2   -1    0    0  501    0  0.00000000000E+00  0.00000000000E+00  0.25364315148E+04  0.25364315148E+04  0.25500000920E-02 0. -1.
       -2   -1    0    0    0  501  0.00000000000E+00  0.00000000000E+00 -0.13499439147E+04  0.13499439147E+04  0.25500000920E-02 0.  1.
    10030    2    1    2    0    0  0.00000000000E+00  0.00000000000E+00  0.11864876001E+04  0.38863754295E+04  0.37008324947E+04 0.  0.
        3    1    3    3  502    0 -0.15072804755E+04 -0.15892175337E+03 -0.52152814924E+03  0.16028543839E+04  0.10100000352E+00 0.  1.
       -3    1    3    3    0  502  0.15072804755E+04  0.15892175337E+03  0.17080157493E+04  0.22835210455E+04  0.10100000352E+00 0. -1.
</event>
<event>
 5   0  0.5714125E-09  0.3700081E+04  0.7818609E-02  0.8067944E-01
       -1   -1    0    0    0  501  0.00000000000E+00  0.00000000000E+00  0.19391399464E+04  0.19391399464E+04  0.50400001928E-02 0.  1.
        1   -1    0    0  501    0  0.00000000000E+00  0.00000000000E+00 -0.17650351906E+04  0.17650351906E+04  0.50400001928E-02 0. -1.
    10030    2    1    2    0    0  0.00000000000E+00  0.00000000000E+00  0.17410475582E+03  0.37041751370E+04  0.37000812126E+04 0.  0.
        4    1    3    3  502    0  0.14897895921E+04  0.81564194190E+03 -0.64717837809E+03  0.18175770333E+04  0.12699999809E+01 0. -1.
       -4    1    3    3    0  502 -0.14897895921E+04 -0.81564194190E+03  0.82128313391E+03  0.18865981037E+04  0.12699999809E+01 0.  1.
</event>
<event>
 5   0  0.1740290E-08  0.3698194E+04  0.7818609E-02  0.8068362E-01
       -2   -1    0    0    0  501  0.00000000000E+00  0.00000000000E+00  0.14062422087E+04  0.14062422087E+04  0.25500000920E-02 0. -1.
        2   -1    0    0  501    0  0.00000000000E+00  0.00000000000E+00 -0.24314158415E+04  0.24314158415E+04  0.25500000920E-02 0.  1.
    10030    2    1    2    0    0  0.00000000000E+00  0.00000000000E+00 -0.10251736328E+04  0.38376580502E+04  0.36981939285E+04 0.  0.
        5    1    3    3  502    0 -0.42000787897E+03 -0.15218117778E+04 -0.15116069535E+04  0.21857024906E+04  0.46999998093E+01 0. -1.
       -5    1    3    3    0  502  0.42000787897E+03  0.15218117778E+04  0.48643332070E+03  0.16519555596E+04  0.46999998093E+01 0.  1.
</event>
<event>
 5   0  0.1856107E-08  0.3700269E+04  0.7818609E-02  0.8067902E-01
       -2   -1    0    0    0  501  0.00000000000E+00  0.00000000000E+00  0.17880664165E+04  0.17880664165E+04  0.25500000920E-02 0. -1.
        2   -1    0    0  501    0  0.00000000000E+00  0.00000000000E+00 -0.19143569165E+04  0.19143569165E+04  0.25500000920E-02 0.  1.
    10030    2    1    2    0    0  0.00000000000E+00  0.00000000000E+00 -0.12629050001E+03  0.37024233330E+04  0.37002688073E+04 0.  0.
        2    1    3    3  502    0  0.17620810440E+04  0.44008703944E+03  0.28975133857E+03  0.18391742838E+04  0.25500000920E-02 0. -1.
       -2    1    3    3    0  502 -0.17620810440E+04 -0.44008703944E+03 -0.41604183858E+03  0.18632490492E+04  0.25500000920E-02 0.  1.
</event>
<event>
 5   0  0.1856107E-08  0.3699886E+04  0.7818609E-02  0.8067987E-01
        2   -1    0    0  501    0  0.00000000000E+00  0.00000000000E+00  0.25311627263E+04  0.25311627263E+04  0.25500000920E-02 0.  1.
       -2   -1    0    0    0  501  0.00000000000E+00  0.00000000000E+00 -0.13520617305E+04  0.13520617305E+04  0.25500000920E-02 0. -1.
    10030    2    1    2    0    0  0.00000000000E+00  0.00000000000E+00  0.11791009958E+04  0.38832244569E+04  0.36998855420E+04 0.  0.
        2    1    3    3  502    0 -0.88803461661E+03 -0.16096896842E+04  0.80612967773E+03  0.20073742593E+04  0.25500000920E-02 0.  1.
       -2    1    3    3    0  502  0.88803461661E+03  0.16096896842E+04  0.37297131806E+03  0.18758501976E+04  0.25500000920E-02 0. -1.
</event>
<event>
 5   0  0.5714125E-09  0.3700763E+04  0.7818609E-02  0.8067793E-01
        1   -1    0    0  501    0  0.00000000000E+00  0.00000000000E+00  0.23732343546E+04  0.23732343546E+04  0.50400001928E-02 0.  1.
       -1   -1    0    0    0  501  0.00000000000E+00  0.00000000000E+00 -0.14427199721E+04  0.14427199721E+04  0.50400001928E-02 0. -1.
    10030    2    1    2    0    0  0.00000000000E+00  0.00000000000E+00  0.93051438249E+03  0.38159543267E+04  0.37007634898E+04 0.  0.
        3    1    3    3  502    0 -0.57491768874E+03  0.65593322783E+03  0.21479635425E+04  0.23183024260E+04  0.10100000352E+00 0.  1.
       -3    1    3    3    0  502  0.57491768874E+03 -0.65593322783E+03 -0.12174491601E+04  0.14976519007E+04  0.10100000352E+00 0. -1.
</event>
<event>
 5   0  0.5714125E-09  0.3700164E+04  0.7818609E-02  0.8067926E-01
       -1   -1    0    0    0  501  0.00000000000E+00  0.00000000000E+00  0.11868726144E+04  0.11868726144E+04  0.50400001928E-02 0.  1.
        1   -1    0    0  501    0  0.00000000000E+00  0.00000000000E+00 -0.28838841025E+04  0.28838841025E+04  0.50400001928E-02 0. -1.
    10030    2    1    2    0    0  0.00000000000E+00  0.00000000000E+00 -0.16970114881E+04  0.40707567169E+04  0.37001638150E+04 0.  0.
        2    1    3    3  502    0  0.64014060843E+03  0.82865453801E+03  0.82949506058E+03  0.13358556799E+04  0.25500000920E-02 0.  1.
       -2    1    3    3    0  502 -0.64014060843E+03 -0.82865453801E+03 -0.25265065486E+04  0.27349010370E+04  0.25500000920E-02 0. -1.
</event>
<event>
 5   0  0.1725865E-08  0.3699267E+04  0.7818609E-02  0.8068124E-01
       -2   -1    0    0    0  501  0.00000000000E+00  0.00000000000E+00  0.11890217665E+04  0.11890217665E+04  0.25500000920E-02 0. -1.
        2   -1    0    0  501    0  0.00000000000E+00  0.00000000000E+00 -0.28772767181E+04  0.28772767181E+04  0.25500000920E-02 0.  1.
    10030    2    1    2    0    0  0.00000000000E+00  0.00000000000E+00 -0.16882549516E+04  0.40662984847E+04  0.36992673038E+04 0.  0.
        1    1    3    3  502    0 -0.73825167436E+03  0.61797588136E+03  0.89188250779E+03  0.13123887124E+04  0.50400001928E-02 0. -1.
       -1    1    3    3    0  502  0.73825167436E+03 -0.61797588136E+03 -0.25801374594E+04  0.27539097723E+04  0.50400001928E-02 0.  1.
</event>
<event>
 5   0  0.5714125E-09  0.3699503E+04  0.7818609E-02  0.8068072E-01
       -1   -1    0    0    0  501  0.00000000000E+00  0.00000000000E+00  0.16848757792E+04  0.16848757792E+04  0.50400001928E-02 0. -1.
        1   -1    0    0  501    0  0.00000000000E+00  0.00000000000E+00 -0.20307608666E+04  0.20307608666E+04  0.50400001928E-02 0.  1.
    10030    2    1    2    0    0  0.00000000000E+00  0.00000000000E+00 -0.34588508741E+03  0.37156366458E+04  0.36995025598E+04 0.  0.
        2    1    3    3  502    0 -0.16952448940E+04  0.55123758516E+03 -0.66891970482E+03  0.19039883659E+04  0.25500000920E-02 0.  1.
       -2    1    3    3    0  502  0.16952448940E+04 -0.55123758516E+03  0.32303461741E+03  0.18116482799E+04  0.25500000920E-02 0. -1.
</event>
<event>
 5   0  0.5714125E-09  0.3700671E+04  0.7818609E-02  0.8067813E-01
        1   -1    0    0  501    0  0.00000000000E+00  0.00000000000E+00  0.16431694838E+04  0.16431694838E+04  0.50400001928E-02 0. -1.
       -1   -1    0    0    0  501  0.00000000000E+00  0.00000000000E+00 -0.20836202803E+04  0.20836202803E+04  0.50400001928E-02 0.  1.
    10030    2    1    2    0    0  0.00000000000E+00  0.00000000000E+00 -0.44045079653E+03  0.37267897641E+04  0.37006708907E+04 0.  0.
        5    1    3    3  502    0  0.82132641749E+03  0.15535627354E+04 -0.80361091665E+03  0.19323423227E+04  0.46999998093E+01 0.  1.
       -5    1    3    3    0  502 -0.82132641749E+03 -0.15535627354E+04  0.36316012012E+03  0.17944474413E+04  0.46999998093E+01 0. -1.
</event>
<event>
 5   0  0.1740290E-08  0.3693104E+04  0.7818609E-02  0.8069492E-01
       -2   -1    0    0    0  501  0.00000000000E+00  0.00000000000E+00  0.12101414787E+04  0.12101414787E+04  0.25500000920E-02 0.  1.
        2   -1    0    0  501    0  0.00000000000E+00  0.00000000000E+00 -0.28176496961E+04  0.28176496961E+04  0.25500000920E-02 0. -1.
    10030    2    1    2    0    0  0.00000000000E+00  0.00000000000E+00 -0.16075082175E+04  0.40277911748E+04  0.36931042604E+04 0.  0.
        5    1    3    3  502    0 -0.10998897832E+04 -0.14290148733E+03  0.80636952643E+03  0.13712885449E+04  0.46999998093E+01 0.  1.
       -5    1    3    3    0  502  0.10998897832E+04  0.14290148733E+03 -0.24138777439E+04  0.26565026299E+04  0.46999998093E+01 0. -1.
</event>
<event>
 5   0  0.5714125E-09  0.3702403E+04  0.7818609E-02  0.8067430E-01
        1   -1    0    0  501    0  0.00000000000E+00  0.00000000000E+00  0.18091752684E+04  0.18091752684E+04  0.50400001928E-02 0.  1.
       -1   -1    0    0    0  501  0.00000000000E+00  0.00000000000E+00 -0.18942037861E+04  0.18942037861E+04  0.50400001928E-02 0. -1.
    10030    2    1    2    0    0  0.00000000000E+00  0.00000000000E+00 -0.85028517630E+02  0.37033790545E+04  0.37024028107E+04 0.  0.
        2    1    3    3  502    0  0.56607088298E+03  0.36740336501E+03  0.16817515057E+04  0.18121008814E+04  0.25500000920E-02 0.  1.
       -2    1    3    3    0  502 -0.56607088298E+03 -0.36740336501E+03 -0.17667800234E+04  0.18912781731E+04  0.25500000920E-02 0. -1.
</event>
<event>
 5   0  0.5714125E-09  0.3700377E+04  0.7818609E-02  0.8067878E-01
        1   -1    0    0  501    0  0.00000000000E+00  0.00000000000E+00  0.25792199291E+04  0.25792199291E+04  0.50400001928E-02 0.  1.
       -1   -1    0    0    0  501  0.00000000000E+00  0.00000000000E+00 -0.13272222533E+04  0.13272222534E+04  0.50400001928E-02 0. -1.
    10030    2    1    2    0    0  0.00000000000E+00  0.00000000000E+00  0.12519976758E+04  0.39064421824E+04  0.37003773246E+04 0.  0.
        3    1    3    3  502    0 -0.37887344613E+03 -0.16441858433E+04  0.14274220609E+04  0.22100737376E+04  0.10100000352E+00 0.  1.
       -3    1    3    3    0  502  0.37887344613E+03  0.16441858433E+04 -0.17542438519E+03  0.16963684448E+04  0.10100000352E+00 0. -1.
</event>
<event>
 5   0  0.5714125E-09  0.3700258E+04  0.7818609E-02  0.8067905E-01
        1   -1    0    0  501    0  0.00000000000E+00  0.00000000000E+00  0.19544147287E+04  0.19544147287E+04  0.50400001928E-02 0. -1.
       -1   -1    0    0    0  501  0.00000000000E+00  0.00000000000E+00 -0.17514079006E+04  0.17514079006E+04  0.50400001928E-02 0.  1.
    10030    2    1    2    0    0  0.00000000000E+00  0.00000000000E+00  0.20300682814E+03  0.37058226293E+04  0.37002580434E+04 0.  0.
        5    1    3    3  502    0  0.35571895026E+03 -0.10876485820E+04 -0.13544502996E+04  0.17731534377E+04  0.46999998093E+01 0.  1.
       -5    1    3    3    0  502 -0.35571895026E+03  0.10876485820E+04  0.15574571277E+04  0.19326691916E+04  0.46999998093E+01 0. -1.
</event>
<event>
 5   0  0.1856107E-08  0.3697702E+04  0.7818609E-02  0.8068471E-01
       -2   -1    0    0    0  501  0.00000000000E+00  0.00000000000E+00  0.35832134957E+04  0.35832134957E+04  0.25500000920E-02 0. -1.
        2   -1    0    0  501    0  0.00000000000E+00  0.00000000000E+00 -0.95396214345E+03  0.95396214345E+03  0.25500000920E-02 0.  1.
    10030    2    1    2    0    0  0.00000000000E+00  0.00000000000E+00  0.26292513522E+04  0.45371756391E+04  0.36977020036E+04 0.  0.
        2    1    3    3  502    0  0.16071652843E+04 -0.14929331486E+03  0.24209792836E+04  0.29097095106E+04  0.25500000920E-02 0. -1.
       -2    1    3    3    0  502 -0.16071652843E+04  0.14929331486E+03  0.20827206866E+03  0.16274661285E+04  0.25500000920E-02 0.  1.
</event>
<event>
 5   0  0.1725865E-08  0.3699343E+04  0.7818609E-02  0.8068107E-01
        2   -1    0    0  501    0  0.00000000000E+00  0.00000000000E+00  0.26451762622E+04  0.26451762622E+04  0.25500000920E-02 0. -1.
       -2   -1    0    0    0  501  0.00000000000E+00  0.00000000000E+00 -0.12934054718E+04  0.12934054718E+04  0.25500000920E-02 0.  1.
    10030    2    1    2    0    0  0.00000000000E+00  0.00000000000E+00  0.13517707903E+04  0.39385817340E+04  0.36993434290E+04 0.  0.
        1    1    3    3  502    0  0.94401228698E+03  0.15711880487E+04  0.93990299995E+03  0.20599050298E+04  0.50400001928E-02 0.  1.
       -1    1    3    3    0  502 -0.94401228698E+03 -0.15711880487E+04  0.41186779040E+03  0.18786767043E+04  0.50400001928E-02 0. -1.
</event>
<event>
 5   0  0.5714125E-09  0.3697303E+04  0.7818609E-02  0.8068560E-01
       -1   -1    0    0    0  501  0.00000000000E+00  0.00000000000E+00  0.17130383410E+04  0.17130383410E+04  0.50400001928E-02 0.  1.
        1   -1    0    0  501    0  0.00000000000E+00  0.00000000000E+00 -0.19950009037E+04  0.19950009037E+04  0.50400001928E-02 0. -1.
    10030    2    1    2    0    0  0.00000000000E+00  0.00000000000E+00 -0.28196256272E+03  0.37080392448E+04  0.36973033625E+04 0.  0.
        3    1    3    3  502    0 -0.69500024321E+03 -0.13894891885E+04  0.86382988135E+03  0.17776128986E+04  0.10100000352E+00 0.  1.
       -3    1    3    3    0  502  0.69500024321E+03  0.13894891885E+04 -0.11457924441E+04  0.19304263462E+04  0.10100000352E+00 0. -1.
</event>
<event>
 5   0  0.1725865E-08  0.3707121E+04  0.7818609E-02  0.8066385E-01
       -2   -1    0    0    0  501  0.00000000000E+00  0.00000000000E+00  0.13115197290E+04  0.13115197290E+04  0.25500000920E-02 0. -1.
        2   -1    0    0  501    0  0.00000000000E+00  0.00000000000E+00 -0.26196230597E+04  0.26196230597E+04  0.25500000920E-02 0.  1.
    10030    2    1    2    0    0  0.00000000000E+00  0.00000000000E+00 -0.13081033307E+04  0.39311427887E+04  0.37071214306E+04 0.  0.
        1    1    3    3  502    0 -0.15503191704E+04  0.21147899059E+03 -0.17078194961E+04  0.23162168131E+04  0.50400001928E-02 0.  1.
       -1    1    3    3    0  502  0.15503191704E+04 -0.21147899059E+03  0.39971616541E+03  0.16149259756E+04  0.50400001928E-02 0. -1.
</event>
<event>
 5   0  0.1725865E-08  0.3699726E+04  0.7818609E-02  0.8068023E-01
        2   -1    0    0  501    0  0.00000000000E+00  0.00000000000E+00  0.22100753871E+04  0.22100753871E+04  0.25500000920E-02 0. -1.
       -2   -1    0    0    0  501  0.00000000000E+00  0.00000000000E+00 -0.15483604363E+04  0.15483604363E+04  0.25500000920E-02 0.  1.
    10030    2    1    2    0    0  0.00000000000E+00  0.00000000000E+00  0.66171495073E+03  0.37584358234E+04  0.36997260929E+04 0.  0.
        1    1    3    3  502    0 -0.14436603861E+04 -0.11050196979E+04  0.67799549283E+03  0.19403354688E+04  0.50400001928E-02 0. -1.
       -1    1    3    3    0  502  0.14436603861E+04  0.11050196979E+04 -0.16280542101E+02  0.18181003546E+04  0.50400001928E-02 0.  1.
</event>
<event>
 5   0  0.1740290E-08  0.3699004E+04  0.7818609E-02  0.8068183E-01
       -2   -1    0    0    0  501  0.00000000000E+00  0.00000000000E+00  0.15453578939E+04  0.15453578939E+04  0.25500000920E-02 0.  1.
        2   -1    0    0  501    0  0.00000000000E+00  0.00000000000E+00 -0.22135053434E+04  0.22135053434E+04  0.25500000920E-02 0. -1.
    10030    2    1    2    0    0  0.00000000000E+00  0.00000000000E+00 -0.66814744941E+03  0.37588632373E+04  0.36990041663E+04 0.  0.
        5    1    3    3  502    0  0.11489056583E+04 -0.46400680459E+03  0.10612263602E+04  0.16314134988E+04  0.46999998093E+01 0.  1.
       -5    1    3    3    0  502 -0.11489056583E+04  0.46400680459E+03 -0.17293738096E+04  0.21274497385E+04  0.46999998093E+01 0. -1.
</event>
<event>
 5   0  0.1757996E-08  0.3705878E+04  0.7818609E-02  0.8066661E-01
        2   -1    0    0  501    0  0.00000000000E+00  0.00000000000E+00  0.28609981092E+04  0.28609981092E+04  0.25500000920E-02 0.  1.
       -2   -1    0    0    0  501  0.00000000000E+00  0.00000000000E+00 -0.12000645530E+04  0.12000645530E+04  0.25500000920E-02 0. -1.
    10030    2    1    2    0    0  0.00000000000E+00  0.00000000000E+00  0.16609335562E+04  0.40610626622E+04  0.37058777189E+04 0.  0.
        3    1    3    3  502    0  0.21068533004E+03  0.74026956420E+03  0.26775388672E+04  0.27859651347E+04  0.10100000352E+00 0.  1.
       -3    1    3    3    0  502 -0.21068533004E+03 -0.74026956420E+03 -0.10166053110E+04  0.12750975275E+04  0.10100000352E+00 0. -1.
</event>
<event>
 5   0  0.5714125E-09  0.3700177E+04  0.7818609E-02  0.8067923E-01
       -1   -1    0    0    0  501  0.00000000000E+00  0.00000000000E+00  0.19679560113E+04  0.19679560113E+04  0.50400001928E-02 0.  1.
        1   -1    0    0  501    0  0.00000000000E+00  0.00000000000E+00 -0.17392802369E+04  0.17392802369E+04  0.50400001928E-02 0. -1.
    10030    2    1    2    0    0  0.00000000000E+00  0.00000000000E+00  0.22867577434E+03  0.37072362482E+04  0.37001767512E+04 0.  0.
        1    1    3    3  502    0  0.93476890063E+03 -0.13479484782E+04  0.97158059842E+03  0.19064959629E+04  0.50400001928E-02 0.  1.
       -1    1    3    3    0  502 -0.93476890063E+03  0.13479484782E+04 -0.74290482407E+03  0.18007402853E+04  0.50400001928E-02 0. -1.
</event>
<event>
 5   0  0.5714125E-09  0.3701310E+04  0.7818609E-02  0.8067672E-01
       -1   -1    0    0    0  501  0.00000000000E+00  0.00000000000E+00  0.12175893829E+04  0.12175893829E+04  0.50400001928E-02 0. -1.
        1   -1    0    0  501    0  0.00000000000E+00  0.00000000000E+00 -0.28128722976E+04  0.28128722976E+04  0.50400001928E-02 0.  1.
    10030    2    1    2    0    0  0.00000000000E+00  0.00000000000E+00 -0.15952829147E+04  0.40304616805E+04  0.37013097385E+04 0.  0.
        1    1    3    3  502    0 -0.12745911679E+04 -0.47119627978E+03  0.57039033443E+03  0.14737549704E+04  0.50400001928E-02 0. -1.
       -1    1    3    3    0  502  0.12745911679E+04  0.47119627978E+03 -0.21656732491E+04  0.25567067100E+04  0.50400001928E-02 0.  1.
</event>
<event>
 5   0  0.5714125E-09  0.3698812E+04  0.7818609E-02  0.8068225E-01
        1   -1    0    0  501    0  0.00000000000E+00  0.00000000000E+00  0.21007005665E+04  0.21007005665E+04  0.50400001928E-02 0. -1.
       -1   -1    0    0    0  501  0.00000000000E+00  0.00000000000E+00 -0.16281725592E+04  0.16281725592E+04  0.50400001928E-02 0.  1.
    10030    2    1    2    0    0  0.00000000000E+00  0.00000000000E+00  0.47252800726E+03  0.37288731258E+04  0.36988122513E+04 0.  0.
        1    1    3    3  502    0  0.31447686891E+03  0.26165344359E+03  0.20545142944E+04  0.20948477776E+04  0.50400001928E-02 0. -1.
       -1    1    3    3    0  502 -0.31447686891E+03 -0.26165344359E+03 -0.15819862871E+04  0.16340253481E+04  0.50400001928E-02 0.  1.
</event>
<event>
 5   0  0.1740290E-08  0.3676161E+04  0.7818609E-02  0.8073265E-01
       -2   -1    0    0    0  501  0.00000000000E+00  0.00000000000E+00  0.14868291386E+04  0.14868291386E+04  0.25500000920E-02 0. -1.
        2   -1    0    0  501    0  0.00000000000E+00  0.00000000000E+00 -0.22723126262E+04  0.22723126262E+04  0.25500000920E-02 0.  1.
    10030    2    1    2    0    0  0.00000000000E+00  0.00000000000E+00 -0.78548348759E+03  0.37591417647E+04  0.36761613809E+04 0.  0.
        5    1    3    3  502    0  0.64449091395E+03  0.88968856226E+03  0.11141584131E+04  0.15646997589E+04  0.46999998093E+01 0. -1.
       -5    1    3    3    0  502 -0.64449091395E+03 -0.88968856226E+03 -0.18996419007E+04  0.21944420058E+04  0.46999998093E+01 0.  1.
</event>
<event>
 5   0  0.1725865E-08  0.3700363E+04  0.7818609E-02  0.8067881E-01
       -2   -1    0    0    0  501  0.00000000000E+00  0.00000000000E+00  0.16342071797E+04  0.16342071797E+04  0.25500000920E-02 0.  1.
        2   -1    0    0  501    0  0.00000000000E+00  0.00000000000E+00 -0.20946989105E+04  0.20946989105E+04  0.25500000920E-02 0. -1.
    10030    2    1    2    0    0  0.00000000000E+00  0.00000000000E+00 -0.46049173082E+03  0.37289060902E+04  0.37003632248E+04 0.  0.
        1    1    3    3  502    0 -0.79635463666E+03  0.51215191170E+02  0.14518717153E+04  0.16567242320E+04  0.50400001928E-02 0.  1.
       -1    1    3    3    0  502  0.79635463666E+03 -0.51215191170E+02 -0.19123634462E+04  0.20721818582E+04  0.50400001928E-02 0. -1.
</event>
<event>
 5   0  0.5714125E-09  0.3698400E+04  0.7818609E-02  0.8068316E-01
        1   -1    0    0  501    0  0.00000000000E+00  0.00000000000E+00  0.14382109149E+04  0.14382109149E+04  0.50400001928E-02 0. -1.
       -1   -1    0    0    0  501  0.00000000000E+00  0.00000000000E+00 -0.23776354888E+04  0.23776354888E+04  0.50400001928E-02 0.  1.
    10030    2    1    2    0    0  0.00000000000E+00  0.00000000000E+00 -0.93942457388E+03  0.38158464038E+04  0.36984003633E+04 0.  0.
        5    1    3    3  502    0 -0.11175888840E+04 -0.21923842760E+03  0.10334143648E+04  0.15378679206E+04  0.46999998093E+01 0. -1.
       -5    1    3    3    0  502  0.11175888840E+04  0.21923842760E+03 -0.19728389387E+04  0.22779784832E+04  0.46999998093E+01 0.  1.
</event>
<event>
 5   0  0.5714125E-09  0.3702465E+04  0.7818609E-02  0.8067416E-01
        1   -1    0    0  501    0  0.00000000000E+00  0.00000000000E+00  0.19443067549E+04  0.19443067550E+04  0.50400001928E-02 0. -1.
       -1   -1    0    0    0  501  0.00000000000E+00  0.00000000000E+00 -0.17626133895E+04  0.17626133895E+04  0.50400001928E-02 0.  1.
    10030    2    1    2    0    0  0.00000000000E+00  0.00000000000E+00  0.18169336549E+03  0.37069201444E+04  0.37024646491E+04 0.  0.
        5    1    3    3  502    0 -0.70263670943E+03 -0.14069442633E+04  0.10686736623E+04  0.19013879120E+04  0.46999998093E+01 0. -1.
       -5    1    3    3    0  502  0.70263670943E+03  0.14069442633E+04 -0.88698029684E+03  0.18055322324E+04  0.46999998093E+01 0.  1.
</event>
<event>
 5   0  0.1725865E-08  0.3700657E+04  0.7818609E-02  0.8067816E-01
        2   -1    0    0  501    0  0.00000000000E+00  0.00000000000E+00  0.15269395834E+04  0.15269395834E+04  0.25500000920E-02 0.  1.
       -2   -1    0    0    0  501  0.00000000000E+00  0.00000000000E+00 -0.22422074034E+04  0.22422074034E+04  0.25500000920E-02 0. -1.
    10030    2    1    2    0    0  0.00000000000E+00  0.00000000000E+00 -0.71526781998E+03  0.37691469869E+04  0.37006568274E+04 0.  0.
        1    1    3    3  502    0 -0.53851372400E+03 -0.79788501124E+03  0.12518329152E+04  0.15791463421E+04  0.50400001928E-02 0.  1.
       -1    1    3    3    0  502  0.53851372400E+03  0.79788501124E+03 -0.19671007351E+04  0.21900006448E+04  0.50400001928E-02 0. -1.
</event>
<event>
 5   0  0.5714125E-09  0.3699578E+04  0.7818609E-02  0.8068055E-01
       -1   -1    0    0    0  501  0.00000000000E+00  0.00000000000E+00  0.19232970122E+04  0.19232970123E+04  0.50400001928E-02 0.  1.
        1   -1    0    0  501    0  0.00000000000E+00  0.00000000000E+00 -0.17790899842E+04  0.17790899843E+04  0.50400001928E-02 0. -1.
    10030    2    1    2    0    0  0.00000000000E+00  0.00000000000E+00  0.14420702800E+03  0.37023869965E+04  0.36995775171E+04 0.  0.
        3    1    3    3  502    0 -0.35233978761E+03 -0.33591204640E+02 -0.17448872197E+04  0.17804221732E+04  0.10100000352E+00 0. -1.
       -3    1    3    3    0  502  0.35233978761E+03  0.33591204640E+02  0.18890942478E+04  0.19219648233E+04  0.10100000352E+00 0.  1.
</event>
<event>
 5   0  0.5714125E-09  0.3700876E+04  0.7818609E-02  0.8067768E-01
        1   -1    0    0  501    0  0.00000000000E+00  0.00000000000E+00  0.13443856038E+04  0.13443856038E+04  0.50400001928E-02 0.  1.
       -1   -1    0    0    0  501  0.00000000000E+00  0.00000000000E+00 -0.25469787603E+04  0.25469787603E+04  0.50400001928E-02 0. -1.
    10030    2    1    2    0    0  0.00000000000E+00  0.00000000000E+00 -0.12025931565E+04  0.38913643641E+04  0.37008764251E+04 0.  0.
        2    1    3    3  502    0  0.11939675567E+04  0.11417182924E+04 -0.14778995946E+04  0.22165889103E+04  0.25500000920E-02 0. -1.
       -2    1    3    3    0  502 -0.11939675567E+04 -0.11417182924E+04  0.27530643814E+03  0.16747754537E+04  0.25500000920E-02 0.  1.
</event>
<event>
 5   0  0.5714125E-09  0.3699460E+04  0.7818609E-02  0.8068082E-01
        1   -1    0    0  501    0  0.00000000000E+00  0.00000000000E+00  0.17788212167E+04  0.17788212167E+04  0.50400001928E-02 0. -1.
       -1   -1    0    0    0  501  0.00000000000E+00  0.00000000000E+00 -0.19234649510E+04  0.19234649510E+04  0.50400001928E-02 0.  1.
    10030    2    1    2    0    0  0.00000000000E+00  0.00000000000E+00 -0.14464373435E+03  0.37022861677E+04  0.36994595630E+04 0.  0.
        4    1    3    3  502    0 -0.18417943572E+04 -0.16974868823E+03 -0.94192176854E+02  0.18519975298E+04  0.12699999809E+01 0.  1.
       -4    1    3    3    0  502  0.18417943572E+04  0.16974868823E+03 -0.50451557499E+02  0.18502886380E+04  0.12699999809E+01 0. -1.
</event>
<event>
 5   0  0.5714125E-09  0.3695907E+04  0.7818609E-02  0.8068870E-01
        1   -1    0    0  501    0  0.00000000000E+00  0.00000000000E+00  0.15770217011E+04  0.15770217011E+04  0.50400001928E-02 0.  1.
       -1   -1    0    0    0  501  0.00000000000E+00  0.00000000000E+00 -0.21654307092E+04  0.21654307092E+04  0.50400001928E-02 0. -1.
    10030    2    1    2    0    0  0.00000000000E+00  0.00000000000E+00 -0.58840900815E+03  0.37424524103E+04  0.36959065035E+04 0.  0.
        4    1    3    3  502    0 -0.12980431021E+04  0.22194907001E+03  0.10185610432E+04  0.16648259657E+04  0.12699999809E+01 0.  1.
       -4    1    3    3    0  502  0.12980431021E+04 -0.22194907001E+03 -0.16069700514E+04  0.20776264446E+04  0.12699999809E+01 0. -1.
</event>
<event>
 5   0  0.5714125E-09  0.3698870E+04  0.7818609E-02  0.8068212E-01
       -1   -1    0    0    0  501  0.00000000000E+00  0.00000000000E+00  0.19564877623E+04  0.19564877623E+04  0.50400001928E-02 0.  1.
        1   -1    0    0  501    0  0.00000000000E+00  0.00000000000E+00 -0.17482394014E+04  0.17482394014E+04  0.50400001928E-02 0. -1.
    10030    2    1    2    0    0  0.00000000000E+00  0.00000000000E+00  0.20824836089E+03  0.37047271637E+04  0.36988695540E+04 0.  0.
        1    1    3    3  502    0 -0.10575886480E+04  0.12346831104E+04  0.98726474584E+03  0.19020062592E+04  0.50400001928E-02 0.  1.
       -1    1    3    3    0  502  0.10575886480E+04 -0.12346831104E+04 -0.77901638495E+03  0.18027209045E+04  0.50400001928E-02 0. -1.
</event>
<event>
 5   0  0.5714125E-09  0.3699965E+04  0.7818609E-02  0.8067970E-01
        1   -1    0    0  501    0  0.00000000000E+00  0.00000000000E+00  0.11644598457E+04  0.11644598457E+04  0.50400001928E-02 0.  1.
       -1   -1    0    0    0  501  0.00000000000E+00  0.00000000000E+00 -0.29390746426E+04  0.29390746426E+04  0.50400001928E-02 0. -1.
    10030    2    1    2    0    0  0.00000000000E+00  0.00000000000E+00 -0.17746147969E+04  0.41035344884E+04  0.36999645430E+04 0.  0.
        3    1    3    3  502    0  0.72191060123E+03  0.14898604113E+04 -0.18029455114E+04  0.24477441632E+04  0.10100000352E+00 0. -1.
       -3    1    3    3    0  502 -0.72191060123E+03 -0.14898604113E+04  0.28330714492E+02  0.16557903251E+04  0.10100000352E+00 0.  1.
</event>
<event>
 5   0  0.5714125E-09  0.3699338E+04  0.7818609E-02  0.8068109E-01
       -1   -1    0    0    0  501  0.00000000000E+00  0.00000000000E+00  0.13291353637E+04  0.13291353637E+04  0.50400001928E-02 0. -1.
        1   -1    0    0  501    0  0.00000000000E+00  0.00000000000E+00 -0.25740608361E+04  0.25740608361E+04  0.50400001928E-02 0.  1.
    10030    2    1    2    0    0  0.00000000000E+00  0.00000000000E+00 -0.12449254724E+04  0.39031961998E+04  0.36993379330E+04 0.  0.
        4    1    3    3  502    0  0.14195860223E+04 -0.10146186652E+04 -0.12699563282E+04  0.21581163543E+04  0.12699999809E+01 0.  1.
       -4    1    3    3    0  502 -0.14195860223E+04  0.10146186652E+04  0.25030855791E+02  0.17450798455E+04  0.12699999809E+01 0. -1.
</event>
<event>
 5   0  0.1757996E-08  0.3702817E+04  0.7818609E-02  0.8067338E-01
       -2   -1    0    0    0  501  0.00000000000E+00  0.00000000000E+00  0.36024179415E+04  0.36024179415E+04  0.25500000920E-02 0.  1.
        2   -1    0    0  501    0  0.00000000000E+00  0.00000000000E+00 -0.95150349700E+03  0.95150349700E+03  0.25500000920E-02 0. -1.
    10030    2    1    2    0    0  0.00000000000E+00  0.00000000000E+00  0.26509144445E+04  0.45539214385E+04  0.37028169109E+04 0.  0.
        3    1    3    3  502    0 -0.42144347964E+01  0.10268906066E+04  0.32200664944E+04  0.33798447180E+04  0.10100000352E+00 0.  1.
       -3    1    3    3    0  502  0.42144347964E+01 -0.10268906066E+04 -0.56915204991E+03  0.11740767205E+04  0.10100000352E+00 0. -1.
</event>
<event>
 5   0  0.5714125E-09  0.3701279E+04  0.7818609E-02  0.8067679E-01
        1   -1    0    0  501    0  0.00000000000E+00  0.00000000000E+00  0.12575420065E+04  0.12575420065E+04  0.50400001928E-02 0. -1.
       -1   -1    0    0    0  501  0.00000000000E+00  0.00000000000E+00 -0.27234603834E+04  0.27234603834E+04  0.50400001928E-02 0.  1.
    10030    2    1    2    0    0  0.00000000000E+00  0.00000000000E+00 -0.14659183769E+04  0.39810023899E+04  0.37012786089E+04 0.  0.
        2    1    3    3  502    0 -0.17329463796E+04 -0.64049077081E+02 -0.14280672240E+04  0.22464597560E+04  0.25500000920E-02 0. -1.
       -2    1    3    3    0  502  0.17329463796E+04  0.64049077081E+02 -0.37851152886E+02  0.17345426339E+04  0.25500000920E-02 0.  1.
</event>
<event>
 5   0  0.5714125E-09  0.3714676E+04  0.7818609E-02  0.8064717E-01
        1   -1    0    0  501    0  0.00000000000E+00  0.00000000000E+00  0.20794342730E+04  0.20794342730E+04  0.50400001928E-02 0.  1.
       -1   -1    0    0    0  501  0.00000000000E+00  0.00000000000E+00 -0.16589633826E+04  0.16589633826E+04  0.50400001928E-02 0. -1.
    10030    2    1    2    0    0  0.00000000000E+00  0.00000000000E+00  0.42047089037E+03  0.37383976556E+04  0.37146764679E+04 0.  0.
        3    1    3    3  502    0 -0.16983070282E+04  0.22529508629E+03  0.93224320753E+03  0.19504056106E+04  0.10100000352E+00 0.  1.
       -3    1    3    3    0  502  0.16983070282E+04 -0.22529508629E+03 -0.51177231716E+03  0.17879920449E+04  0.10100000352E+00 0. -1.
</event>
<event>
 5   0  0.5714125E-09  0.3700288E+04  0.7818609E-02  0.8067898E-01
       -1   -1    0    0    0  501  0.00000000000E+00  0.00000000000E+00  0.27217350782E+04  0.27217350782E+04  0.50400001928E-02 0. -1.
        1   -1    0    0  501    0  0.00000000000E+00  0.00000000000E+00 -0.12576653965E+04  0.12576653965E+04  0.50400001928E-02 0.  1.
    10030    2    1    2    0    0  0.00000000000E+00  0.00000000000E+00  0.14640696817E+04  0.39794004747E+04  0.37002875706E+04 0.  0.
        2    1    3    3  502    0  0.14978140900E+04 -0.10832540116E+04  0.81634282573E+03  0.20207181671E+04  0.25500000920E-02 0.  1.
       -2    1    3    3    0  502 -0.14978140900E+04  0.10832540116E+04  0.64772685599E+03  0.19586823075E+04  0.25500000920E-02 0. -1.
</event>
<event>
 5   0  0.1725865E-08  0.3699711E+04  0.7818609E-02  0.8068026E-01
       -2   -1    0    0    0  501  0.00000000000E+00  0.00000000000E+00  0.17732456240E+04  0.17732456240E+04  0.25500000920E-02 0.  1.
        2   -1    0    0  501    0  0.00000000000E+00  0.00000000000E+00 -0.19297756134E+04  0.19297756134E+04  0.25500000920E-02 0. -1.
    10030    2    1    2    0    0  0.00000000000E+00  0.00000000000E+00 -0.15652998935E+03  0.37030212374E+04  0.36997114275E+04 0.  0.
        1    1    3    3  502    0  0.11404507976E+04  0.89433758588E+03  0.10723278697E+04  0.18028740386E+04  0.50400001928E-02 0.  1.
       -1    1    3    3    0  502 -0.11404507976E+04 -0.89433758588E+03 -0.12288578590E+04  0.19001471987E+04  0.50400001928E-02 0. -1.
</event>
<event>
 5   0  0.5714125E-09  0.3698068E+04  0.7818609E-02  0.8068390E-01
        1   -1    0    0  501    0  0.00000000000E+00  0.00000000000E+00  0.17994255375E+04  0.17994255375E+04  0.50400001928E-02 0.  1.
       -1   -1    0    0    0  501  0.00000000000E+00  0.00000000000E+00 -0.19000102032E+04  0.19000102032E+04  0.50400001928E-02 0. -1.
    10030    2    1    2    0    0  0.00000000000E+00  0.00000000000E+00 -0.10058466572E+03  0.36994357407E+04  0.36980680800E+04 0.  0.
        1    1    3    3  502    0 -0.73280019572E+03  0.25065369055E+03 -0.17299318929E+04  0.18953859115E+04  0.50400001928E-02 0. -1.
       -1    1    3    3    0  502  0.73280019572E+03 -0.25065369055E+03  0.16293472272E+04  0.18040498292E+04  0.50400001928E-02 0.  1.
</event>
<event>
 5   0  0.1856107E-08  0.3703270E+04  0.7818609E-02  0.8067238E-01
        2   -1    0    0  501    0  0.00000000000E+00  0.00000000000E+00  0.13788159004E+04  0.13788159004E+04  0.25500000920E-02 0. -1.
       -2   -1    0    0    0  501  0.00000000000E+00  0.00000000000E+00 -0.24865915492E+04  0.24865915492E+04  0.25500000920E-02 0.  1.
    10030    2    1    2    0    0  0.00000000000E+00  0.00000000000E+00 -0.11077756488E+04  0.38654074496E+04  0.37032698880E+04 0.  0.
        2    1    3    3  502    0  0.80791002539E+02 -0.18446218901E+04 -0.69925062017E+03  0.19743628170E+04  0.25500000920E-02 0.  1.
       -2    1    3    3    0  502 -0.80791002539E+02  0.18446218901E+04 -0.40852502859E+03  0.18910446326E+04  0.25500000920E-02 0. -1.
</event>
<event>
 5   0  0.5714125E-09  0.3702016E+04  0.7818609E-02  0.8067515E-01
       -3   -1    0    0    0  501  0.00000000000E+00  0.00000000000E+00  0.18097322837E+04  0.18097322865E+04  0.10100000352E+00 0. -1.
        3   -1    0    0  501    0  0.00000000000E+00  0.00000000000E+00 -0.18932253476E+04  0.18932253503E+04  0.10100000352E+00 0.  1.
    10030    2    1    2    0    0  0.00000000000E+00  0.00000000000E+00 -0.83493063891E+02  0.37029576368E+04  0.37020162301E+04 0.  0.
        4    1    3    3  502    0  0.12268935858E+04  0.12136900247E+04  0.62769048408E+03  0.18363845740E+04  0.12699999809E+01 0. -1.
       -4    1    3    3    0  502 -0.12268935858E+04 -0.12136900247E+04 -0.71118354798E+03  0.18665730628E+04  0.12699999809E+01 0.  1.
</event>
<event>
 5   0  0.5714125E-09  0.3699919E+04  0.7818609E-02  0.8067980E-01
       -1   -1    0    0    0  501  0.00000000000E+00  0.00000000000E+00  0.18765265564E+04  0.18765265564E+04  0.50400001928E-02 0. -1.
        1   -1    0    0  501    0  0.00000000000E+00  0.00000000000E+00 -0.18237682035E+04  0.18237682035E+04  0.50400001928E-02 0.  1.
    10030    2    1    2    0    0  0.00000000000E+00  0.00000000000E+00  0.52758352931E+02  0.37002947599E+04  0.36999186296E+04 0.  0.
        1    1    3    3  502    0  0.95571783744E+03 -0.66446363366E+03  0.14643852024E+04  0.18706502951E+04  0.50400001928E-02 0. -1.
       -1    1    3    3    0  502 -0.95571783744E+03  0.66446363366E+03 -0.14116268495E+04  0.18296444648E+04  0.50400001928E-02 0.  1.
</event>
<event>
 5   0  0.5714125E-09  0.3704901E+04  0.7818609E-02  0.8066877E-01
        1   -1    0    0  501    0  0.00000000000E+00  0.00000000000E+00  0.23822482379E+04  0.23822482379E+04  0.50400001928E-02 0.  1.
       -1   -1    0    0    0  501  0.00000000000E+00  0.00000000000E+00 -0.14404765530E+04  0.14404765530E+04  0.50400001928E-02 0. -1.
    10030    2    1    2    0    0  0.00000000000E+00  0.00000000000E+00  0.94177168498E+03  0.38227247909E+04  0.37049009326E+04 0.  0.
        3    1    3    3  502    0  0.66082697669E+03 -0.62564383360E+03  0.21357203630E+04  0.23215132950E+04  0.10100000352E+00 0.  1.
       -3    1    3    3    0  502 -0.66082697669E+03  0.62564383360E+03 -0.11939486780E+04  0.15012114959E+04  0.10100000352E+00 0. -1.
</event>
<event>
 5   0  0.1757996E-08  0.3696185E+04  0.7818609E-02  0.8068808E-01
        2   -1    0    0  501    0  0.00000000000E+00  0.00000000000E+00  0.22900794073E+04  0.22900794073E+04  0.25500000920E-02 0.  1.
       -2   -1    0    0    0  501  0.00000000000E+00  0.00000000000E+00 -0.14914094652E+04  0.14914094652E+04  0.25500000920E-02 0. -1.
    10030    2    1    2    0    0  0.00000000000E+00  0.00000000000E+00  0.79866994209E+03  0.37814888726E+04  0.36961851167E+04 0.  0.
        3    1    3    3  502    0 -0.23457267889E+03  0.17909888974E+04  0.79922733124E+03  0.19752037641E+04  0.10100000352E+00 0.  1.
       -3    1    3    3    0  502  0.23457267889E+03 -0.17909888974E+04 -0.55738915459E+00  0.18062851085E+04  0.10100000352E+00 0. -1.
</event>
<event>
 5   0  0.1825308E-08  0.3697306E+04  0.7818609E-02  0.8068559E-01
       -2   -1    0    0    0  501  0.00000000000E+00  0.00000000000E+00  0.17153905092E+04  0.17153905092E+04  0.25500000920E-02 0. -1.
        2   -1    0    0  501    0  0.00000000000E+00  0.00000000000E+00 -0.19922682285E+04  0.19922682285E+04  0.25500000920E-02 0.  1.
    10030    2    1    2    0    0  0.00000000000E+00  0.00000000000E+00 -0.27687771926E+03  0.37076587377E+04  0.36973060522E+04 0.  0.
        4    1    3    3  502    0  0.34633577725E+03 -0.12411316859E+04 -0.14677297067E+04  0.19530971397E+04  0.12699999809E+01 0.  1.
       -4    1    3    3    0  502 -0.34633577725E+03  0.12411316859E+04  0.11908519874E+04  0.17545615980E+04  0.12699999809E+01 0. -1.
</event>
<event>
 5   0  0.5714125E-09  0.3700848E+04  0.7818609E-02  0.8067774E-01
        1   -1    0    0  501    0  0.00000000000E+00  0.00000000000E+00  0.19585842969E+04  0.19585842969E+04  0.50400001928E-02 0. -1.
       -1   -1    0    0    0  501  0.00000000000E+00  0.00000000000E+00 -0.17482363121E+04  0.17482363121E+04  0.50400001928E-02 0.  1.
    10030    2    1    2    0    0  0.00000000000E+00  0.00000000000E+00  0.21034798481E+03  0.37068206090E+04  0.37008475722E+04 0.  0.
        1    1    3    3  502    0  0.52472900383E+03  0.11849416790E+02 -0.16721157617E+04  0.17525558641E+04  0.50400001928E-02 0.  1.
       -1    1    3    3    0  502 -0.52472900383E+03 -0.11849416790E+02  0.18824637465E+04  0.19542647449E+04  0.50400001928E-02 0. -1.
</event>
<event>
 5   0  0.5714125E-09  0.3698731E+04  0.7818609E-02  0.8068243E-01
       -1   -1    0    0    0  501  0.00000000000E+00  0.00000000000E+00  0.26406328226E+04  0.26406328226E+04  0.50400001928E-02 0.  1.
        1   -1    0    0  501    0  0.00000000000E+00  0.00000000000E+00 -0.12952017440E+04  0.12952017441E+04  0.50400001928E-02 0. -1.
    10030    2    1    2    0    0  0.00000000000E+00  0.00000000000E+00  0.13454310786E+04  0.39358345667E+04  0.36987307213E+04 0.  0.
        5    1    3    3  502    0  0.23547516560E+03 -0.11287500379E+04 -0.86586454953E+03  0.14419669586E+04  0.46999998093E+01 0. -1.
       -5    1    3    3    0  502 -0.23547516560E+03  0.11287500379E+04  0.22112956281E+04  0.24938676080E+04  0.46999998093E+01 0.  1.
</event>
<event>
 5   0  0.1757996E-08  0.3700500E+04  0.7818609E-02  0.8067851E-01
       -2   -1    0    0    0  501  0.00000000000E+00  0.00000000000E+00  0.22900543309E+04  0.22900543309E+04  0.25500000920E-02 0.  1.
        2   -1    0    0  501    0  0.00000000000E+00  0.00000000000E+00 -0.14949103409E+04  0.14949103409E+04  0.25500000920E-02 0. -1.
    10030    2    1    2    0    0  0.00000000000E+00  0.00000000000E+00  0.79514399006E+03  0.37849646718E+04  0.37005004529E+04 0.  0.
        3    1    3    3  502    0 -0.16819378037E+03 -0.50715120661E+03  0.22094264091E+04  0.22731160467E+04  0.10100000352E+00 0.  1.
       -3    1    3    3    0  502  0.16819378037E+03  0.50715120661E+03 -0.14142824191E+04  0.15118486251E+04  0.10100000352E+00 0. -1.
</event>
<event>
 5   0  0.5714125E-09  0.3699711E+04  0.7818609E-02  0.8068026E-01
       -1   -1    0    0    0  501  0.00000000000E+00  0.00000000000E+00  0.16626260985E+04  0.16626260985E+04  0.50400001928E-02 0. -1.
        1   -1    0    0  501    0  0.00000000000E+00  0.00000000000E+00 -0.20581690442E+04  0.20581690442E+04  0.50400001928E-02 0.  1.
    10030    2    1    2    0    0  0.00000000000E+00  0.00000000000E+00 -0.39554294573E+03  0.37207951427E+04  0.36997111066E+04 0.  0.
        4    1    3    3  502    0  0.72066250649E+02  0.61199246926E+03 -0.19519119508E+04  0.20468732749E+04  0.12699999809E+01 0.  1.
       -4    1    3    3    0  502 -0.72066250649E+02 -0.61199246926E+03  0.15563690050E+04  0.16739218679E+04  0.12699999809E+01 0. -1.
</event>
<event>
 5   0  0.1757996E-08  0.3704886E+04  0.7818609E-02  0.8066880E-01
       -2   -1    0    0    0  501  0.00000000000E+00  0.00000000000E+00  0.19081535044E+04  0.19081535044E+04  0.25500000920E-02 0.  1.
        2   -1    0    0  501    0  0.00000000000E+00  0.00000000000E+00 -0.17983588512E+04  0.17983588512E+04  0.25500000920E-02 0. -1.
    10030    2    1    2    0    0  0.00000000000E+00  0.00000000000E+00  0.10979465315E+03  0.37065123556E+04  0.37048858250E+04 0.  0.
        3    1    3    3  502    0  0.65378049562E+03  0.35607021564E+02  0.17885308391E+04  0.19046100307E+04  0.10100000352E+00 0.  1.
       -3    1    3    3    0  502 -0.65378049562E+03 -0.35607021564E+02 -0.16787361859E+04  0.18019023249E+04  0.10100000352E+00 0. -1.
</event>
<event>
 5   0  0.5714125E-09  0.3700525E+04  0.7818609E-02  0.8067845E-01
        3   -1    0    0  501    0  0.00000000000E+00  0.00000000000E+00  0.13739991673E+04  0.13739991710E+04  0.10100000352E+00 0.  1.
       -3   -1    0    0    0  501  0.00000000000E+00  0.00000000000E+00 -0.24916111600E+04  0.24916111621E+04  0.10100000352E+00 0. -1.
    10030    2    1    2    0    0  0.00000000000E+00  0.00000000000E+00 -0.11176119927E+04  0.38656103331E+04  0.37005251898E+04 0.  0.
        2    1    3    3  502    0  0.14360893151E+03 -0.93743969841E+03 -0.22184086172E+04  0.24126237805E+04  0.25500000920E-02 0. -1.
       -2    1    3    3    0  502 -0.14360893151E+03  0.93743969841E+03  0.11007966245E+04  0.14529865525E+04  0.25500000920E-02 0.  1.
</event>
<event>
 5   0  0.5714125E-09  0.3697202E+04  0.7818609E-02  0.8068582E-01
        1   -1    0    0  501    0  0.00000000000E+00  0.00000000000E+00  0.18697542936E+04  0.18697542936E+04  0.50400001928E-02 0. -1.
       -1   -1    0    0    0  501  0.00000000000E+00  0.00000000000E+00 -0.18276873993E+04  0.18276873993E+04  0.50400001928E-02 0.  1.
    10030    2    1    2    0    0  0.00000000000E+00  0.00000000000E+00  0.42066894382E+02  0.36974416929E+04  0.36972023814E+04 0.  0.
        2    1    3    3  502    0 -0.15677757873E+04 -0.79179808841E+03  0.59766527977E+03  0.18552813584E+04  0.25500000920E-02 0.  1.
       -2    1    3    3    0  502  0.15677757873E+04  0.79179808841E+03 -0.55559838539E+03  0.18421603345E+04  0.25500000920E-02 0. -1.
</event>
<event>
 5   0  0.1740290E-08  0.3708403E+04  0.7818609E-02  0.8066102E-01
       -2   -1    0    0    0  501  0.00000000000E+00  0.00000000000E+00  0.12151329641E+04  0.12151329641E+04  0.25500000920E-02 0. -1.
        2   -1    0    0  501    0  0.00000000000E+00  0.00000000000E+00 -0.28293716248E+04  0.28293716248E+04  0.25500000920E-02 0.  1.
    10030    2    1    2    0    0  0.00000000000E+00  0.00000000000E+00 -0.16142386607E+04  0.40445045889E+04  0.37084027445E+04 0.  0.
        5    1    3    3  502    0 -0.53219247642E+03  0.12417549923E+04  0.57796521145E+03  0.14694387256E+04  0.46999998093E+01 0. -1.
       -5    1    3    3    0  502  0.53219247642E+03 -0.12417549923E+04 -0.21922038722E+04  0.25750658632E+04  0.46999998093E+01 0.  1.
</event>
<event>
 5   0  0.5714125E-09  0.3699869E+04  0.7818609E-02  0.8067991E-01
        1   -1    0    0  501    0  0.00000000000E+00  0.00000000000E+00  0.95029311256E+03  0.95029311257E+03  0.50400001928E-02 0.  1.
       -1   -1    0    0    0  501  0.00000000000E+00  0.00000000000E+00 -0.36012654346E+04  0.36012654346E+04  0.50400001928E-02 0. -1.
    10030    2    1    2    0    0  0.00000000000E+00  0.00000000000E+00 -0.26509723221E+04  0.45515585472E+04  0.36998690458E+04 0.  0.
        1    1    3    3  502    0 -0.18440659937E+01  0.19521827907E+03 -0.35885573119E+04  0.35938638201E+04  0.50400001928E-02 0. -1.
       -1    1    3    3    0  502  0.18440659937E+01 -0.19521827907E+03  0.93758498982E+03  0.95769472705E+03  0.50400001928E-02 0.  1.
</event>
<event>
 5   0  0.5714125E-09  0.3701266E+04  0.7818609E-02  0.8067681E-01
        1   -1    0    0  501    0  0.00000000000E+00  0.00000000000E+00  0.14325281857E+04  0.14325281857E+04  0.50400001928E-02 0.  1.
       -1   -1    0    0    0  501  0.00000000000E+00  0.00000000000E+00 -0.23907678430E+04  0.23907678430E+04  0.50400001928E-02 0. -1.
    10030    2    1    2    0    0  0.00000000000E+00  0.00000000000E+00 -0.95823965729E+03  0.38232960287E+04  0.37012659027E+04 0.  0.
        1    1    3    3  502    0 -0.88326380011E+02 -0.13496151550E+04  0.82568901365E+03  0.15846213943E+04  0.50400001928E-02 0.  1.
       -1    1    3    3    0  502  0.88326380011E+02  0.13496151550E+04 -0.17839286709E+04  0.22386746345E+04  0.50400001928E-02 0. -1.
</event>
<event>
 5   0  0.1757996E-08  0.3701047E+04  0.7818609E-02  0.8067730E-01
       -2   -1    0    0    0  501  0.00000000000E+00  0.00000000000E+00  0.13798928103E+04  0.13798928103E+04  0.25500000920E-02 0.  1.
        2   -1    0    0  501    0  0.00000000000E+00  0.00000000000E+00 -0.24816694799E+04  0.24816694799E+04  0.25500000920E-02 0. -1.
    10030    2    1    2    0    0  0.00000000000E+00  0.00000000000E+00 -0.11017766696E+04  0.38615622902E+04  0.37010473506E+04 0.  0.
        3    1    3    3  502    0 -0.27776090121E+03 -0.13918767887E+04  0.68803001342E+03  0.15772943361E+04  0.10100000352E+00 0.  1.
       -3    1    3    3    0  502  0.27776090121E+03  0.13918767887E+04 -0.17898066831E+04  0.22842679541E+04  0.10100000352E+00 0. -1.
</event>
<event>
 5   0  0.5714125E-09  0.3699072E+04  0.7818609E-02  0.8068168E-01
        1   -1    0    0  501    0  0.00000000000E+00  0.00000000000E+00  0.28900580538E+04  0.28900580538E+04  0.50400001928E-02 0. -1.
       -1   -1    0    0    0  501  0.00000000000E+00  0.00000000000E+00 -0.11836383216E+04  0.11836383216E+04  0.50400001928E-02 0.  1.
    10030    2    1    2    0    0  0.00000000000E+00  0.00000000000E+00  0.17064197322E+04  0.40736963754E+04  0.36990720264E+04 0.  0.
        4    1    3    3  502    0  0.92718042228E+03  0.78671029103E+03 -0.68156058422E+03  0.13939523164E+04  0.12699999809E+01 0.  1.
       -4    1    3    3    0  502 -0.92718042228E+03 -0.78671029103E+03  0.23879803164E+04  0.26797440590E+04  0.12699999809E+01 0. -1.
</event>
<event>
 5   0  0.5714125E-09  0.3699520E+04  0.7818609E-02  0.8068068E-01
       -1   -1    0    0    0  501  0.00000000000E+00  0.00000000000E+00  0.15752007587E+04  0.15752007587E+04  0.50400001928E-02 0.  1.
        1   -1    0    0  501    0  0.00000000000E+00  0.00000000000E+00 -0.21721753404E+04  0.21721753404E+04  0.50400001928E-02 0. -1.
    10030    2    1    2    0    0  0.00000000000E+00  0.00000000000E+00 -0.59697458168E+03  0.37473760991E+04  0.36995201009E+04 0.  0.
        1    1    3    3  502    0 -0.43459819859E+02 -0.17701108796E+04 -0.84060285009E+03  0.19600495998E+04  0.50400001928E-02 0. -1.
       -1    1    3    3    0  502  0.43459819859E+02  0.17701108796E+04  0.24362826841E+03  0.17873264993E+04  0.50400001928E-02 0.  1.
</event>
<event>
 5   0  0.1740290E-08  0.3699617E+04  0.7818609E-02  0.8068047E-01
       -2   -1    0    0    0  501  0.00000000000E+00  0.00000000000E+00  0.17938269381E+04  0.17938269381E+04  0.25500000920E-02 0.  1.
        2   -1    0    0  501    0  0.00000000000E+00  0.00000000000E+00 -0.19075369636E+04  0.19075369636E+04  0.25500000920E-02 0. -1.
    10030    2    1    2    0    0  0.00000000000E+00  0.00000000000E+00 -0.11371002557E+03  0.37013639017E+04  0.36996168400E+04 0.  0.
        5    1    3    3  502    0  0.65286781510E+02  0.11210854569E+03  0.17892638845E+04  0.17939671201E+04  0.46999998093E+01 0.  1.
       -5    1    3    3    0  502 -0.65286781510E+02 -0.11210854569E+03 -0.19029739100E+04  0.19073967815E+04  0.46999998093E+01 0. -1.
</event>
<event>
 5   0  0.5714125E-09  0.3693898E+04  0.7818609E-02  0.8069315E-01
        1   -1    0    0  501    0  0.00000000000E+00  0.00000000000E+00  0.20885424882E+04  0.20885424882E+04  0.50400001928E-02 0.  1.
       -1   -1    0    0    0  501  0.00000000000E+00  0.00000000000E+00 -0.16333017847E+04  0.16333017847E+04  0.50400001928E-02 0. -1.
    10030    2    1    2    0    0  0.00000000000E+00  0.00000000000E+00  0.45524070353E+03  0.37218442729E+04  0.36938977644E+04 0.  0.
        5    1    3    3  502    0 -0.11078143037E+04 -0.89959741300E+03  0.14089539644E+04  0.20054180115E+04  0.46999998093E+01 0.  1.
       -5    1    3    3    0  502  0.11078143037E+04  0.89959741300E+03 -0.95371326083E+03  0.17164262614E+04  0.46999998093E+01 0. -1.
</event>
<event>
 5   0  0.1757996E-08  0.3698437E+04  0.7818609E-02  0.8068308E-01
        2   -1    0    0  501    0  0.00000000000E+00  0.00000000000E+00  0.24059566927E+04  0.24059566927E+04  0.25500000920E-02 0. -1.
       -2   -1    0    0    0  501  0.00000000000E+00  0.00000000000E+00 -0.14213092602E+04  0.14213092602E+04  0.25500000920E-02 0.  1.
    10030    2    1    2    0    0  0.00000000000E+00  0.00000000000E+00  0.98464743254E+03  0.38272659529E+04  0.36984367114E+04 0.  0.
        3    1    3    3  502    0 -0.63811192911E+03  0.10728932944E+04 -0.91950225407E+03  0.15504100299E+04  0.10100000352E+00 0.  1.
       -3    1    3    3    0  502  0.63811192911E+03 -0.10728932944E+04  0.19041496866E+04  0.22768559231E+04  0.10100000352E+00 0. -1.
</event>
<event>
 5   0  0.5714125E-09  0.3699641E+04  0.7818609E-02  0.8068041E-01
        1   -1    0    0  501    0  0.00000000000E+00  0.00000000000E+00  0.11162338202E+04  0.11162338202E+04  0.50400001928E-02 0. -1.
       -1   -1    0    0    0  501  0.00000000000E+00  0.00000000000E+00 -0.30655193399E+04  0.30655193399E+04  0.50400001928E-02 0.  1.
    10030    2    1    2    0    0  0.00000000000E+00  0.00000000000E+00 -0.19492855197E+04  0.41817531601E+04  0.36996412603E+04 0.  0.
        2    1    3    3  502    0  0.20401290561E+03  0.15963114760E+04 -0.20056499345E+04  0.25714710292E+04  0.25500000920E-02 0.  1.
       -2    1    3    3    0  502 -0.20401290561E+03 -0.15963114760E+04  0.56364414742E+02  0.16102821310E+04  0.25500000920E-02 0. -1.
</event>
<event>
 5   0  0.5714125E-09  0.3699499E+04  0.7818609E-02  0.8068073E-01
        1   -1    0    0  501    0  0.00000000000E+00  0.00000000000E+00  0.13657839103E+04  0.13657839103E+04  0.50400001928E-02 0. -1.
       -1   -1    0    0    0  501  0.00000000000E+00  0.00000000000E+00 -0.25052087430E+04  0.25052087430E+04  0.50400001928E-02 0.  1.
    10030    2    1    2    0    0  0.00000000000E+00  0.00000000000E+00 -0.11394248327E+04  0.38709926532E+04  0.36994993137E+04 0.  0.
        4    1    3    3  502    0  0.64598763318E+03  0.42699378311E+03  0.11880247482E+04  0.14181072344E+04  0.12699999809E+01 0. -1.
       -4    1    3    3    0  502 -0.64598763318E+03 -0.42699378311E+03 -0.23274495810E+04  0.24528854188E+04  0.12699999809E+01 0.  1.
</event>
<event>
 5   0  0.5714125E-09  0.3699818E+04  0.7818609E-02  0.8068002E-01
       -1   -1    0    0    0  501  0.00000000000E+00  0.00000000000E+00  0.25792554545E+04  0.25792554546E+04  0.50400001928E-02 0. -1.
        1   -1    0    0  501    0  0.00000000000E+00  0.00000000000E+00 -0.13268030490E+04  0.13268030490E+04  0.50400001928E-02 0.  1.
    10030    2    1    2    0    0  0.00000000000E+00  0.00000000000E+00  0.12524524056E+04  0.39060585036E+04  0.36998183746E+04 0.  0.
        1    1    3    3  502    0  0.13689820854E+04 -0.11534334441E+04  0.13369808270E+03  0.17951032944E+04  0.50400001928E-02 0. -1.
       -1    1    3    3    0  502 -0.13689820854E+04  0.11534334441E+04  0.11187543229E+04  0.21109552092E+04  0.50400001928E-02 0.  1.
</event>
<event>
 5   0  0.5714125E-09  0.3687578E+04  0.7818609E-02  0.8070720E-01
        1   -1    0    0  501    0  0.00000000000E+00  0.00000000000E+00  0.22601853070E+04  0.22601853070E+04  0.50400001928E-02 0. -1.
       -1   -1    0    0    0  501  0.00000000000E+00  0.00000000000E+00 -0.15041056215E+04  0.15041056215E+04  0.50400001928E-02 0.  1.
    10030    2    1    2    0    0  0.00000000000E+00  0.00000000000E+00  0.75607968548E+03  0.37642909285E+04  0.36875777556E+04 0.  0.
        4    1    3    3  502    0 -0.18217878585E+04  0.30287714661E+02  0.89805334304E+02  0.18242518900E+04  0.12699999809E+01 0. -1.
       -4    1    3    3    0  502  0.18217878585E+04 -0.30287714661E+02  0.66627435117E+03  0.19400390385E+04  0.12699999809E+01 0.  1.
</event>
<event>
 5   0  0.1856107E-08  0.3700324E+04  0.7818609E-02  0.8067890E-01
        2   -1    0    0  501    0  0.00000000000E+00  0.00000000000E+00  0.22158128480E+04  0.22158128480E+04  0.25500000920E-02 0.  1.
       -2   -1    0    0    0  501  0.00000000000E+00  0.00000000000E+00 -0.15448501866E+04  0.15448501866E+04  0.25500000920E-02 0. -1.
    10030    2    1    2    0    0  0.00000000000E+00  0.00000000000E+00  0.67096266140E+03  0.37606630346E+04  0.37003237111E+04 0.  0.
        2    1    3    3  502    0 -0.10014663558E+02 -0.10365518793E+04  0.18929718853E+04  0.21582128372E+04  0.25500000920E-02 0.  1.
       -2    1    3    3    0  502  0.10014663558E+02  0.10365518793E+04 -0.12220092239E+04  0.16024501975E+04  0.25500000920E-02 0. -1.
</event>
<event>
 5   0  0.1725865E-08  0.3699887E+04  0.7818609E-02  0.8067987E-01
        2   -1    0    0  501    0  0.00000000000E+00  0.00000000000E+00  0.32432499705E+04  0.32432499705E+04  0.25500000920E-02 0.  1.
       -2   -1    0    0    0  501  0.00000000000E+00  0.00000000000E+00 -0.10552043851E+04  0.10552043851E+04  0.25500000920E-02 0. -1.
    10030    2    1    2    0    0  0.00000000000E+00  0.00000000000E+00  0.21880455854E+04  0.42984543557E+04  0.36998873447E+04 0.  0.
        1    1    3    3  502    0  0.11167419009E+04  0.12390734202E+04  0.16468887164E+03  0.16761676045E+04  0.50400001928E-02 0. -1.
       -1    1    3    3    0  502 -0.11167419009E+04 -0.12390734202E+04  0.20233567138E+04  0.26222867511E+04  0.50400001928E-02 0.  1.
</event>
<event>
 5   0  0.1757996E-08  0.3695740E+04  0.7818609E-02  0.8068906E-01
        2   -1    0    0  501    0  0.00000000000E+00  0.00000000000E+00  0.21618409154E+04  0.21618409154E+04  0.25500000920E-02 0.  1.
       -2   -1    0    0    0  501  0.00000000000E+00  0.00000000000E+00 -0.15794984811E+04  0.15794984811E+04  0.25500000920E-02 0. -1.
    10030    2    1    2    0    0  0.00000000000E+00  0.00000000000E+00  0.58234243428E+03  0.37413393966E+04  0.36957404900E+04 0.  0.
        3    1    3    3  502    0  0.14814974472E+04  0.69125630785E+02  0.14070469018E+04  0.20443566306E+04  0.10100000352E+00 0.  1.
       -3    1    3    3    0  502 -0.14814974472E+04 -0.69125630785E+02 -0.82470446754E+03  0.16969827660E+04  0.10100000352E+00 0. -1.
</event>
<event>
 5   0  0.1725865E-08  0.3700485E+04  0.7818609E-02  0.8067854E-01
       -2   -1    0    0    0  501  0.00000000000E+00  0.00000000000E+00  0.13603219336E+04  0.13603219336E+04  0.25500000920E-02 0. -1.
        2   -1    0    0  501    0  0.00000000000E+00  0.00000000000E+00 -0.25166081717E+04  0.25166081717E+04  0.25500000920E-02 0.  1.
    10030    2    1    2    0    0  0.00000000000E+00  0.00000000000E+00 -0.11562862382E+04  0.38769301053E+04  0.37004849921E+04 0.  0.
        1    1    3    3  502    0 -0.61280453801E+03 -0.14626037506E+04 -0.15768305637E+04  0.22363214795E+04  0.50400001928E-02 0.  1.
       -1    1    3    3    0  502  0.61280453801E+03  0.14626037506E+04  0.42054432555E+03  0.16406086257E+04  0.50400001928E-02 0. -1.
</event>
<event>
 5   0  0.1825308E-08  0.3696791E+04  0.7818609E-02  0.8068673E-01
       -2   -1    0    0    0  501  0.00000000000E+00  0.00000000000E+00  0.13703881295E+04  0.13703881295E+04  0.25500000920E-02 0. -1.
        2   -1    0    0  501    0  0.00000000000E+00  0.00000000000E+00 -0.24931368613E+04  0.24931368613E+04  0.25500000920E-02 0.  1.
    10030    2    1    2    0    0  0.00000000000E+00  0.00000000000E+00 -0.11227487318E+04  0.38635249907E+04  0.36967905863E+04 0.  0.
        4    1    3    3  502    0  0.25714438994E+03 -0.18236268942E+04 -0.72604106633E+03  0.19796149952E+04  0.12699999809E+01 0.  1.
       -4    1    3    3    0  502 -0.25714438994E+03  0.18236268942E+04 -0.39670766548E+03  0.18839099955E+04  0.12699999809E+01 0. -1.
</event>
<event>
 5   0  0.5714125E-09  0.3699132E+04  0.7818609E-02  0.8068154E-01
       -1   -1    0    0    0  501  0.00000000000E+00  0.00000000000E+00  0.13589276052E+04  0.13589276052E+04  0.50400001928E-02 0.  1.
        1   -1    0    0  501    0  0.00000000000E+00  0.00000000000E+00 -0.25173489987E+04  0.25173489987E+04  0.50400001928E-02 0. -1.
    10030    2    1    2    0    0  0.00000000000E+00  0.00000000000E+00 -0.11584213935E+04  0.38762766039E+04  0.36991323557E+04 0.  0.
        3    1    3    3  502    0 -0.76182315843E+02 -0.97465747074E+03 -0.22244730652E+04  0.24298233183E+04  0.10100000352E+00 0. -1.
       -3    1    3    3    0  502  0.76182315843E+02  0.97465747074E+03  0.10660516716E+04  0.14464532856E+04  0.10100000352E+00 0.  1.
</event>
<event>
 5   0  0.5714125E-09  0.3700710E+04  0.7818609E-02  0.8067805E-01
       -1   -1    0    0    0  501  0.00000000000E+00  0.00000000000E+00  0.20152972285E+04  0.20152972285E+04  0.50400001928E-02 0. -1.
        1   -1    0    0  501    0  0.00000000000E+00  0.00000000000E+00 -0.16989121832E+04  0.16989121832E+04  0.50400001928E-02 0.  1.
    10030    2    1    2    0    0  0.00000000000E+00  0.00000000000E+00  0.31638504524E+03  0.37142094117E+04  0.37007096694E+04 0.  0.
        1    1    3    3  502    0  0.17579967813E+04  0.44138385594E+02 -0.41950438430E+03  0.18078951321E+04  0.50400001928E-02 0.  1.
       -1    1    3    3    0  502 -0.17579967813E+04 -0.44138385594E+02  0.73588942953E+03  0.19063142796E+04  0.50400001928E-02 0. -1.
</event>
<event>
 5   0  0.5714125E-09  0.3700012E+04  0.7818609E-02  0.8067959E-01
        3   -1    0    0  501    0  0.00000000000E+00  0.00000000000E+00  0.12523302261E+04  0.12523302302E+04  0.10100000352E+00 0. -1.
       -3   -1    0    0    0  501  0.00000000000E+00  0.00000000000E+00 -0.27329230557E+04  0.27329230575E+04  0.10100000352E+00 0.  1.
    10030    2    1    2    0    0  0.00000000000E+00  0.00000000000E+00 -0.14805928295E+04  0.39852532877E+04  0.37000119784E+04 0.  0.
        4    1    3    3  502    0  0.75072030079E+03  0.84459496211E+03 -0.23180060229E+04  0.25787739635E+04  0.12699999809E+01 0.  1.
       -4    1    3    3    0  502 -0.75072030079E+03 -0.84459496211E+03  0.83741319336E+03  0.14064793242E+04  0.12699999809E+01 0. -1.
</event>
<event>
 5   0  0.5714125E-09  0.3700815E+04  0.7818609E-02  0.8067781E-01
        1   -1    0    0  501    0  0.00000000000E+00  0.00000000000E+00  0.18546369464E+04  0.18546369464E+04  0.50400001928E-02 0.  1.
       -1   -1    0    0    0  501  0.00000000000E+00  0.00000000000E+00 -0.18461876321E+04  0.18461876321E+04  0.50400001928E-02 0. -1.
    10030    2    1    2    0    0  0.00000000000E+00  0.00000000000E+00  0.84493143253E+01  0.37008245785E+04  0.37008149333E+04 0.  0.
        1    1    3    3  502    0  0.11258429108E+04  0.78096204249E+03  0.12478451308E+04  0.18532515863E+04  0.50400001928E-02 0.  1.
       -1    1    3    3    0  502 -0.11258429108E+04 -0.78096204249E+03 -0.12393958165E+04  0.18475729922E+04  0.50400001928E-02 0. -1.
</event>
<event>
 5   0  0.5714125E-09  0.3698055E+04  0.7818609E-02  0.8068393E-01
        1   -1    0    0  501    0  0.00000000000E+00  0.00000000000E+00  0.15682675421E+04  0.15682675421E+04  0.50400001928E-02 0.  1.
       -1   -1    0    0    0  501  0.00000000000E+00  0.00000000000E+00 -0.21800510849E+04  0.21800510849E+04  0.50400001928E-02 0. -1.
    10030    2    1    2    0    0  0.00000000000E+00  0.00000000000E+00 -0.61178354278E+03  0.37483186271E+04  0.36980553574E+04 0.  0.
        4    1    3    3  502    0 -0.70245572327E+03 -0.16903986189E+04 -0.41559522667E+02  0.18310162044E+04  0.12699999809E+01 0.  1.
       -4    1    3    3    0  502  0.70245572327E+03  0.16903986189E+04 -0.57022402011E+03  0.19173024227E+04  0.12699999809E+01 0. -1.
</event>
<event>
 5   0  0.5714125E-09  0.3701530E+04  0.7818609E-02  0.8067623E-01
        1   -1    0    0  501    0  0.00000000000E+00  0.00000000000E+00  0.28896503133E+04  0.28896503133E+04  0.50400001928E-02 0.  1.
       -1   -1    0    0    0  501  0.00000000000E+00  0.00000000000E+00 -0.11853792561E+04  0.11853792561E+04  0.50400001928E-02 0. -1.
    10030    2    1    2    0    0  0.00000000000E+00  0.00000000000E+00  0.17042710573E+04  0.40750295694E+04  0.37015302450E+04 0.  0.
        3    1    3    3  502    0 -0.10591309162E+04  0.43654200329E+03  0.24524290741E+04  0.27067943387E+04  0.10100000352E+00 0.  1.
       -3    1    3    3    0  502  0.10591309162E+04 -0.43654200329E+03 -0.74815801680E+03  0.13682352307E+04  0.10100000352E+00 0. -1.
</event>
<event>
 5   0  0.1825308E-08  0.3700457E+04  0.7818609E-02  0.8067861E-01
        2   -1    0    0  501    0  0.00000000000E+00  0.00000000000E+00  0.12247454304E+04  0.12247454304E+04  0.25500000920E-02 0. -1.
       -2   -1    0    0    0  501  0.00000000000E+00  0.00000000000E+00 -0.27951486200E+04  0.27951486200E+04  0.25500000920E-02 0.  1.
    10030    2    1    2    0    0  0.00000000000E+00  0.00000000000E+00 -0.15704031896E+04  0.40198940504E+04  0.37004569986E+04 0.  0.
        4    1    3    3  502    0 -0.66969281516E+03 -0.85373127728E+02 -0.26565708944E+04  0.27410121429E+04  0.12699999809E+01 0.  1.
       -4    1    3    3    0  502  0.66969281516E+03  0.85373127728E+02  0.10861677047E+04  0.12788819075E+04  0.12699999809E+01 0. -1.
</event>
<event>
 5   0  0.5714125E-09  0.3724840E+04  0.7818609E-02  0.8062479E-01
       -1   -1    0    0    0  501  0.00000000000E+00  0.00000000000E+00  0.13433161814E+04  0.13433161814E+04  0.50400001928E-02 0. -1.
        1   -1    0    0  501    0  0.00000000000E+00  0.00000000000E+00 -0.25821241539E+04  0.25821241539E+04  0.50400001928E-02 0.  1.
    10030    2    1    2    0    0  0.00000000000E+00  0.00000000000E+00 -0.12388079725E+04  0.39254403353E+04  0.37248404843E+04 0.  0.
        2    1    3    3  502    0 -0.32797528284E+03  0.30860981368E+03  0.12850723653E+04  0.13616970248E+04  0.25500000920E-02 0. -1.
       -2    1    3    3    0  502  0.32797528284E+03 -0.30860981368E+03 -0.25238803377E+04  0.25637433106E+04  0.25500000920E-02 0.  1.
</event>
<event>
 5   0  0.5714125E-09  0.3702459E+04  0.7818609E-02  0.8067417E-01
        1   -1    0    0  501    0  0.00000000000E+00  0.00000000000E+00  0.17287078782E+04  0.17287078782E+04  0.50400001928E-02 0. -1.
       -1   -1    0    0    0  501  0.00000000000E+00  0.00000000000E+00 -0.19824344369E+04  0.19824344369E+04  0.50400001928E-02 0.  1.
    10030    2    1    2    0    0  0.00000000000E+00  0.00000000000E+00 -0.25372655865E+03  0.37111423151E+04  0.37024586583E+04 0.  0.
        3    1    3    3  502    0 -0.10443680553E+04 -0.64161975290E+03  0.12637150932E+04  0.17604989035E+04  0.10100000352E+00 0. -1.
       -3    1    3    3    0  502  0.10443680553E+04  0.64161975290E+03 -0.15174416519E+04  0.19506434116E+04  0.10100000352E+00 0.  1.
</event>
<event>
 5   0  0.1740290E-08  0.3694229E+04  0.7818609E-02  0.8069242E-01
        2   -1    0    0  501    0  0.00000000000E+00  0.00000000000E+00  0.21286602737E+04  0.21286602737E+04  0.25500000920E-02 0.  1.
       -2   -1    0    0    0  501  0.00000000000E+00  0.00000000000E+00 -0.16028068334E+04  0.16028068334E+04  0.25500000920E-02 0. -1.
    10030    2    1    2    0    0  0.00000000000E+00  0.00000000000E+00  0.52585344029E+03  0.37314671071E+04  0.36942285975E+04 0.  0.
        5    1    3    3  502    0 -0.21617432852E+03 -0.78431318413E+03 -0.14120806453E+04  0.16296847394E+04  0.46999998093E+01 0. -1.
       -5    1    3    3    0  502  0.21617432852E+03  0.78431318413E+03  0.19379340856E+04  0.21017823677E+04  0.46999998093E+01 0.  1.
</event>
<event>
 5   0  0.5714125E-09  0.3699542E+04  0.7818609E-02  0.8068063E-01
       -1   -1    0    0    0  501  0.00000000000E+00  0.00000000000E+00  0.29785223617E+04  0.29785223617E+04  0.50400001928E-02 0.  1.
        1   -1    0    0  501    0  0.00000000000E+00  0.00000000000E+00 -0.11487751153E+04  0.11487751153E+04  0.50400001928E-02 0. -1.
    10030    2    1    2    0    0  0.00000000000E+00  0.00000000000E+00  0.18297472463E+04  0.41272974770E+04  0.36995417930E+04 0.  0.
        2    1    3    3  502    0 -0.73541708055E+02  0.34186326259E+03  0.29413128087E+04  0.29620263186E+04  0.25500000920E-02 0.  1.
       -2    1    3    3    0  502  0.73541708055E+02 -0.34186326259E+03 -0.11115655624E+04  0.11652711584E+04  0.25500000920E-02 0. -1.
</event>
<event>
 5   0  0.5714125E-09  0.3703453E+04  0.7818609E-02  0.8067197E-01
        1   -1    0    0  501    0  0.00000000000E+00  0.00000000000E+00  0.23648799507E+04  0.23648799507E+04  0.50400001928E-02 0.  1.
       -1   -1    0    0    0  501  0.00000000000E+00  0.00000000000E+00 -0.14499219052E+04  0.14499219052E+04  0.50400001928E-02 0. -1.
    10030    2    1    2    0    0  0.00000000000E+00  0.00000000000E+00  0.91495804550E+03  0.38148018559E+04  0.37034531150E+04 0.  0.
        5    1    3    3  502    0 -0.68140931059E+03  0.64528435535E+03 -0.11868107764E+04  0.15130275797E+04  0.46999998093E+01 0. -1.
       -5    1    3    3    0  502  0.68140931059E+03 -0.64528435535E+03  0.21017688219E+04  0.23017742762E+04  0.46999998093E+01 0.  1.
</event>
<event>
 5   0  0.5714125E-09  0.3700784E+04  0.7818609E-02  0.8067788E-01
        1   -1    0    0  501    0  0.00000000000E+00  0.00000000000E+00  0.16489171621E+04  0.16489171621E+04  0.50400001928E-02 0.  1.
       -1   -1    0    0    0  501  0.00000000000E+00  0.00000000000E+00 -0.20764847611E+04  0.20764847611E+04  0.50400001928E-02 0. -1.
    10030    2    1    2    0    0  0.00000000000E+00  0.00000000000E+00 -0.42756759899E+03  0.37254019233E+04  0.37007844355E+04 0.  0.
        5    1    3    3  502    0 -0.16486465597E+04  0.26697544972E+03 -0.10157120337E+04  0.19547389583E+04  0.46999998093E+01 0. -1.
       -5    1    3    3    0  502  0.16486465597E+04 -0.26697544972E+03  0.58814443474E+03  0.17706629650E+04  0.46999998093E+01 0.  1.
</event>
<event>
 5   0  0.1856107E-08  0.3698683E+04  0.7818609E-02  0.8068254E-01
       -2   -1    0    0    0  501  0.00000000000E+00  0.00000000000E+00  0.15884868468E+04  0.15884868468E+04  0.25500000920E-02 0.  1.
        2   -1    0    0  501    0  0.00000000000E+00  0.00000000000E+00 -0.21530330546E+04  0.21530330546E+04  0.25500000920E-02 0. -1.
    10030    2    1    2    0    0  0.00000000000E+00  0.00000000000E+00 -0.56454620778E+03  0.37415199014E+04  0.36986833809E+04 0.  0.
        2    1    3    3  502    0  0.63811532016E+03  0.32950586500E+03  0.14416647150E+04  0.16106403780E+04  0.25500000920E-02 0.  1.
       -2    1    3    3    0  502 -0.63811532016E+03 -0.32950586500E+03 -0.20062109227E+04  0.21308795234E+04  0.25500000920E-02 0. -1.
</event>
<event>
 5   0  0.1856107E-08  0.3700971E+04  0.7818609E-02  0.8067747E-01
       -2   -1    0    0    0  501  0.00000000000E+00  0.00000000000E+00  0.13758060996E+04  0.13758060996E+04  0.25500000920E-02 0. -1.
        2   -1    0    0  501    0  0.00000000000E+00  0.00000000000E+00 -0.24889385423E+04  0.24889385423E+04  0.25500000920E-02 0.  1.
    10030    2    1    2    0    0  0.00000000000E+00  0.00000000000E+00 -0.11131324427E+04  0.38647446419E+04  0.37009711309E+04 0.  0.
        2    1    3    3  502    0  0.11618044657E+04  0.11173686918E+04  0.39249376316E+03  0.16590219300E+04  0.25500000920E-02 0. -1.
       -2    1    3    3    0  502 -0.11618044657E+04 -0.11173686918E+04 -0.15056262059E+04  0.22057227119E+04  0.25500000920E-02 0.  1.
</event>
<event>
 5   0  0.1757996E-08  0.3698926E+04  0.7818609E-02  0.8068200E-01
        2   -1    0    0  501    0  0.00000000000E+00  0.00000000000E+00  0.21911112222E+04  0.21911112222E+04  0.25500000920E-02 0.  1.
       -2   -1    0    0    0  501  0.00000000000E+00  0.00000000000E+00 -0.15610859132E+04  0.15610859132E+04  0.25500000920E-02 0. -1.
    10030    2    1    2    0    0  0.00000000000E+00  0.00000000000E+00  0.63002530905E+03  0.37521971354E+04  0.36989257161E+04 0.  0.
        3    1    3    3  502    0 -0.95608102079E+03 -0.13670733010E+04  0.11249682513E+04  0.20120968926E+04  0.10100000352E+00 0.  1.
       -3    1    3    3    0  502  0.95608102079E+03  0.13670733010E+04 -0.49494294229E+03  0.17401002428E+04  0.10100000352E+00 0. -1.
</event>
<event>
 5   0  0.1825308E-08  0.3699764E+04  0.7818609E-02  0.8068014E-01
       -2   -1    0    0    0  501  0.00000000000E+00  0.00000000000E+00  0.16434782420E+04  0.16434782420E+04  0.25500000920E-02 0.  1.
        2   -1    0    0  501    0  0.00000000000E+00  0.00000000000E+00 -0.20822078008E+04  0.20822078008E+04  0.25500000920E-02 0. -1.
    10030    2    1    2    0    0  0.00000000000E+00  0.00000000000E+00 -0.43872955879E+03  0.37256860428E+04  0.36997638929E+04 0.  0.
        4    1    3    3  502    0  0.13021721652E+04 -0.71073941420E+03  0.89348383037E+03  0.17317961285E+04  0.12699999809E+01 0.  1.
       -4    1    3    3    0  502 -0.13021721652E+04  0.71073941420E+03 -0.13322133892E+04  0.19938899142E+04  0.12699999809E+01 0. -1.
</event>
<event>
 5   0  0.5714125E-09  0.3707766E+04  0.7818609E-02  0.8066243E-01
       -1   -1    0    0    0  501  0.00000000000E+00  0.00000000000E+00  0.19631850143E+04  0.19631850143E+04  0.50400001928E-02 0. -1.
        1   -1    0    0  501    0  0.00000000000E+00  0.00000000000E+00 -0.17506666048E+04  0.17506666048E+04  0.50400001928E-02 0.  1.
    10030    2    1    2    0    0  0.00000000000E+00  0.00000000000E+00  0.21251840951E+03  0.37138516192E+04  0.37077661435E+04 0.  0.
        1    1    3    3  502    0  0.74661672271E+03 -0.43202110447E+03  0.17499289441E+04  0.19509818233E+04  0.50400001928E-02 0. -1.
       -1    1    3    3    0  502 -0.74661672271E+03  0.43202110447E+03 -0.15374105346E+04  0.17628697959E+04  0.50400001928E-02 0.  1.
</event>
<event>
 5   0  0.1825308E-08  0.3696680E+04  0.7818609E-02  0.8068698E-01
        2   -1    0    0  501    0  0.00000000000E+00  0.00000000000E+00  0.24824975763E+04  0.24824975763E+04  0.25500000920E-02 0. -1.
       -2   -1    0    0    0  501  0.00000000000E+00  0.00000000000E+00 -0.13761790363E+04  0.13761790363E+04  0.25500000920E-02 0.  1.
    10030    2    1    2    0    0  0.00000000000E+00  0.00000000000E+00  0.11063185400E+04  0.38586766126E+04  0.36966801983E+04 0.  0.
        4    1    3    3  502    0 -0.29142855988E+03  0.16658907198E+04  0.13316553748E+04  0.21525403936E+04  0.12699999809E+01 0. -1.
       -4    1    3    3    0  502  0.29142855988E+03 -0.16658907198E+04 -0.22533683474E+03  0.17061362190E+04  0.12699999809E+01 0.  1.
</event>
<event>
 5   0  0.5714125E-09  0.3698878E+04  0.7818609E-02  0.8068210E-01
        1   -1    0    0  501    0  0.00000000000E+00  0.00000000000E+00  0.20931448458E+04  0.20931448458E+04  0.50400001928E-02 0. -1.
       -1   -1    0    0    0  501  0.00000000000E+00  0.00000000000E+00 -0.16341081948E+04  0.16341081948E+04  0.50400001928E-02 0.  1.
    10030    2    1    2    0    0  0.00000000000E+00  0.00000000000E+00  0.45903665102E+03  0.37272530406E+04  0.36988782870E+04 0.  0.
        4    1    3    3  502    0  0.15132925313E+03  0.93013698079E+03 -0.13740307704E+04  0.16661385047E+04  0.12699999809E+01 0.  1.
       -4    1    3    3    0  502 -0.15132925313E+03 -0.93013698079E+03  0.18330674214E+04  0.20611145359E+04  0.12699999809E+01 0. -1.
</event>
<event>
 5   0  0.1725865E-08  0.3701550E+04  0.7818609E-02  0.8067619E-01
        2   -1    0    0  501    0  0.00000000000E+00  0.00000000000E+00  0.21479734634E+04  0.21479734634E+04  0.25500000920E-02 0. -1.
       -2   -1    0    0    0  501  0.00000000000E+00  0.00000000000E+00 -0.15946971947E+04  0.15946971947E+04  0.25500000920E-02 0.  1.
    10030    2    1    2    0    0  0.00000000000E+00  0.00000000000E+00  0.55327626875E+03  0.37426706581E+04  0.37015495438E+04 0.  0.
        1    1    3    3  502    0  0.52054655914E+03 -0.11239309681E+04  0.16671164376E+04  0.20768887206E+04  0.50400001928E-02 0. -1.
       -1    1    3    3    0  502 -0.52054655914E+03  0.11239309681E+04 -0.11138401688E+04  0.16657819375E+04  0.50400001928E-02 0.  1.
</event>
<event>
 5   0  0.5714125E-09  0.3700240E+04  0.7818609E-02  0.8067909E-01
       -1   -1    0    0    0  501  0.00000000000E+00  0.00000000000E+00  0.18020579350E+04  0.18020579350E+04  0.50400001928E-02 0. -1.
        1   -1    0    0  501    0  0.00000000000E+00  0.00000000000E+00 -0.18994635958E+04  0.18994635958E+04  0.50400001928E-02 0.  1.
    10030    2    1    2    0    0  0.00000000000E+00  0.00000000000E+00 -0.97405660739E+02  0.37015215308E+04  0.37002396922E+04 0.  0.
        3    1    3    3  502    0  0.85297130468E+03 -0.85414410568E+03 -0.14512660097E+04  0.18876692616E+04  0.10100000352E+00 0.  1.
       -3    1    3    3    0  502 -0.85297130468E+03  0.85414410568E+03  0.13538603490E+04  0.18138522692E+04  0.10100000352E+00 0. -1.
</event>
<event>
 5   0  0.1757996E-08  0.3694954E+04  0.7818609E-02  0.8069081E-01
       -2   -1    0    0    0  501  0.00000000000E+00  0.00000000000E+00  0.18139176025E+04  0.18139176025E+04  0.25500000920E-02 0.  1.
        2   -1    0    0  501    0  0.00000000000E+00  0.00000000000E+00 -0.18816572168E+04  0.18816572168E+04  0.25500000920E-02 0. -1.
    10030    2    1    2    0    0  0.00000000000E+00  0.00000000000E+00 -0.67739614338E+02  0.36955748193E+04  0.36949539361E+04 0.  0.
        3    1    3    3  502    0 -0.17971982269E+04  0.37058612059E+03 -0.24818506494E+03  0.18517157925E+04  0.10100000352E+00 0. -1.
       -3    1    3    3    0  502  0.17971982269E+04 -0.37058612059E+03  0.18044545060E+03  0.18438590267E+04  0.10100000352E+00 0.  1.
</event>
<event>
 5   0  0.5714125E-09  0.3710404E+04  0.7818609E-02  0.8065660E-01
        1   -1    0    0  501    0  0.00000000000E+00  0.00000000000E+00  0.22781441461E+04  0.22781441462E+04  0.50400001928E-02 0. -1.
       -1   -1    0    0    0  501  0.00000000000E+00  0.00000000000E+00 -0.15107802317E+04  0.15107802317E+04  0.50400001928E-02 0.  1.
    10030    2    1    2    0    0  0.00000000000E+00  0.00000000000E+00  0.76736391448E+03  0.37889243778E+04  0.37104043666E+04 0.  0.
        5    1    3    3  502    0 -0.12514529116E+03  0.16812936770E+04  0.11742377306E+04  0.20545720017E+04  0.46999998093E+01 0. -1.
       -5    1    3    3    0  502  0.12514529116E+03 -0.16812936770E+04 -0.40687381607E+03  0.17343523761E+04  0.46999998093E+01 0.  1.
</event>
<event>
 5   0  0.1725865E-08  0.3697997E+04  0.7818609E-02  0.8068406E-01
       -2   -1    0    0    0  501  0.00000000000E+00  0.00000000000E+00  0.12994456646E+04  0.12994456646E+04  0.25500000920E-02 0.  1.
        2   -1    0    0  501    0  0.00000000000E+00  0.00000000000E+00 -0.26309641758E+04  0.26309641758E+04  0.25500000920E-02 0. -1.
    10030    2    1    2    0    0  0.00000000000E+00  0.00000000000E+00 -0.13315185112E+04  0.39304098404E+04  0.36979967506E+04 0.  0.
        1    1    3    3  502    0 -0.57358940946E+02 -0.72318877281E+02  0.12969953678E+04  0.13002757601E+04  0.50400001928E-02 0.  1.
       -1    1    3    3    0  502  0.57358940946E+02  0.72318877281E+02 -0.26285138790E+04  0.26301340803E+04  0.50400001928E-02 0. -1.
</event>
<event>
 5   0  0.1757996E-08  0.3700762E+04  0.7818609E-02  0.8067793E-01
       -2   -1    0    0    0  501  0.00000000000E+00  0.00000000000E+00  0.18661541235E+04  0.18661541235E+04  0.25500000920E-02 0. -1.
        2   -1    0    0  501    0  0.00000000000E+00  0.00000000000E+00 -0.18347407655E+04  0.18347407655E+04  0.25500000920E-02 0.  1.
    10030    2    1    2    0    0  0.00000000000E+00  0.00000000000E+00  0.31413357994E+02  0.37008948890E+04  0.37007615676E+04 0.  0.
        3    1    3    3  502    0 -0.12989189872E+04 -0.94413465371E+03  0.93515714678E+03  0.18582517803E+04  0.10100000352E+00 0. -1.
       -3    1    3    3    0  502  0.12989189872E+04  0.94413465371E+03 -0.90374378879E+03  0.18426431086E+04  0.10100000352E+00 0.  1.
</event>
<event>
 5   0  0.5714125E-09  0.3699325E+04  0.7818609E-02  0.8068111E-01
        3   -1    0    0  501    0  0.00000000000E+00  0.00000000000E+00  0.31230772444E+04  0.31230772461E+04  0.10100000352E+00 0. -1.
       -3   -1    0    0    0  501  0.00000000000E+00  0.00000000000E+00 -0.10954747084E+04  0.10954747130E+04  0.10100000352E+00 0.  1.
    10030    2    1    2    0    0  0.00000000000E+00  0.00000000000E+00  0.20276025361E+04  0.42185519591E+04  0.36993254233E+04 0.  0.
        4    1    3    3  502    0 -0.16803177890E+04 -0.46592484632E+03  0.17174087052E+04  0.24474574783E+04  0.12699999809E+01 0. -1.
       -4    1    3    3    0  502  0.16803177890E+04  0.46592484632E+03  0.31019383089E+03  0.17710944808E+04  0.12699999809E+01 0.  1.
</event>
<event>
 5   0  0.5714125E-09  0.3702221E+04  0.7818609E-02  0.8067470E-01
        1   -1    0    0  501    0  0.00000000000E+00  0.00000000000E+00  0.18715643102E+04  0.18715643102E+04  0.50400001928E-02 0.  1.
       -1   -1    0    0    0  501  0.00000000000E+00  0.00000000000E+00 -0.18308803510E+04  0.18308803510E+04  0.50400001928E-02 0. -1.
    10030    2    1    2    0    0  0.00000000000E+00  0.00000000000E+00  0.40683959226E+02  0.37024446612E+04  0.37022211285E+04 0.  0.
        4    1    3    3  502    0  0.11585309851E+04  0.98587151702E+03 -0.10344595934E+04  0.18396317443E+04  0.12699999809E+01 0. -1.
       -4    1    3    3    0  502 -0.11585309851E+04 -0.98587151702E+03  0.10751435527E+04  0.18628129168E+04  0.12699999809E+01 0.  1.
</event>
<event>
 5   0  0.5714125E-09  0.3701174E+04  0.7818609E-02  0.8067702E-01
       -1   -1    0    0    0  501  0.00000000000E+00  0.00000000000E+00  0.19181272075E+04  0.19181272075E+04  0.50400001928E-02 0. -1.
        1   -1    0    0  501    0  0.00000000000E+00  0.00000000000E+00 -0.17854247226E+04  0.17854247226E+04  0.50400001928E-02 0.  1.
    10030    2    1    2    0    0  0.00000000000E+00  0.00000000000E+00  0.13270248486E+03  0.37035519301E+04  0.37011737260E+04 0.  0.
        2    1    3    3  502    0 -0.69609501061E+03 -0.12805890803E+04 -0.10746511829E+04  0.18108925483E+04  0.25500000920E-02 0.  1.
       -2    1    3    3    0  502  0.69609501061E+03  0.12805890803E+04  0.12073536678E+04  0.18926593818E+04  0.25500000920E-02 0. -1.
</event>
<event>
 5   0  0.1825308E-08  0.3700048E+04  0.7818609E-02  0.8067951E-01
       -2   -1    0    0    0  501  0.00000000000E+00  0.00000000000E+00  0.11497054944E+04  0.11497054944E+04  0.25500000920E-02 0.  1.
        2   -1    0    0  501    0  0.00000000000E+00  0.00000000000E+00 -0.29769264855E+04  0.29769264855E+04  0.25500000920E-02 0. -1.
    10030    2    1    2    0    0  0.00000000000E+00  0.00000000000E+00 -0.18272209911E+04  0.41266319799E+04  0.37000479656E+04 0.  0.
        4    1    3    3  502    0 -0.16696655172E+02  0.18495998545E+04 -0.95364812472E+03  0.20810441511E+04  0.12699999809E+01 0.  1.
       -4    1    3    3    0  502  0.16696655172E+02 -0.18495998545E+04 -0.87357286638E+03  0.20455878289E+04  0.12699999809E+01 0. -1.
</event>
<event>
 5   0  0.1725865E-08  0.3700036E+04  0.7818609E-02  0.8067954E-01
       -2   -1    0    0    0  501  0.00000000000E+00  0.00000000000E+00  0.16202839681E+04  0.16202839681E+04  0.25500000920E-02 0. -1.
        2   -1    0    0  501    0  0.00000000000E+00  0.00000000000E+00 -0.21123253928E+04  0.21123253928E+04  0.25500000920E-02 0.  1.
    10030    2    1    2    0    0  0.00000000000E+00  0.00000000000E+00 -0.49204142474E+03  0.37326093608E+04  0.37000361994E+04 0.  0.
        1    1    3    3  502    0 -0.12975672993E+04  0.69812344930E+03  0.88253676295E+03  0.17175355556E+04  0.50400001928E-02 0. -1.
       -1    1    3    3    0  502  0.12975672993E+04 -0.69812344930E+03 -0.13745781877E+04  0.20150738053E+04  0.50400001928E-02 0.  1.
</event>
<event>
 5   0  0.5714125E-09  0.3699148E+04  0.7818609E-02  0.8068151E-01
       -1   -1    0    0    0  501  0.00000000000E+00  0.00000000000E+00  0.23149208176E+04  0.23149208176E+04  0.50400001928E-02 0. -1.
        1   -1    0    0  501    0  0.00000000000E+00  0.00000000000E+00 -0.14777718129E+04  0.14777718129E+04  0.50400001928E-02 0.  1.
    10030    2    1    2    0    0  0.00000000000E+00  0.00000000000E+00  0.83714900473E+03  0.37926926305E+04  0.36991484065E+04 0.  0.
        1    1    3    3  502    0  0.15138516108E+04  0.41306669791E+03 -0.58524162834E+03  0.16747771673E+04  0.50400001928E-02 0.  1.
       -1    1    3    3    0  502 -0.15138516108E+04 -0.41306669791E+03  0.14223906331E+04  0.21179154633E+04  0.50400001928E-02 0. -1.
</event>
<event>
 5   0  0.1740290E-08  0.3696822E+04  0.7818609E-02  0.8068667E-01
        2   -1    0    0  501    0  0.00000000000E+00  0.00000000000E+00  0.21815385098E+04  0.21815385098E+04  0.25500000920E-02 0. -1.
       -2   -1    0    0    0  501  0.00000000000E+00  0.00000000000E+00 -0.15661528331E+04  0.15661528331E+04  0.25500000920E-02 0.  1.
    10030    2    1    2    0    0  0.00000000000E+00  0.00000000000E+00  0.61538567665E+03  0.37476913429E+04  0.36968217255E+04 0.  0.
        5    1    3    3  502    0  0.11568557904E+04  0.14258835908E+04  0.52308123684E+03  0.19092132947E+04  0.46999998093E+01 0.  1.
       -5    1    3    3    0  502 -0.11568557904E+04 -0.14258835908E+04  0.92304439812E+02  0.18384780482E+04  0.46999998093E+01 0. -1.
</event>
<event>
 5   0  0.5714125E-09  0.3701219E+04  0.7818609E-02  0.8067692E-01
       -1   -1    0    0    0  501  0.00000000000E+00  0.00000000000E+00  0.16667212052E+04  0.16667212052E+04  0.50400001928E-02 0.  1.
        1   -1    0    0  501    0  0.00000000000E+00  0.00000000000E+00 -0.20547863919E+04  0.20547863919E+04  0.50400001928E-02 0. -1.
    10030    2    1    2    0    0  0.00000000000E+00  0.00000000000E+00 -0.38806518667E+03  0.37215075971E+04  0.37012192864E+04 0.  0.
        4    1    3    3  502    0  0.15246086359E+04  0.54713597283E+03 -0.10939049479E+04  0.19545891930E+04  0.12699999809E+01 0. -1.
       -4    1    3    3    0  502 -0.15246086359E+04 -0.54713597283E+03  0.70583976124E+03  0.17669184041E+04  0.12699999809E+01 0.  1.
</event>
<event>
 5   0  0.5714125E-09  0.3698783E+04  0.7818609E-02  0.8068232E-01
       -1   -1    0    0    0  501  0.00000000000E+00  0.00000000000E+00  0.17416693957E+04  0.17416693957E+04  0.50400001928E-02 0.  1.
        1   -1    0    0  501    0  0.00000000000E+00  0.00000000000E+00 -0.19637764139E+04  0.19637764139E+04  0.50400001928E-02 0. -1.
    10030    2    1    2    0    0  0.00000000000E+00  0.00000000000E+00 -0.22210701826E+03  0.37054458096E+04  0.36987831946E+04 0.  0.
        3    1    3    3  502    0  0.11927232169E+04 -0.94685181899E+03 -0.11622921787E+04  0.19157348873E+04  0.10100000352E+00 0. -1.
       -3    1    3    3    0  502 -0.11927232169E+04  0.94685181899E+03  0.94018516049E+03  0.17897109223E+04  0.10100000352E+00 0.  1.
</event>
<event>
 5   0  0.5714125E-09  0.3696918E+04  0.7818609E-02  0.8068645E-01
       -1   -1    0    0    0  501  0.00000000000E+00  0.00000000000E+00  0.26882038406E+04  0.26882038406E+04  0.50400001928E-02 0. -1.
        1   -1    0    0  501    0  0.00000000000E+00  0.00000000000E+00 -0.12710350991E+04  0.12710350991E+04  0.50400001928E-02 0.  1.
    10030    2    1    2    0    0  0.00000000000E+00  0.00000000000E+00  0.14171687415E+04  0.39592389398E+04  0.36969184114E+04 0.  0.
        2    1    3    3  502    0 -0.15899084569E+03  0.60574155004E+03 -0.11539566969E+04  0.13129421056E+04  0.25500000920E-02 0.  1.
       -2    1    3    3    0  502  0.15899084569E+03 -0.60574155004E+03  0.25711254384E+04  0.26462968342E+04  0.25500000920E-02 0. -1.
</event>
<event>
 5   0  0.1825308E-08  0.3701312E+04  0.7818609E-02  0.8067671E-01
        2   -1    0    0  501    0  0.00000000000E+00  0.00000000000E+00  0.17026791714E+04  0.17026791714E+04  0.25500000920E-02 0.  1.
       -2   -1    0    0    0  501  0.00000000000E+00  0.00000000000E+00 -0.20114933437E+04  0.20114933437E+04  0.25500000920E-02 0. -1.
    10030    2    1    2    0    0  0.00000000000E+00  0.00000000000E+00 -0.30881417226E+03  0.37141725151E+04  0.37013121024E+04 0.  0.
        4    1    3    3  502    0  0.56687841089E+03  0.69129877201E+03 -0.17804325864E+04  0.19922818407E+04  0.12699999809E+01 0. -1.
       -4    1    3    3    0  502 -0.56687841089E+03 -0.69129877201E+03  0.14716184142E+04  0.17218906744E+04  0.12699999809E+01 0.  1.
</event>
<event>
 5   0  0.5714125E-09  0.3702338E+04  0.7818609E-02  0.8067444E-01
        1   -1    0    0  501    0  0.00000000000E+00  0.00000000000E+00  0.22979587788E+04  0.22979587788E+04  0.50400001928E-02 0.  1.
       -1   -1    0    0    0  501  0.00000000000E+00  0.00000000000E+00 -0.14912477502E+04  0.14912477502E+04  0.50400001928E-02 0. -1.
    10030    2    1    2    0    0  0.00000000000E+00  0.00000000000E+00  0.80671102857E+03  0.37892065290E+04  0.37023375637E+04 0.  0.
        1    1    3    3  502    0  0.16308608757E+03 -0.18319905750E+04  0.18857614342E+03  0.18488773623E+04  0.50400001928E-02 0.  1.
       -1    1    3    3    0  502 -0.16308608757E+03  0.18319905750E+04  0.61813488515E+03  0.19403291667E+04  0.50400001928E-02 0. -1.
</event>
<event>
 5   0  0.5714125E-09  0.3702856E+04  0.7818609E-02  0.8067329E-01
        1   -1    0    0  501    0  0.00000000000E+00  0.00000000000E+00  0.15790009892E+04  0.15790009892E+04  0.50400001928E-02 0.  1.
       -1   -1    0    0    0  501  0.00000000000E+00  0.00000000000E+00 -0.21708571707E+04  0.21708571707E+04  0.50400001928E-02 0. -1.
    10030    2    1    2    0    0  0.00000000000E+00  0.00000000000E+00 -0.59185618142E+03  0.37498581599E+04  0.37028559896E+04 0.  0.
        3    1    3    3  502    0  0.64383813748E+03 -0.14866289182E+04 -0.12035142137E+04  0.20181772867E+04  0.10100000352E+00 0. -1.
       -3    1    3    3    0  502 -0.64383813748E+03  0.14866289182E+04  0.61165803230E+03  0.17316808732E+04  0.10100000352E+00 0.  1.
</event>
<event>
 5   0  0.1856107E-08  0.3713227E+04  0.7818609E-02  0.8065037E-01
        2   -1    0    0  501    0  0.00000000000E+00  0.00000000000E+00  0.20434845590E+04  0.20434845590E+04  0.25500000920E-02 0. -1.
       -2   -1    0    0    0  501  0.00000000000E+00  0.00000000000E+00 -0.16868316930E+04  0.16868316930E+04  0.25500000920E-02 0.  1.
    10030    2    1    2    0    0  0.00000000000E+00  0.00000000000E+00  0.35665286594E+03  0.37303162520E+04  0.37132274470E+04 0.  0.
        2    1    3    3  502    0 -0.65569845605E+03 -0.17100146512E+04  0.48456361605E+03  0.18944372438E+04  0.25500000920E-02 0. -1.
       -2    1    3    3    0  502  0.65569845605E+03  0.17100146512E+04 -0.12791075011E+03  0.18358790082E+04  0.25500000920E-02 0.  1.
</event>
<event>
 5   0  0.1825308E-08  0.3699792E+04  0.7818609E-02  0.8068008E-01
        2   -1    0    0  501    0  0.00000000000E+00  0.00000000000E+00  0.20591814275E+04  0.20591814275E+04  0.25500000920E-02 0. -1.
       -2   -1    0    0    0  501  0.00000000000E+00  0.00000000000E+00 -0.16618817376E+04  0.16618817376E+04  0.25500000920E-02 0.  1.
    10030    2    1    2    0    0  0.00000000000E+00  0.00000000000E+00  0.39729968988E+03  0.37210631651E+04  0.36997924313E+04 0.  0.
        4    1    3    3  502    0 -0.15118198083E+04 -0.67011664744E+03 -0.63524841039E+03  0.17714958679E+04  0.12699999809E+01 0.  1.
       -4    1    3    3    0  502  0.15118198083E+04  0.67011664744E+03  0.10325481003E+04  0.19495672972E+04  0.12699999809E+01 0. -1.
</event>
<event>
 5   0  0.5714125E-09  0.3687446E+04  0.7818609E-02  0.8070750E-01
       -1   -1    0    0    0  501  0.00000000000E+00  0.00000000000E+00  0.15207214048E+04  0.15207214048E+04  0.50400001928E-02 0.  1.
        1   -1    0    0  501    0  0.00000000000E+00  0.00000000000E+00 -0.22353296569E+04  0.22353296569E+04  0.50400001928E-02 0. -1.
    10030    2    1    2    0    0  0.00000000000E+00  0.00000000000E+00 -0.71460825213E+03  0.37560510617E+04  0.36874455418E+04 0.  0.
        5    1    3    3  502    0  0.16044151726E+04  0.41687781496E+03 -0.11793862741E+04  0.20344309357E+04  0.46999998093E+01 0. -1.
       -5    1    3    3    0  502 -0.16044151726E+04 -0.41687781496E+03  0.46477802192E+03  0.17216201260E+04  0.46999998093E+01 0.  1.
</event>
<event>
 5   0  0.1825308E-08  0.3699636E+04  0.7818609E-02  0.8068042E-01
        2   -1    0    0  501    0  0.00000000000E+00  0.00000000000E+00  0.13830732298E+04  0.13830732298E+04  0.25500000920E-02 0.  1.
       -2   -1    0    0    0  501  0.00000000000E+00  0.00000000000E+00 -0.24740753693E+04  0.24740753693E+04  0.25500000920E-02 0. -1.
    10030    2    1    2    0    0  0.00000000000E+00  0.00000000000E+00 -0.10910021395E+04  0.38571485992E+04  0.36996364210E+04 0.  0.
        4    1    3    3  502    0 -0.92914715544E+03 -0.30309395499E+03  0.10919211758E+04  0.14654261664E+04  0.12699999809E+01 0.  1.
       -4    1    3    3    0  502  0.92914715544E+03  0.30309395499E+03 -0.21829233153E+04  0.23917224328E+04  0.12699999809E+01 0. -1.
</event>
<event>
 5   0  0.5714125E-09  0.3693650E+04  0.7818609E-02  0.8069371E-01
        1   -1    0    0  501    0  0.00000000000E+00  0.00000000000E+00  0.17939313713E+04  0.17939313713E+04  0.50400001928E-02 0. -1.
       -1   -1    0    0    0  501  0.00000000000E+00  0.00000000000E+00 -0.19012781824E+04  0.19012781824E+04  0.50400001928E-02 0.  1.
    10030    2    1    2    0    0  0.00000000000E+00  0.00000000000E+00 -0.10734681110E+03  0.36952095537E+04  0.36936499980E+04 0.  0.
        2    1    3    3  502    0 -0.13287661744E+04  0.96668389922E+03  0.78969218504E+03  0.18231047842E+04  0.25500000920E-02 0. -1.
       -2    1    3    3    0  502  0.13287661744E+04 -0.96668389922E+03 -0.89703899615E+03  0.18721047694E+04  0.25500000920E-02 0.  1.
</event>
<event>
 5   0  0.1740290E-08  0.3702569E+04  0.7818609E-02  0.8067393E-01
       -2   -1    0    0    0  501  0.00000000000E+00  0.00000000000E+00  0.16967288491E+04  0.16967288491E+04  0.25500000920E-02 0. -1.
        2   -1    0    0  501    0  0.00000000000E+00  0.00000000000E+00 -0.20199185418E+04  0.20199185418E+04  0.25500000920E-02 0.  1.
    10030    2    1    2    0    0  0.00000000000E+00  0.00000000000E+00 -0.32318969277E+03  0.37166473909E+04  0.37025688718E+04 0.  0.
        5    1    3    3  502    0  0.37086720717E+03  0.16702061107E+02  0.16589746159E+04  0.17000118560E+04  0.46999998093E+01 0. -1.
       -5    1    3    3    0  502 -0.37086720717E+03 -0.16702061107E+02 -0.19821643087E+04  0.20166355349E+04  0.46999998093E+01 0.  1.
</event>
<event>
 5   0  0.5714125E-09  0.3698834E+04  0.7818609E-02  0.8068220E-01
       -1   -1    0    0    0  501  0.00000000000E+00  0.00000000000E+00  0.28614255992E+04  0.28614255992E+04  0.50400001928E-02 0.  1.
        1   -1    0    0  501    0  0.00000000000E+00  0.00000000000E+00 -0.11953286602E+04  0.11953286602E+04  0.50400001928E-02 0. -1.
    10030    2    1    2    0    0  0.00000000000E+00  0.00000000000E+00  0.16660969389E+04  0.40567542594E+04  0.36988344261E+04 0.  0.
        4    1    3    3  502    0 -0.48738404005E+03 -0.11780204517E+04 -0.63639926838E+03  0.14248793033E+04  0.12699999809E+01 0. -1.
       -4    1    3    3    0  502  0.48738404005E+03  0.11780204517E+04  0.23024962073E+04  0.26318749562E+04  0.12699999809E+01 0.  1.
</event>
<event>
 5   0  0.1757996E-08  0.3698601E+04  0.7818609E-02  0.8068272E-01
        2   -1    0    0  501    0  0.00000000000E+00  0.00000000000E+00  0.17228630729E+04  0.17228630730E+04  0.25500000920E-02 0. -1.
       -2   -1    0    0    0  501  0.00000000000E+00  0.00000000000E+00 -0.19850173512E+04  0.19850173512E+04  0.25500000920E-02 0.  1.
    10030    2    1    2    0    0  0.00000000000E+00  0.00000000000E+00 -0.26215427827E+03  0.37078804242E+04  0.36986014079E+04 0.  0.
        3    1    3    3  502    0 -0.10216415923E+04  0.10298048537E+04 -0.12809785404E+04  0.19352404530E+04  0.10100000352E+00 0.  1.
       -3    1    3    3    0  502  0.10216415923E+04 -0.10298048537E+04  0.10188242622E+04  0.17726399711E+04  0.10100000352E+00 0. -1.
</event>
<event>
 5   0  0.1740290E-08  0.3697257E+04  0.7818609E-02  0.8068570E-01
       -2   -1    0    0    0  501  0.00000000000E+00  0.00000000000E+00  0.17302070051E+04  0.17302070051E+04  0.25500000920E-02 0. -1.
        2   -1    0    0  501    0  0.00000000000E+00  0.00000000000E+00 -0.19751553473E+04  0.19751553473E+04  0.25500000920E-02 0.  1.
    10030    2    1    2    0    0  0.00000000000E+00  0.00000000000E+00 -0.24494834221E+03  0.37053623525E+04  0.36972571554E+04 0.  0.
        5    1    3    3  502    0 -0.10401647366E+04 -0.28638088976E+03  0.13819658480E+04  0.17532279909E+04  0.46999998093E+01 0. -1.
       -5    1    3    3    0  502  0.10401647366E+04  0.28638088976E+03 -0.16269141902E+04  0.19521343615E+04  0.46999998093E+01 0.  1.
</event>
<event>
 5   0  0.1856107E-08  0.3697791E+04  0.7818609E-02  0.8068452E-01
       -2   -1    0    0    0  501  0.00000000000E+00  0.00000000000E+00  0.13947476576E+04  0.13947476576E+04  0.25500000920E-02 0.  1.
        2   -1    0    0  501    0  0.00000000000E+00  0.00000000000E+00 -0.24509193194E+04  0.24509193194E+04  0.25500000920E-02 0. -1.
    10030    2    1    2    0    0  0.00000000000E+00  0.00000000000E+00 -0.10561716618E+04  0.38456669770E+04  0.36977906808E+04 0.  0.
        2    1    3    3  502    0  0.57114401023E+03  0.97032920896E+03  0.99707699118E+03  0.15039636899E+04  0.25500000920E-02 0.  1.
       -2    1    3    3    0  502 -0.57114401023E+03 -0.97032920896E+03 -0.20532486529E+04  0.23417032871E+04  0.25500000920E-02 0. -1.
</event>
<event>
 5   0  0.5714125E-09  0.3701228E+04  0.7818609E-02  0.8067690E-01
        3   -1    0    0  501    0  0.00000000000E+00  0.00000000000E+00  0.25548534848E+04  0.25548534868E+04  0.10100000352E+00 0.  1.
       -3   -1    0    0    0  501  0.00000000000E+00  0.00000000000E+00 -0.13404968291E+04  0.13404968329E+04  0.10100000352E+00 0. -1.
    10030    2    1    2    0    0  0.00000000000E+00  0.00000000000E+00  0.12143566557E+04  0.38953503197E+04  0.37012284482E+04 0.  0.
        5    1    3    3  502    0 -0.32708869447E+03 -0.12123437459E+04  0.20378831201E+04  0.23936904715E+04  0.46999998093E+01 0.  1.
       -5    1    3    3    0  502  0.32708869447E+03  0.12123437459E+04 -0.82352646435E+03  0.15016598482E+04  0.46999998093E+01 0. -1.
</event>
<event>
 5   0  0.1825308E-08  0.3700016E+04  0.7818609E-02  0.8067958E-01
       -2   -1    0    0    0  501  0.00000000000E+00  0.00000000000E+00  0.20653926923E+04  0.20653926923E+04  0.25500000920E-02 0. -1.
        2   -1    0    0  501    0  0.00000000000E+00  0.00000000000E+00 -0.16570840529E+04  0.16570840529E+04  0.25500000920E-02 0.  1.
    10030    2    1    2    0    0  0.00000000000E+00  0.00000000000E+00  0.40830863944E+03  0.37224767452E+04  0.37000158343E+04 0.  0.
        4    1    3    3  502    0  0.16582328734E+04  0.14626729460E+03  0.10161456394E+04  0.19503035552E+04  0.12699999809E+01 0. -1.
       -4    1    3    3    0  502 -0.16582328734E+04 -0.14626729460E+03 -0.60783699999E+03  0.17721731900E+04  0.12699999809E+01 0.  1.
</event>
<event>
 5   0  0.1740290E-08  0.3698876E+04  0.7818609E-02  0.8068211E-01
        2   -1    0    0  501    0  0.00000000000E+00  0.00000000000E+00  0.26223092893E+04  0.26223092893E+04  0.25500000920E-02 0. -1.
       -2   -1    0    0    0  501  0.00000000000E+00  0.00000000000E+00 -0.13043542746E+04  0.13043542747E+04  0.25500000920E-02 0.  1.
    10030    2    1    2    0    0  0.00000000000E+00  0.00000000000E+00  0.13179550146E+04  0.39266635639E+04  0.36988756837E+04 0.  0.
        5    1    3    3  502    0  0.30831303704E+03 -0.17113632545E+04 -0.95476984209E+01  0.17389463379E+04  0.46999998093E+01 0. -1.
       -5    1    3    3    0  502 -0.30831303704E+03  0.17113632545E+04  0.13275027131E+04  0.21877172260E+04  0.46999998093E+01 0.  1.
</event>
<event>
 5   0  0.5714125E-09  0.3700404E+04  0.7818609E-02  0.8067872E-01
        1   -1    0    0  501    0  0.00000000000E+00  0.00000000000E+00  0.26368649363E+04  0.26368649363E+04  0.50400001928E-02 0. -1.
       -1   -1    0    0    0  501  0.00000000000E+00  0.00000000000E+00 -0.12982261290E+04  0.12982261290E+04  0.50400001928E-02 0.  1.
    10030    2    1    2    0    0  0.00000000000E+00  0.00000000000E+00  0.13386388073E+04  0.39350910653E+04  0.37004037396E+04 0.  0.
        4    1    3    3  502    0  0.10061955383E+04  0.15274921107E+04  0.37311533315E+03  0.18667828674E+04  0.12699999809E+01 0.  1.
       -4    1    3    3    0  502 -0.10061955383E+04 -0.15274921107E+04  0.96552347411E+03  0.20683081979E+04  0.12699999809E+01 0. -1.
</event>
<event>
 5   0  0.5714125E-09  0.3698942E+04  0.7818609E-02  0.8068196E-01
        1   -1    0    0  501    0  0.00000000000E+00  0.00000000000E+00  0.22600588839E+04  0.22600588839E+04  0.50400001928E-02 0. -1.
       -1   -1    0    0    0  501  0.00000000000E+00  0.00000000000E+00 -0.15134752001E+04  0.15134752001E+04  0.50400001928E-02 0.  1.
    10030    2    1    2    0    0  0.00000000000E+00  0.00000000000E+00  0.74658368378E+03  0.37735340840E+04  0.36989420496E+04 0.  0.
        2    1    3    3  502    0  0.17298882082E+03 -0.16886512681E+04 -0.37573137374E+03  0.17385747906E+04  0.25500000920E-02 0.  1.
       -2    1    3    3    0  502 -0.17298882082E+03  0.16886512681E+04  0.11223150575E+04  0.20349592934E+04  0.25500000920E-02 0. -1.
</event>
<event>
 5   0  0.1740290E-08  0.3698092E+04  0.7818609E-02  0.8068385E-01
       -2   -1    0    0    0  501  0.00000000000E+00  0.00000000000E+00  0.15277550613E+04  0.15277550613E+04  0.25500000920E-02 0. -1.
        2   -1    0    0  501    0  0.00000000000E+00  0.00000000000E+00 -0.22379057797E+04  0.22379057797E+04  0.25500000920E-02 0.  1.
    10030    2    1    2    0    0  0.00000000000E+00  0.00000000000E+00 -0.71015071836E+03  0.37656608410E+04  0.36980924172E+04 0.  0.
        5    1    3    3  502    0  0.59360936135E+03  0.26211170354E+03 -0.21181480347E+04  0.22153211518E+04  0.46999998093E+01 0.  1.
       -5    1    3    3    0  502 -0.59360936135E+03 -0.26211170354E+03  0.14079973163E+04  0.15503396891E+04  0.46999998093E+01 0. -1.
</event>
<event>
 5   0  0.5714125E-09  0.3699028E+04  0.7818609E-02  0.8068177E-01
       -1   -1    0    0    0  501  0.00000000000E+00  0.00000000000E+00  0.10498483996E+04  0.10498483996E+04  0.50400001928E-02 0. -1.
        1   -1    0    0  501    0  0.00000000000E+00  0.00000000000E+00 -0.32582823928E+04  0.32582823928E+04  0.50400001928E-02 0.  1.
    10030    2    1    2    0    0  0.00000000000E+00  0.00000000000E+00 -0.22084339932E+04  0.43081307924E+04  0.36990282808E+04 0.  0.
        3    1    3    3  502    0 -0.11585071093E+04  0.95460630630E+03 -0.23625359159E+04  0.27991048367E+04  0.10100000352E+00 0.  1.
       -3    1    3    3    0  502  0.11585071093E+04 -0.95460630630E+03  0.15410192272E+03  0.15090259557E+04  0.10100000352E+00 0. -1.
</event>
<event>
 5   0  0.1725865E-08  0.3699349E+04  0.7818609E-02  0.8068106E-01
       -2   -1    0    0    0  501  0.00000000000E+00  0.00000000000E+00  0.13894240925E+04  0.13894240925E+04  0.25500000920E-02 0.  1.
        2   -1    0    0  501    0  0.00000000000E+00  0.00000000000E+00 -0.24623839541E+04  0.24623839541E+04  0.25500000920E-02 0. -1.
    10030    2    1    2    0    0  0.00000000000E+00  0.00000000000E+00 -0.10729598616E+04  0.38518080466E+04  0.36993489107E+04 0.  0.
        1    1    3    3  502    0 -0.14492821328E+04 -0.11175242593E+04 -0.81589839798E+03  0.20037388469E+04  0.50400001928E-02 0. -1.
       -1    1    3    3    0  502  0.14492821328E+04  0.11175242593E+04 -0.25706146360E+03  0.18480691997E+04  0.50400001928E-02 0.  1.
</event>
<event>
 5   0  0.5714125E-09  0.3700324E+04  0.7818609E-02  0.8067890E-01
       -1   -1    0    0    0  501  0.00000000000E+00  0.00000000000E+00  0.16395368223E+04  0.16395368223E+04  0.50400001928E-02 0. -1.
        1   -1    0    0  501    0  0.00000000000E+00  0.00000000000E+00 -0.20878452857E+04  0.20878452857E+04  0.50400001928E-02 0.  1.
    10030    2    1    2    0    0  0.00000000000E+00  0.00000000000E+00 -0.44830846345E+03  0.37273821080E+04  0.37003238913E+04 0.  0.
        1    1    3    3  502    0  0.17463564435E+04 -0.28048866151E+03 -0.77095370922E+03  0.19294570062E+04  0.50400001928E-02 0.  1.
       -1    1    3    3    0  502 -0.17463564435E+04  0.28048866151E+03  0.32264524576E+03  0.17979251018E+04  0.50400001928E-02 0. -1.
</event>
<event>
 5   0  0.1725865E-08  0.3699998E+04  0.7818609E-02  0.8067962E-01
       -2   -1    0    0    0  501  0.00000000000E+00  0.00000000000E+00  0.18915877425E+04  0.18915877425E+04  0.25500000920E-02 0. -1.
        2   -1    0    0  501    0  0.00000000000E+00  0.00000000000E+00 -0.18093246085E+04  0.18093246085E+04  0.25500000920E-02 0.  1.
    10030    2    1    2    0    0  0.00000000000E+00  0.00000000000E+00  0.82263133993E+02  0.37009123510E+04  0.36999979739E+04 0.  0.
        1    1    3    3  502    0  0.12439333575E+04 -0.66169840438E+02  0.14092223362E+04  0.18808658215E+04  0.50400001928E-02 0. -1.
       -1    1    3    3    0  502 -0.12439333575E+04  0.66169840438E+02 -0.13269592022E+04  0.18200465296E+04  0.50400001928E-02 0.  1.
</event>
<event>
 5   0  0.1725865E-08  0.3700686E+04  0.7818609E-02  0.8067810E-01
       -2   -1    0    0    0  501  0.00000000000E+00  0.00000000000E+00  0.21608242121E+04  0.21608242121E+04  0.25500000920E-02 0. -1.
        2   -1    0    0  501    0  0.00000000000E+00  0.00000000000E+00 -0.15844738479E+04  0.15844738479E+04  0.25500000920E-02 0.  1.
    10030    2    1    2    0    0  0.00000000000E+00  0.00000000000E+00  0.57635036422E+03  0.37452980599E+04  0.37006861277E+04 0.  0.
        1    1    3    3  502    0 -0.10497184713E+04  0.45431003102E+02 -0.12532735615E+04  0.16354410613E+04  0.50400001928E-02 0.  1.
       -1    1    3    3    0  502  0.10497184713E+04 -0.45431003102E+02  0.18296239257E+04  0.21098569986E+04  0.50400001928E-02 0. -1.
</event>
<event>
 5   0  0.1740290E-08  0.3699791E+04  0.7818609E-02  0.8068008E-01
        2   -1    0    0  501    0  0.00000000000E+00  0.00000000000E+00  0.20372757207E+04  0.20372757207E+04  0.25500000920E-02 0. -1.
       -2   -1    0    0    0  501  0.00000000000E+00  0.00000000000E+00 -0.16797501546E+04  0.16797501546E+04  0.25500000920E-02 0.  1.
    10030    2    1    2    0    0  0.00000000000E+00  0.00000000000E+00  0.35752556609E+03  0.37170258754E+04  0.36997914573E+04 0.  0.
        5    1    3    3  502    0  0.14412581133E+04  0.13923082383E+03 -0.97789596630E+03  0.17472586478E+04  0.46999998093E+01 0.  1.
       -5    1    3    3    0  502 -0.14412581133E+04 -0.13923082383E+03  0.13354215324E+04  0.19697672275E+04  0.46999998093E+01 0. -1.
</event>
<event>
 5   0  0.1757996E-08  0.3701139E+04  0.7818609E-02  0.8067709E-01
        2   -1    0    0  501    0  0.00000000000E+00  0.00000000000E+00  0.20136365138E+04  0.20136365138E+04  0.25500000920E-02 0.  1.
       -2   -1    0    0    0  501  0.00000000000E+00  0.00000000000E+00 -0.17007078438E+04  0.17007078438E+04  0.25500000920E-02 0. -1.
    10030    2    1    2    0    0  0.00000000000E+00  0.00000000000E+00  0.31292867000E+03  0.37143443577E+04  0.37011389673E+04 0.  0.
        3    1    3    3  502    0  0.47785822750E+03  0.56230704072E+03  0.18595961929E+04  0.20006588176E+04  0.10100000352E+00 0.  1.
       -3    1    3    3    0  502 -0.47785822750E+03 -0.56230704072E+03 -0.15466675229E+04  0.17136855401E+04  0.10100000352E+00 0. -1.
</event>
<event>
 5   0  0.5714125E-09  0.3700877E+04  0.7818609E-02  0.8067767E-01
        1   -1    0    0  501    0  0.00000000000E+00  0.00000000000E+00  0.29393609787E+04  0.29393609787E+04  0.50400001928E-02 0.  1.
       -1   -1    0    0    0  501  0.00000000000E+00  0.00000000000E+00 -0.11649209773E+04  0.11649209773E+04  0.50400001928E-02 0. -1.
    10030    2    1    2    0    0  0.00000000000E+00  0.00000000000E+00  0.17744400015E+04  0.41042819560E+04  0.37008773360E+04 0.  0.
        2    1    3    3  502    0 -0.10724485791E+03 -0.91874429606E+03 -0.89013786239E+03  0.12837203571E+04  0.25500000920E-02 0. -1.
       -2    1    3    3    0  502  0.10724485791E+03  0.91874429606E+03  0.26645778638E+04  0.28205615990E+04  0.25500000920E-02 0.  1.
</event>
<event>
 5   0  0.5714125E-09  0.3700578E+04  0.7818609E-02  0.8067834E-01
        1   -1    0    0  501    0  0.00000000000E+00  0.00000000000E+00  0.23437404720E+04  0.23437404720E+04  0.50400001928E-02 0. -1.
       -1   -1    0    0    0  501  0.00000000000E+00  0.00000000000E+00 -0.14607291232E+04  0.14607291232E+04  0.50400001928E-02 0.  1.
    10030    2    1    2    0    0  0.00000000000E+00  0.00000000000E+00  0.88301134886E+03  0.38044695952E+04  0.37005783140E+04 0.  0.
        3    1    3    3  502    0  0.12651643231E+04  0.20984167932E+03 -0.92969101458E+03  0.15839822245E+04  0.10100000352E+00 0.  1.
       -3    1    3    3    0  502 -0.12651643231E+04 -0.20984167932E+03  0.18127023634E+04  0.22204873707E+04  0.10100000352E+00 0. -1.
</event>
<event>
 5   0  0.5714125E-09  0.3672960E+04  0.7818609E-02  0.8073981E-01
        1   -1    0    0  501    0  0.00000000000E+00  0.00000000000E+00  0.22894933996E+04  0.22894933996E+04  0.50400001928E-02 0. -1.
       -1   -1    0    0    0  501  0.00000000000E+00  0.00000000000E+00 -0.14731030394E+04  0.14731030395E+04  0.50400001928E-02 0.  1.
    10030    2    1    2    0    0  0.00000000000E+00  0.00000000000E+00  0.81639036019E+03  0.37625964391E+04  0.36729604876E+04 0.  0.
        2    1    3    3  502    0  0.34764351121E+03  0.18005027530E+04  0.51060236691E+03  0.19035180461E+04  0.25500000920E-02 0. -1.
       -2    1    3    3    0  502 -0.34764351121E+03 -0.18005027530E+04  0.30578799329E+03  0.18590783930E+04  0.25500000920E-02 0.  1.
</event>
<event>
 5   0  0.5714125E-09  0.3701419E+04  0.7818609E-02  0.8067647E-01
        1   -1    0    0  501    0  0.00000000000E+00  0.00000000000E+00  0.20236937418E+04  0.20236937418E+04  0.50400001928E-02 0. -1.
       -1   -1    0    0    0  501  0.00000000000E+00  0.00000000000E+00 -0.16925118907E+04  0.16925118907E+04  0.50400001928E-02 0.  1.
    10030    2    1    2    0    0  0.00000000000E+00  0.00000000000E+00  0.33118185105E+03  0.37162056325E+04  0.37014190366E+04 0.  0.
        1    1    3    3  502    0  0.13676630682E+04  0.18336533558E+03  0.14038062557E+04  0.19684504357E+04  0.50400001928E-02 0. -1.
       -1    1    3    3    0  502 -0.13676630682E+04 -0.18336533558E+03 -0.10726244046E+04  0.17477551968E+04  0.50400001928E-02 0.  1.
</event>
<event>
 5   0  0.1725865E-08  0.3693598E+04  0.7818609E-02  0.8069382E-01
       -2   -1    0    0    0  501  0.00000000000E+00  0.00000000000E+00  0.26244535672E+04  0.26244535672E+04  0.25500000920E-02 0. -1.
        2   -1    0    0  501    0  0.00000000000E+00  0.00000000000E+00 -0.12995719551E+04  0.12995719551E+04  0.25500000920E-02 0.  1.
    10030    2    1    2    0    0  0.00000000000E+00  0.00000000000E+00  0.13248816121E+04  0.39240255223E+04  0.36935978413E+04 0.  0.
        1    1    3    3  502    0  0.15855519821E+04  0.76681960790E+03  0.12526903438E+04  0.21613006492E+04  0.50400001928E-02 0.  1.
       -1    1    3    3    0  502 -0.15855519821E+04 -0.76681960790E+03  0.72191268363E+02  0.17627248731E+04  0.50400001928E-02 0. -1.
</event>
<event>
 5   0  0.5714125E-09  0.3699495E+04  0.7818609E-02  0.8068074E-01
       -1   -1    0    0    0  501  0.00000000000E+00  0.00000000000E+00  0.17015212092E+04  0.17015212092E+04  0.50400001928E-02 0.  1.
        1   -1    0    0  501    0  0.00000000000E+00  0.00000000000E+00 -0.20108865487E+04  0.20108865487E+04  0.50400001928E-02 0. -1.
    10030    2    1    2    0    0  0.00000000000E+00  0.00000000000E+00 -0.30936533951E+03  0.37124077579E+04  0.36994951612E+04 0.  0.
        3    1    3    3  502    0 -0.88598923367E+03  0.13016565237E+04 -0.11287816156E+04  0.19373782733E+04  0.10100000352E+00 0.  1.
       -3    1    3    3    0  502  0.88598923367E+03 -0.13016565237E+04  0.81941627609E+03  0.17750294847E+04  0.10100000352E+00 0. -1.
</event>
<event>
 5   0  0.1856107E-08  0.3700332E+04  0.7818609E-02  0.8067888E-01
       -2   -1    0    0    0  501  0.00000000000E+00  0.00000000000E+00  0.30601733979E+04  0.30601733979E+04  0.25500000920E-02 0.  1.
        2   -1    0    0  501    0  0.00000000000E+00  0.00000000000E+00 -0.11186014723E+04  0.11186014723E+04  0.25500000920E-02 0. -1.
    10030    2    1    2    0    0  0.00000000000E+00  0.00000000000E+00  0.19415719256E+04  0.41787748703E+04  0.37003321302E+04 0.  0.
        2    1    3    3  502    0  0.26375388078E+03  0.17744642573E+04  0.45969323053E+03  0.18519199162E+04  0.25500000920E-02 0. -1.
       -2    1    3    3    0  502 -0.26375388078E+03 -0.17744642573E+04  0.14818786951E+04  0.23268549540E+04  0.25500000920E-02 0.  1.
</event>
<event>
 5   0  0.5714125E-09  0.3698663E+04  0.7818609E-02  0.8068258E-01
       -1   -1    0    0    0  501  0.00000000000E+00  0.00000000000E+00  0.15885938880E+04  0.15885938880E+04  0.50400001928E-02 0. -1.
        1   -1    0    0  501    0  0.00000000000E+00  0.00000000000E+00 -0.21528645161E+04  0.21528645161E+04  0.50400001928E-02 0.  1.
    10030    2    1    2    0    0  0.00000000000E+00  0.00000000000E+00 -0.56427062812E+03  0.37414584041E+04  0.36986632245E+04 0.  0.
        5    1    3    3  502    0 -0.15850347929E+04 -0.61245345855E+03 -0.10203536073E+04  0.19820641028E+04  0.46999998093E+01 0.  1.
       -5    1    3    3    0  502  0.15850347929E+04  0.61245345855E+03  0.45608297916E+03  0.17593943013E+04  0.46999998093E+01 0. -1.
</event>
<event>
 5   0  0.1825308E-08  0.3703243E+04  0.7818609E-02  0.8067243E-01
        2   -1    0    0  501    0  0.00000000000E+00  0.00000000000E+00  0.16041653370E+04  0.16041653370E+04  0.25500000920E-02 0. -1.
       -2   -1    0    0    0  501  0.00000000000E+00  0.00000000000E+00 -0.21372502814E+04  0.21372502814E+04  0.25500000920E-02 0.  1.
    10030    2    1    2    0    0  0.00000000000E+00  0.00000000000E+00 -0.53308494441E+03  0.37414156183E+04  0.37032433449E+04 0.  0.
        4    1    3    3  502    0  0.18388149677E+04 -0.19639006470E+03 -0.17235240334E+03  0.18572874056E+04  0.12699999809E+01 0.  1.
       -4    1    3    3    0  502 -0.18388149677E+04  0.19639006470E+03 -0.36073254107E+03  0.18841282128E+04  0.12699999809E+01 0. -1.
</event>
<event>
 5   0  0.1725865E-08  0.3699408E+04  0.7818609E-02  0.8068093E-01
        2   -1    0    0  501    0  0.00000000000E+00  0.00000000000E+00  0.13170358351E+04  0.13170358351E+04  0.25500000920E-02 0.  1.
       -2   -1    0    0    0  501  0.00000000000E+00  0.00000000000E+00 -0.25978070014E+04  0.25978070014E+04  0.25500000920E-02 0. -1.
    10030    2    1    2    0    0  0.00000000000E+00  0.00000000000E+00 -0.12807711663E+04  0.39148428365E+04  0.36994080140E+04 0.  0.
        1    1    3    3  502    0 -0.16053807511E+04 -0.20412023092E+01 -0.16126687870E+04  0.22755114017E+04  0.50400001928E-02 0. -1.
       -1    1    3    3    0  502  0.16053807511E+04  0.20412023092E+01  0.33189762065E+03  0.16393314348E+04  0.50400001928E-02 0.  1.
</event>
<event>
 5   0  0.1725865E-08  0.3703924E+04  0.7818609E-02  0.8067093E-01
        2   -1    0    0  501    0  0.00000000000E+00  0.00000000000E+00  0.20197334351E+04  0.20197334351E+04  0.25500000920E-02 0.  1.
       -2   -1    0    0    0  501  0.00000000000E+00  0.00000000000E+00 -0.16981265844E+04  0.16981265844E+04  0.25500000920E-02 0. -1.
    10030    2    1    2    0    0  0.00000000000E+00  0.00000000000E+00  0.32160685067E+03  0.37178600195E+04  0.37039238867E+04 0.  0.
        1    1    3    3  502    0  0.13825786925E+04  0.12181649724E+04 -0.25132031921E+02  0.18428459946E+04  0.50400001928E-02 0.  1.
       -1    1    3    3    0  502 -0.13825786925E+04 -0.12181649724E+04  0.34673888259E+03  0.18750140249E+04  0.50400001928E-02 0. -1.
</event>
<event>
 5   0  0.5714125E-09  0.3698728E+04  0.7818609E-02  0.8068244E-01
       -1   -1    0    0    0  501  0.00000000000E+00  0.00000000000E+00  0.14496184960E+04  0.14496184960E+04  0.50400001928E-02 0. -1.
        1   -1    0    0  501    0  0.00000000000E+00  0.00000000000E+00 -0.23593425652E+04  0.23593425652E+04  0.50400001928E-02 0.  1.
    10030    2    1    2    0    0  0.00000000000E+00  0.00000000000E+00 -0.90972406922E+03  0.38089610612E+04  0.36987276845E+04 0.  0.
        4    1    3    3  502    0 -0.85095365481E+03  0.12676030681E+04  0.61989193376E+03  0.16477886039E+04  0.12699999809E+01 0. -1.
       -4    1    3    3    0  502  0.85095365481E+03 -0.12676030681E+04 -0.15296160030E+04  0.21611724573E+04  0.12699999809E+01 0.  1.
</event>
<event>
 5   0  0.1825308E-08  0.3706017E+04  0.7818609E-02  0.8066630E-01
       -2   -1    0    0    0  501  0.00000000000E+00  0.00000000000E+00  0.17967158302E+04  0.17967158302E+04  0.25500000920E-02 0. -1.
        2   -1    0    0  501    0  0.00000000000E+00  0.00000000000E+00 -0.19110653093E+04  0.19110653093E+04  0.25500000920E-02 0.  1.
    10030    2    1    2    0    0  0.00000000000E+00  0.00000000000E+00 -0.11434947911E+03  0.37077811396E+04  0.37060174278E+04 0.  0.
        4    1    3    3  502    0  0.14850688642E+04 -0.93706917475E+03  0.53480906940E+03  0.18356335482E+04  0.12699999809E+01 0. -1.
       -4    1    3    3    0  502 -0.14850688642E+04  0.93706917475E+03 -0.64915854851E+03  0.18721475913E+04  0.12699999809E+01 0.  1.
</event>
<event>
 5   0  0.1825308E-08  0.3698210E+04  0.7818609E-02  0.8068359E-01
       -2   -1    0    0    0  501  0.00000000000E+00  0.00000000000E+00  0.14779932198E+04  0.14779932198E+04  0.25500000920E-02 0. -1.
        2   -1    0    0  501    0  0.00000000000E+00  0.00000000000E+00 -0.23133993992E+04  0.23133993992E+04  0.25500000920E-02 0.  1.
    10030    2    1    2    0    0  0.00000000000E+00  0.00000000000E+00 -0.83540617944E+03  0.37913926190E+04  0.36982096353E+04 0.  0.
        4    1    3    3  502    0  0.12214343918E+04 -0.13245372470E+04 -0.84397557436E+03  0.19896223951E+04  0.12699999809E+01 0.  1.
       -4    1    3    3    0  502 -0.12214343918E+04  0.13245372470E+04  0.85693949207E+01  0.18017702239E+04  0.12699999809E+01 0. -1.
</event>
<event>
 5   0  0.5714125E-09  0.3698290E+04  0.7818609E-02  0.8068341E-01
       -1   -1    0    0    0  501  0.00000000000E+00  0.00000000000E+00  0.28855222295E+04  0.28855222295E+04  0.50400001928E-02 0.  1.
        1   -1    0    0  501    0  0.00000000000E+00  0.00000000000E+00 -0.11849978567E+04  0.11849978567E+04  0.50400001928E-02 0. -1.
    10030    2    1    2    0    0  0.00000000000E+00  0.00000000000E+00  0.17005243728E+04  0.40705200862E+04  0.36982902306E+04 0.  0.
        2    1    3    3  502    0 -0.81457960972E+03  0.88784475828E+02  0.26747903094E+04  0.27974856252E+04  0.25500000920E-02 0.  1.
       -2    1    3    3    0  502  0.81457960972E+03 -0.88784475828E+02 -0.97426593661E+03  0.12730344610E+04  0.25500000920E-02 0. -1.
</event>
<event>
 5   0  0.1725865E-08  0.3698822E+04  0.7818609E-02  0.8068223E-01
        2   -1    0    0  501    0  0.00000000000E+00  0.00000000000E+00  0.20651536993E+04  0.20651536993E+04  0.25500000920E-02 0.  1.
       -2   -1    0    0    0  501  0.00000000000E+00  0.00000000000E+00 -0.16562067965E+04  0.16562067965E+04  0.25500000920E-02 0. -1.
    10030    2    1    2    0    0  0.00000000000E+00  0.00000000000E+00  0.40894690277E+03  0.37213604959E+04  0.36988222951E+04 0.  0.
        1    1    3    3  502    0 -0.84642703592E+03 -0.14454747847E+04  0.99314123447E+03  0.19473483489E+04  0.50400001928E-02 0.  1.
       -1    1    3    3    0  502  0.84642703592E+03  0.14454747847E+04 -0.58419433170E+03  0.17740121470E+04  0.50400001928E-02 0. -1.
</event>
<event>
 5   0  0.5714125E-09  0.3704323E+04  0.7818609E-02  0.8067004E-01
        1   -1    0    0  501    0  0.00000000000E+00  0.00000000000E+00  0.21814829945E+04  0.21814829945E+04  0.50400001928E-02 0.  1.
       -1   -1    0    0    0  501  0.00000000000E+00  0.00000000000E+00 -0.15725555237E+04  0.15725555237E+04  0.50400001928E-02 0. -1.
    10030    2    1    2    0    0  0.00000000000E+00  0.00000000000E+00  0.60892747078E+03  0.37540385182E+04  0.37043234918E+04 0.  0.
        5    1    3    3  502    0 -0.51915559451E+03  0.15709814914E+04 -0.53916003981E+03  0.17401784437E+04  0.46999998093E+01 0.  1.
       -5    1    3    3    0  502  0.51915559451E+03 -0.15709814914E+04  0.11480875106E+04  0.20138600745E+04  0.46999998093E+01 0. -1.
</event>
<event>
 5   0  0.5714125E-09  0.3700427E+04  0.7818609E-02  0.8067867E-01
       -1   -1    0    0    0  501  0.00000000000E+00  0.00000000000E+00  0.22463493463E+04  0.22463493463E+04  0.50400001928E-02 0. -1.
        1   -1    0    0  501    0  0.00000000000E+00  0.00000000000E+00 -0.15239345837E+04  0.15239345837E+04  0.50400001928E-02 0.  1.
    10030    2    1    2    0    0  0.00000000000E+00  0.00000000000E+00  0.72241476256E+03  0.37702839300E+04  0.37004267083E+04 0.  0.
        5    1    3    3  502    0  0.75469790957E+03 -0.34926810068E+03  0.20451975986E+04  0.22078071583E+04  0.46999998093E+01 0. -1.
       -5    1    3    3    0  502 -0.75469790957E+03  0.34926810068E+03 -0.13227828360E+04  0.15624767717E+04  0.46999998093E+01 0.  1.
</event>
<event>
 5   0  0.5714125E-09  0.3703246E+04  0.7818609E-02  0.8067243E-01
       -1   -1    0    0    0  501  0.00000000000E+00  0.00000000000E+00  0.20910482898E+04  0.20910482898E+04  0.50400001928E-02 0.  1.
        1   -1    0    0  501    0  0.00000000000E+00  0.00000000000E+00 -0.16396119703E+04  0.16396119703E+04  0.50400001928E-02 0. -1.
    10030    2    1    2    0    0  0.00000000000E+00  0.00000000000E+00  0.45143631958E+03  0.37306602601E+04  0.37032460390E+04 0.  0.
        5    1    3    3  502    0 -0.12488672074E+04 -0.64038026569E+03 -0.99100148847E+03  0.17180984333E+04  0.46999998093E+01 0. -1.
       -5    1    3    3    0  502  0.12488672074E+04  0.64038026569E+03  0.14424378080E+04  0.20125618268E+04  0.46999998093E+01 0.  1.
</event>
<event>
 5   0  0.5714125E-09  0.3699197E+04  0.7818609E-02  0.8068140E-01
       -1   -1    0    0    0  501  0.00000000000E+00  0.00000000000E+00  0.22279712316E+04  0.22279712316E+04  0.50400001928E-02 0.  1.
        1   -1    0    0  501    0  0.00000000000E+00  0.00000000000E+00 -0.15354845472E+04  0.15354845472E+04  0.50400001928E-02 0. -1.
    10030    2    1    2    0    0  0.00000000000E+00  0.00000000000E+00  0.69248668443E+03  0.37634557788E+04  0.36991974253E+04 0.  0.
        2    1    3    3  502    0 -0.99398401530E+03  0.29863755984E+03  0.19037935804E+04  0.21683216117E+04  0.25500000920E-02 0.  1.
       -2    1    3    3    0  502  0.99398401530E+03 -0.29863755984E+03 -0.12113068960E+04  0.15951341671E+04  0.25500000920E-02 0. -1.
</event>
<event>
 5   0  0.1757996E-08  0.3700198E+04  0.7818609E-02  0.8067918E-01
       -2   -1    0    0    0  501  0.00000000000E+00  0.00000000000E+00  0.13049830794E+04  0.13049830794E+04  0.25500000920E-02 0.  1.
        2   -1    0    0  501    0  0.00000000000E+00  0.00000000000E+00 -0.26229199623E+04  0.26229199623E+04  0.25500000920E-02 0. -1.
    10030    2    1    2    0    0  0.00000000000E+00  0.00000000000E+00 -0.13179368829E+04  0.39279030416E+04  0.37001979240E+04 0.  0.
        3    1    3    3  502    0  0.14900394557E+04  0.59619385617E+03  0.31810937440E+03  0.16361107169E+04  0.10100000352E+00 0.  1.
       -3    1    3    3    0  502 -0.14900394557E+04 -0.59619385617E+03 -0.16360462573E+04  0.22917923248E+04  0.10100000352E+00 0. -1.
</event>
<event>
 5   0  0.1740290E-08  0.3700173E+04  0.7818609E-02  0.8067923E-01
        2   -1    0    0  501    0  0.00000000000E+00  0.00000000000E+00  0.17609289799E+04  0.17609289799E+04  0.25500000920E-02 0. -1.
       -2   -1    0    0    0  501  0.00000000000E+00  0.00000000000E+00 -0.19437586608E+04  0.19437586608E+04  0.25500000920E-02 0.  1.
    10030    2    1    2    0    0  0.00000000000E+00  0.00000000000E+00 -0.18282968090E+03  0.37046876406E+04  0.37001734854E+04 0.  0.
        5    1    3    3  502    0  0.43000196858E+03  0.21652931934E+03  0.16971049241E+04  0.17640787547E+04  0.46999998093E+01 0. -1.
       -5    1    3    3    0  502 -0.43000196858E+03 -0.21652931934E+03 -0.18799346050E+04  0.19406088860E+04  0.46999998093E+01 0.  1.
</event>
<event>
 5   0  0.1856107E-08  0.3699409E+04  0.7818609E-02  0.8068093E-01
       -2   -1    0    0    0  501  0.00000000000E+00  0.00000000000E+00  0.12772395812E+04  0.12772395812E+04  0.25500000920E-02 0.  1.
        2   -1    0    0  501    0  0.00000000000E+00  0.00000000000E+00 -0.26787516439E+04  0.26787516439E+04  0.25500000920E-02 0. -1.
    10030    2    1    2    0    0  0.00000000000E+00  0.00000000000E+00 -0.14015120627E+04  0.39559912251E+04  0.36994094814E+04 0.  0.
        2    1    3    3  502    0 -0.14399742571E+04 -0.45529668757E+03  0.44129908708E+03  0.15733930911E+04  0.25500000920E-02 0.  1.
       -2    1    3    3    0  502  0.14399742571E+04  0.45529668757E+03 -0.18428111497E+04  0.23825981341E+04  0.25500000920E-02 0. -1.
</event>
<event>
 5   0  0.5714125E-09  0.3701589E+04  0.7818609E-02  0.8067610E-01
        1   -1    0    0  501    0  0.00000000000E+00  0.00000000000E+00  0.25149573492E+04  0.25149573492E+04  0.50400001928E-02 0.  1.
       -1   -1    0    0    0  501  0.00000000000E+00  0.00000000000E+00 -0.13620273415E+04  0.13620273415E+04  0.50400001928E-02 0. -1.
    10030    2    1    2    0    0  0.00000000000E+00  0.00000000000E+00  0.11529300077E+04  0.38769846907E+04  0.37015892113E+04 0.  0.
        2    1    3    3  502    0 -0.34839303101E+03  0.30638000446E+03 -0.13001341769E+04  0.13804330079E+04  0.25500000920E-02 0. -1.
       -2    1    3    3    0  502  0.34839303101E+03 -0.30638000446E+03  0.24530641847E+04  0.24965516829E+04  0.25500000920E-02 0.  1.
</event>
<event>
 5   0  0.1725865E-08  0.3701646E+04  0.7818609E-02  0.8067597E-01
        2   -1    0    0  501    0  0.00000000000E+00  0.00000000000E+00  0.26845685601E+04  0.26845685601E+04  0.25500000920E-02 0.  1.
       -2   -1    0    0    0  501  0.00000000000E+00  0.00000000000E+00 -0.12760132136E+04  0.12760132136E+04  0.25500000920E-02 0. -1.
    10030    2    1    2    0    0  0.00000000000E+00  0.00000000000E+00  0.14085553465E+04  0.39605817737E+04  0.37016455560E+04 0.  0.
        1    1    3    3  502    0 -0.11986222053E+04  0.12120189308E+04 -0.67171472595E+02  0.17059299771E+04  0.50400001928E-02 0. -1.
       -1    1    3    3    0  502  0.11986222053E+04 -0.12120189308E+04  0.14757268191E+04  0.22546517967E+04  0.50400001928E-02 0.  1.
</event>
<event>
 5   0  0.5714125E-09  0.3699810E+04  0.7818609E-02  0.8068004E-01
        1   -1    0    0  501    0  0.00000000000E+00  0.00000000000E+00  0.31933596788E+04  0.31933596788E+04  0.50400001928E-02 0.  1.
       -1   -1    0    0    0  501  0.00000000000E+00  0.00000000000E+00 -0.10716449730E+04  0.10716449730E+04  0.50400001928E-02 0. -1.
    10030    2    1    2    0    0  0.00000000000E+00  0.00000000000E+00  0.21217147058E+04  0.42650046518E+04  0.36998096421E+04 0.  0.
        2    1    3    3  502    0 -0.17605186282E+04 -0.56807815489E+03  0.10643570310E+04  0.21342433131E+04  0.25500000920E-02 0.  1.
       -2    1    3    3    0  502  0.17605186282E+04  0.56807815489E+03  0.10573576748E+04  0.21307613387E+04  0.25500000920E-02 0. -1.
</event>
<event>
 5   0  0.5714125E-09  0.3697910E+04  0.7818609E-02  0.8068425E-01
       -1   -1    0    0    0  501  0.00000000000E+00  0.00000000000E+00  0.16630068924E+04  0.16630068924E+04  0.50400001928E-02 0. -1.
        1   -1    0    0  501    0  0.00000000000E+00  0.00000000000E+00 -0.20556945018E+04  0.20556945018E+04  0.50400001928E-02 0.  1.
    10030    2    1    2    0    0  0.00000000000E+00  0.00000000000E+00 -0.39268760937E+03  0.37187013942E+04  0.36979097475E+04 0.  0.
        1    1    3    3  502    0  0.11114971554E+04  0.12654656493E+04  0.57070620972E+03  0.17783517126E+04  0.50400001928E-02 0. -1.
       -1    1    3    3    0  502 -0.11114971554E+04 -0.12654656493E+04 -0.96339381908E+03  0.19403496816E+04  0.50400001928E-02 0.  1.
</event>
<event>
 5   0  0.5714125E-09  0.3700494E+04  0.7818609E-02  0.8067852E-01
       -1   -1    0    0    0  501  0.00000000000E+00  0.00000000000E+00  0.28577274954E+04  0.28577274954E+04  0.50400001928E-02 0.  1.
        1   -1    0    0  501    0  0.00000000000E+00  0.00000000000E+00 -0.11979497721E+04  0.11979497721E+04  0.50400001928E-02 0. -1.
    10030    2    1    2    0    0  0.00000000000E+00  0.00000000000E+00  0.16597777233E+04  0.40556772675E+04  0.37004940220E+04 0.  0.
        3    1    3    3  502    0  0.13591066406E+04  0.83040115489E+03  0.18619048275E+04  0.24501890816E+04  0.10100000352E+00 0.  1.
       -3    1    3    3    0  502 -0.13591066406E+04 -0.83040115489E+03 -0.20212710418E+03  0.16054881859E+04  0.10100000352E+00 0. -1.
</event>
<event>
 5   0  0.5714125E-09  0.3700949E+04  0.7818609E-02  0.8067752E-01
       -1   -1    0    0    0  501  0.00000000000E+00  0.00000000000E+00  0.17414773058E+04  0.17414773058E+04  0.50400001928E-02 0. -1.
        1   -1    0    0  501    0  0.00000000000E+00  0.00000000000E+00 -0.19662935119E+04  0.19662935119E+04  0.50400001928E-02 0.  1.
    10030    2    1    2    0    0  0.00000000000E+00  0.00000000000E+00 -0.22481620614E+03  0.37077708177E+04  0.37009488121E+04 0.  0.
        2    1    3    3  502    0 -0.10848968295E+04 -0.86505086882E+03 -0.13389775139E+04  0.19282569639E+04  0.25500000920E-02 0.  1.
       -2    1    3    3    0  502  0.10848968295E+04  0.86505086882E+03  0.11141613077E+04  0.17795138538E+04  0.25500000920E-02 0. -1.
</event>
<event>
 5   0  0.5714125E-09  0.3699295E+04  0.7818609E-02  0.8068118E-01
        1   -1    0    0  501    0  0.00000000000E+00  0.00000000000E+00  0.14783947395E+04  0.14783947395E+04  0.50400001928E-02 0. -1.
       -1   -1    0    0    0  501  0.00000000000E+00  0.00000000000E+00 -0.23141291006E+04  0.23141291006E+04  0.50400001928E-02 0.  1.
    10030    2    1    2    0    0  0.00000000000E+00  0.00000000000E+00 -0.83573436103E+03  0.37925238401E+04  0.36992952242E+04 0.  0.
        3    1    3    3  502    0  0.17575997218E+04 -0.46974263547E+03 -0.76001641490E+03  0.19716591710E+04  0.10100000352E+00 0.  1.
       -3    1    3    3    0  502 -0.17575997218E+04  0.46974263547E+03 -0.75717946132E+02  0.18208646691E+04  0.10100000352E+00 0. -1.
</event>
<event>
 5   0  0.5714125E-09  0.3692917E+04  0.7818609E-02  0.8069533E-01
        1   -1    0    0  501    0  0.00000000000E+00  0.00000000000E+00  0.15675165268E+04  0.15675165268E+04  0.50400001928E-02 0.  1.
       -1   -1    0    0    0  501  0.00000000000E+00  0.00000000000E+00 -0.21750387332E+04  0.21750387332E+04  0.50400001928E-02 0. -1.
    10030    2    1    2    0    0  0.00000000000E+00  0.00000000000E+00 -0.60752220639E+03  0.37425552600E+04  0.36929170913E+04 0.  0.
        4    1    3    3  502    0  0.53849844289E+03  0.17095121296E+04 -0.75356845054E+03  0.19442940408E+04  0.12699999809E+01 0. -1.
       -4    1    3    3    0  502 -0.53849844289E+03 -0.17095121296E+04  0.14604624415E+03  0.17982612193E+04  0.12699999809E+01 0.  1.
</event>
<event>
 5   0  0.5714125E-09  0.3700220E+04  0.7818609E-02  0.8067913E-01
       -1   -1    0    0    0  501  0.00000000000E+00  0.00000000000E+00  0.20930224024E+04  0.20930224024E+04  0.50400001928E-02 0.  1.
        1   -1    0    0  501    0  0.00000000000E+00  0.00000000000E+00 -0.16353895430E+04  0.16353895430E+04  0.50400001928E-02 0. -1.
    10030    2    1    2    0    0  0.00000000000E+00  0.00000000000E+00  0.45763285947E+03  0.37284119454E+04  0.37002199665E+04 0.  0.
        2    1    3    3  502    0 -0.63735313011E+03  0.28272609664E+03 -0.14979361955E+04  0.16522608462E+04  0.25500000920E-02 0. -1.
       -2    1    3    3    0  502  0.63735313011E+03 -0.28272609664E+03  0.19555690549E+04  0.20761510992E+04  0.25500000920E-02 0.  1.
</event>
<event>
 5   0  0.1856107E-08  0.3699537E+04  0.7818609E-02  0.8068064E-01
        2   -1    0    0  501    0  0.00000000000E+00  0.00000000000E+00  0.24302074829E+04  0.24302074829E+04  0.25500000920E-02 0. -1.
       -2   -1    0    0    0  501  0.00000000000E+00  0.00000000000E+00 -0.14079635919E+04  0.14079635919E+04  0.25500000920E-02 0.  1.
    10030    2    1    2    0    0  0.00000000000E+00  0.00000000000E+00  0.10222438910E+04  0.38381710749E+04  0.36995370828E+04 0.  0.
        2    1    3    3  502    0  0.67219524766E+03 -0.15243191370E+04  0.13451423485E+04  0.21412153606E+04  0.25500000920E-02 0. -1.
       -2    1    3    3    0  502 -0.67219524766E+03  0.15243191370E+04 -0.32289845755E+03  0.16969557143E+04  0.25500000920E-02 0.  1.
</event>
<event>
 5   0  0.5714125E-09  0.3699202E+04  0.7818609E-02  0.8068139E-01
        1   -1    0    0  501    0  0.00000000000E+00  0.00000000000E+00  0.19869688724E+04  0.19869688724E+04  0.50400001928E-02 0.  1.
       -1   -1    0    0    0  501  0.00000000000E+00  0.00000000000E+00 -0.17217303731E+04  0.17217303731E+04  0.50400001928E-02 0. -1.
    10030    2    1    2    0    0  0.00000000000E+00  0.00000000000E+00  0.26523849932E+03  0.37086992456E+04  0.36992024320E+04 0.  0.
        2    1    3    3  502    0 -0.66071468449E+03 -0.15570462862E+04  0.88293058418E+03  0.19080103376E+04  0.25500000920E-02 0. -1.
       -2    1    3    3    0  502  0.66071468449E+03  0.15570462862E+04 -0.61769208486E+03  0.18006889080E+04  0.25500000920E-02 0.  1.
</event>
<event>
 5   0  0.5714125E-09  0.3698962E+04  0.7818609E-02  0.8068192E-01
       -1   -1    0    0    0  501  0.00000000000E+00  0.00000000000E+00  0.17023845767E+04  0.17023845767E+04  0.50400001928E-02 0. -1.
        1   -1    0    0  501    0  0.00000000000E+00  0.00000000000E+00 -0.20092871810E+04  0.20092871810E+04  0.50400001928E-02 0.  1.
    10030    2    1    2    0    0  0.00000000000E+00  0.00000000000E+00 -0.30690260432E+03  0.37116717576E+04  0.36989617500E+04 0.  0.
        5    1    3    3  502    0 -0.40168473702E+03 -0.26372880927E+03 -0.19455482617E+04  0.20040168765E+04  0.46999998093E+01 0.  1.
       -5    1    3    3    0  502  0.40168473702E+03  0.26372880927E+03  0.16386456573E+04  0.17076548812E+04  0.46999998093E+01 0. -1.
</event>
<event>
 5   0  0.1757996E-08  0.3700031E+04  0.7818609E-02  0.8067955E-01
       -2   -1    0    0    0  501  0.00000000000E+00  0.00000000000E+00  0.26077750123E+04  0.26077750123E+04  0.25500000920E-02 0.  1.
        2   -1    0    0  501    0  0.00000000000E+00  0.00000000000E+00 -0.13124435382E+04  0.13124435382E+04  0.25500000920E-02 0. -1.
    10030    2    1    2    0    0  0.00000000000E+00  0.00000000000E+00  0.12953314740E+04  0.39202185505E+04  0.37000310615E+04 0.  0.
        3    1    3    3  502    0 -0.37489545034E+03 -0.84239634856E+03  0.23469749347E+04  0.25216005951E+04  0.10100000352E+00 0.  1.
       -3    1    3    3    0  502  0.37489545034E+03  0.84239634856E+03 -0.10516434606E+04  0.13986179554E+04  0.10100000352E+00 0. -1.
</event>
<event>
 5   0  0.1757996E-08  0.3700746E+04  0.7818609E-02  0.8067797E-01
       -2   -1    0    0    0  501  0.00000000000E+00  0.00000000000E+00  0.30540251963E+04  0.30540251963E+04  0.25500000920E-02 0.  1.
        2   -1    0    0  501    0  0.00000000000E+00  0.00000000000E+00 -0.11211040604E+04  0.11211040604E+04  0.25500000920E-02 0. -1.
    10030    2    1    2    0    0  0.00000000000E+00  0.00000000000E+00  0.19329211359E+04  0.41751292567E+04  0.37007458968E+04 0.  0.
        3    1    3    3  502    0 -0.11053118760E+04  0.10051319482E+04  0.21981354880E+04  0.26577818214E+04  0.10100000352E+00 0.  1.
       -3    1    3    3    0  502  0.11053118760E+04 -0.10051319482E+04 -0.26521435211E+03  0.15173474352E+04  0.10100000352E+00 0. -1.
</event>
<event>
 5   0  0.1825308E-08  0.3700740E+04  0.7818609E-02  0.8067798E-01
        2   -1    0    0  501    0  0.00000000000E+00  0.00000000000E+00  0.34165112791E+04  0.34165112791E+04  0.25500000920E-02 0. -1.
       -2   -1    0    0    0  501  0.00000000000E+00  0.00000000000E+00 -0.10021537230E+04  0.10021537230E+04  0.25500000920E-02 0.  1.
    10030    2    1    2    0    0  0.00000000000E+00  0.00000000000E+00  0.24143575561E+04  0.44186650020E+04  0.37007401951E+04 0.  0.
        4    1    3    3  502    0 -0.16319295675E+04 -0.74042212549E+03  0.65684056440E+03  0.19086278258E+04  0.12699999809E+01 0.  1.
       -4    1    3    3    0  502  0.16319295675E+04  0.74042212549E+03  0.17575169917E+04  0.25100371763E+04  0.12699999809E+01 0. -1.
</event>
<event>
 5   0  0.1757996E-08  0.3702755E+04  0.7818609E-02  0.8067352E-01
       -2   -1    0    0    0  501  0.00000000000E+00  0.00000000000E+00  0.17142954877E+04  0.17142954877E+04  0.25500000920E-02 0.  1.
        2   -1    0    0  501    0  0.00000000000E+00  0.00000000000E+00 -0.19994211579E+04  0.19994211579E+04  0.25500000920E-02 0. -1.
    10030    2    1    2    0    0  0.00000000000E+00  0.00000000000E+00 -0.28512567018E+03  0.37137166457E+04  0.37027550117E+04 0.  0.
        3    1    3    3  502    0 -0.57381231936E+03  0.58334548118E+03 -0.18082159018E+04  0.19847411131E+04  0.10100000352E+00 0. -1.
       -3    1    3    3    0  502  0.57381231936E+03 -0.58334548118E+03  0.15230902316E+04  0.17289755326E+04  0.10100000352E+00 0.  1.
</event>
<event>
 5   0  0.1725865E-08  0.3696581E+04  0.7818609E-02  0.8068720E-01
        2   -1    0    0  501    0  0.00000000000E+00  0.00000000000E+00  0.27328936040E+04  0.27328936040E+04  0.25500000920E-02 0.  1.
       -2   -1    0    0    0  501  0.00000000000E+00  0.00000000000E+00 -0.12500221002E+04  0.12500221002E+04  0.25500000920E-02 0. -1.
    10030    2    1    2    0    0  0.00000000000E+00  0.00000000000E+00  0.14828715037E+04  0.39829157042E+04  0.36965807999E+04 0.  0.
        1    1    3    3  502    0  0.11014634935E+04 -0.14495988471E+03  0.23329939835E+04  0.25840077637E+04  0.50400001928E-02 0.  1.
       -1    1    3    3    0  502 -0.11014634935E+04  0.14495988471E+03 -0.85012247974E+03  0.13989079406E+04  0.50400001928E-02 0. -1.
</event>
<event>
 5   0  0.1757996E-08  0.3700464E+04  0.7818609E-02  0.8067859E-01
        2   -1    0    0  501    0  0.00000000000E+00  0.00000000000E+00  0.30193405542E+04  0.30193405542E+04  0.25500000920E-02 0.  1.
       -2   -1    0    0    0  501  0.00000000000E+00  0.00000000000E+00 -0.11338102830E+04  0.11338102830E+04  0.25500000920E-02 0. -1.
    10030    2    1    2    0    0  0.00000000000E+00  0.00000000000E+00  0.18855302712E+04  0.41531508371E+04  0.37004644941E+04 0.  0.
        3    1    3    3  502    0 -0.19844756739E+03  0.14540601135E+04 -0.32188331923E+03  0.15024250837E+04  0.10100000352E+00 0. -1.
       -3    1    3    3    0  502  0.19844756739E+03 -0.14540601135E+04  0.22074135904E+04  0.26507257535E+04  0.10100000352E+00 0.  1.
</event>
<event>
 5   0  0.1740290E-08  0.3701065E+04  0.7818609E-02  0.8067726E-01
       -2   -1    0    0    0  501  0.00000000000E+00  0.00000000000E+00  0.15550656648E+04  0.15550656648E+04  0.25500000920E-02 0. -1.
        2   -1    0    0  501    0  0.00000000000E+00  0.00000000000E+00 -0.22021391498E+04  0.22021391498E+04  0.25500000920E-02 0.  1.
    10030    2    1    2    0    0  0.00000000000E+00  0.00000000000E+00 -0.64707348505E+03  0.37572048146E+04  0.37010652418E+04 0.  0.
        5    1    3    3  502    0 -0.15719574194E+04  0.96344871860E+03 -0.48457884742E+03  0.19063374075E+04  0.46999998093E+01 0.  1.
       -5    1    3    3    0  502  0.15719574194E+04 -0.96344871860E+03 -0.16249463762E+03  0.18508674072E+04  0.46999998093E+01 0. -1.
</event>
<event>
 5   0  0.5714125E-09  0.3701835E+04  0.7818609E-02  0.8067555E-01
        1   -1    0    0  501    0  0.00000000000E+00  0.00000000000E+00  0.24666291653E+04  0.24666291653E+04  0.50400001928E-02 0. -1.
       -1   -1    0    0    0  501  0.00000000000E+00  0.00000000000E+00 -0.13888974702E+04  0.13888974702E+04  0.50400001928E-02 0.  1.
    10030    2    1    2    0    0  0.00000000000E+00  0.00000000000E+00  0.10777316951E+04  0.38555266356E+04  0.37018346845E+04 0.  0.
        3    1    3    3  502    0 -0.14885949594E+04 -0.68646621375E+03  0.14340527601E+04  0.21779940644E+04  0.10100000352E+00 0. -1.
       -3    1    3    3    0  502  0.14885949594E+04  0.68646621375E+03 -0.35632106498E+03  0.16775325712E+04  0.10100000352E+00 0.  1.
</event>
<event>
 5   0  0.5714125E-09  0.3700015E+04  0.7818609E-02  0.8067959E-01
        1   -1    0    0  501    0  0.00000000000E+00  0.00000000000E+00  0.21808473054E+04  0.21808473054E+04  0.50400001928E-02 0.  1.
       -1   -1    0    0    0  501  0.00000000000E+00  0.00000000000E+00 -0.15693564959E+04  0.15693564959E+04  0.50400001928E-02 0. -1.
    10030    2    1    2    0    0  0.00000000000E+00  0.00000000000E+00  0.61149080947E+03  0.37502038013E+04  0.37000145326E+04 0.  0.
        1    1    3    3  502    0  0.14861044639E+04 -0.56466598965E+03  0.12647150516E+04  0.20314670362E+04  0.50400001928E-02 0.  1.
       -1    1    3    3    0  502 -0.14861044639E+04  0.56466598965E+03 -0.65322424213E+03  0.17187367651E+04  0.50400001928E-02 0. -1.
</event>
<event>
 5   0  0.5714125E-09  0.3698933E+04  0.7818609E-02  0.8068198E-01
       -1   -1    0    0    0  501  0.00000000000E+00  0.00000000000E+00  0.12808025018E+04  0.12808025019E+04  0.50400001928E-02 0.  1.
        1   -1    0    0  501    0  0.00000000000E+00  0.00000000000E+00 -0.26706111664E+04  0.26706111664E+04  0.50400001928E-02 0. -1.
    10030    2    1    2    0    0  0.00000000000E+00  0.00000000000E+00 -0.13898086645E+04  0.39514136683E+04  0.36989325289E+04 0.  0.
        3    1    3    3  502    0 -0.10189842285E+03 -0.12867875511E+04 -0.21098197890E+04  0.24733671467E+04  0.10100000352E+00 0. -1.
       -3    1    3    3    0  502  0.10189842285E+03  0.12867875511E+04  0.72001112449E+03  0.14780465215E+04  0.10100000352E+00 0.  1.
</event>
<event>
 5   0  0.5714125E-09  0.3702569E+04  0.7818609E-02  0.8067393E-01
        1   -1    0    0  501    0  0.00000000000E+00  0.00000000000E+00  0.18775087895E+04  0.18775087895E+04  0.50400001928E-02 0. -1.
       -1   -1    0    0    0  501  0.00000000000E+00  0.00000000000E+00 -0.18254263961E+04  0.18254263961E+04  0.50400001928E-02 0.  1.
    10030    2    1    2    0    0  0.00000000000E+00  0.00000000000E+00  0.52082393428E+02  0.37029351856E+04  0.37025688938E+04 0.  0.
        1    1    3    3  502    0  0.99264662939E+02  0.68814537612E+03  0.17419779864E+04  0.18756025265E+04  0.50400001928E-02 0. -1.
       -1    1    3    3    0  502 -0.99264662939E+02 -0.68814537612E+03 -0.16898955930E+04  0.18273326592E+04  0.50400001928E-02 0.  1.
</event>
<event>
 5   0  0.5714125E-09  0.3701064E+04  0.7818609E-02  0.8067726E-01
        1   -1    0    0  501    0  0.00000000000E+00  0.00000000000E+00  0.19140195884E+04  0.19140195884E+04  0.50400001928E-02 0. -1.
       -1   -1    0    0    0  501  0.00000000000E+00  0.00000000000E+00 -0.17891504659E+04  0.17891504659E+04  0.50400001928E-02 0.  1.
    10030    2    1    2    0    0  0.00000000000E+00  0.00000000000E+00  0.12486912247E+03  0.37031700543E+04  0.37010641920E+04 0.  0.
        4    1    3    3  502    0  0.12751988852E+04 -0.99676178598E+03  0.96005211686E+03  0.18818522616E+04  0.12699999809E+01 0. -1.
       -4    1    3    3    0  502 -0.12751988852E+04  0.99676178598E+03 -0.83518299439E+03  0.18213177926E+04  0.12699999809E+01 0.  1.
</event>
<event>
 5   0  0.1825308E-08  0.3702685E+04  0.7818609E-02  0.8067367E-01
       -2   -1    0    0    0  501  0.00000000000E+00  0.00000000000E+00  0.14643730228E+04  0.14643730228E+04  0.25500000920E-02 0.  1.
        2   -1    0    0  501    0  0.00000000000E+00  0.00000000000E+00 -0.23405710232E+04  0.23405710232E+04  0.25500000920E-02 0. -1.
    10030    2    1    2    0    0  0.00000000000E+00  0.00000000000E+00 -0.87619800047E+03  0.38049440460E+04  0.37026850065E+04 0.  0.
        4    1    3    3  502    0  0.25004253530E+02 -0.17759222073E+04  0.98768521114E+02  0.17788428072E+04  0.12699999809E+01 0. -1.
       -4    1    3    3    0  502 -0.25004253530E+02  0.17759222073E+04 -0.97496652158E+03  0.20261012388E+04  0.12699999809E+01 0.  1.
</event>
<event>
 5   0  0.1740290E-08  0.3699691E+04  0.7818609E-02  0.8068030E-01
        2   -1    0    0  501    0  0.00000000000E+00  0.00000000000E+00  0.13591027778E+04  0.13591027778E+04  0.25500000920E-02 0. -1.
       -2   -1    0    0    0  501  0.00000000000E+00  0.00000000000E+00 -0.25177846724E+04  0.25177846724E+04  0.25500000920E-02 0.  1.
    10030    2    1    2    0    0  0.00000000000E+00  0.00000000000E+00 -0.11586818946E+04  0.38768874503E+04  0.36996908748E+04 0.  0.
        5    1    3    3  502    0 -0.77580359650E+03  0.40285216840E+02  0.11798783866E+04  0.14126674118E+04  0.46999998093E+01 0. -1.
       -5    1    3    3    0  502  0.77580359650E+03 -0.40285216840E+02 -0.23385602813E+04  0.24642200385E+04  0.46999998093E+01 0.  1.
</event>
<event>
 5   0  0.5714125E-09  0.3704848E+04  0.7818609E-02  0.8066888E-01
       -1   -1    0    0    0  501  0.00000000000E+00  0.00000000000E+00  0.23129421868E+04  0.23129421868E+04  0.50400001928E-02 0.  1.
        1   -1    0    0  501    0  0.00000000000E+00  0.00000000000E+00 -0.14835970430E+04  0.14835970430E+04  0.50400001928E-02 0. -1.
    10030    2    1    2    0    0  0.00000000000E+00  0.00000000000E+00  0.82934514388E+03  0.37965392298E+04  0.37048477372E+04 0.  0.
        1    1    3    3  502    0 -0.94001917769E+03 -0.56251075522E+03 -0.11160911726E+04  0.15638778436E+04  0.50400001928E-02 0. -1.
       -1    1    3    3    0  502  0.94001917769E+03  0.56251075522E+03  0.19454363164E+04  0.22326613862E+04  0.50400001928E-02 0.  1.
</event>
<event>
 5   0  0.1757996E-08  0.3699722E+04  0.7818609E-02  0.8068024E-01
       -2   -1    0    0    0  501  0.00000000000E+00  0.00000000000E+00  0.12942448972E+04  0.12942448972E+04  0.25500000920E-02 0. -1.
        2   -1    0    0  501    0  0.00000000000E+00  0.00000000000E+00 -0.26440011797E+04  0.26440011797E+04  0.25500000920E-02 0.  1.
    10030    2    1    2    0    0  0.00000000000E+00  0.00000000000E+00 -0.13497562824E+04  0.39382460769E+04  0.36997216301E+04 0.  0.
        3    1    3    3  502    0 -0.41116203199E+02  0.18388224007E+04 -0.46459013670E+03  0.18970509663E+04  0.10100000352E+00 0. -1.
       -3    1    3    3    0  502  0.41116203199E+02 -0.18388224007E+04 -0.88516614572E+03  0.20411951105E+04  0.10100000352E+00 0.  1.
</event>
<event>
 5   0  0.1725865E-08  0.3700434E+04  0.7818609E-02  0.8067866E-01
       -2   -1    0    0    0  501  0.00000000000E+00  0.00000000000E+00  0.14062291697E+04  0.14062291697E+04  0.25500000920E-02 0.  1.
        2   -1    0    0  501    0  0.00000000000E+00  0.00000000000E+00 -0.24343842580E+04  0.24343842580E+04  0.25500000920E-02 0. -1.
    10030    2    1    2    0    0  0.00000000000E+00  0.00000000000E+00 -0.10281550883E+04  0.38406134277E+04  0.37004335712E+04 0.  0.
        1    1    3    3  502    0 -0.12299912754E+04 -0.11234920768E+04  0.32152329746E+03  0.16966113919E+04  0.50400001928E-02 0.  1.
       -1    1    3    3    0  502  0.12299912754E+04  0.11234920768E+04 -0.13496783858E+04  0.21440020358E+04  0.50400001928E-02 0. -1.
</event>
<event>
 5   0  0.1856107E-08  0.3700464E+04  0.7818609E-02  0.8067859E-01
       -2   -1    0    0    0  501  0.00000000000E+00  0.00000000000E+00  0.13466478286E+04  0.13466478286E+04  0.25500000920E-02 0. -1.
        2   -1    0    0  501    0  0.00000000000E+00  0.00000000000E+00 -0.25421331113E+04  0.25421331113E+04  0.25500000920E-02 0.  1.
    10030    2    1    2    0    0  0.00000000000E+00  0.00000000000E+00 -0.11954852827E+04  0.38887809400E+04  0.37004637733E+04 0.  0.
        2    1    3    3  502    0 -0.14314605707E+03  0.83720036487E+03 -0.23251589061E+04  0.24754311106E+04  0.25500000920E-02 0.  1.
       -2    1    3    3    0  502  0.14314605707E+03 -0.83720036487E+03  0.11296736234E+04  0.14133498293E+04  0.25500000920E-02 0. -1.
</event>
<event>
 5   0  0.5714125E-09  0.3700018E+04  0.7818609E-02  0.8067958E-01
        1   -1    0    0  501    0  0.00000000000E+00  0.00000000000E+00  0.28094275564E+04  0.28094275564E+04  0.50400001928E-02 0. -1.
       -1   -1    0    0    0  501  0.00000000000E+00  0.00000000000E+00 -0.12182312823E+04  0.12182312823E+04  0.50400001928E-02 0.  1.
    10030    2    1    2    0    0  0.00000000000E+00  0.00000000000E+00  0.15911962742E+04  0.40276588387E+04  0.37000175862E+04 0.  0.
        2    1    3    3  502    0  0.69409192635E+03 -0.39038899939E+03  0.26133045020E+04  0.27319457522E+04  0.25500000920E-02 0. -1.
       -2    1    3    3    0  502 -0.69409192635E+03  0.39038899939E+03 -0.10221082278E+04  0.12957130865E+04  0.25500000920E-02 0.  1.
</event>
<event>
 5   0  0.5714125E-09  0.3693903E+04  0.7818609E-02  0.8069314E-01
       -1   -1    0    0    0  501  0.00000000000E+00  0.00000000000E+00  0.16631659981E+04  0.16631659981E+04  0.50400001928E-02 0.  1.
        1   -1    0    0  501    0  0.00000000000E+00  0.00000000000E+00 -0.20510462234E+04  0.20510462234E+04  0.50400001928E-02 0. -1.
    10030    2    1    2    0    0  0.00000000000E+00  0.00000000000E+00 -0.38788022527E+03  0.37142122215E+04  0.36939032685E+04 0.  0.
        4    1    3    3  502    0 -0.54455998094E+02  0.13486325132E+04 -0.14616069391E+04  0.19894902786E+04  0.12699999809E+01 0. -1.
       -4    1    3    3    0  502  0.54455998094E+02 -0.13486325132E+04  0.10737267138E+04  0.17247219429E+04  0.12699999809E+01 0.  1.
</event>
<event>
 5   0  0.1740290E-08  0.3702952E+04  0.7818609E-02  0.8067308E-01
       -2   -1    0    0    0  501  0.00000000000E+00  0.00000000000E+00  0.13698107932E+04  0.13698107932E+04  0.25500000920E-02 0.  1.
        2   -1    0    0  501    0  0.00000000000E+00  0.00000000000E+00 -0.25025085008E+04  0.25025085008E+04  0.25500000920E-02 0. -1.
    10030    2    1    2    0    0  0.00000000000E+00  0.00000000000E+00 -0.11326977076E+04  0.38723192940E+04  0.37029518789E+04 0.  0.
        5    1    3    3  502    0  0.27947484673E+03 -0.69494360372E+03  0.12042838240E+04  0.14182293259E+04  0.46999998093E+01 0.  1.
       -5    1    3    3    0  502 -0.27947484673E+03  0.69494360372E+03 -0.23369815315E+04  0.24540899680E+04  0.46999998093E+01 0. -1.
</event>
<event>
 5   0  0.1740290E-08  0.3698284E+04  0.7818609E-02  0.8068342E-01
        2   -1    0    0  501    0  0.00000000000E+00  0.00000000000E+00  0.21314336342E+04  0.21314336342E+04  0.25500000920E-02 0. -1.
       -2   -1    0    0    0  501  0.00000000000E+00  0.00000000000E+00 -0.16042378045E+04  0.16042378045E+04  0.25500000920E-02 0.  1.
    10030    2    1    2    0    0  0.00000000000E+00  0.00000000000E+00  0.52719582975E+03  0.37356714387E+04  0.36982841501E+04 0.  0.
        5    1    3    3  502    0 -0.44605144006E+03 -0.17941098066E+04  0.30288114984E+03  0.18733795575E+04  0.46999998093E+01 0. -1.
       -5    1    3    3    0  502  0.44605144006E+03  0.17941098066E+04  0.22431467991E+03  0.18622918813E+04  0.46999998093E+01 0.  1.
</event>
<event>
 5   0  0.5714125E-09  0.3700240E+04  0.7818609E-02  0.8067909E-01
       -1   -1    0    0    0  501  0.00000000000E+00  0.00000000000E+00  0.27401256469E+04  0.27401256469E+04  0.50400001928E-02 0. -1.
        1   -1    0    0  501    0  0.00000000000E+00  0.00000000000E+00 -0.12491926361E+04  0.12491926361E+04  0.50400001928E-02 0.  1.
    10030    2    1    2    0    0  0.00000000000E+00  0.00000000000E+00  0.14909330107E+04  0.39893182830E+04  0.37002404139E+04 0.  0.
        5    1    3    3  502    0 -0.45194184505E+02 -0.18495079576E+04  0.73020084141E+03  0.19889538855E+04  0.46999998093E+01 0.  1.
       -5    1    3    3    0  502  0.45194184505E+02  0.18495079576E+04  0.76073216934E+03  0.20003643976E+04  0.46999998093E+01 0. -1.
</event>
<event>
 5   0  0.5714125E-09  0.3700075E+04  0.7818609E-02  0.8067945E-01
       -1   -1    0    0    0  501  0.00000000000E+00  0.00000000000E+00  0.13983723303E+04  0.13983723303E+04  0.50400001928E-02 0. -1.
        1   -1    0    0  501    0  0.00000000000E+00  0.00000000000E+00 -0.24475880717E+04  0.24475880717E+04  0.50400001928E-02 0.  1.
    10030    2    1    2    0    0  0.00000000000E+00  0.00000000000E+00 -0.10492157414E+04  0.38459604020E+04  0.37000753697E+04 0.  0.
        4    1    3    3  502    0  0.13097303374E+04 -0.11923469837E+04  0.30832641768E+02  0.17714505782E+04  0.12699999809E+01 0.  1.
       -4    1    3    3    0  502 -0.13097303374E+04  0.11923469837E+04 -0.10800483832E+04  0.20745098238E+04  0.12699999809E+01 0. -1.
</event>
<event>
 5   0  0.5714125E-09  0.3699402E+04  0.7818609E-02  0.8068094E-01
       -1   -1    0    0    0  501  0.00000000000E+00  0.00000000000E+00  0.15376746857E+04  0.15376746857E+04  0.50400001928E-02 0.  1.
        1   -1    0    0  501    0  0.00000000000E+00  0.00000000000E+00 -0.22250437351E+04  0.22250437351E+04  0.50400001928E-02 0. -1.
    10030    2    1    2    0    0  0.00000000000E+00  0.00000000000E+00 -0.68736904940E+03  0.37627184207E+04  0.36994018035E+04 0.  0.
        3    1    3    3  502    0 -0.65175918804E+03  0.15776051305E+04 -0.10684571469E+04  0.20137598348E+04  0.10100000352E+00 0. -1.
       -3    1    3    3    0  502  0.65175918804E+03 -0.15776051305E+04  0.38108809755E+03  0.17489585860E+04  0.10100000352E+00 0.  1.
</event>
<event>
 5   0  0.5714125E-09  0.3699094E+04  0.7818609E-02  0.8068163E-01
        1   -1    0    0  501    0  0.00000000000E+00  0.00000000000E+00  0.26905985574E+04  0.26905985574E+04  0.50400001928E-02 0. -1.
       -1   -1    0    0    0  501  0.00000000000E+00  0.00000000000E+00 -0.12713986667E+04  0.12713986667E+04  0.50400001928E-02 0.  1.
    10030    2    1    2    0    0  0.00000000000E+00  0.00000000000E+00  0.14191998907E+04  0.39619972242E+04  0.36990936288E+04 0.  0.
        5    1    3    3  502    0  0.53399361308E+03  0.17548887139E+04  0.45609777592E+03  0.18901933362E+04  0.46999998093E+01 0. -1.
       -5    1    3    3    0  502 -0.53399361308E+03 -0.17548887139E+04  0.96310211480E+03  0.20718038880E+04  0.46999998093E+01 0.  1.
</event>
<event>
 5   0  0.5714125E-09  0.3699042E+04  0.7818609E-02  0.8068174E-01
       -1   -1    0    0    0  501  0.00000000000E+00  0.00000000000E+00  0.20158655466E+04  0.20158655466E+04  0.50400001928E-02 0. -1.
        1   -1    0    0  501    0  0.00000000000E+00  0.00000000000E+00 -0.16969024578E+04  0.16969024578E+04  0.50400001928E-02 0.  1.
    10030    2    1    2    0    0  0.00000000000E+00  0.00000000000E+00  0.31896308879E+03  0.37127680044E+04  0.36990416059E+04 0.  0.
        1    1    3    3  502    0  0.12822650520E+04  0.95200256729E+03  0.10957961360E+04  0.19368225844E+04  0.50400001928E-02 0. -1.
       -1    1    3    3    0  502 -0.12822650520E+04 -0.95200256729E+03 -0.77683304723E+03  0.17759454200E+04  0.50400001928E-02 0.  1.
</event>
<event>
 5   0  0.1725865E-08  0.3698372E+04  0.7818609E-02  0.8068323E-01
        2   -1    0    0  501    0  0.00000000000E+00  0.00000000000E+00  0.10379890927E+04  0.10379890928E+04  0.25500000920E-02 0.  1.
       -2   -1    0    0    0  501  0.00000000000E+00  0.00000000000E+00 -0.32943394056E+04  0.32943394056E+04  0.25500000920E-02 0. -1.
    10030    2    1    2    0    0  0.00000000000E+00  0.00000000000E+00 -0.22563503128E+04  0.43323284983E+04  0.36983717340E+04 0.  0.
        1    1    3    3  502    0 -0.94984079102E+03  0.88954924618E+03  0.41079547079E+03  0.13646421907E+04  0.50400001928E-02 0.  1.
       -1    1    3    3    0  502  0.94984079102E+03 -0.88954924618E+03 -0.26671457836E+04  0.29676863077E+04  0.50400001928E-02 0. -1.
</event>
<event>
 5   0  0.5714125E-09  0.3700287E+04  0.7818609E-02  0.8067898E-01
       -1   -1    0    0    0  501  0.00000000000E+00  0.00000000000E+00  0.15962054725E+04  0.15962054725E+04  0.50400001928E-02 0.  1.
        1   -1    0    0  501    0  0.00000000000E+00  0.00000000000E+00 -0.21444797385E+04  0.21444797385E+04  0.50400001928E-02 0. -1.
    10030    2    1    2    0    0  0.00000000000E+00  0.00000000000E+00 -0.54827426595E+03  0.37406852110E+04  0.37002866345E+04 0.  0.
        1    1    3    3  502    0 -0.50736659707E+03 -0.19567205897E+03  0.15135935211E+04  0.16083139512E+04  0.50400001928E-02 0.  1.
       -1    1    3    3    0  502  0.50736659707E+03  0.19567205897E+03 -0.20618677870E+04  0.21323712598E+04  0.50400001928E-02 0. -1.
</event>
<event>
 5   0  0.1825308E-08  0.3699939E+04  0.7818609E-02  0.8067975E-01
        2   -1    0    0  501    0  0.00000000000E+00  0.00000000000E+00  0.21736929239E+04  0.21736929239E+04  0.25500000920E-02 0. -1.
       -2   -1    0    0    0  501  0.00000000000E+00  0.00000000000E+00 -0.15744572124E+04  0.15744572124E+04  0.25500000920E-02 0.  1.
    10030    2    1    2    0    0  0.00000000000E+00  0.00000000000E+00  0.59923571146E+03  0.37481501363E+04  0.36999386490E+04 0.  0.
        4    1    3    3  502    0 -0.27752216664E+03  0.11309367158E+04 -0.11565929135E+04  0.16412632905E+04  0.12699999809E+01 0.  1.
       -4    1    3    3    0  502  0.27752216664E+03 -0.11309367158E+04  0.17558286250E+04  0.21068868459E+04  0.12699999809E+01 0. -1.
</event>
<event>
 5   0  0.1740290E-08  0.3697454E+04  0.7818609E-02  0.8068526E-01
       -2   -1    0    0    0  501  0.00000000000E+00  0.00000000000E+00  0.18053097621E+04  0.18053097621E+04  0.25500000920E-02 0.  1.
        2   -1    0    0  501    0  0.00000000000E+00  0.00000000000E+00 -0.18931887497E+04  0.18931887497E+04  0.25500000920E-02 0. -1.
    10030    2    1    2    0    0  0.00000000000E+00  0.00000000000E+00 -0.87878987637E+02  0.36984985118E+04  0.36974543304E+04 0.  0.
        5    1    3    3  502    0 -0.85800669008E+03  0.12595361617E+04 -0.10907354940E+04  0.18741218826E+04  0.46999998093E+01 0. -1.
       -5    1    3    3    0  502  0.85800669008E+03 -0.12595361617E+04  0.10028565064E+04  0.18243766292E+04  0.46999998093E+01 0.  1.
</event>
<event>
 5   0  0.5714125E-09  0.3700821E+04  0.7818609E-02  0.8067780E-01
       -1   -1    0    0    0  501  0.00000000000E+00  0.00000000000E+00  0.14196260175E+04  0.14196260175E+04  0.50400001928E-02 0.  1.
        1   -1    0    0  501    0  0.00000000000E+00  0.00000000000E+00 -0.24119159024E+04  0.24119159024E+04  0.50400001928E-02 0. -1.
    10030    2    1    2    0    0  0.00000000000E+00  0.00000000000E+00 -0.99228988486E+03  0.38315419199E+04  0.37008207561E+04 0.  0.
        2    1    3    3  502    0 -0.67985475473E+03 -0.10942077139E+04 -0.18714198111E+04  0.22719386255E+04  0.25500000920E-02 0. -1.
       -2    1    3    3    0  502  0.67985475473E+03  0.10942077139E+04  0.87912992626E+03  0.15596032944E+04  0.25500000920E-02 0.  1.
</event>
<event>
 5   0  0.5714125E-09  0.3702152E+04  0.7818609E-02  0.8067485E-01
        1   -1    0    0  501    0  0.00000000000E+00  0.00000000000E+00  0.20377737708E+04  0.20377737708E+04  0.50400001928E-02 0.  1.
       -1   -1    0    0    0  501  0.00000000000E+00  0.00000000000E+00 -0.16814835527E+04  0.16814835527E+04  0.50400001928E-02 0. -1.
    10030    2    1    2    0    0  0.00000000000E+00  0.00000000000E+00  0.35629021815E+03  0.37192573235E+04  0.37021523900E+04 0.  0.
        1    1    3    3  502    0 -0.58969358698E+03 -0.15716570581E+04 -0.60561236859E+03  0.17845477791E+04  0.50400001928E-02 0. -1.
       -1    1    3    3    0  502  0.58969358698E+03  0.15716570581E+04  0.96190258674E+03  0.19347095444E+04  0.50400001928E-02 0.  1.
</event>
<event>
 5   0  0.1856107E-08  0.3699455E+04  0.7818609E-02  0.8068083E-01
       -2   -1    0    0    0  501  0.00000000000E+00  0.00000000000E+00  0.13648346206E+04  0.13648346206E+04  0.25500000920E-02 0. -1.
        2   -1    0    0  501    0  0.00000000000E+00  0.00000000000E+00 -0.25068909868E+04  0.25068909868E+04  0.25500000920E-02 0.  1.
    10030    2    1    2    0    0  0.00000000000E+00  0.00000000000E+00 -0.11420563662E+04  0.38717256074E+04  0.36994548836E+04 0.  0.
        2    1    3    3  502    0 -0.33174532991E+03  0.32230474846E+03 -0.24453923765E+04  0.24887505279E+04  0.25500000920E-02 0.  1.
       -2    1    3    3    0  502  0.33174532991E+03 -0.32230474846E+03  0.13033360103E+04  0.13829750796E+04  0.25500000920E-02 0. -1.
</event>
<event>
 5   0  0.5714125E-09  0.3703536E+04  0.7818609E-02  0.8067179E-01
       -1   -1    0    0    0  501  0.00000000000E+00  0.00000000000E+00  0.17887458975E+04  0.17887458975E+04  0.50400001928E-02 0. -1.
        1   -1    0    0  501    0  0.00000000000E+00  0.00000000000E+00 -0.19170106918E+04  0.19170106919E+04  0.50400001928E-02 0.  1.
    10030    2    1    2    0    0  0.00000000000E+00  0.00000000000E+00 -0.12826479436E+03  0.37057565893E+04  0.37035361537E+04 0.  0.
        3    1    3    3  502    0  0.13164480691E+04  0.55492170856E+03  0.11147383760E+04  0.18120748545E+04  0.10100000352E+00 0. -1.
       -3    1    3    3    0  502 -0.13164480691E+04 -0.55492170856E+03 -0.12430031704E+04  0.18936817348E+04  0.10100000352E+00 0.  1.
</event>
<event>
 5   0  0.5714125E-09  0.3700486E+04  0.7818609E-02  0.8067854E-01
        1   -1    0    0  501    0  0.00000000000E+00  0.00000000000E+00  0.23171082228E+04  0.23171082228E+04  0.50400001928E-02 0.  1.
       -1   -1    0    0    0  501  0.00000000000E+00  0.00000000000E+00 -0.14774445173E+04  0.14774445173E+04  0.50400001928E-02 0. -1.
    10030    2    1    2    0    0  0.00000000000E+00  0.00000000000E+00  0.83966370556E+03  0.37945527401E+04  0.37004858274E+04 0.  0.
        3    1    3    3  502    0 -0.11880882705E+04 -0.84562545799E+03  0.15875340547E+04  0.21556670751E+04  0.10100000352E+00 0.  1.
       -3    1    3    3    0  502  0.11880882705E+04  0.84562545799E+03 -0.74787034911E+03  0.16388856650E+04  0.10100000352E+00 0. -1.
</event>
<event>
 5   0  0.1856107E-08  0.3699918E+04  0.7818609E-02  0.8067980E-01
       -2   -1    0    0    0  501  0.00000000000E+00  0.00000000000E+00  0.18292522048E+04  0.18292522048E+04  0.25500000920E-02 0.  1.
        2   -1    0    0  501    0  0.00000000000E+00  0.00000000000E+00 -0.18708999173E+04  0.18708999173E+04  0.25500000920E-02 0. -1.
    10030    2    1    2    0    0  0.00000000000E+00  0.00000000000E+00 -0.41647712452E+02  0.37001521221E+04  0.36999177281E+04 0.  0.
        2    1    3    3  502    0 -0.98059467366E+02  0.17060492544E+04 -0.72947871160E+03  0.18580524503E+04  0.25500000920E-02 0. -1.
       -2    1    3    3    0  502  0.98059467366E+02 -0.17060492544E+04  0.68783099915E+03  0.18420996718E+04  0.25500000920E-02 0.  1.
</event>
<event>
 5   0  0.5714125E-09  0.3699510E+04  0.7818609E-02  0.8068070E-01
       -1   -1    0    0    0  501  0.00000000000E+00  0.00000000000E+00  0.13965827566E+04  0.13965827566E+04  0.50400001928E-02 0. -1.
        1   -1    0    0  501    0  0.00000000000E+00  0.00000000000E+00 -0.24499753736E+04  0.24499753736E+04  0.50400001928E-02 0.  1.
    10030    2    1    2    0    0  0.00000000000E+00  0.00000000000E+00 -0.10533926170E+04  0.38465581302E+04  0.36995098923E+04 0.  0.
        5    1    3    3  502    0  0.73816969974E+03 -0.44794617971E+02 -0.22895737528E+04  0.24060488613E+04  0.46999998093E+01 0.  1.
       -5    1    3    3    0  502 -0.73816969974E+03  0.44794617971E+02  0.12361811357E+04  0.14405092689E+04  0.46999998093E+01 0. -1.
</event>
<event>
 5   0  0.1757996E-08  0.3700615E+04  0.7818609E-02  0.8067826E-01
        2   -1    0    0  501    0  0.00000000000E+00  0.00000000000E+00  0.22117907730E+04  0.22117907730E+04  0.25500000920E-02 0.  1.
       -2   -1    0    0    0  501  0.00000000000E+00  0.00000000000E+00 -0.15479029016E+04  0.15479029017E+04  0.25500000920E-02 0. -1.
    10030    2    1    2    0    0  0.00000000000E+00  0.00000000000E+00  0.66388787134E+03  0.37596936746E+04  0.37006147356E+04 0.  0.
        3    1    3    3  502    0  0.23716139859E+03  0.48852262392E+03 -0.14651184292E+04  0.15625210094E+04  0.10100000352E+00 0. -1.
       -3    1    3    3    0  502 -0.23716139859E+03 -0.48852262392E+03  0.21290063005E+04  0.21971726652E+04  0.10100000352E+00 0.  1.
</event>
<event>
 5   0  0.1757996E-08  0.3719976E+04  0.7818609E-02  0.8063549E-01
        2   -1    0    0  501    0  0.00000000000E+00  0.00000000000E+00  0.22558150701E+04  0.22558150701E+04  0.25500000920E-02 0. -1.
       -2   -1    0    0    0  501  0.00000000000E+00  0.00000000000E+00 -0.15336169668E+04  0.15336169668E+04  0.25500000920E-02 0.  1.
    10030    2    1    2    0    0  0.00000000000E+00  0.00000000000E+00  0.72219810334E+03  0.37894320368E+04  0.37199764867E+04 0.  0.
        3    1    3    3  502    0  0.95633280840E+03  0.65430678978E+03 -0.11210116957E+04  0.16122521663E+04  0.10100000352E+00 0.  1.
       -3    1    3    3    0  502 -0.95633280840E+03 -0.65430678978E+03  0.18432097990E+04  0.21771798706E+04  0.10100000352E+00 0. -1.
</event>
<event>
 5   0  0.1856107E-08  0.3699871E+04  0.7818609E-02  0.8067990E-01
       -2   -1    0    0    0  501  0.00000000000E+00  0.00000000000E+00  0.27675944066E+04  0.27675944066E+04  0.25500000920E-02 0.  1.
        2   -1    0    0  501    0  0.00000000000E+00  0.00000000000E+00 -0.12365471148E+04  0.12365471148E+04  0.25500000920E-02 0. -1.
    10030    2    1    2    0    0  0.00000000000E+00  0.00000000000E+00  0.15310472918E+04  0.40041415214E+04  0.36998707429E+04 0.  0.
        2    1    3    3  502    0 -0.15160960698E+04 -0.87447994690E+03  0.11708464481E+03  0.17541297798E+04  0.25500000920E-02 0. -1.
       -2    1    3    3    0  502  0.15160960698E+04  0.87447994690E+03  0.14139626470E+04  0.22500117416E+04  0.25500000920E-02 0.  1.
</event>
<event>
 5   0  0.5714125E-09  0.3699183E+04  0.7818609E-02  0.8068143E-01
        1   -1    0    0  501    0  0.00000000000E+00  0.00000000000E+00  0.27147301611E+04  0.27147301611E+04  0.50400001928E-02 0.  1.
       -1   -1    0    0    0  501  0.00000000000E+00  0.00000000000E+00 -0.12601581024E+04  0.12601581025E+04  0.50400001928E-02 0. -1.
    10030    2    1    2    0    0  0.00000000000E+00  0.00000000000E+00  0.14545720587E+04  0.39748882636E+04  0.36991832658E+04 0.  0.
        4    1    3    3  502    0 -0.42094688696E+03 -0.17006133882E+04  0.13645342130E+04  0.22206389642E+04  0.12699999809E+01 0.  1.
       -4    1    3    3    0  502  0.42094688696E+03  0.17006133882E+04  0.90037845681E+02  0.17542492994E+04  0.12699999809E+01 0. -1.
</event>
<event>
 5   0  0.1725865E-08  0.3698985E+04  0.7818609E-02  0.8068187E-01
        2   -1    0    0  501    0  0.00000000000E+00  0.00000000000E+00  0.26092172546E+04  0.26092172546E+04  0.25500000920E-02 0.  1.
       -2   -1    0    0    0  501  0.00000000000E+00  0.00000000000E+00 -0.13109762771E+04  0.13109762771E+04  0.25500000920E-02 0. -1.
    10030    2    1    2    0    0  0.00000000000E+00  0.00000000000E+00  0.12982409775E+04  0.39201935317E+04  0.36989846837E+04 0.  0.
        1    1    3    3  502    0  0.15982529955E+04 -0.80660333847E+03  0.11412163299E+04  0.21230629512E+04  0.50400001928E-02 0.  1.
       -1    1    3    3    0  502 -0.15982529955E+04  0.80660333847E+03  0.15702464760E+03  0.17971305805E+04  0.50400001928E-02 0. -1.
</event>
<event>
 5   0  0.1856107E-08  0.3700395E+04  0.7818609E-02  0.8067874E-01
       -2   -1    0    0    0  501  0.00000000000E+00  0.00000000000E+00  0.15421097962E+04  0.15421097962E+04  0.25500000920E-02 0.  1.
        2   -1    0    0  501    0  0.00000000000E+00  0.00000000000E+00 -0.22198361500E+04  0.22198361500E+04  0.25500000920E-02 0. -1.
    10030    2    1    2    0    0  0.00000000000E+00  0.00000000000E+00 -0.67772635381E+03  0.37619459463E+04  0.37003951535E+04 0.  0.
        2    1    3    3  502    0 -0.11402075736E+04 -0.81397950758E+03 -0.15675165315E+04  0.21023187261E+04  0.25500000920E-02 0. -1.
       -2    1    3    3    0  502  0.11402075736E+04  0.81397950758E+03  0.88979017768E+03  0.16596272202E+04  0.25500000920E-02 0.  1.
</event>
<event>
 5   0  0.1725865E-08  0.3699687E+04  0.7818609E-02  0.8068031E-01
        2   -1    0    0  501    0  0.00000000000E+00  0.00000000000E+00  0.16982169324E+04  0.16982169324E+04  0.25500000920E-02 0. -1.
       -2   -1    0    0    0  501  0.00000000000E+00  0.00000000000E+00 -0.20150081097E+04  0.20150081097E+04  0.25500000920E-02 0.  1.
    10030    2    1    2    0    0  0.00000000000E+00  0.00000000000E+00 -0.31679117728E+03  0.37132250421E+04  0.36996869547E+04 0.  0.
        1    1    3    3  502    0 -0.18231465124E+04  0.12797221341E+03 -0.44523992387E+03  0.18810844433E+04  0.50400001928E-02 0. -1.
       -1    1    3    3    0  502  0.18231465124E+04 -0.12797221341E+03  0.12844874659E+03  0.18321405987E+04  0.50400001928E-02 0.  1.
</event>
<event>
 5   0  0.1757996E-08  0.3701050E+04  0.7818609E-02  0.8067729E-01
        2   -1    0    0  501    0  0.00000000000E+00  0.00000000000E+00  0.21680804187E+04  0.21680804187E+04  0.25500000920E-02 0. -1.
       -2   -1    0    0    0  501  0.00000000000E+00  0.00000000000E+00 -0.15794810766E+04  0.15794810766E+04  0.25500000920E-02 0.  1.
    10030    2    1    2    0    0  0.00000000000E+00  0.00000000000E+00  0.58859934208E+03  0.37475614953E+04  0.37010495776E+04 0.  0.
        3    1    3    3  502    0 -0.14236063962E+04  0.94540086396E+03  0.10131539548E+04  0.19866854082E+04  0.10100000352E+00 0.  1.
       -3    1    3    3    0  502  0.14236063962E+04 -0.94540086396E+03 -0.42455461270E+03  0.17608760871E+04  0.10100000352E+00 0. -1.
</event>
<event>
 5   0  0.5714125E-09  0.3700048E+04  0.7818609E-02  0.8067951E-01
       -1   -1    0    0    0  501  0.00000000000E+00  0.00000000000E+00  0.18176675682E+04  0.18176675682E+04  0.50400001928E-02 0.  1.
        1   -1    0    0  501    0  0.00000000000E+00  0.00000000000E+00 -0.18829559198E+04  0.18829559198E+04  0.50400001928E-02 0. -1.
    10030    2    1    2    0    0  0.00000000000E+00  0.00000000000E+00 -0.65288351528E+02  0.37006234880E+04  0.37000475174E+04 0.  0.
        2    1    3    3  502    0 -0.11181285051E+04 -0.15015800586E+03 -0.14991019790E+04  0.18761837661E+04  0.25500000920E-02 0. -1.
       -2    1    3    3    0  502  0.11181285051E+04  0.15015800586E+03  0.14338136275E+04  0.18244397219E+04  0.25500000920E-02 0.  1.
</event>
<event>
 5   0  0.1725865E-08  0.3700775E+04  0.7818609E-02  0.8067790E-01
        2   -1    0    0  501    0  0.00000000000E+00  0.00000000000E+00  0.17782331284E+04  0.17782331284E+04  0.25500000920E-02 0. -1.
       -2   -1    0    0    0  501  0.00000000000E+00  0.00000000000E+00 -0.19254692404E+04  0.19254692404E+04  0.25500000920E-02 0.  1.
    10030    2    1    2    0    0  0.00000000000E+00  0.00000000000E+00 -0.14723611202E+03  0.37037023689E+04  0.37007746168E+04 0.  0.
        1    1    3    3  502    0  0.14783706449E+04  0.10062589749E+04  0.40193815275E+03  0.18329460349E+04  0.50400001928E-02 0. -1.
       -1    1    3    3    0  502 -0.14783706449E+04 -0.10062589749E+04 -0.54917426477E+03  0.18707563340E+04  0.50400001928E-02 0.  1.
</event>
<event>
 5   0  0.1825308E-08  0.3700637E+04  0.7818609E-02  0.8067821E-01
       -2   -1    0    0    0  501  0.00000000000E+00  0.00000000000E+00  0.13956613408E+04  0.13956613408E+04  0.25500000920E-02 0. -1.
        2   -1    0    0  501    0  0.00000000000E+00  0.00000000000E+00 -0.24530863090E+04  0.24530863090E+04  0.25500000920E-02 0.  1.
    10030    2    1    2    0    0  0.00000000000E+00  0.00000000000E+00 -0.10574249681E+04  0.38487476498E+04  0.37006365545E+04 0.  0.
        4    1    3    3  502    0 -0.15185359899E+04  0.65492184917E+03 -0.13918702473E+04  0.21615222829E+04  0.12699999809E+01 0.  1.
       -4    1    3    3    0  502  0.15185359899E+04 -0.65492184917E+03  0.33444527918E+03  0.16872253669E+04  0.12699999809E+01 0. -1.
</event>
<event>
 5   0  0.5714125E-09  0.3701216E+04  0.7818609E-02  0.8067692E-01
        1   -1    0    0  501    0  0.00000000000E+00  0.00000000000E+00  0.25316832279E+04  0.25316832279E+04  0.50400001928E-02 0.  1.
       -1   -1    0    0    0  501  0.00000000000E+00  0.00000000000E+00 -0.13527562717E+04  0.13527562717E+04  0.50400001928E-02 0. -1.
    10030    2    1    2    0    0  0.00000000000E+00  0.00000000000E+00  0.11789269562E+04  0.38844394995E+04  0.37012162133E+04 0.  0.
        1    1    3    3  502    0  0.17995174825E+04 -0.41864467181E+03  0.70065060518E+03  0.19759650305E+04  0.50400001928E-02 0.  1.
       -1    1    3    3    0  502 -0.17995174825E+04  0.41864467181E+03  0.47827635103E+03  0.19084744691E+04  0.50400001928E-02 0. -1.
</event>
<event>
 5   0  0.5714125E-09  0.3699148E+04  0.7818609E-02  0.8068151E-01
        1   -1    0    0  501    0  0.00000000000E+00  0.00000000000E+00  0.16798138249E+04  0.16798138249E+04  0.50400001928E-02 0. -1.
       -1   -1    0    0    0  501  0.00000000000E+00  0.00000000000E+00 -0.20364902568E+04  0.20364902568E+04  0.50400001928E-02 0.  1.
    10030    2    1    2    0    0  0.00000000000E+00  0.00000000000E+00 -0.35667643187E+03  0.37163040817E+04  0.36991482736E+04 0.  0.
        2    1    3    3  502    0  0.13166406482E+04 -0.16236087061E+03 -0.14731213789E+04  0.19824203000E+04  0.25500000920E-02 0.  1.
       -2    1    3    3    0  502 -0.13166406482E+04  0.16236087061E+03  0.11164449470E+04  0.17338837817E+04  0.25500000920E-02 0. -1.
</event>
<event>
 5   0  0.5714125E-09  0.3700215E+04  0.7818609E-02  0.8067914E-01
        1   -1    0    0  501    0  0.00000000000E+00  0.00000000000E+00  0.20339033165E+04  0.20339033165E+04  0.50400001928E-02 0.  1.
       -1   -1    0    0    0  501  0.00000000000E+00  0.00000000000E+00 -0.16829203922E+04  0.16829203923E+04  0.50400001928E-02 0. -1.
    10030    2    1    2    0    0  0.00000000000E+00  0.00000000000E+00  0.35098292422E+03  0.37168237087E+04  0.37002147868E+04 0.  0.
        5    1    3    3  502    0  0.55569764392E+03  0.12365899081E+04 -0.10890958250E+04  0.17389957672E+04  0.46999998093E+01 0. -1.
       -5    1    3    3    0  502 -0.55569764392E+03 -0.12365899081E+04  0.14400787492E+04  0.19778279415E+04  0.46999998093E+01 0.  1.
</event>
<event>
 5   0  0.5714125E-09  0.3703125E+04  0.7818609E-02  0.8067270E-01
        1   -1    0    0  501    0  0.00000000000E+00  0.00000000000E+00  0.30366921249E+04  0.30366921249E+04  0.50400001928E-02 0. -1.
       -1   -1    0    0    0  501  0.00000000000E+00  0.00000000000E+00 -0.11289534964E+04  0.11289534964E+04  0.50400001928E-02 0.  1.
    10030    2    1    2    0    0  0.00000000000E+00  0.00000000000E+00  0.19077386284E+04  0.41656456213E+04  0.37031252703E+04 0.  0.
        3    1    3    3  502    0 -0.15037576367E+04  0.68120925663E+03  0.18970099885E+04  0.25147524705E+04  0.10100000352E+00 0. -1.
       -3    1    3    3    0  502  0.15037576367E+04 -0.68120925663E+03  0.10728639927E+02  0.16508931508E+04  0.10100000352E+00 0.  1.
</event>
<event>
 5   0  0.1825308E-08  0.3697681E+04  0.7818609E-02  0.8068476E-01
       -2   -1    0    0    0  501  0.00000000000E+00  0.00000000000E+00  0.13005992146E+04  0.13005992146E+04  0.25500000920E-02 0. -1.
        2   -1    0    0  501    0  0.00000000000E+00  0.00000000000E+00 -0.26281821279E+04  0.26281821279E+04  0.25500000920E-02 0.  1.
    10030    2    1    2    0    0  0.00000000000E+00  0.00000000000E+00 -0.13275829133E+04  0.39287813424E+04  0.36976812254E+04 0.  0.
        4    1    3    3  502    0 -0.17232827101E+04 -0.62959656019E+03 -0.42123701961E+03  0.18824285822E+04  0.12699999809E+01 0.  1.
       -4    1    3    3    0  502  0.17232827101E+04  0.62959656019E+03 -0.90634589369E+03  0.20463527602E+04  0.12699999809E+01 0. -1.
</event>
<event>
 5   0  0.5714125E-09  0.3699738E+04  0.7818609E-02  0.8068020E-01
        1   -1    0    0  501    0  0.00000000000E+00  0.00000000000E+00  0.16119986094E+04  0.16119986094E+04  0.50400001928E-02 0.  1.
       -1   -1    0    0    0  501  0.00000000000E+00  0.00000000000E+00 -0.21228397529E+04  0.21228397529E+04  0.50400001928E-02 0. -1.
    10030    2    1    2    0    0  0.00000000000E+00  0.00000000000E+00 -0.51084114351E+03  0.37348383623E+04  0.36997376824E+04 0.  0.
        1    1    3    3  502    0  0.15112275885E+03 -0.91989620577E+03 -0.18683803238E+04  0.20880354767E+04  0.50400001928E-02 0. -1.
       -1    1    3    3    0  502 -0.15112275885E+03  0.91989620577E+03  0.13575391803E+04  0.16468028855E+04  0.50400001928E-02 0.  1.
</event>
<event>
 5   0  0.1740290E-08  0.3696096E+04  0.7818609E-02  0.8068828E-01
       -2   -1    0    0    0  501  0.00000000000E+00  0.00000000000E+00  0.17026023827E+04  0.17026023827E+04  0.25500000920E-02 0. -1.
        2   -1    0    0  501    0  0.00000000000E+00  0.00000000000E+00 -0.20059182152E+04  0.20059182152E+04  0.25500000920E-02 0.  1.
    10030    2    1    2    0    0  0.00000000000E+00  0.00000000000E+00 -0.30331583248E+03  0.37085205979E+04  0.36960958498E+04 0.  0.
        5    1    3    3  502    0 -0.10785396493E+04 -0.11912838260E+04  0.76401830838E+03  0.17793681448E+04  0.46999998093E+01 0. -1.
       -5    1    3    3    0  502  0.10785396493E+04  0.11912838260E+04 -0.10673341409E+04  0.19291524531E+04  0.46999998093E+01 0.  1.
</event>
<event>
 5   0  0.1740290E-08  0.3699989E+04  0.7818609E-02  0.8067964E-01
       -2   -1    0    0    0  501  0.00000000000E+00  0.00000000000E+00  0.21933555905E+04  0.21933555905E+04  0.25500000920E-02 0. -1.
        2   -1    0    0  501    0  0.00000000000E+00  0.00000000000E+00 -0.15603850608E+04  0.15603850608E+04  0.25500000920E-02 0.  1.
    10030    2    1    2    0    0  0.00000000000E+00  0.00000000000E+00  0.63297052963E+03  0.37537406513E+04  0.36999888089E+04 0.  0.
        5    1    3    3  502    0 -0.47451092090E+03  0.20830630253E+02  0.21304374863E+04  0.21827460920E+04  0.46999998093E+01 0. -1.
       -5    1    3    3    0  502  0.47451092090E+03 -0.20830630253E+02 -0.14974669566E+04  0.15709945593E+04  0.46999998093E+01 0.  1.
</event>
<event>
 5   0  0.1740290E-08  0.3700028E+04  0.7818609E-02  0.8067956E-01
       -2   -1    0    0    0  501  0.00000000000E+00  0.00000000000E+00  0.11978919762E+04  0.11978919762E+04  0.25500000920E-02 0. -1.
        2   -1    0    0  501    0  0.00000000000E+00  0.00000000000E+00 -0.28571457381E+04  0.28571457381E+04  0.25500000920E-02 0.  1.
    10030    2    1    2    0    0  0.00000000000E+00  0.00000000000E+00 -0.16592537618E+04  0.40550377143E+04  0.37000280835E+04 0.  0.
        5    1    3    3  502    0  0.59552900052E+03 -0.55534070934E+03 -0.26501779045E+04  0.27724579545E+04  0.46999998093E+01 0.  1.
       -5    1    3    3    0  502 -0.59552900052E+03  0.55534070934E+03  0.99092414264E+03  0.12825797599E+04  0.46999998093E+01 0. -1.
</event>
<event>
 5   0  0.1856107E-08  0.3699630E+04  0.7818609E-02  0.8068044E-01
        2   -1    0    0  501    0  0.00000000000E+00  0.00000000000E+00  0.15854053149E+04  0.15854053149E+04  0.25500000920E-02 0. -1.
       -2   -1    0    0    0  501  0.00000000000E+00  0.00000000000E+00 -0.21583227054E+04  0.21583227054E+04  0.25500000920E-02 0.  1.
    10030    2    1    2    0    0  0.00000000000E+00  0.00000000000E+00 -0.57291739050E+03  0.37437280203E+04  0.36996304077E+04 0.  0.
        2    1    3    3  502    0  0.43261789419E+03 -0.18576883098E+03  0.15237597290E+04  0.15948391808E+04  0.25500000920E-02 0. -1.
       -2    1    3    3    0  502 -0.43261789419E+03  0.18576883098E+03 -0.20966771195E+04  0.21488888395E+04  0.25500000920E-02 0.  1.
</event>
<event>
 5   0  0.5714125E-09  0.3699974E+04  0.7818609E-02  0.8067968E-01
        1   -1    0    0  501    0  0.00000000000E+00  0.00000000000E+00  0.27355806552E+04  0.27355806552E+04  0.50400001928E-02 0.  1.
       -1   -1    0    0    0  501  0.00000000000E+00  0.00000000000E+00 -0.12510880734E+04  0.12510880734E+04  0.50400001928E-02 0. -1.
    10030    2    1    2    0    0  0.00000000000E+00  0.00000000000E+00  0.14844925818E+04  0.39866687287E+04  0.36999742333E+04 0.  0.
        4    1    3    3  502    0  0.17505848446E+04 -0.60941950405E+02  0.10099346680E+03  0.17545547904E+04  0.12699999809E+01 0. -1.
       -4    1    3    3    0  502 -0.17505848446E+04  0.60941950405E+02  0.13834991150E+04  0.22321139383E+04  0.12699999809E+01 0.  1.
</event>
<event>
 5   0  0.1725865E-08  0.3700127E+04  0.7818609E-02  0.8067934E-01
       -2   -1    0    0    0  501  0.00000000000E+00  0.00000000000E+00  0.26266267067E+04  0.26266267067E+04  0.25500000920E-02 0.  1.
        2   -1    0    0  501    0  0.00000000000E+00  0.00000000000E+00 -0.13030912363E+04  0.13030912363E+04  0.25500000920E-02 0. -1.
    10030    2    1    2    0    0  0.00000000000E+00  0.00000000000E+00  0.13235354704E+04  0.39297179430E+04  0.37001266155E+04 0.  0.
        1    1    3    3  502    0  0.66441695143E+03  0.16117079638E+04  0.39124139975E+01  0.17432922167E+04  0.50400001928E-02 0. -1.
       -1    1    3    3    0  502 -0.66441695143E+03 -0.16117079638E+04  0.13196230564E+04  0.21864257263E+04  0.50400001928E-02 0.  1.
</event>
<event>
 5   0  0.1740290E-08  0.3702327E+04  0.7818609E-02  0.8067446E-01
       -2   -1    0    0    0  501  0.00000000000E+00  0.00000000000E+00  0.14497749848E+04  0.14497749848E+04  0.25500000920E-02 0.  1.
        2   -1    0    0  501    0  0.00000000000E+00  0.00000000000E+00 -0.23636820905E+04  0.23636820905E+04  0.25500000920E-02 0. -1.
    10030    2    1    2    0    0  0.00000000000E+00  0.00000000000E+00 -0.91390710571E+03  0.38134570753E+04  0.37023274662E+04 0.  0.
        5    1    3    3  502    0  0.12473113820E+04 -0.11887026820E+04 -0.11540129967E+04  0.20737810483E+04  0.46999998093E+01 0. -1.
       -5    1    3    3    0  502 -0.12473113820E+04  0.11887026820E+04  0.24010589099E+03  0.17396760269E+04  0.46999998093E+01 0.  1.
</event>
<event>
 5   0  0.1825308E-08  0.3701346E+04  0.7818609E-02  0.8067664E-01
       -2   -1    0    0    0  501  0.00000000000E+00  0.00000000000E+00  0.15483209567E+04  0.15483209567E+04  0.25500000920E-02 0. -1.
        2   -1    0    0  501    0  0.00000000000E+00  0.00000000000E+00 -0.22120675319E+04  0.22120675319E+04  0.25500000920E-02 0.  1.
    10030    2    1    2    0    0  0.00000000000E+00  0.00000000000E+00 -0.66374657519E+03  0.37603884887E+04  0.37013459808E+04 0.  0.
        4    1    3    3  502    0 -0.10389428480E+04 -0.14732964022E+04 -0.75685737245E+03  0.19552082307E+04  0.12699999809E+01 0.  1.
       -4    1    3    3    0  502  0.10389428480E+04  0.14732964022E+04  0.93110797258E+02  0.18051802580E+04  0.12699999809E+01 0. -1.
</event>
<event>
 5   0  0.1757996E-08  0.3699449E+04  0.7818609E-02  0.8068084E-01
       -2   -1    0    0    0  501  0.00000000000E+00  0.00000000000E+00  0.16162458493E+04  0.16162458493E+04  0.25500000920E-02 0. -1.
        2   -1    0    0  501    0  0.00000000000E+00  0.00000000000E+00 -0.21169312812E+04  0.21169312812E+04  0.25500000920E-02 0.  1.
    10030    2    1    2    0    0  0.00000000000E+00  0.00000000000E+00 -0.50068543190E+03  0.37331771306E+04  0.36994493626E+04 0.  0.
        3    1    3    3  502    0  0.65159543551E+03  0.39723525452E+03  0.14499846208E+04  0.16385444363E+04  0.10100000352E+00 0. -1.
       -3    1    3    3    0  502 -0.65159543551E+03 -0.39723525452E+03 -0.19506700527E+04  0.20946326942E+04  0.10100000352E+00 0.  1.
</event>
<event>
 5   0  0.1740290E-08  0.3700588E+04  0.7818609E-02  0.8067832E-01
        2   -1    0    0  501    0  0.00000000000E+00  0.00000000000E+00  0.26206469600E+04  0.26206469600E+04  0.25500000920E-02 0.  1.
       -2   -1    0    0    0  501  0.00000000000E+00  0.00000000000E+00 -0.13063902273E+04  0.13063902273E+04  0.25500000920E-02 0. -1.
    10030    2    1    2    0    0  0.00000000000E+00  0.00000000000E+00  0.13142567326E+04  0.39270371873E+04  0.37005878332E+04 0.  0.
        5    1    3    3  502    0  0.10221499329E+04 -0.10482277768E+04  0.18577279393E+04  0.23653217844E+04  0.46999998093E+01 0.  1.
       -5    1    3    3    0  502 -0.10221499329E+04  0.10482277768E+04 -0.54347120666E+03  0.15617154029E+04  0.46999998093E+01 0. -1.
</event>
<event>
 5   0  0.5714125E-09  0.3704899E+04  0.7818609E-02  0.8066877E-01
        1   -1    0    0  501    0  0.00000000000E+00  0.00000000000E+00  0.11847302591E+04  0.11847302591E+04  0.50400001928E-02 0.  1.
       -1   -1    0    0    0  501  0.00000000000E+00  0.00000000000E+00 -0.28964981371E+04  0.28964981371E+04  0.50400001928E-02 0. -1.
    10030    2    1    2    0    0  0.00000000000E+00  0.00000000000E+00 -0.17117678780E+04  0.40812283963E+04  0.37048989128E+04 0.  0.
        4    1    3    3  502    0 -0.17323218662E+04 -0.57462745899E+03 -0.50678401727E+03  0.18941930782E+04  0.12699999809E+01 0. -1.
       -4    1    3    3    0  502  0.17323218662E+04  0.57462745899E+03 -0.12049838608E+04  0.21870353180E+04  0.12699999809E+01 0.  1.
</event>
<event>
 5   0  0.5714125E-09  0.3699813E+04  0.7818609E-02  0.8068003E-01
       -1   -1    0    0    0  501  0.00000000000E+00  0.00000000000E+00  0.18917782240E+04  0.18917782240E+04  0.50400001928E-02 0.  1.
        1   -1    0    0  501    0  0.00000000000E+00  0.00000000000E+00 -0.18089616760E+04  0.18089616760E+04  0.50400001928E-02 0. -1.
    10030    2    1    2    0    0  0.00000000000E+00  0.00000000000E+00  0.82816547924E+02  0.37007399000E+04  0.36998131341E+04 0.  0.
        3    1    3    3  502    0  0.58540367293E+03  0.17050270894E+04 -0.37383359558E+03  0.18410775114E+04  0.10100000352E+00 0.  1.
       -3    1    3    3    0  502 -0.58540367293E+03 -0.17050270894E+04  0.45665014351E+03  0.18596623886E+04  0.10100000352E+00 0. -1.
</event>
<event>
 5   0  0.5714125E-09  0.3698370E+04  0.7818609E-02  0.8068323E-01
       -1   -1    0    0    0  501  0.00000000000E+00  0.00000000000E+00  0.16835781114E+04  0.16835781114E+04  0.50400001928E-02 0.  1.
        1   -1    0    0  501    0  0.00000000000E+00  0.00000000000E+00 -0.20310821830E+04  0.20310821830E+04  0.50400001928E-02 0. -1.
    10030    2    1    2    0    0  0.00000000000E+00  0.00000000000E+00 -0.34750407163E+03  0.37146602944E+04  0.36983701847E+04 0.  0.
        5    1    3    3  502    0  0.13109548656E+04 -0.11788603691E+04  0.38651222486E+03  0.18049177874E+04  0.46999998093E+01 0.  1.
       -5    1    3    3    0  502 -0.13109548656E+04  0.11788603691E+04 -0.73401629649E+03  0.19097425070E+04  0.46999998093E+01 0. -1.
</event>
<event>
 5   0  0.1725865E-08  0.3700631E+04  0.7818609E-02  0.8067822E-01
       -2   -1    0    0    0  501  0.00000000000E+00  0.00000000000E+00  0.14622430358E+04  0.14622430358E+04  0.25500000920E-02 0. -1.
        2   -1    0    0  501    0  0.00000000000E+00  0.00000000000E+00 -0.23413811214E+04  0.23413811214E+04  0.25500000920E-02 0.  1.
    10030    2    1    2    0    0  0.00000000000E+00  0.00000000000E+00 -0.87913808560E+03  0.38036241571E+04  0.37006314265E+04 0.  0.
        1    1    3    3  502    0  0.81599850449E+03  0.99342299349E+03 -0.18073668469E+04  0.22179534988E+04  0.50400001928E-02 0.  1.
       -1    1    3    3    0  502 -0.81599850449E+03 -0.99342299349E+03  0.92822876135E+03  0.15856706583E+04  0.50400001928E-02 0. -1.
</event>
<event>
 5   0  0.1740290E-08  0.3700146E+04  0.7818609E-02  0.8067930E-01
       -2   -1    0    0    0  501  0.00000000000E+00  0.00000000000E+00  0.10862561832E+04  0.10862561832E+04  0.25500000920E-02 0.  1.
        2   -1    0    0  501    0  0.00000000000E+00  0.00000000000E+00 -0.31509782071E+04  0.31509782071E+04  0.25500000920E-02 0. -1.
    10030    2    1    2    0    0  0.00000000000E+00  0.00000000000E+00 -0.20647220239E+04  0.42372343902E+04  0.37001457055E+04 0.  0.
        5    1    3    3  502    0  0.83339070395E+03  0.56005604900E+03  0.74707051385E+03  0.12515347722E+04  0.46999998093E+01 0.  1.
       -5    1    3    3    0  502 -0.83339070395E+03 -0.56005604900E+03 -0.28117925378E+04  0.29856996180E+04  0.46999998093E+01 0. -1.
</event>
<event>
 5   0  0.5714125E-09  0.3701780E+04  0.7818609E-02  0.8067567E-01
        1   -1    0    0  501    0  0.00000000000E+00  0.00000000000E+00  0.11650622439E+04  0.11650622439E+04  0.50400001928E-02 0.  1.
       -1   -1    0    0    0  501  0.00000000000E+00  0.00000000000E+00 -0.29404391630E+04  0.29404391630E+04  0.50400001928E-02 0. -1.
    10030    2    1    2    0    0  0.00000000000E+00  0.00000000000E+00 -0.17753769191E+04  0.41055014069E+04  0.37017804631E+04 0.  0.
        5    1    3    3  502    0 -0.82433492829E+03 -0.96307001920E+03 -0.23833761862E+04  0.26995436783E+04  0.46999998093E+01 0. -1.
       -5    1    3    3    0  502  0.82433492829E+03  0.96307001920E+03  0.60799926715E+03  0.14059577286E+04  0.46999998093E+01 0.  1.
</event>
<event>
 5   0  0.5714125E-09  0.3700690E+04  0.7818609E-02  0.8067809E-01
       -1   -1    0    0    0  501  0.00000000000E+00  0.00000000000E+00  0.13256568154E+04  0.13256568154E+04  0.50400001928E-02 0.  1.
        1   -1    0    0  501    0  0.00000000000E+00  0.00000000000E+00 -0.25827018843E+04  0.25827018843E+04  0.50400001928E-02 0. -1.
    10030    2    1    2    0    0  0.00000000000E+00  0.00000000000E+00 -0.12570450689E+04  0.39083586997E+04  0.37006898573E+04 0.  0.
        1    1    3    3  502    0  0.10197054921E+03  0.90922649708E+03  0.10700478323E+04  0.14078683104E+04  0.50400001928E-02 0.  1.
       -1    1    3    3    0  502 -0.10197054921E+03 -0.90922649708E+03 -0.23270929012E+04  0.25004903893E+04  0.50400001928E-02 0. -1.
</event>
<event>
 5   0  0.1825308E-08  0.3699116E+04  0.7818609E-02  0.8068158E-01
        2   -1    0    0  501    0  0.00000000000E+00  0.00000000000E+00  0.14455064934E+04  0.14455064934E+04  0.25500000920E-02 0. -1.
       -2   -1    0    0    0  501  0.00000000000E+00  0.00000000000E+00 -0.23665511945E+04  0.23665511945E+04  0.25500000920E-02 0.  1.
    10030    2    1    2    0    0  0.00000000000E+00  0.00000000000E+00 -0.92104470115E+03  0.38120576879E+04  0.36991161747E+04 0.  0.
        4    1    3    3  502    0  0.74654255110E+03 -0.71910000673E+03 -0.20390985966E+04  0.22874342176E+04  0.12699999809E+01 0.  1.
       -4    1    3    3    0  502 -0.74654255110E+03  0.71910000673E+03  0.11180538954E+04  0.15246234703E+04  0.12699999809E+01 0. -1.
</event>
<event>
 5   0  0.5714125E-09  0.3698714E+04  0.7818609E-02  0.8068247E-01
        1   -1    0    0  501    0  0.00000000000E+00  0.00000000000E+00  0.22365386288E+04  0.22365386288E+04  0.50400001928E-02 0.  1.
       -1   -1    0    0    0  501  0.00000000000E+00  0.00000000000E+00 -0.15292025850E+04  0.15292025850E+04  0.50400001928E-02 0. -1.
    10030    2    1    2    0    0  0.00000000000E+00  0.00000000000E+00  0.70733604378E+03  0.37657412139E+04  0.36987136427E+04 0.  0.
        1    1    3    3  502    0 -0.59336904311E+03 -0.56184521649E+03 -0.13354215459E+04  0.15656013458E+04  0.50400001928E-02 0. -1.
       -1    1    3    3    0  502  0.59336904311E+03  0.56184521649E+03  0.20427575897E+04  0.22001398680E+04  0.50400001928E-02 0.  1.
</event>
<event>
 5   0  0.1825308E-08  0.3701638E+04  0.7818609E-02  0.8067599E-01
        2   -1    0    0  501    0  0.00000000000E+00  0.00000000000E+00  0.24858851209E+04  0.24858851209E+04  0.25500000920E-02 0.  1.
       -2   -1    0    0    0  501  0.00000000000E+00  0.00000000000E+00 -0.13779925942E+04  0.13779925942E+04  0.25500000920E-02 0. -1.
    10030    2    1    2    0    0  0.00000000000E+00  0.00000000000E+00  0.11078925267E+04  0.38638777151E+04  0.37016381706E+04 0.  0.
        4    1    3    3  502    0 -0.54725131561E+03 -0.98898661032E+03 -0.97587822702E+03  0.14932911453E+04  0.12699999809E+01 0. -1.
       -4    1    3    3    0  502  0.54725131561E+03  0.98898661032E+03  0.20837707537E+04  0.23705865698E+04  0.12699999809E+01 0.  1.
</event>
<event>
 5   0  0.1725865E-08  0.3695674E+04  0.7818609E-02  0.8068921E-01
        2   -1    0    0  501    0  0.00000000000E+00  0.00000000000E+00  0.15267145145E+04  0.15267145145E+04  0.25500000920E-02 0.  1.
       -2   -1    0    0    0  501  0.00000000000E+00  0.00000000000E+00 -0.22365033944E+04  0.22365033944E+04  0.25500000920E-02 0. -1.
    10030    2    1    2    0    0  0.00000000000E+00  0.00000000000E+00 -0.70978887988E+03  0.37632179089E+04  0.36956743330E+04 0.  0.
        1    1    3    3  502    0 -0.14399865329E+04 -0.75003913439E+03 -0.12532787164E+04  0.20510552062E+04  0.50400001928E-02 0. -1.
       -1    1    3    3    0  502  0.14399865329E+04  0.75003913439E+03  0.54348983647E+03  0.17121627027E+04  0.50400001928E-02 0.  1.
</event>
<event>
 5   0  0.1740290E-08  0.3673000E+04  0.7818609E-02  0.8073972E-01
        2   -1    0    0  501    0  0.00000000000E+00  0.00000000000E+00  0.15864953956E+04  0.15864953956E+04  0.25500000920E-02 0. -1.
       -2   -1    0    0    0  501  0.00000000000E+00  0.00000000000E+00 -0.21259004951E+04  0.21259004951E+04  0.25500000920E-02 0.  1.
    10030    2    1    2    0    0  0.00000000000E+00  0.00000000000E+00 -0.53940509951E+03  0.37123958907E+04  0.36729995083E+04 0.  0.
        5    1    3    3  502    0  0.11832350013E+04 -0.13468529283E+04  0.13288036284E+03  0.17977033014E+04  0.46999998093E+01 0. -1.
       -5    1    3    3    0  502 -0.11832350013E+04  0.13468529283E+04 -0.67228546234E+03  0.19146925894E+04  0.46999998093E+01 0.  1.
</event>
<event>
 5   0  0.5714125E-09  0.3699463E+04  0.7818609E-02  0.8068081E-01
       -1   -1    0    0    0  501  0.00000000000E+00  0.00000000000E+00  0.16843864317E+04  0.16843864317E+04  0.50400001928E-02 0. -1.
        1   -1    0    0  501    0  0.00000000000E+00  0.00000000000E+00 -0.20313079318E+04  0.20313079318E+04  0.50400001928E-02 0.  1.
    10030    2    1    2    0    0  0.00000000000E+00  0.00000000000E+00 -0.34692150011E+03  0.37156943635E+04  0.36994634849E+04 0.  0.
        1    1    3    3  502    0  0.95022818511E+03  0.15056027388E+04  0.33047183655E+03  0.18107967433E+04  0.50400001928E-02 0. -1.
       -1    1    3    3    0  502 -0.95022818511E+03 -0.15056027388E+04 -0.67739333667E+03  0.19048976202E+04  0.50400001928E-02 0.  1.
</event>
<event>
 5   0  0.5714125E-09  0.3699748E+04  0.7818609E-02  0.8068018E-01
        3   -1    0    0  501    0  0.00000000000E+00  0.00000000000E+00  0.19848397630E+04  0.19848397656E+04  0.10100000352E+00 0. -1.
       -3   -1    0    0    0  501  0.00000000000E+00  0.00000000000E+00 -0.17240854185E+04  0.17240854215E+04  0.10100000352E+00 0.  1.
    10030    2    1    2    0    0  0.00000000000E+00  0.00000000000E+00  0.26075434447E+03  0.37089251870E+04  0.36997477231E+04 0.  0.
        3    1    3    3  502    0 -0.43463143478E+03 -0.53212697136E+03 -0.15914308976E+04  0.17334116389E+04  0.10100000352E+00 0.  1.
       -3    1    3    3    0  502  0.43463143478E+03  0.53212697136E+03  0.18521852421E+04  0.19755135482E+04  0.10100000352E+00 0. -1.
</event>
<event>
 5   0  0.1825308E-08  0.3689175E+04  0.7818609E-02  0.8070365E-01
        2   -1    0    0  501    0  0.00000000000E+00  0.00000000000E+00  0.20517128224E+04  0.20517128224E+04  0.25500000920E-02 0. -1.
       -2   -1    0    0    0  501  0.00000000000E+00  0.00000000000E+00 -0.16583717983E+04  0.16583717983E+04  0.25500000920E-02 0.  1.
    10030    2    1    2    0    0  0.00000000000E+00  0.00000000000E+00  0.39334102407E+03  0.37100846207E+04  0.36891748036E+04 0.  0.
        4    1    3    3  502    0 -0.34515781673E+03 -0.48345256098E+03 -0.15595495101E+04  0.16688488801E+04  0.12699999809E+01 0.  1.
       -4    1    3    3    0  502  0.34515781673E+03  0.48345256098E+03  0.19528905342E+04  0.20412357406E+04  0.12699999809E+01 0. -1.
</event>
<event>
 5   0  0.5714125E-09  0.3699387E+04  0.7818609E-02  0.8068098E-01
        1   -1    0    0  501    0  0.00000000000E+00  0.00000000000E+00  0.12137469401E+04  0.12137469401E+04  0.50400001928E-02 0.  1.
       -1   -1    0    0    0  501  0.00000000000E+00  0.00000000000E+00 -0.28188455902E+04  0.28188455902E+04  0.50400001928E-02 0. -1.
    10030    2    1    2    0    0  0.00000000000E+00  0.00000000000E+00 -0.16050986501E+04  0.40325925303E+04  0.36993865490E+04 0.  0.
        4    1    3    3  502    0  0.64641132570E+03 -0.16352787996E+04 -0.17694067999E+03  0.17672843493E+04  0.12699999809E+01 0. -1.
       -4    1    3    3    0  502 -0.64641132570E+03  0.16352787996E+04 -0.14281579701E+04  0.22653081810E+04  0.12699999809E+01 0.  1.
</event>
<event>
 5   0  0.1825308E-08  0.3707580E+04  0.7818609E-02  0.8066284E-01
       -2   -1    0    0    0  501  0.00000000000E+00  0.00000000000E+00  0.29893795735E+04  0.29893795735E+04  0.25500000920E-02 0. -1.
        2   -1    0    0  501    0  0.00000000000E+00  0.00000000000E+00 -0.11495823091E+04  0.11495823091E+04  0.25500000920E-02 0.  1.
    10030    2    1    2    0    0  0.00000000000E+00  0.00000000000E+00  0.18397972644E+04  0.41389618826E+04  0.37075802744E+04 0.  0.
        4    1    3    3  502    0  0.10772842247E+04  0.13132983510E+03 -0.75788015821E+03  0.13236966320E+04  0.12699999809E+01 0.  1.
       -4    1    3    3    0  502 -0.10772842247E+04 -0.13132983510E+03  0.25976774226E+04  0.28152652506E+04  0.12699999809E+01 0. -1.
</event>
<event>
 5   0  0.5714125E-09  0.3698830E+04  0.7818609E-02  0.8068221E-01
        1   -1    0    0  501    0  0.00000000000E+00  0.00000000000E+00  0.27309176437E+04  0.27309176437E+04  0.50400001928E-02 0.  1.
       -1   -1    0    0    0  501  0.00000000000E+00  0.00000000000E+00 -0.12524495700E+04  0.12524495700E+04  0.50400001928E-02 0. -1.
    10030    2    1    2    0    0  0.00000000000E+00  0.00000000000E+00  0.14784680736E+04  0.39833672137E+04  0.36988304252E+04 0.  0.
        2    1    3    3  502    0 -0.63372516985E+03 -0.46187707505E+03  0.25430125594E+04  0.26611747219E+04  0.25500000920E-02 0.  1.
       -2    1    3    3    0  502  0.63372516985E+03  0.46187707505E+03 -0.10645444857E+04  0.13221924918E+04  0.25500000920E-02 0. -1.
</event>
<event>
 5   0  0.1725865E-08  0.3701109E+04  0.7818609E-02  0.8067716E-01
       -2   -1    0    0    0  501  0.00000000000E+00  0.00000000000E+00  0.13086569154E+04  0.13086569154E+04  0.25500000920E-02 0. -1.
        2   -1    0    0  501    0  0.00000000000E+00  0.00000000000E+00 -0.26168443959E+04  0.26168443959E+04  0.25500000920E-02 0.  1.
    10030    2    1    2    0    0  0.00000000000E+00  0.00000000000E+00 -0.13081874805E+04  0.39255013114E+04  0.37011087611E+04 0.  0.
        1    1    3    3  502    0  0.16840918589E+04  0.62490322509E+03 -0.18228441689E+03  0.18055184958E+04  0.50400001928E-02 0.  1.
       -1    1    3    3    0  502 -0.16840918589E+04 -0.62490322509E+03 -0.11259030636E+04  0.21199828156E+04  0.50400001928E-02 0. -1.
</event>
<event>
 5   0  0.5714125E-09  0.3699129E+04  0.7818609E-02  0.8068155E-01
       -1   -1    0    0    0  501  0.00000000000E+00  0.00000000000E+00  0.20512458655E+04  0.20512458655E+04  0.50400001928E-02 0.  1.
        1   -1    0    0  501    0  0.00000000000E+00  0.00000000000E+00 -0.16677129349E+04  0.16677129349E+04  0.50400001928E-02 0. -1.
    10030    2    1    2    0    0  0.00000000000E+00  0.00000000000E+00  0.38353293062E+03  0.37189588005E+04  0.36991292287E+04 0.  0.
        3    1    3    3  502    0  0.57232275496E+03 -0.13508320289E+04  0.13241206536E+04  0.19762580858E+04  0.10100000352E+00 0.  1.
       -3    1    3    3    0  502 -0.57232275496E+03  0.13508320289E+04 -0.94058772302E+03  0.17427007147E+04  0.10100000352E+00 0. -1.
</event>
<event>
 5   0  0.5714125E-09  0.3702967E+04  0.7818609E-02  0.8067305E-01
       -1   -1    0    0    0  501  0.00000000000E+00  0.00000000000E+00  0.17103868606E+04  0.17103868606E+04  0.50400001928E-02 0.  1.
        1   -1    0    0  501    0  0.00000000000E+00  0.00000000000E+00 -0.20042193936E+04  0.20042193936E+04  0.50400001928E-02 0. -1.
    10030    2    1    2    0    0  0.00000000000E+00  0.00000000000E+00 -0.29383253301E+03  0.37146062542E+04  0.37029666575E+04 0.  0.
        1    1    3    3  502    0 -0.34933484177E+03  0.59899332679E+03  0.15752101892E+04  0.17210795965E+04  0.50400001928E-02 0.  1.
       -1    1    3    3    0  502  0.34933484177E+03 -0.59899332679E+03 -0.18690427223E+04  0.19935266577E+04  0.50400001928E-02 0. -1.
</event>
<event>
 5   0  0.5714125E-09  0.3699668E+04  0.7818609E-02  0.8068035E-01
        1   -1    0    0  501    0  0.00000000000E+00  0.00000000000E+00  0.22622520148E+04  0.22622520148E+04  0.50400001928E-02 0.  1.
       -1   -1    0    0    0  501  0.00000000000E+00  0.00000000000E+00 -0.15126018742E+04  0.15126018742E+04  0.50400001928E-02 0. -1.
    10030    2    1    2    0    0  0.00000000000E+00  0.00000000000E+00  0.74965014064E+03  0.37748538890E+04  0.36996684378E+04 0.  0.
        3    1    3    3  502    0 -0.19346718192E+03  0.16384696164E+04  0.12284112868E+04  0.20569410624E+04  0.10100000352E+00 0. -1.
       -3    1    3    3    0  502  0.19346718192E+03 -0.16384696164E+04 -0.47876114617E+03  0.17179128266E+04  0.10100000352E+00 0.  1.
</event>
<event>
 5   0  0.1757996E-08  0.3701053E+04  0.7818609E-02  0.8067729E-01
        2   -1    0    0  501    0  0.00000000000E+00  0.00000000000E+00  0.12518134808E+04  0.12518134808E+04  0.25500000920E-02 0. -1.
       -2   -1    0    0    0  501  0.00000000000E+00  0.00000000000E+00 -0.27355892190E+04  0.27355892190E+04  0.25500000920E-02 0.  1.
    10030    2    1    2    0    0  0.00000000000E+00  0.00000000000E+00 -0.14837757382E+04  0.39874026998E+04  0.37010525326E+04 0.  0.
        3    1    3    3  502    0 -0.30731541754E+03  0.15457051436E+04 -0.17868813270E+04  0.23825599770E+04  0.10100000352E+00 0. -1.
       -3    1    3    3    0  502  0.30731541754E+03 -0.15457051436E+04  0.30310558880E+03  0.16048427228E+04  0.10100000352E+00 0.  1.
</event>
<event>
 5   0  0.1856107E-08  0.3698722E+04  0.7818609E-02  0.8068245E-01
       -2   -1    0    0    0  501  0.00000000000E+00  0.00000000000E+00  0.19229930078E+04  0.19229930078E+04  0.25500000920E-02 0. -1.
        2   -1    0    0  501    0  0.00000000000E+00  0.00000000000E+00 -0.17785486381E+04  0.17785486381E+04  0.25500000920E-02 0.  1.
    10030    2    1    2    0    0  0.00000000000E+00  0.00000000000E+00  0.14444436964E+03  0.37015416459E+04  0.36987222633E+04 0.  0.
        2    1    3    3  502    0  0.11631112679E+04 -0.11693430385E+04  0.90948744613E+03  0.18834432239E+04  0.25500000920E-02 0. -1.
       -2    1    3    3    0  502 -0.11631112679E+04  0.11693430385E+04 -0.76504307649E+03  0.18180984220E+04  0.25500000920E-02 0.  1.
</event>
<event>
 5   0  0.5714125E-09  0.3700574E+04  0.7818609E-02  0.8067835E-01
        1   -1    0    0  501    0  0.00000000000E+00  0.00000000000E+00  0.15499197977E+04  0.15499197977E+04  0.50400001928E-02 0.  1.
       -1   -1    0    0    0  501  0.00000000000E+00  0.00000000000E+00 -0.22088645019E+04  0.22088645019E+04  0.50400001928E-02 0. -1.
    10030    2    1    2    0    0  0.00000000000E+00  0.00000000000E+00 -0.65894470419E+03  0.37587842996E+04  0.37005744538E+04 0.  0.
        4    1    3    3  502    0  0.73835241341E+03  0.21409442073E+03  0.13800227277E+04  0.15797041018E+04  0.12699999809E+01 0.  1.
       -4    1    3    3    0  502 -0.73835241341E+03 -0.21409442073E+03 -0.20389674319E+04  0.21790801978E+04  0.12699999809E+01 0. -1.
</event>
<event>
 5   0  0.1725865E-08  0.3699718E+04  0.7818609E-02  0.8068024E-01
        2   -1    0    0  501    0  0.00000000000E+00  0.00000000000E+00  0.22159367755E+04  0.22159367755E+04  0.25500000920E-02 0.  1.
       -2   -1    0    0    0  501  0.00000000000E+00  0.00000000000E+00 -0.15442580225E+04  0.15442580225E+04  0.25500000920E-02 0. -1.
    10030    2    1    2    0    0  0.00000000000E+00  0.00000000000E+00  0.67167875301E+03  0.37601947980E+04  0.36997179044E+04 0.  0.
        1    1    3    3  502    0 -0.15049174392E+04  0.10756658528E+04  0.32361711081E+03  0.18779141514E+04  0.50400001928E-02 0.  1.
       -1    1    3    3    0  502  0.15049174392E+04 -0.10756658528E+04  0.34806164220E+03  0.18822806466E+04  0.50400001928E-02 0. -1.
</event>
<event>
 5   0  0.1740290E-08  0.3700794E+04  0.7818609E-02  0.8067786E-01
        2   -1    0    0  501    0  0.00000000000E+00  0.00000000000E+00  0.20294453781E+04  0.20294453781E+04  0.25500000920E-02 0. -1.
       -2   -1    0    0    0  501  0.00000000000E+00  0.00000000000E+00 -0.16871449782E+04  0.16871449782E+04  0.25500000920E-02 0.  1.
    10030    2    1    2    0    0  0.00000000000E+00  0.00000000000E+00  0.34230039997E+03  0.37165903563E+04  0.37007937409E+04 0.  0.
        5    1    3    3  502    0 -0.14516840164E+04 -0.48664966228E+03 -0.87238673102E+03  0.17621847450E+04  0.46999998093E+01 0.  1.
       -5    1    3    3    0  502  0.14516840164E+04  0.48664966228E+03  0.12146871310E+04  0.19544056113E+04  0.46999998093E+01 0. -1.
</event>
<event>
 5   0  0.5714125E-09  0.3701348E+04  0.7818609E-02  0.8067663E-01
        1   -1    0    0  501    0  0.00000000000E+00  0.00000000000E+00  0.13651989880E+04  0.13651989880E+04  0.50400001928E-02 0.  1.
       -1   -1    0    0    0  501  0.00000000000E+00  0.00000000000E+00 -0.25087877012E+04  0.25087877012E+04  0.50400001928E-02 0. -1.
    10030    2    1    2    0    0  0.00000000000E+00  0.00000000000E+00 -0.11435887132E+04  0.38739866893E+04  0.37013480954E+04 0.  0.
        4    1    3    3  502    0 -0.17879364378E+04 -0.28248819694E+02 -0.72601909652E+02  0.17896333009E+04  0.12699999809E+01 0.  1.
       -4    1    3    3    0  502  0.17879364378E+04  0.28248819694E+02 -0.10709868035E+04  0.20843533884E+04  0.12699999809E+01 0. -1.
</event>
<event>
 5   0  0.1725865E-08  0.3700246E+04  0.7818609E-02  0.8067907E-01
        2   -1    0    0  501    0  0.00000000000E+00  0.00000000000E+00  0.13503179886E+04  0.13503179886E+04  0.25500000920E-02 0. -1.
       -2   -1    0    0    0  501  0.00000000000E+00  0.00000000000E+00 -0.25349258958E+04  0.25349258958E+04  0.25500000920E-02 0.  1.
    10030    2    1    2    0    0  0.00000000000E+00  0.00000000000E+00 -0.11846079071E+04  0.38852438844E+04  0.37002464982E+04 0.  0.
        1    1    3    3  502    0 -0.96281303813E+03  0.13393116590E+04 -0.14721675980E+04  0.22108916986E+04  0.50400001928E-02 0.  1.
       -1    1    3    3    0  502  0.96281303813E+03 -0.13393116590E+04  0.28755969085E+03  0.16743521858E+04  0.50400001928E-02 0. -1.
</event>
<event>
 5   0  0.5714125E-09  0.3707880E+04  0.7818609E-02  0.8066218E-01
       -1   -1    0    0    0  501  0.00000000000E+00  0.00000000000E+00  0.15431584963E+04  0.15431584963E+04  0.50400001928E-02 0.  1.
        1   -1    0    0  501    0  0.00000000000E+00  0.00000000000E+00 -0.22273111103E+04  0.22273111104E+04  0.50400001928E-02 0. -1.
    10030    2    1    2    0    0  0.00000000000E+00  0.00000000000E+00 -0.68415261409E+03  0.37704696066E+04  0.37078802914E+04 0.  0.
        1    1    3    3  502    0 -0.96807513506E+03  0.14862734502E+04  0.20639437157E+03  0.17857146672E+04  0.50400001928E-02 0. -1.
       -1    1    3    3    0  502  0.96807513506E+03 -0.14862734502E+04 -0.89054698566E+03  0.19847549394E+04  0.50400001928E-02 0.  1.
</event>
<event>
 5   0  0.1725865E-08  0.3703787E+04  0.7818609E-02  0.8067123E-01
        2   -1    0    0  501    0  0.00000000000E+00  0.00000000000E+00  0.30450302766E+04  0.30450302766E+04  0.25500000920E-02 0. -1.
       -2   -1    0    0    0  501  0.00000000000E+00  0.00000000000E+00 -0.11262647868E+04  0.11262647868E+04  0.25500000920E-02 0.  1.
    10030    2    1    2    0    0  0.00000000000E+00  0.00000000000E+00  0.19187654898E+04  0.41712950634E+04  0.37037874536E+04 0.  0.
        1    1    3    3  502    0  0.15919903818E+04  0.82585735101E+03  0.14792015688E+04  0.23247604223E+04  0.50400001928E-02 0. -1.
       -1    1    3    3    0  502 -0.15919903818E+04 -0.82585735101E+03  0.43956392095E+03  0.18465346411E+04  0.50400001928E-02 0.  1.
</event>
<event>
 5   0  0.5714125E-09  0.3703258E+04  0.7818609E-02  0.8067240E-01
        1   -1    0    0  501    0  0.00000000000E+00  0.00000000000E+00  0.17824258882E+04  0.17824258882E+04  0.50400001928E-02 0.  1.
       -1   -1    0    0    0  501  0.00000000000E+00  0.00000000000E+00 -0.19235191412E+04  0.19235191412E+04  0.50400001928E-02 0. -1.
    10030    2    1    2    0    0  0.00000000000E+00  0.00000000000E+00 -0.14109325304E+03  0.37059450295E+04  0.37032581945E+04 0.  0.
        4    1    3    3  502    0  0.41669099843E+03 -0.11128583305E+04  0.13504990104E+04  0.17988702682E+04  0.12699999809E+01 0.  1.
       -4    1    3    3    0  502 -0.41669099843E+03  0.11128583305E+04 -0.14915922634E+04  0.19070747613E+04  0.12699999809E+01 0. -1.
</event>
<event>
 5   0  0.1856107E-08  0.3698626E+04  0.7818609E-02  0.8068266E-01
       -2   -1    0    0    0  501  0.00000000000E+00  0.00000000000E+00  0.13192190340E+04  0.13192190340E+04  0.25500000920E-02 0.  1.
        2   -1    0    0  501    0  0.00000000000E+00  0.00000000000E+00 -0.25924108191E+04  0.25924108191E+04  0.25500000920E-02 0. -1.
    10030    2    1    2    0    0  0.00000000000E+00  0.00000000000E+00 -0.12731917851E+04  0.39116298530E+04  0.36986255265E+04 0.  0.
        2    1    3    3  502    0 -0.49670023535E+03 -0.91190949966E+03 -0.22549740793E+04  0.24825789328E+04  0.25500000920E-02 0. -1.
       -2    1    3    3    0  502  0.49670023535E+03  0.91190949966E+03  0.98178229419E+03  0.14290509202E+04  0.25500000920E-02 0.  1.
</event>
<event>
 5   0  0.1856107E-08  0.3699002E+04  0.7818609E-02  0.8068183E-01
        2   -1    0    0  501    0  0.00000000000E+00  0.00000000000E+00  0.16379204222E+04  0.16379204222E+04  0.25500000920E-02 0.  1.
       -2   -1    0    0    0  501  0.00000000000E+00  0.00000000000E+00 -0.20884126647E+04  0.20884126647E+04  0.25500000920E-02 0. -1.
    10030    2    1    2    0    0  0.00000000000E+00  0.00000000000E+00 -0.45049224253E+03  0.37263330870E+04  0.36990018943E+04 0.  0.
        2    1    3    3  502    0  0.26460627187E+03 -0.11923853722E+04  0.11738477104E+04  0.16940241445E+04  0.25500000920E-02 0.  1.
       -2    1    3    3    0  502 -0.26460627187E+03  0.11923853722E+04 -0.16243399529E+04  0.20323089425E+04  0.25500000920E-02 0. -1.
</event>
<event>
 5   0  0.5714125E-09  0.3699690E+04  0.7818609E-02  0.8068031E-01
       -1   -1    0    0    0  501  0.00000000000E+00  0.00000000000E+00  0.27292476248E+04  0.27292476248E+04  0.50400001928E-02 0.  1.
        1   -1    0    0  501    0  0.00000000000E+00  0.00000000000E+00 -0.12537984076E+04  0.12537984076E+04  0.50400001928E-02 0. -1.
    10030    2    1    2    0    0  0.00000000000E+00  0.00000000000E+00  0.14754492172E+04  0.39830460323E+04  0.36996898928E+04 0.  0.
        4    1    3    3  502    0 -0.51087979136E+03 -0.14429064492E+04 -0.38055438038E+03  0.15772762700E+04  0.12699999809E+01 0. -1.
       -4    1    3    3    0  502  0.51087979136E+03  0.14429064492E+04  0.18560035976E+04  0.24057697624E+04  0.12699999809E+01 0.  1.
</event>
<event>
 5   0  0.5714125E-09  0.3699802E+04  0.7818609E-02  0.8068006E-01
        1   -1    0    0  501    0  0.00000000000E+00  0.00000000000E+00  0.22001789776E+04  0.22001789776E+04  0.50400001928E-02 0.  1.
       -1   -1    0    0    0  501  0.00000000000E+00  0.00000000000E+00 -0.15553884235E+04  0.15553884235E+04  0.50400001928E-02 0. -1.
    10030    2    1    2    0    0  0.00000000000E+00  0.00000000000E+00  0.64479055405E+03  0.37555674011E+04  0.36998015684E+04 0.  0.
        5    1    3    3  502    0 -0.24398327826E+02 -0.18287699655E+04  0.40512038320E+02  0.18293873784E+04  0.46999998093E+01 0.  1.
       -5    1    3    3    0  502  0.24398327826E+02  0.18287699655E+04  0.60427851573E+03  0.19261800227E+04  0.46999998093E+01 0. -1.
</event>
<event>
 5   0  0.5714125E-09  0.3701275E+04  0.7818609E-02  0.8067679E-01
        1   -1    0    0  501    0  0.00000000000E+00  0.00000000000E+00  0.21188959671E+04  0.21188959672E+04  0.50400001928E-02 0.  1.
       -1   -1    0    0    0  501  0.00000000000E+00  0.00000000000E+00 -0.16163415919E+04  0.16163415919E+04  0.50400001928E-02 0. -1.
    10030    2    1    2    0    0  0.00000000000E+00  0.00000000000E+00  0.50255437524E+03  0.37352375591E+04  0.37012752833E+04 0.  0.
        2    1    3    3  502    0  0.30718064514E+03 -0.62060790969E+03 -0.14806712889E+04  0.16345952380E+04  0.25500000920E-02 0. -1.
       -2    1    3    3    0  502 -0.30718064514E+03  0.62060790969E+03  0.19832256641E+04  0.21006423211E+04  0.25500000920E-02 0.  1.
</event>
<event>
 5   0  0.1757996E-08  0.3702003E+04  0.7818609E-02  0.8067518E-01
       -2   -1    0    0    0  501  0.00000000000E+00  0.00000000000E+00  0.27598652664E+04  0.27598652664E+04  0.25500000920E-02 0. -1.
        2   -1    0    0  501    0  0.00000000000E+00  0.00000000000E+00 -0.12414400064E+04  0.12414400064E+04  0.25500000920E-02 0.  1.
    10030    2    1    2    0    0  0.00000000000E+00  0.00000000000E+00  0.15184252600E+04  0.40013052728E+04  0.37020033246E+04 0.  0.
        3    1    3    3  502    0 -0.73739636744E+03  0.15280096677E+04  0.15590699814E+04  0.23041844901E+04  0.10100000352E+00 0. -1.
       -3    1    3    3    0  502  0.73739636744E+03 -0.15280096677E+04 -0.40644721387E+02  0.16971207827E+04  0.10100000352E+00 0.  1.
</event>
<event>
 5   0  0.5714125E-09  0.3700112E+04  0.7818609E-02  0.8067937E-01
       -1   -1    0    0    0  501  0.00000000000E+00  0.00000000000E+00  0.15496972236E+04  0.15496972236E+04  0.50400001928E-02 0.  1.
        1   -1    0    0  501    0  0.00000000000E+00  0.00000000000E+00 -0.22086290950E+04  0.22086290950E+04  0.50400001928E-02 0. -1.
    10030    2    1    2    0    0  0.00000000000E+00  0.00000000000E+00 -0.65893187138E+03  0.37583263186E+04  0.37001115531E+04 0.  0.
        2    1    3    3  502    0 -0.68701953102E+02 -0.24046911519E+03  0.15324484717E+04  0.15527213762E+04  0.25500000920E-02 0.  1.
       -2    1    3    3    0  502  0.68701953102E+02  0.24046911519E+03 -0.21913803431E+04  0.22056049424E+04  0.25500000920E-02 0. -1.
</event>
<event>
 5   0  0.5714125E-09  0.3696480E+04  0.7818609E-02  0.8068742E-01
       -1   -1    0    0    0  501  0.00000000000E+00  0.00000000000E+00  0.17433660500E+04  0.17433660500E+04  0.50400001928E-02 0.  1.
        1   -1    0    0  501    0  0.00000000000E+00  0.00000000000E+00 -0.19594224659E+04  0.19594224659E+04  0.50400001928E-02 0. -1.
    10030    2    1    2    0    0  0.00000000000E+00  0.00000000000E+00 -0.21605641592E+03  0.37027885160E+04  0.36964797333E+04 0.  0.
        1    1    3    3  502    0 -0.51274455108E+03  0.16931115641E+04 -0.64415831164E+03  0.18826772622E+04  0.50400001928E-02 0. -1.
       -1    1    3    3    0  502  0.51274455108E+03 -0.16931115641E+04  0.42810189572E+03  0.18201112538E+04  0.50400001928E-02 0.  1.
</event>
<event>
 5   0  0.1725865E-08  0.3703050E+04  0.7818609E-02  0.8067286E-01
       -2   -1    0    0    0  501  0.00000000000E+00  0.00000000000E+00  0.17165283219E+04  0.17165283219E+04  0.25500000920E-02 0. -1.
        2   -1    0    0  501    0  0.00000000000E+00  0.00000000000E+00 -0.19971380941E+04  0.19971380941E+04  0.25500000920E-02 0.  1.
    10030    2    1    2    0    0  0.00000000000E+00  0.00000000000E+00 -0.28060977214E+03  0.37136664160E+04  0.37030496088E+04 0.  0.
        1    1    3    3  502    0  0.17439169203E+04 -0.48630198660E+03  0.24863205586E+03  0.18274445946E+04  0.50400001928E-02 0.  1.
       -1    1    3    3    0  502 -0.17439169203E+04  0.48630198660E+03 -0.52924182800E+03  0.18862218214E+04  0.50400001928E-02 0. -1.
</event>
<event>
 5   0  0.5714125E-09  0.3698630E+04  0.7818609E-02  0.8068266E-01
       -3   -1    0    0    0  501  0.00000000000E+00  0.00000000000E+00  0.20188065329E+04  0.20188065355E+04  0.10100000352E+00 0. -1.
        3   -1    0    0  501    0  0.00000000000E+00  0.00000000000E+00 -0.16940533306E+04  0.16940533336E+04  0.10100000352E+00 0.  1.
    10030    2    1    2    0    0  0.00000000000E+00  0.00000000000E+00  0.32475320232E+03  0.37128598691E+04  0.36986299849E+04 0.  0.
        2    1    3    3  502    0  0.15916515890E+03 -0.31170216657E+03  0.19852578275E+04  0.20158721264E+04  0.25500000920E-02 0. -1.
       -2    1    3    3    0  502 -0.15916515890E+03  0.31170216657E+03 -0.16605046252E+04  0.16969877426E+04  0.25500000920E-02 0.  1.
</event>
<event>
 5   0  0.5714125E-09  0.3700524E+04  0.7818609E-02  0.8067846E-01
        1   -1    0    0  501    0  0.00000000000E+00  0.00000000000E+00  0.27894229146E+04  0.27894229146E+04  0.50400001928E-02 0.  1.
       -1   -1    0    0    0  501  0.00000000000E+00  0.00000000000E+00 -0.12273040359E+04  0.12273040359E+04  0.50400001928E-02 0. -1.
    10030    2    1    2    0    0  0.00000000000E+00  0.00000000000E+00  0.15621188788E+04  0.40167269505E+04  0.37005242877E+04 0.  0.
        5    1    3    3  502    0 -0.10438421581E+04 -0.14907983427E+04  0.41883554402E+03  0.18674933608E+04  0.46999998093E+01 0. -1.
       -5    1    3    3    0  502  0.10438421581E+04  0.14907983427E+04  0.11432833347E+04  0.21492335897E+04  0.46999998093E+01 0.  1.
</event>
<event>
 5   0  0.1856107E-08  0.3698794E+04  0.7818609E-02  0.8068229E-01
        2   -1    0    0  501    0  0.00000000000E+00  0.00000000000E+00  0.25651613876E+04  0.25651613876E+04  0.25500000920E-02 0. -1.
       -2   -1    0    0    0  501  0.00000000000E+00  0.00000000000E+00 -0.13333547296E+04  0.13333547296E+04  0.25500000920E-02 0.  1.
    10030    2    1    2    0    0  0.00000000000E+00  0.00000000000E+00  0.12318066580E+04  0.38985161172E+04  0.36987944351E+04 0.  0.
        2    1    3    3  502    0 -0.41558715248E+03 -0.14607658316E+04  0.17282169601E+04  0.23007136625E+04  0.25500000920E-02 0. -1.
       -2    1    3    3    0  502  0.41558715248E+03  0.14607658316E+04 -0.49641030208E+03  0.15978024546E+04  0.25500000920E-02 0.  1.
</event>
<event>
 5   0  0.1856107E-08  0.3702045E+04  0.7818609E-02  0.8067509E-01
       -2   -1    0    0    0  501  0.00000000000E+00  0.00000000000E+00  0.13896591518E+04  0.13896591518E+04  0.25500000920E-02 0. -1.
        2   -1    0    0  501    0  0.00000000000E+00  0.00000000000E+00 -0.24655568822E+04  0.24655568822E+04  0.25500000920E-02 0.  1.
    10030    2    1    2    0    0  0.00000000000E+00  0.00000000000E+00 -0.10758977304E+04  0.38552160340E+04  0.37020446705E+04 0.  0.
        2    1    3    3  502    0 -0.64142679455E+02 -0.71848171093E+02  0.13870479457E+04  0.13903878764E+04  0.25500000920E-02 0. -1.
       -2    1    3    3    0  502  0.64142679455E+02  0.71848171093E+02 -0.24629456761E+04  0.24648281576E+04  0.25500000920E-02 0.  1.
</event>
<event>
 5   0  0.5714125E-09  0.3699955E+04  0.7818609E-02  0.8067972E-01
        1   -1    0    0  501    0  0.00000000000E+00  0.00000000000E+00  0.25660683044E+04  0.25660683044E+04  0.50400001928E-02 0.  1.
       -1   -1    0    0    0  501  0.00000000000E+00  0.00000000000E+00 -0.13337199797E+04  0.13337199797E+04  0.50400001928E-02 0. -1.
    10030    2    1    2    0    0  0.00000000000E+00  0.00000000000E+00  0.12323483247E+04  0.38997882841E+04  0.36999549007E+04 0.  0.
        3    1    3    3  502    0  0.44307516276E+03  0.17806652790E+04  0.36824177709E+03  0.18715465402E+04  0.10100000352E+00 0. -1.
       -3    1    3    3    0  502 -0.44307516276E+03 -0.17806652790E+04  0.86410654758E+03  0.20282417438E+04  0.10100000352E+00 0.  1.
</event>
<event>
 5   0  0.1740290E-08  0.3700764E+04  0.7818609E-02  0.8067792E-01
        2   -1    0    0  501    0  0.00000000000E+00  0.00000000000E+00  0.16123768773E+04  0.16123768773E+04  0.25500000920E-02 0. -1.
       -2   -1    0    0    0  501  0.00000000000E+00  0.00000000000E+00 -0.21235199239E+04  0.21235199239E+04  0.25500000920E-02 0.  1.
    10030    2    1    2    0    0  0.00000000000E+00  0.00000000000E+00 -0.51114304658E+03  0.37358968013E+04  0.37007644745E+04 0.  0.
        5    1    3    3  502    0  0.18203655279E+04 -0.30725240164E+03 -0.38229264833E+03  0.18852863051E+04  0.46999998093E+01 0.  1.
       -5    1    3    3    0  502 -0.18203655279E+04  0.30725240164E+03 -0.12885039825E+03  0.18506104961E+04  0.46999998093E+01 0. -1.
</event>
<event>
 5   0  0.5714125E-09  0.3699580E+04  0.7818609E-02  0.8068055E-01
        1   -1    0    0  501    0  0.00000000000E+00  0.00000000000E+00  0.23679412312E+04  0.23679412312E+04  0.50400001928E-02 0. -1.
       -1   -1    0    0    0  501  0.00000000000E+00  0.00000000000E+00 -0.14450202920E+04  0.14450202920E+04  0.50400001928E-02 0.  1.
    10030    2    1    2    0    0  0.00000000000E+00  0.00000000000E+00  0.92292093925E+03  0.38129615232E+04  0.36995800461E+04 0.  0.
        4    1    3    3  502    0 -0.15636088000E+04  0.96752803444E+03  0.25343681478E+03  0.18561289850E+04  0.12699999809E+01 0.  1.
       -4    1    3    3    0  502  0.15636088000E+04 -0.96752803444E+03  0.66948412447E+03  0.19568325382E+04  0.12699999809E+01 0. -1.
</event>
<event>
 5   0  0.1856107E-08  0.3699366E+04  0.7818609E-02  0.8068102E-01
       -2   -1    0    0    0  501  0.00000000000E+00  0.00000000000E+00  0.19733461520E+04  0.19733461520E+04  0.25500000920E-02 0. -1.
        2   -1    0    0  501    0  0.00000000000E+00  0.00000000000E+00 -0.17337698099E+04  0.17337698099E+04  0.25500000920E-02 0.  1.
    10030    2    1    2    0    0  0.00000000000E+00  0.00000000000E+00  0.23957634203E+03  0.37071159619E+04  0.36993664229E+04 0.  0.
        2    1    3    3  502    0  0.15656003487E+04 -0.14220465609E+03 -0.85693375249E+03  0.17904362799E+04  0.25500000920E-02 0.  1.
       -2    1    3    3    0  502 -0.15656003487E+04  0.14220465609E+03  0.10965100945E+04  0.19166796820E+04  0.25500000920E-02 0. -1.
</event>
<event>
 5   0  0.5714125E-09  0.3699090E+04  0.7818609E-02  0.8068164E-01
        1   -1    0    0  501    0  0.00000000000E+00  0.00000000000E+00  0.17699732306E+04  0.17699732306E+04  0.50400001928E-02 0.  1.
       -1   -1    0    0    0  501  0.00000000000E+00  0.00000000000E+00 -0.19326940292E+04  0.19326940292E+04  0.50400001928E-02 0. -1.
    10030    2    1    2    0    0  0.00000000000E+00  0.00000000000E+00 -0.16272079862E+03  0.37026672599E+04  0.36990899934E+04 0.  0.
        5    1    3    3  502    0 -0.12240963509E+04  0.93808357722E+03 -0.11033188187E+04  0.18962455484E+04  0.46999998093E+01 0. -1.
       -5    1    3    3    0  502  0.12240963509E+04 -0.93808357722E+03  0.94059802012E+03  0.18064217114E+04  0.46999998093E+01 0.  1.
</event>
<event>
 5   0  0.5714125E-09  0.3699398E+04  0.7818609E-02  0.8068095E-01
       -3   -1    0    0    0  501  0.00000000000E+00  0.00000000000E+00  0.17780283728E+04  0.17780283756E+04  0.10100000352E+00 0. -1.
        3   -1    0    0  501    0  0.00000000000E+00  0.00000000000E+00 -0.19242589535E+04  0.19242589562E+04  0.10100000352E+00 0.  1.
    10030    2    1    2    0    0  0.00000000000E+00  0.00000000000E+00 -0.14623058079E+03  0.37022873318E+04  0.36993983436E+04 0.  0.
        2    1    3    3  502    0 -0.16367808523E+04 -0.68508119566E+03 -0.59601659919E+03  0.18717968879E+04  0.25500000920E-02 0.  1.
       -2    1    3    3    0  502  0.16367808523E+04  0.68508119566E+03  0.44978601840E+03  0.18304904439E+04  0.25500000920E-02 0. -1.
</event>
<event>
 5   0  0.5714125E-09  0.3695726E+04  0.7818609E-02  0.8068910E-01
        1   -1    0    0  501    0  0.00000000000E+00  0.00000000000E+00  0.14286349054E+04  0.14286349054E+04  0.50400001928E-02 0.  1.
       -1   -1    0    0    0  501  0.00000000000E+00  0.00000000000E+00 -0.23901123862E+04  0.23901123862E+04  0.50400001928E-02 0. -1.
    10030    2    1    2    0    0  0.00000000000E+00  0.00000000000E+00 -0.96147748076E+03  0.38187472916E+04  0.36957261711E+04 0.  0.
        2    1    3    3  502    0  0.17369627476E+04 -0.40985502435E+03 -0.97583034723E+03  0.20340269404E+04  0.25500000920E-02 0. -1.
       -2    1    3    3    0  502 -0.17369627476E+04  0.40985502435E+03  0.14352866474E+02  0.17847203513E+04  0.25500000920E-02 0.  1.
</event>
<event>
 5   0  0.5714125E-09  0.3699749E+04  0.7818609E-02  0.8068017E-01
        1   -1    0    0  501    0  0.00000000000E+00  0.00000000000E+00  0.13114304231E+04  0.13114304231E+04  0.50400001928E-02 0.  1.
       -1   -1    0    0    0  501  0.00000000000E+00  0.00000000000E+00 -0.26093919078E+04  0.26093919078E+04  0.50400001928E-02 0. -1.
    10030    2    1    2    0    0  0.00000000000E+00  0.00000000000E+00 -0.12979614847E+04  0.39208223309E+04  0.36997491448E+04 0.  0.
        5    1    3    3  502    0  0.13435911163E+04 -0.10032468498E+04 -0.14768595963E+04  0.22344748122E+04  0.46999998093E+01 0. -1.
       -5    1    3    3    0  502 -0.13435911163E+04  0.10032468498E+04  0.17889811160E+03  0.16863475187E+04  0.46999998093E+01 0.  1.
</event>
<event>
 5   0  0.1856107E-08  0.3698457E+04  0.7818609E-02  0.8068304E-01
       -2   -1    0    0    0  501  0.00000000000E+00  0.00000000000E+00  0.21797962870E+04  0.21797962870E+04  0.25500000920E-02 0. -1.
        2   -1    0    0  501    0  0.00000000000E+00  0.00000000000E+00 -0.15687915429E+04  0.15687915429E+04  0.25500000920E-02 0.  1.
    10030    2    1    2    0    0  0.00000000000E+00  0.00000000000E+00  0.61100474418E+03  0.37485878299E+04  0.36984569649E+04 0.  0.
        2    1    3    3  502    0  0.53612468667E+02  0.12541176541E+04 -0.10708287774E+04  0.16499574715E+04  0.25500000920E-02 0.  1.
       -2    1    3    3    0  502 -0.53612468667E+02 -0.12541176541E+04  0.16818335216E+04  0.20986303585E+04  0.25500000920E-02 0. -1.
</event>
<event>
 5   0  0.1856107E-08  0.3698842E+04  0.7818609E-02  0.8068219E-01
        2   -1    0    0  501    0  0.00000000000E+00  0.00000000000E+00  0.23840395155E+04  0.23840395155E+04  0.25500000920E-02 0. -1.
       -2   -1    0    0    0  501  0.00000000000E+00  0.00000000000E+00 -0.14346899958E+04  0.14346899958E+04  0.25500000920E-02 0.  1.
    10030    2    1    2    0    0  0.00000000000E+00  0.00000000000E+00  0.94934951965E+03  0.38187295113E+04  0.36988417877E+04 0.  0.
        2    1    3    3  502    0  0.79977758335E+03  0.12829903838E+04 -0.62504982807E+03  0.16359693748E+04  0.25500000920E-02 0.  1.
       -2    1    3    3    0  502 -0.79977758335E+03 -0.12829903838E+04  0.15743993477E+04  0.21827601366E+04  0.25500000920E-02 0. -1.
</event>
<event>
 5   0  0.5714125E-09  0.3700083E+04  0.7818609E-02  0.8067944E-01
        1   -1    0    0  501    0  0.00000000000E+00  0.00000000000E+00  0.18249275653E+04  0.18249275653E+04  0.50400001928E-02 0. -1.
       -1   -1    0    0    0  501  0.00000000000E+00  0.00000000000E+00 -0.18755005880E+04  0.18755005880E+04  0.50400001928E-02 0.  1.
    10030    2    1    2    0    0  0.00000000000E+00  0.00000000000E+00 -0.50573022682E+02  0.37004281532E+04  0.37000825513E+04 0.  0.
        4    1    3    3  502    0  0.17734036799E+04 -0.36801184530E+03  0.35191947315E+03  0.18450588767E+04  0.12699999809E+01 0. -1.
       -4    1    3    3    0  502 -0.17734036799E+04  0.36801184530E+03 -0.40249249583E+03  0.18553692765E+04  0.12699999809E+01 0.  1.
</event>
<event>
 5   0  0.1825308E-08  0.3698696E+04  0.7818609E-02  0.8068251E-01
        2   -1    0    0  501    0  0.00000000000E+00  0.00000000000E+00  0.16993288194E+04  0.16993288194E+04  0.25500000920E-02 0.  1.
       -2   -1    0    0    0  501  0.00000000000E+00  0.00000000000E+00 -0.20126108809E+04  0.20126108809E+04  0.25500000920E-02 0. -1.
    10030    2    1    2    0    0  0.00000000000E+00  0.00000000000E+00 -0.31328206150E+03  0.37119397002E+04  0.36986958091E+04 0.  0.
        4    1    3    3  502    0 -0.44148227980E+03  0.30052347118E+03  0.16202538075E+04  0.17060026300E+04  0.12699999809E+01 0.  1.
       -4    1    3    3    0  502  0.44148227980E+03 -0.30052347118E+03 -0.19335358690E+04  0.20059370702E+04  0.12699999809E+01 0. -1.
</event>
<event>
 5   0  0.5714125E-09  0.3694668E+04  0.7818609E-02  0.8069144E-01
       -3   -1    0    0    0  501  0.00000000000E+00  0.00000000000E+00  0.13395068652E+04  0.13395068691E+04  0.10100000352E+00 0.  1.
        3   -1    0    0  501    0  0.00000000000E+00  0.00000000000E+00 -0.25476864811E+04  0.25476864831E+04  0.10100000352E+00 0. -1.
    10030    2    1    2    0    0  0.00000000000E+00  0.00000000000E+00 -0.12081796159E+04  0.38871933522E+04  0.36946683441E+04 0.  0.
        5    1    3    3  502    0 -0.36486574030E+03  0.10558475052E+04 -0.21520421488E+04  0.24247161613E+04  0.46999998093E+01 0. -1.
       -5    1    3    3    0  502  0.36486574030E+03 -0.10558475052E+04  0.94386253292E+03  0.14624771909E+04  0.46999998093E+01 0.  1.
</event>
<event>
 5   0  0.5714125E-09  0.3698142E+04  0.7818609E-02  0.8068374E-01
       -3   -1    0    0    0  501  0.00000000000E+00  0.00000000000E+00  0.14455679088E+04  0.14455679124E+04  0.10100000352E+00 0. -1.
        3   -1    0    0  501    0  0.00000000000E+00  0.00000000000E+00 -0.23652040423E+04  0.23652040445E+04  0.10100000352E+00 0.  1.
    10030    2    1    2    0    0  0.00000000000E+00  0.00000000000E+00 -0.91963613347E+03  0.38107719568E+04  0.36981417346E+04 0.  0.
        2    1    3    3  502    0  0.15071457822E+04  0.10516594755E+04 -0.66995784207E+03  0.19560980474E+04  0.25500000920E-02 0.  1.
       -2    1    3    3    0  502 -0.15071457822E+04 -0.10516594755E+04 -0.24967829140E+03  0.18546739094E+04  0.25500000920E-02 0. -1.
</event>
<event>
 5   0  0.5714125E-09  0.3703041E+04  0.7818609E-02  0.8067288E-01
       -1   -1    0    0    0  501  0.00000000000E+00  0.00000000000E+00  0.13831722957E+04  0.13831722957E+04  0.50400001928E-02 0.  1.
        1   -1    0    0  501    0  0.00000000000E+00  0.00000000000E+00 -0.24784531669E+04  0.24784531669E+04  0.50400001928E-02 0. -1.
    10030    2    1    2    0    0  0.00000000000E+00  0.00000000000E+00 -0.10952808712E+04  0.38616254626E+04  0.37030407812E+04 0.  0.
        3    1    3    3  502    0  0.10382006585E+04  0.63416184337E+03  0.90787875168E+03  0.15179807933E+04  0.10100000352E+00 0.  1.
       -3    1    3    3    0  502 -0.10382006585E+04 -0.63416184337E+03 -0.20031596229E+04  0.23436446693E+04  0.10100000352E+00 0. -1.
</event>
<event>
 5   0  0.1856107E-08  0.3698146E+04  0.7818609E-02  0.8068373E-01
       -2   -1    0    0    0  501  0.00000000000E+00  0.00000000000E+00  0.13582309701E+04  0.13582309701E+04  0.25500000920E-02 0. -1.
        2   -1    0    0  501    0  0.00000000000E+00  0.00000000000E+00 -0.25172965083E+04  0.25172965083E+04  0.25500000920E-02 0.  1.
    10030    2    1    2    0    0  0.00000000000E+00  0.00000000000E+00 -0.11590655382E+04  0.38755274784E+04  0.36981455236E+04 0.  0.
        2    1    3    3  502    0 -0.39579674108E+03 -0.10575939896E+04  0.95490788286E+03  0.14788540062E+04  0.25500000920E-02 0. -1.
       -2    1    3    3    0  502  0.39579674108E+03  0.10575939896E+04 -0.21139734211E+04  0.23966734721E+04  0.25500000920E-02 0.  1.
</event>
<event>
 5   0  0.5714125E-09  0.3701097E+04  0.7818609E-02  0.8067719E-01
        1   -1    0    0  501    0  0.00000000000E+00  0.00000000000E+00  0.10707502812E+04  0.10707502812E+04  0.50400001928E-02 0. -1.
       -1   -1    0    0    0  501  0.00000000000E+00  0.00000000000E+00 -0.31982525283E+04  0.31982525283E+04  0.50400001928E-02 0.  1.
    10030    2    1    2    0    0  0.00000000000E+00  0.00000000000E+00 -0.21275022471E+04  0.42690028095E+04  0.37010970233E+04 0.  0.
        1    1    3    3  502    0 -0.76240003816E+03 -0.13979289011E+04 -0.21513384419E+04  0.26765119320E+04  0.50400001928E-02 0.  1.
       -1    1    3    3    0  502  0.76240003816E+03  0.13979289011E+04  0.23836194799E+02  0.15924908775E+04  0.50400001928E-02 0. -1.
</event>
<event>
 5   0  0.1856107E-08  0.3699115E+04  0.7818609E-02  0.8068158E-01
       -2   -1    0    0    0  501  0.00000000000E+00  0.00000000000E+00  0.23555396415E+04  0.23555396415E+04  0.25500000920E-02 0.  1.
        2   -1    0    0  501    0  0.00000000000E+00  0.00000000000E+00 -0.14522632309E+04  0.14522632309E+04  0.25500000920E-02 0. -1.
    10030    2    1    2    0    0  0.00000000000E+00  0.00000000000E+00  0.90327641064E+03  0.38078028724E+04  0.36991153593E+04 0.  0.
        2    1    3    3  502    0  0.28894769916E+03 -0.16415522394E+04 -0.37358924216E+03  0.17081432755E+04  0.25500000920E-02 0. -1.
       -2    1    3    3    0  502 -0.28894769916E+03  0.16415522394E+04  0.12768656528E+04  0.20996595969E+04  0.25500000920E-02 0.  1.
</event>
<event>
 5   0  0.1856107E-08  0.3699201E+04  0.7818609E-02  0.8068139E-01
        2   -1    0    0  501    0  0.00000000000E+00  0.00000000000E+00  0.13617861014E+04  0.13617861014E+04  0.25500000920E-02 0. -1.
       -2   -1    0    0    0  501  0.00000000000E+00  0.00000000000E+00 -0.25121585878E+04  0.25121585878E+04  0.25500000920E-02 0.  1.
    10030    2    1    2    0    0  0.00000000000E+00  0.00000000000E+00 -0.11503724864E+04  0.38739446892E+04  0.36992013459E+04 0.  0.
        2    1    3    3  502    0 -0.17761057505E+04  0.29047894268E+03 -0.10220674244E+04  0.20696742432E+04  0.25500000920E-02 0.  1.
       -2    1    3    3    0  502  0.17761057505E+04 -0.29047894268E+03 -0.12830506202E+03  0.18042704460E+04  0.25500000920E-02 0. -1.
</event>
<event>
 5   0  0.5714125E-09  0.3696598E+04  0.7818609E-02  0.8068716E-01
        1   -1    0    0  501    0  0.00000000000E+00  0.00000000000E+00  0.19180116426E+04  0.19180116426E+04  0.50400001928E-02 0. -1.
       -1   -1    0    0    0  501  0.00000000000E+00  0.00000000000E+00 -0.17811199008E+04  0.17811199008E+04  0.50400001928E-02 0.  1.
    10030    2    1    2    0    0  0.00000000000E+00  0.00000000000E+00  0.13689174178E+03  0.36991315433E+04  0.36965977366E+04 0.  0.
        3    1    3    3  502    0  0.32121072715E+03 -0.32956788575E+03 -0.17228697824E+04  0.17832755311E+04  0.10100000352E+00 0.  1.
       -3    1    3    3    0  502 -0.32121072715E+03  0.32956788575E+03  0.18597615242E+04  0.19158560122E+04  0.10100000352E+00 0. -1.
</event>
<event>
 5   0  0.5714125E-09  0.3700954E+04  0.7818609E-02  0.8067751E-01
       -1   -1    0    0    0  501  0.00000000000E+00  0.00000000000E+00  0.23569224794E+04  0.23569224794E+04  0.50400001928E-02 0.  1.
        1   -1    0    0  501    0  0.00000000000E+00  0.00000000000E+00 -0.14528541220E+04  0.14528541220E+04  0.50400001928E-02 0. -1.
    10030    2    1    2    0    0  0.00000000000E+00  0.00000000000E+00  0.90406835738E+03  0.38097766015E+04  0.37009536822E+04 0.  0.
        1    1    3    3  502    0  0.44350216435E+01 -0.17959733770E+04 -0.68589615861E+01  0.17959919504E+04  0.50400001928E-02 0.  1.
       -1    1    3    3    0  502 -0.44350216435E+01  0.17959733770E+04  0.91092731897E+03  0.20137846511E+04  0.50400001928E-02 0. -1.
</event>
<event>
 5   0  0.5714125E-09  0.3701005E+04  0.7818609E-02  0.8067739E-01
       -1   -1    0    0    0  501  0.00000000000E+00  0.00000000000E+00  0.17448330207E+04  0.17448330207E+04  0.50400001928E-02 0.  1.
        1   -1    0    0  501    0  0.00000000000E+00  0.00000000000E+00 -0.19625716087E+04  0.19625716088E+04  0.50400001928E-02 0. -1.
    10030    2    1    2    0    0  0.00000000000E+00  0.00000000000E+00 -0.21773858807E+03  0.37074046294E+04  0.37010051329E+04 0.  0.
        3    1    3    3  502    0  0.80356519400E+03 -0.14764924965E+04 -0.88390772248E+03  0.18992208890E+04  0.10100000352E+00 0. -1.
       -3    1    3    3    0  502 -0.80356519400E+03  0.14764924965E+04  0.66616913441E+03  0.18081837404E+04  0.10100000352E+00 0.  1.
</event>
<event>
 5   0  0.5714125E-09  0.3699853E+04  0.7818609E-02  0.8067994E-01
       -3   -1    0    0    0  501  0.00000000000E+00  0.00000000000E+00  0.18500040881E+04  0.18500040909E+04  0.10100000352E+00 0. -1.
        3   -1    0    0  501    0  0.00000000000E+00  0.00000000000E+00 -0.18498493005E+04  0.18498493032E+04  0.10100000352E+00 0.  1.
    10030    2    1    2    0    0  0.00000000000E+00  0.00000000000E+00  0.15478765539E+00  0.36998533941E+04  0.36998533909E+04 0.  0.
        3    1    3    3  502    0  0.47846960433E+03  0.16706938556E+04 -0.63401853543E+03  0.18499001689E+04  0.10100000352E+00 0.  1.
       -3    1    3    3    0  502 -0.47846960433E+03 -0.16706938556E+04  0.63417332309E+03  0.18499532252E+04  0.10100000352E+00 0. -1.
</event>
<event>
 5   0  0.5714125E-09  0.3700481E+04  0.7818609E-02  0.8067855E-01
        1   -1    0    0  501    0  0.00000000000E+00  0.00000000000E+00  0.13936637485E+04  0.13936637485E+04  0.50400001928E-02 0. -1.
       -1   -1    0    0    0  501  0.00000000000E+00  0.00000000000E+00 -0.24563956388E+04  0.24563956389E+04  0.50400001928E-02 0.  1.
    10030    2    1    2    0    0  0.00000000000E+00  0.00000000000E+00 -0.10627318903E+04  0.38500593874E+04  0.37004808087E+04 0.  0.
        4    1    3    3  502    0 -0.76910428050E+03  0.10606936567E+04 -0.18906180639E+04  0.23002240552E+04  0.12699999809E+01 0.  1.
       -4    1    3    3    0  502  0.76910428050E+03 -0.10606936567E+04  0.82788617357E+03  0.15498353322E+04  0.12699999809E+01 0. -1.
</event>
<event>
 5   0  0.5714125E-09  0.3700384E+04  0.7818609E-02  0.8067877E-01
       -1   -1    0    0    0  501  0.00000000000E+00  0.00000000000E+00  0.14164521420E+04  0.14164521420E+04  0.50400001928E-02 0. -1.
        1   -1    0    0  501    0  0.00000000000E+00  0.00000000000E+00 -0.24167500091E+04  0.24167500091E+04  0.50400001928E-02 0.  1.
    10030    2    1    2    0    0  0.00000000000E+00  0.00000000000E+00 -0.10002978671E+04  0.38332021511E+04  0.37003841568E+04 0.  0.
        4    1    3    3  502    0  0.11472415566E+04 -0.13860053619E+04 -0.94694805625E+03  0.20331960767E+04  0.12699999809E+01 0.  1.
       -4    1    3    3    0  502 -0.11472415566E+04  0.13860053619E+04 -0.53349810887E+02  0.18000060743E+04  0.12699999809E+01 0. -1.
</event>
<event>
 5   0  0.1725865E-08  0.3705433E+04  0.7818609E-02  0.8066759E-01
       -2   -1    0    0    0  501  0.00000000000E+00  0.00000000000E+00  0.12875548181E+04  0.12875548181E+04  0.25500000920E-02 0.  1.
        2   -1    0    0  501    0  0.00000000000E+00  0.00000000000E+00 -0.26659511193E+04  0.26659511193E+04  0.25500000920E-02 0. -1.
    10030    2    1    2    0    0  0.00000000000E+00  0.00000000000E+00 -0.13783963013E+04  0.39535059374E+04  0.37054328807E+04 0.  0.
        1    1    3    3  502    0 -0.18479002025E+04 -0.12718132046E+03 -0.73251102428E+03  0.19918540728E+04  0.50400001928E-02 0.  1.
       -1    1    3    3    0  502  0.18479002025E+04  0.12718132046E+03 -0.64588527699E+03  0.19616518646E+04  0.50400001928E-02 0. -1.
</event>
<event>
 5   0  0.1757996E-08  0.3699437E+04  0.7818609E-02  0.8068087E-01
       -2   -1    0    0    0  501  0.00000000000E+00  0.00000000000E+00  0.16374292807E+04  0.16374292807E+04  0.25500000920E-02 0.  1.
        2   -1    0    0  501    0  0.00000000000E+00  0.00000000000E+00 -0.20895310350E+04  0.20895310350E+04  0.25500000920E-02 0. -1.
    10030    2    1    2    0    0  0.00000000000E+00  0.00000000000E+00 -0.45210175434E+03  0.37269603157E+04  0.36994374165E+04 0.  0.
        3    1    3    3  502    0  0.52598617729E+03  0.13617943234E+04  0.91832000019E+03  0.17246613786E+04  0.10100000352E+00 0. -1.
       -3    1    3    3    0  502 -0.52598617729E+03 -0.13617943234E+04 -0.13704217545E+04  0.20022989371E+04  0.10100000352E+00 0.  1.
</event>
<event>
 5   0  0.5714125E-09  0.3700432E+04  0.7818609E-02  0.8067866E-01
        3   -1    0    0  501    0  0.00000000000E+00  0.00000000000E+00  0.23374012204E+04  0.23374012226E+04  0.10100000352E+00 0. -1.
       -3   -1    0    0    0  501  0.00000000000E+00  0.00000000000E+00 -0.14645746623E+04  0.14645746658E+04  0.10100000352E+00 0.  1.
    10030    2    1    2    0    0  0.00000000000E+00  0.00000000000E+00  0.87282655808E+03  0.38019758884E+04  0.37004316580E+04 0.  0.
        2    1    3    3  502    0 -0.78698953978E+03  0.11714896815E+03 -0.12798201826E+04  0.15069890896E+04  0.25500000920E-02 0.  1.
       -2    1    3    3    0  502  0.78698953978E+03 -0.11714896815E+03  0.21526467407E+04  0.22949867988E+04  0.25500000920E-02 0. -1.
</event>
<event>
 5   0  0.1856107E-08  0.3701920E+04  0.7818609E-02  0.8067537E-01
       -2   -1    0    0    0  501  0.00000000000E+00  0.00000000000E+00  0.13909406836E+04  0.13909406836E+04  0.25500000920E-02 0. -1.
        2   -1    0    0  501    0  0.00000000000E+00  0.00000000000E+00 -0.24631189769E+04  0.24631189769E+04  0.25500000920E-02 0.  1.
    10030    2    1    2    0    0  0.00000000000E+00  0.00000000000E+00 -0.10721782933E+04  0.38540596604E+04  0.37019197146E+04 0.  0.
        2    1    3    3  502    0 -0.88995799167E+03 -0.24527149311E+03 -0.22063513835E+04  0.23916876384E+04  0.25500000920E-02 0.  1.
       -2    1    3    3    0  502  0.88995799167E+03  0.24527149311E+03  0.11341730902E+04  0.14623720220E+04  0.25500000920E-02 0. -1.
</event>
<event>
 5   0  0.1825308E-08  0.3699182E+04  0.7818609E-02  0.8068143E-01
        2   -1    0    0  501    0  0.00000000000E+00  0.00000000000E+00  0.17104149696E+04  0.17104149696E+04  0.25500000920E-02 0. -1.
       -2   -1    0    0    0  501  0.00000000000E+00  0.00000000000E+00 -0.20000918824E+04  0.20000918824E+04  0.25500000920E-02 0.  1.
    10030    2    1    2    0    0  0.00000000000E+00  0.00000000000E+00 -0.28967691275E+03  0.37105068520E+04  0.36991821238E+04 0.  0.
        4    1    3    3  502    0  0.10480652710E+04  0.55671576995E+03 -0.15678472280E+04  0.19663468168E+04  0.12699999809E+01 0.  1.
       -4    1    3    3    0  502 -0.10480652710E+04 -0.55671576995E+03  0.12781703152E+04  0.17441600352E+04  0.12699999809E+01 0. -1.
</event>
<event>
 5   0  0.5714125E-09  0.3700224E+04  0.7818609E-02  0.8067912E-01
        1   -1    0    0  501    0  0.00000000000E+00  0.00000000000E+00  0.16928116392E+04  0.16928116392E+04  0.50400001928E-02 0. -1.
       -1   -1    0    0    0  501  0.00000000000E+00  0.00000000000E+00 -0.20220288928E+04  0.20220288928E+04  0.50400001928E-02 0.  1.
    10030    2    1    2    0    0  0.00000000000E+00  0.00000000000E+00 -0.32921725367E+03  0.37148405320E+04  0.37002238011E+04 0.  0.
        4    1    3    3  502    0 -0.32971296922E+03 -0.86390588673E+03 -0.17733956899E+04  0.19999944772E+04  0.12699999809E+01 0.  1.
       -4    1    3    3    0  502  0.32971296922E+03  0.86390588673E+03  0.14441784362E+04  0.17148460548E+04  0.12699999809E+01 0. -1.
</event>
<event>
 5   0  0.1740290E-08  0.3700434E+04  0.7818609E-02  0.8067866E-01
        2   -1    0    0  501    0  0.00000000000E+00  0.00000000000E+00  0.30370941072E+04  0.30370941072E+04  0.25500000920E-02 0.  1.
       -2   -1    0    0    0  501  0.00000000000E+00  0.00000000000E+00 -0.11271638488E+04  0.11271638488E+04  0.25500000920E-02 0. -1.
    10030    2    1    2    0    0  0.00000000000E+00  0.00000000000E+00  0.19099302583E+04  0.41642579560E+04  0.37004338573E+04 0.  0.
        5    1    3    3  502    0 -0.16938665169E+04  0.92900308527E+02  0.17860951311E+04  0.24633254255E+04  0.46999998093E+01 0.  1.
       -5    1    3    3    0  502  0.16938665169E+04 -0.92900308527E+02  0.12383512720E+03  0.17009325305E+04  0.46999998093E+01 0. -1.
</event>
<event>
 5   0  0.1725865E-08  0.3702433E+04  0.7818609E-02  0.8067423E-01
        2   -1    0    0  501    0  0.00000000000E+00  0.00000000000E+00  0.25108500954E+04  0.25108500954E+04  0.25500000920E-02 0.  1.
       -2   -1    0    0    0  501  0.00000000000E+00  0.00000000000E+00 -0.13648777001E+04  0.13648777001E+04  0.25500000920E-02 0. -1.
    10030    2    1    2    0    0  0.00000000000E+00  0.00000000000E+00  0.11459723953E+04  0.38757277955E+04  0.37024334179E+04 0.  0.
        1    1    3    3  502    0 -0.10297956550E+04  0.33551490435E+03 -0.99860117571E+03  0.14731780783E+04  0.50400001928E-02 0. -1.
       -1    1    3    3    0  502  0.10297956550E+04 -0.33551490435E+03  0.21445735711E+04  0.24025497173E+04  0.50400001928E-02 0.  1.
</event>
<event>
 5   0  0.5714125E-09  0.3701264E+04  0.7818609E-02  0.8067682E-01
        1   -1    0    0  501    0  0.00000000000E+00  0.00000000000E+00  0.26050233975E+04  0.26050233975E+04  0.50400001928E-02 0. -1.
       -1   -1    0    0    0  501  0.00000000000E+00  0.00000000000E+00 -0.13147056024E+04  0.13147056024E+04  0.50400001928E-02 0.  1.
    10030    2    1    2    0    0  0.00000000000E+00  0.00000000000E+00  0.12903177951E+04  0.39197289999E+04  0.37012640301E+04 0.  0.
        4    1    3    3  502    0  0.14389465576E+04 -0.11629322253E+04  0.69081606406E+03  0.19748941753E+04  0.12699999809E+01 0.  1.
       -4    1    3    3    0  502 -0.14389465576E+04  0.11629322253E+04  0.59950173103E+03  0.19448348246E+04  0.12699999809E+01 0. -1.
</event>
<event>
 5   0  0.5714125E-09  0.3701474E+04  0.7818609E-02  0.8067635E-01
        1   -1    0    0  501    0  0.00000000000E+00  0.00000000000E+00  0.18812788095E+04  0.18812788095E+04  0.50400001928E-02 0. -1.
       -1   -1    0    0    0  501  0.00000000000E+00  0.00000000000E+00 -0.18206912118E+04  0.18206912118E+04  0.50400001928E-02 0.  1.
    10030    2    1    2    0    0  0.00000000000E+00  0.00000000000E+00  0.60587597728E+02  0.37019700213E+04  0.37014741903E+04 0.  0.
        3    1    3    3  502    0  0.45462248919E+02 -0.16493733471E+04  0.86869514162E+03  0.18647065489E+04  0.10100000352E+00 0. -1.
       -3    1    3    3    0  502 -0.45462248919E+02  0.16493733471E+04 -0.80810754389E+03  0.18372634724E+04  0.10100000352E+00 0.  1.
</event>
<event>
 5   0  0.1825308E-08  0.3698540E+04  0.7818609E-02  0.8068285E-01
        2   -1    0    0  501    0  0.00000000000E+00  0.00000000000E+00  0.25448615390E+04  0.25448615390E+04  0.25500000920E-02 0. -1.
       -2   -1    0    0    0  501  0.00000000000E+00  0.00000000000E+00 -0.13438055972E+04  0.13438055972E+04  0.25500000920E-02 0.  1.
    10030    2    1    2    0    0  0.00000000000E+00  0.00000000000E+00  0.12010559418E+04  0.38886671362E+04  0.36985398093E+04 0.  0.
        4    1    3    3  502    0 -0.11905275849E+04 -0.13224561245E+04  0.11299518301E+04  0.21078517222E+04  0.12699999809E+01 0.  1.
       -4    1    3    3    0  502  0.11905275849E+04  0.13224561245E+04  0.71104111712E+02  0.17808154141E+04  0.12699999809E+01 0. -1.
</event>
<event>
 5   0  0.1757996E-08  0.3699517E+04  0.7818609E-02  0.8068069E-01
        2   -1    0    0  501    0  0.00000000000E+00  0.00000000000E+00  0.15393783663E+04  0.15393783663E+04  0.25500000920E-02 0. -1.
       -2   -1    0    0    0  501  0.00000000000E+00  0.00000000000E+00 -0.22227197224E+04  0.22227197224E+04  0.25500000920E-02 0.  1.
    10030    2    1    2    0    0  0.00000000000E+00  0.00000000000E+00 -0.68334135611E+03  0.37620980887E+04  0.36995170793E+04 0.  0.
        3    1    3    3  502    0  0.40887236393E+03 -0.17274719177E+04 -0.87034065603E+03  0.19770757962E+04  0.10100000352E+00 0.  1.
       -3    1    3    3    0  502 -0.40887236393E+03  0.17274719177E+04  0.18699929992E+03  0.17850222925E+04  0.10100000352E+00 0. -1.
</event>
<event>
 5   0  0.1856107E-08  0.3701151E+04  0.7818609E-02  0.8067707E-01
        2   -1    0    0  501    0  0.00000000000E+00  0.00000000000E+00  0.22084304622E+04  0.22084304622E+04  0.25500000920E-02 0. -1.
       -2   -1    0    0    0  501  0.00000000000E+00  0.00000000000E+00 -0.15507077927E+04  0.15507077927E+04  0.25500000920E-02 0.  1.
    10030    2    1    2    0    0  0.00000000000E+00  0.00000000000E+00  0.65772266954E+03  0.37591382549E+04  0.37011513492E+04 0.  0.
        2    1    3    3  502    0  0.69343240637E+03  0.55274428700E+03  0.19785799933E+04  0.21682143665E+04  0.25500000920E-02 0. -1.
       -2    1    3    3    0  502 -0.69343240637E+03 -0.55274428700E+03 -0.13208573238E+04  0.15909238884E+04  0.25500000920E-02 0.  1.
</event>
<event>
 5   0  0.1856107E-08  0.3699774E+04  0.7818609E-02  0.8068012E-01
        2   -1    0    0  501    0  0.00000000000E+00  0.00000000000E+00  0.19866519756E+04  0.19866519756E+04  0.25500000920E-02 0. -1.
       -2   -1    0    0    0  501  0.00000000000E+00  0.00000000000E+00 -0.17225371340E+04  0.17225371340E+04  0.25500000920E-02 0.  1.
    10030    2    1    2    0    0  0.00000000000E+00  0.00000000000E+00  0.26411484163E+03  0.37091891095E+04  0.36997739391E+04 0.  0.
        2    1    3    3  502    0 -0.12834108938E+04  0.87333783118E+03 -0.87659398040E+03  0.17827729794E+04  0.25500000920E-02 0.  1.
       -2    1    3    3    0  502  0.12834108938E+04 -0.87333783118E+03  0.11407088220E+04  0.19264161301E+04  0.25500000920E-02 0. -1.
</event>
<event>
 5   0  0.1825308E-08  0.3700118E+04  0.7818609E-02  0.8067936E-01
       -2   -1    0    0    0  501  0.00000000000E+00  0.00000000000E+00  0.13929182760E+04  0.13929182760E+04  0.25500000920E-02 0. -1.
        2   -1    0    0  501    0  0.00000000000E+00  0.00000000000E+00 -0.24572281721E+04  0.24572281721E+04  0.25500000920E-02 0.  1.
    10030    2    1    2    0    0  0.00000000000E+00  0.00000000000E+00 -0.10643098960E+04  0.38501464481E+04  0.37001178518E+04 0.  0.
        4    1    3    3  502    0 -0.37335661595E+02  0.34523938589E+03  0.13587030822E+04  0.14023765057E+04  0.12699999809E+01 0. -1.
       -4    1    3    3    0  502  0.37335661595E+02 -0.34523938589E+03 -0.24230129782E+04  0.24477699424E+04  0.12699999809E+01 0.  1.
</event>
<event>
 5   0  0.1740290E-08  0.3698987E+04  0.7818609E-02  0.8068186E-01
       -2   -1    0    0    0  501  0.00000000000E+00  0.00000000000E+00  0.17315628137E+04  0.17315628137E+04  0.25500000920E-02 0. -1.
        2   -1    0    0  501    0  0.00000000000E+00  0.00000000000E+00 -0.19754558159E+04  0.19754558159E+04  0.25500000920E-02 0.  1.
    10030    2    1    2    0    0  0.00000000000E+00  0.00000000000E+00 -0.24389300217E+03  0.37070186296E+04  0.36989867969E+04 0.  0.
        5    1    3    3  502    0  0.34951160697E+03 -0.59121991156E+03  0.15990196707E+04  0.17402831219E+04  0.46999998093E+01 0. -1.
       -5    1    3    3    0  502 -0.34951160697E+03  0.59121991156E+03 -0.18429126729E+04  0.19667355077E+04  0.46999998093E+01 0.  1.
</event>
<event>
 5   0  0.1740290E-08  0.3701142E+04  0.7818609E-02  0.8067709E-01
       -2   -1    0    0    0  501  0.00000000000E+00  0.00000000000E+00  0.18912614310E+04  0.18912614310E+04  0.25500000920E-02 0.  1.
        2   -1    0    0  501    0  0.00000000000E+00  0.00000000000E+00 -0.18107557028E+04  0.18107557028E+04  0.25500000920E-02 0. -1.
    10030    2    1    2    0    0  0.00000000000E+00  0.00000000000E+00  0.80505728133E+02  0.37020171338E+04  0.37011416734E+04 0.  0.
        5    1    3    3  502    0 -0.52831033704E+03 -0.17485331781E+04  0.33715677478E+03  0.18574651728E+04  0.46999998093E+01 0.  1.
       -5    1    3    3    0  502  0.52831033704E+03  0.17485331781E+04 -0.25665104665E+03  0.18445519611E+04  0.46999998093E+01 0. -1.
</event>
<event>
 5   0  0.1757996E-08  0.3698770E+04  0.7818609E-02  0.8068234E-01
        2   -1    0    0  501    0  0.00000000000E+00  0.00000000000E+00  0.20413635199E+04  0.20413635199E+04  0.25500000920E-02 0. -1.
       -2   -1    0    0    0  501  0.00000000000E+00  0.00000000000E+00 -0.16754610315E+04  0.16754610315E+04  0.25500000920E-02 0.  1.
    10030    2    1    2    0    0  0.00000000000E+00  0.00000000000E+00  0.36590248837E+03  0.37168245514E+04  0.36987700813E+04 0.  0.
        3    1    3    3  502    0 -0.44033320755E+03 -0.39187304627E+03  0.19444386983E+04  0.20318217637E+04  0.10100000352E+00 0. -1.
       -3    1    3    3    0  502  0.44033320755E+03  0.39187304627E+03 -0.15785362099E+04  0.16850027876E+04  0.10100000352E+00 0.  1.
</event>
<event>
 5   0  0.5714125E-09  0.3700737E+04  0.7818609E-02  0.8067799E-01
        1   -1    0    0  501    0  0.00000000000E+00  0.00000000000E+00  0.14088001956E+04  0.14088001956E+04  0.50400001928E-02 0.  1.
       -1   -1    0    0    0  501  0.00000000000E+00  0.00000000000E+00 -0.24303396648E+04  0.24303396648E+04  0.50400001928E-02 0. -1.
    10030    2    1    2    0    0  0.00000000000E+00  0.00000000000E+00 -0.10215394692E+04  0.38391398604E+04  0.37007366808E+04 0.  0.
        1    1    3    3  502    0  0.10970722518E+04  0.12472330358E+04 -0.13565553507E+04  0.21446212231E+04  0.50400001928E-02 0. -1.
       -1    1    3    3    0  502 -0.10970722518E+04 -0.12472330358E+04  0.33501588144E+03  0.16945186373E+04  0.50400001928E-02 0.  1.
</event>
<event>
 5   0  0.5714125E-09  0.3699721E+04  0.7818609E-02  0.8068024E-01
       -1   -1    0    0    0  501  0.00000000000E+00  0.00000000000E+00  0.15285471672E+04  0.15285471672E+04  0.50400001928E-02 0.  1.
        1   -1    0    0  501    0  0.00000000000E+00  0.00000000000E+00 -0.22387163829E+04  0.22387163829E+04  0.50400001928E-02 0. -1.
    10030    2    1    2    0    0  0.00000000000E+00  0.00000000000E+00 -0.71016921564E+03  0.37672635501E+04  0.36997208463E+04 0.  0.
        1    1    3    3  502    0  0.59602190704E+02 -0.96060797688E+03  0.12535227795E+04  0.15803921871E+04  0.50400001928E-02 0.  1.
       -1    1    3    3    0  502 -0.59602190704E+02  0.96060797688E+03 -0.19636919951E+04  0.21868713630E+04  0.50400001928E-02 0. -1.
</event>
<event>
 5   0  0.1856107E-08  0.3703694E+04  0.7818609E-02  0.8067144E-01
       -2   -1    0    0    0  501  0.00000000000E+00  0.00000000000E+00  0.15387837398E+04  0.15387837398E+04  0.25500000920E-02 0. -1.
        2   -1    0    0  501    0  0.00000000000E+00  0.00000000000E+00 -0.22286022306E+04  0.22286022306E+04  0.25500000920E-02 0.  1.
    10030    2    1    2    0    0  0.00000000000E+00  0.00000000000E+00 -0.68981849077E+03  0.37673859704E+04  0.37036937643E+04 0.  0.
        2    1    3    3  502    0 -0.81874801842E+03  0.15800150855E+04 -0.86610818043E+03  0.19791259102E+04  0.25500000920E-02 0.  1.
       -2    1    3    3    0  502  0.81874801842E+03 -0.15800150855E+04  0.17628968966E+03  0.17882600602E+04  0.25500000920E-02 0. -1.
</event>
<event>
 5   0  0.1825308E-08  0.3699638E+04  0.7818609E-02  0.8068042E-01
        2   -1    0    0  501    0  0.00000000000E+00  0.00000000000E+00  0.25133931259E+04  0.25133931259E+04  0.25500000920E-02 0. -1.
       -2   -1    0    0    0  501  0.00000000000E+00  0.00000000000E+00 -0.13614387274E+04  0.13614387274E+04  0.25500000920E-02 0.  1.
    10030    2    1    2    0    0  0.00000000000E+00  0.00000000000E+00  0.11519543985E+04  0.38748318533E+04  0.36996382195E+04 0.  0.
        4    1    3    3  502    0  0.78069386813E+03  0.13684306030E+03  0.23265383414E+04  0.24578427952E+04  0.12699999809E+01 0. -1.
       -4    1    3    3    0  502 -0.78069386813E+03 -0.13684306030E+03 -0.11745839429E+04  0.14169890581E+04  0.12699999809E+01 0.  1.
</event>
<event>
 5   0  0.5714125E-09  0.3702595E+04  0.7818609E-02  0.8067387E-01
        1   -1    0    0  501    0  0.00000000000E+00  0.00000000000E+00  0.14547473881E+04  0.14547473881E+04  0.50400001928E-02 0.  1.
       -1   -1    0    0    0  501  0.00000000000E+00  0.00000000000E+00 -0.23559432579E+04  0.23559432579E+04  0.50400001928E-02 0. -1.
    10030    2    1    2    0    0  0.00000000000E+00  0.00000000000E+00 -0.90119586976E+03  0.38106906460E+04  0.37025949284E+04 0.  0.
        5    1    3    3  502    0 -0.90689595478E+03 -0.54790824124E+03 -0.20130144655E+04  0.22748435203E+04  0.46999998093E+01 0. -1.
       -5    1    3    3    0  502  0.90689595478E+03  0.54790824124E+03  0.11118185957E+04  0.15358471257E+04  0.46999998093E+01 0.  1.
</event>
<event>
 5   0  0.1725865E-08  0.3702618E+04  0.7818609E-02  0.8067382E-01
       -2   -1    0    0    0  501  0.00000000000E+00  0.00000000000E+00  0.33171693399E+04  0.33171693399E+04  0.25500000920E-02 0. -1.
        2   -1    0    0  501    0  0.00000000000E+00  0.00000000000E+00 -0.10332135616E+04  0.10332135616E+04  0.25500000920E-02 0.  1.
    10030    2    1    2    0    0  0.00000000000E+00  0.00000000000E+00  0.22839557783E+04  0.43503829015E+04  0.37026176406E+04 0.  0.
        1    1    3    3  502    0  0.42387837097E+03  0.18011496573E+04  0.12117997221E+04  0.22118479893E+04  0.50400001928E-02 0. -1.
       -1    1    3    3    0  502 -0.42387837097E+03 -0.18011496573E+04  0.10721560562E+04  0.21385349121E+04  0.50400001928E-02 0.  1.
</event>
<event>
 5   0  0.5714125E-09  0.3699721E+04  0.7818609E-02  0.8068024E-01
       -1   -1    0    0    0  501  0.00000000000E+00  0.00000000000E+00  0.16916099591E+04  0.16916099591E+04  0.50400001928E-02 0.  1.
        1   -1    0    0  501    0  0.00000000000E+00  0.00000000000E+00 -0.20229152686E+04  0.20229152686E+04  0.50400001928E-02 0. -1.
    10030    2    1    2    0    0  0.00000000000E+00  0.00000000000E+00 -0.33130530953E+03  0.37145252277E+04  0.36997208623E+04 0.  0.
        5    1    3    3  502    0 -0.10993744880E+04  0.14815134350E+04 -0.29259129542E+02  0.18450974255E+04  0.46999998093E+01 0.  1.
       -5    1    3    3    0  502  0.10993744880E+04 -0.14815134350E+04 -0.30204617999E+03  0.18694278022E+04  0.46999998093E+01 0. -1.
</event>
<event>
 5   0  0.5714125E-09  0.3701285E+04  0.7818609E-02  0.8067677E-01
        1   -1    0    0  501    0  0.00000000000E+00  0.00000000000E+00  0.21457934370E+04  0.21457934370E+04  0.50400001928E-02 0.  1.
       -1   -1    0    0    0  501  0.00000000000E+00  0.00000000000E+00 -0.15960892618E+04  0.15960892618E+04  0.50400001928E-02 0. -1.
    10030    2    1    2    0    0  0.00000000000E+00  0.00000000000E+00  0.54970417518E+03  0.37418826988E+04  0.37012851081E+04 0.  0.
        4    1    3    3  502    0 -0.85934074322E+03  0.15808030981E+04 -0.16287661700E+03  0.18066364751E+04  0.12699999809E+01 0. -1.
       -4    1    3    3    0  502  0.85934074322E+03 -0.15808030981E+04  0.71258079218E+03  0.19352462237E+04  0.12699999809E+01 0.  1.
</event>
<event>
 5   0  0.5714125E-09  0.3712994E+04  0.7818609E-02  0.8065088E-01
        1   -1    0    0  501    0  0.00000000000E+00  0.00000000000E+00  0.24432406208E+04  0.24432406208E+04  0.50400001928E-02 0. -1.
       -1   -1    0    0    0  501  0.00000000000E+00  0.00000000000E+00 -0.14106594440E+04  0.14106594440E+04  0.50400001928E-02 0.  1.
    10030    2    1    2    0    0  0.00000000000E+00  0.00000000000E+00  0.10325811768E+04  0.38539000648E+04  0.37129936470E+04 0.  0.
        1    1    3    3  502    0  0.20987611522E+03 -0.17675144482E+04  0.10639751156E+04  0.20736919624E+04  0.50400001928E-02 0. -1.
       -1    1    3    3    0  502 -0.20987611522E+03  0.17675144482E+04 -0.31393938744E+02  0.17802081024E+04  0.50400001928E-02 0.  1.
</event>
<event>
 5   0  0.5714125E-09  0.3698013E+04  0.7818609E-02  0.8068402E-01
       -1   -1    0    0    0  501  0.00000000000E+00  0.00000000000E+00  0.16495845198E+04  0.16495845198E+04  0.50400001928E-02 0. -1.
        1   -1    0    0  501    0  0.00000000000E+00  0.00000000000E+00 -0.20725372885E+04  0.20725372885E+04  0.50400001928E-02 0.  1.
    10030    2    1    2    0    0  0.00000000000E+00  0.00000000000E+00 -0.42295276870E+03  0.37221218083E+04  0.36980132113E+04 0.  0.
        1    1    3    3  502    0  0.22354023845E+03 -0.17400744869E+04 -0.79923194423E+03  0.19278488424E+04  0.50400001928E-02 0.  1.
       -1    1    3    3    0  502 -0.22354023845E+03  0.17400744869E+04  0.37627917553E+03  0.17942729659E+04  0.50400001928E-02 0. -1.
</event>
<event>
 5   0  0.5714125E-09  0.3700190E+04  0.7818609E-02  0.8067920E-01
        1   -1    0    0  501    0  0.00000000000E+00  0.00000000000E+00  0.13274455717E+04  0.13274455717E+04  0.50400001928E-02 0.  1.
       -1   -1    0    0    0  501  0.00000000000E+00  0.00000000000E+00 -0.25785245354E+04  0.25785245354E+04  0.50400001928E-02 0. -1.
    10030    2    1    2    0    0  0.00000000000E+00  0.00000000000E+00 -0.12510789637E+04  0.39059701070E+04  0.37001897118E+04 0.  0.
        1    1    3    3  502    0  0.36055752131E+03 -0.13777863727E+04  0.62104749573E+03  0.15537042855E+04  0.50400001928E-02 0.  1.
       -1    1    3    3    0  502 -0.36055752131E+03  0.13777863727E+04 -0.18721264594E+04  0.23522658215E+04  0.50400001928E-02 0. -1.
</event>
<event>
 5   0  0.5714125E-09  0.3699990E+04  0.7818609E-02  0.8067964E-01
        1   -1    0    0  501    0  0.00000000000E+00  0.00000000000E+00  0.17048480434E+04  0.17048480434E+04  0.50400001928E-02 0. -1.
       -1   -1    0    0    0  501  0.00000000000E+00  0.00000000000E+00 -0.20074992651E+04  0.20074992651E+04  0.50400001928E-02 0.  1.
    10030    2    1    2    0    0  0.00000000000E+00  0.00000000000E+00 -0.30265122172E+03  0.37123473085E+04  0.36999898347E+04 0.  0.
        2    1    3    3  502    0 -0.69922806982E+02 -0.18483318289E+04 -0.11569015371E+03  0.18532684534E+04  0.25500000920E-02 0. -1.
       -2    1    3    3    0  502  0.69922806982E+02  0.18483318289E+04 -0.18696106801E+03  0.18590788551E+04  0.25500000920E-02 0.  1.
</event>
<event>
 5   0  0.5714125E-09  0.3697847E+04  0.7818609E-02  0.8068439E-01
        1   -1    0    0  501    0  0.00000000000E+00  0.00000000000E+00  0.17004148567E+04  0.17004148567E+04  0.50400001928E-02 0.  1.
       -1   -1    0    0    0  501  0.00000000000E+00  0.00000000000E+00 -0.20104021824E+04  0.20104021824E+04  0.50400001928E-02 0. -1.
    10030    2    1    2    0    0  0.00000000000E+00  0.00000000000E+00 -0.30998732577E+03  0.37108170391E+04  0.36978467999E+04 0.  0.
        5    1    3    3  502    0 -0.16622496460E+04  0.68945513992E+03 -0.58083260842E+03  0.18909814606E+04  0.46999998093E+01 0. -1.
       -5    1    3    3    0  502  0.16622496460E+04 -0.68945513992E+03  0.27084528266E+03  0.18198355785E+04  0.46999998093E+01 0.  1.
</event>
<event>
 5   0  0.1757996E-08  0.3712105E+04  0.7818609E-02  0.8065285E-01
       -2   -1    0    0    0  501  0.00000000000E+00  0.00000000000E+00  0.19851879387E+04  0.19851879387E+04  0.25500000920E-02 0.  1.
        2   -1    0    0  501    0  0.00000000000E+00  0.00000000000E+00 -0.17353169323E+04  0.17353169323E+04  0.25500000920E-02 0. -1.
    10030    2    1    2    0    0  0.00000000000E+00  0.00000000000E+00  0.24987100640E+03  0.37205048711E+04  0.37121046558E+04 0.  0.
        3    1    3    3  502    0 -0.12684684723E+04  0.38833962115E+02  0.14824043059E+04  0.19514207333E+04  0.10100000352E+00 0.  1.
       -3    1    3    3    0  502  0.12684684723E+04 -0.38833962115E+02 -0.12325332995E+04  0.17690841378E+04  0.10100000352E+00 0. -1.
</event>
<event>
 5   0  0.5714125E-09  0.3701794E+04  0.7818609E-02  0.8067564E-01
        1   -1    0    0  501    0  0.00000000000E+00  0.00000000000E+00  0.21810774188E+04  0.21810774188E+04  0.50400001928E-02 0.  1.
       -1   -1    0    0    0  501  0.00000000000E+00  0.00000000000E+00 -0.15707006372E+04  0.15707006372E+04  0.50400001928E-02 0. -1.
    10030    2    1    2    0    0  0.00000000000E+00  0.00000000000E+00  0.61037678168E+03  0.37517780560E+04  0.37017939929E+04 0.  0.
        3    1    3    3  502    0 -0.88010487433E+03 -0.53266622078E+03  0.18646333485E+04  0.21295951322E+04  0.10100000352E+00 0.  1.
       -3    1    3    3    0  502  0.88010487433E+03  0.53266622078E+03 -0.12542565668E+04  0.16221829238E+04  0.10100000352E+00 0. -1.
</event>
<event>
 5   0  0.5714125E-09  0.3700129E+04  0.7818609E-02  0.8067933E-01
        1   -1    0    0  501    0  0.00000000000E+00  0.00000000000E+00  0.18372353753E+04  0.18372353753E+04  0.50400001928E-02 0. -1.
       -1   -1    0    0    0  501  0.00000000000E+00  0.00000000000E+00 -0.18629831601E+04  0.18629831601E+04  0.50400001928E-02 0.  1.
    10030    2    1    2    0    0  0.00000000000E+00  0.00000000000E+00 -0.25747784788E+02  0.37002185353E+04  0.37001289519E+04 0.  0.
        2    1    3    3  502    0  0.15926878099E+04  0.31621045918E+03  0.87376758836E+03  0.18439396175E+04  0.25500000920E-02 0. -1.
       -2    1    3    3    0  502 -0.15926878099E+04 -0.31621045918E+03 -0.89951537315E+03  0.18562789179E+04  0.25500000920E-02 0.  1.
</event>
<event>
 5   0  0.1740290E-08  0.3691410E+04  0.7818609E-02  0.8069868E-01
       -2   -1    0    0    0  501  0.00000000000E+00  0.00000000000E+00  0.31024615991E+04  0.31024615991E+04  0.25500000920E-02 0.  1.
        2   -1    0    0  501    0  0.00000000000E+00  0.00000000000E+00 -0.10980399405E+04  0.10980399405E+04  0.25500000920E-02 0. -1.
    10030    2    1    2    0    0  0.00000000000E+00  0.00000000000E+00  0.20044216586E+04  0.42005015396E+04  0.36914098930E+04 0.  0.
        5    1    3    3  502    0  0.95291434652E+03 -0.14589624124E+04  0.31005727519E+03  0.17699645976E+04  0.46999998093E+01 0.  1.
       -5    1    3    3    0  502 -0.95291434652E+03  0.14589624124E+04  0.16943643834E+04  0.24305369420E+04  0.46999998093E+01 0. -1.
</event>
<event>
 5   0  0.1757996E-08  0.3700600E+04  0.7818609E-02  0.8067829E-01
        2   -1    0    0  501    0  0.00000000000E+00  0.00000000000E+00  0.16982836895E+04  0.16982836895E+04  0.25500000920E-02 0. -1.
       -2   -1    0    0    0  501  0.00000000000E+00  0.00000000000E+00 -0.20159240121E+04  0.20159240121E+04  0.25500000920E-02 0.  1.
    10030    2    1    2    0    0  0.00000000000E+00  0.00000000000E+00 -0.31764032263E+03  0.37142077016E+04  0.37006004210E+04 0.  0.
        3    1    3    3  502    0 -0.15051079996E+04  0.63700499410E+03 -0.10294690158E+04  0.19315620409E+04  0.10100000352E+00 0.  1.
       -3    1    3    3    0  502  0.15051079996E+04 -0.63700499410E+03  0.71182869322E+03  0.17826456607E+04  0.10100000352E+00 0. -1.
</event>
<event>
 5   0  0.5714125E-09  0.3698844E+04  0.7818609E-02  0.8068218E-01
        1   -1    0    0  501    0  0.00000000000E+00  0.00000000000E+00  0.31700074089E+04  0.31700074089E+04  0.50400001928E-02 0. -1.
       -1   -1    0    0    0  501  0.00000000000E+00  0.00000000000E+00 -0.10789761568E+04  0.10789761568E+04  0.50400001928E-02 0.  1.
    10030    2    1    2    0    0  0.00000000000E+00  0.00000000000E+00  0.20910312521E+04  0.42489835657E+04  0.36988443661E+04 0.  0.
        1    1    3    3  502    0  0.15928354152E+04 -0.22523432172E+03 -0.26091947573E+01  0.16086833024E+04  0.50400001928E-02 0.  1.
       -1    1    3    3    0  502 -0.15928354152E+04  0.22523432172E+03  0.20936404469E+04  0.26403002633E+04  0.50400001928E-02 0. -1.
</event>
<event>
 5   0  0.1825308E-08  0.3699902E+04  0.7818609E-02  0.8067984E-01
       -2   -1    0    0    0  501  0.00000000000E+00  0.00000000000E+00  0.13701435185E+04  0.13701435186E+04  0.25500000920E-02 0.  1.
        2   -1    0    0  501    0  0.00000000000E+00  0.00000000000E+00 -0.24977809775E+04  0.24977809775E+04  0.25500000920E-02 0. -1.
    10030    2    1    2    0    0  0.00000000000E+00  0.00000000000E+00 -0.11276374590E+04  0.38679244961E+04  0.36999018458E+04 0.  0.
        4    1    3    3  502    0 -0.14522194582E+04 -0.25317054823E+03  0.60465162953E+03  0.15933116102E+04  0.12699999809E+01 0.  1.
       -4    1    3    3    0  502  0.14522194582E+04  0.25317054823E+03 -0.17322890885E+04  0.22746128858E+04  0.12699999809E+01 0. -1.
</event>
<event>
 5   0  0.1725865E-08  0.3701204E+04  0.7818609E-02  0.8067695E-01
       -2   -1    0    0    0  501  0.00000000000E+00  0.00000000000E+00  0.23364800128E+04  0.23364800128E+04  0.25500000920E-02 0.  1.
        2   -1    0    0  501    0  0.00000000000E+00  0.00000000000E+00 -0.14657638103E+04  0.14657638103E+04  0.25500000920E-02 0. -1.
    10030    2    1    2    0    0  0.00000000000E+00  0.00000000000E+00  0.87071620251E+03  0.38022438231E+04  0.37012040453E+04 0.  0.
        1    1    3    3  502    0 -0.97138640344E+03  0.46244420604E+03 -0.11114971363E+04  0.15468910991E+04  0.50400001928E-02 0. -1.
       -1    1    3    3    0  502  0.97138640344E+03 -0.46244420604E+03  0.19822133389E+04  0.22553527239E+04  0.50400001928E-02 0.  1.
</event>
<event>
 5   0  0.1757996E-08  0.3700225E+04  0.7818609E-02  0.8067912E-01
        2   -1    0    0  501    0  0.00000000000E+00  0.00000000000E+00  0.30190819390E+04  0.30190819390E+04  0.25500000920E-02 0. -1.
       -2   -1    0    0    0  501  0.00000000000E+00  0.00000000000E+00 -0.11337603736E+04  0.11337603736E+04  0.25500000920E-02 0.  1.
    10030    2    1    2    0    0  0.00000000000E+00  0.00000000000E+00  0.18853215655E+04  0.41528423126E+04  0.37002245700E+04 0.  0.
        3    1    3    3  502    0 -0.12982230010E+03  0.56380446563E+03  0.29149431582E+04  0.29718046589E+04  0.10100000352E+00 0. -1.
       -3    1    3    3    0  502  0.12982230010E+03 -0.56380446563E+03 -0.10296215927E+04  0.11810376537E+04  0.10100000352E+00 0.  1.
</event>
<event>
 5   0  0.5714125E-09  0.3698285E+04  0.7818609E-02  0.8068342E-01
       -1   -1    0    0    0  501  0.00000000000E+00  0.00000000000E+00  0.11444014466E+04  0.11444014466E+04  0.50400001928E-02 0. -1.
        1   -1    0    0  501    0  0.00000000000E+00  0.00000000000E+00 -0.29878750270E+04  0.29878750270E+04  0.50400001928E-02 0.  1.
    10030    2    1    2    0    0  0.00000000000E+00  0.00000000000E+00 -0.18434735804E+04  0.41322764737E+04  0.36982852801E+04 0.  0.
        5    1    3    3  502    0 -0.47944642416E+03  0.17615339382E+04 -0.12502369608E+04  0.22126873338E+04  0.46999998093E+01 0.  1.
       -5    1    3    3    0  502  0.47944642416E+03 -0.17615339382E+04 -0.59323661967E+03  0.19195891399E+04  0.46999998093E+01 0. -1.
</event>
<event>
 5   0  0.5714125E-09  0.3699549E+04  0.7818609E-02  0.8068062E-01
       -1   -1    0    0    0  501  0.00000000000E+00  0.00000000000E+00  0.15827603379E+04  0.15827603379E+04  0.50400001928E-02 0. -1.
        1   -1    0    0  501    0  0.00000000000E+00  0.00000000000E+00 -0.21618338432E+04  0.21618338433E+04  0.50400001928E-02 0.  1.
    10030    2    1    2    0    0  0.00000000000E+00  0.00000000000E+00 -0.57907350534E+03  0.37445941812E+04  0.36995485477E+04 0.  0.
        2    1    3    3  502    0  0.13110553548E+04 -0.12916579006E+04 -0.47731814599E+03  0.19013360797E+04  0.25500000920E-02 0.  1.
       -2    1    3    3    0  502 -0.13110553548E+04  0.12916579006E+04 -0.10175535934E+03  0.18432581015E+04  0.25500000920E-02 0. -1.
</event>
<event>
 5   0  0.5714125E-09  0.3701178E+04  0.7818609E-02  0.8067701E-01
        1   -1    0    0  501    0  0.00000000000E+00  0.00000000000E+00  0.28118888947E+04  0.28118888947E+04  0.50400001928E-02 0.  1.
       -1   -1    0    0    0  501  0.00000000000E+00  0.00000000000E+00 -0.12179284530E+04  0.12179284530E+04  0.50400001928E-02 0. -1.
    10030    2    1    2    0    0  0.00000000000E+00  0.00000000000E+00  0.15939604417E+04  0.40298173478E+04  0.37011779161E+04 0.  0.
        3    1    3    3  502    0  0.11066598068E+04 -0.19040169812E+03  0.23985542146E+04  0.26483978299E+04  0.10100000352E+00 0.  1.
       -3    1    3    3    0  502 -0.11066598068E+04  0.19040169812E+03 -0.80459377291E+03  0.13814195179E+04  0.10100000352E+00 0. -1.
</event>
<event>
 5   0  0.1856107E-08  0.3701331E+04  0.7818609E-02  0.8067667E-01
       -2   -1    0    0    0  501  0.00000000000E+00  0.00000000000E+00  0.26555305633E+04  0.26555305633E+04  0.25500000920E-02 0.  1.
        2   -1    0    0  501    0  0.00000000000E+00  0.00000000000E+00 -0.12897472399E+04  0.12897472399E+04  0.25500000920E-02 0. -1.
    10030    2    1    2    0    0  0.00000000000E+00  0.00000000000E+00  0.13657833234E+04  0.39452778032E+04  0.37013312278E+04 0.  0.
        2    1    3    3  502    0  0.11644551103E+04 -0.31933597842E+03  0.21778371441E+04  0.24901618014E+04  0.25500000920E-02 0.  1.
       -2    1    3    3    0  502 -0.11644551103E+04  0.31933597842E+03 -0.81205382069E+03  0.14551160018E+04  0.25500000920E-02 0. -1.
</event>
<event>
 5   0  0.1825308E-08  0.3700741E+04  0.7818609E-02  0.8067798E-01
       -2   -1    0    0    0  501  0.00000000000E+00  0.00000000000E+00  0.12094765976E+04  0.12094765976E+04  0.25500000920E-02 0.  1.
        2   -1    0    0  501    0  0.00000000000E+00  0.00000000000E+00 -0.28308694624E+04  0.28308694624E+04  0.25500000920E-02 0. -1.
    10030    2    1    2    0    0  0.00000000000E+00  0.00000000000E+00 -0.16213928648E+04  0.40403460599E+04  0.37007406640E+04 0.  0.
        4    1    3    3  502    0  0.14916626082E+04  0.91568796544E+03 -0.14660539637E+04  0.22831683302E+04  0.12699999809E+01 0. -1.
       -4    1    3    3    0  502 -0.14916626082E+04 -0.91568796544E+03 -0.15533890112E+03  0.17571777297E+04  0.12699999809E+01 0.  1.
</event>
<event>
 5   0  0.5714125E-09  0.3700354E+04  0.7818609E-02  0.8067883E-01
        1   -1    0    0  501    0  0.00000000000E+00  0.00000000000E+00  0.21724885234E+04  0.21724885234E+04  0.50400001928E-02 0.  1.
       -1   -1    0    0    0  501  0.00000000000E+00  0.00000000000E+00 -0.15756841351E+04  0.15756841351E+04  0.50400001928E-02 0. -1.
    10030    2    1    2    0    0  0.00000000000E+00  0.00000000000E+00  0.59680438835E+03  0.37481726586E+04  0.37003544155E+04 0.  0.
        2    1    3    3  502    0 -0.12704223653E+04 -0.87417271047E+02 -0.10611576642E+04  0.16576098316E+04  0.25500000920E-02 0. -1.
       -2    1    3    3    0  502  0.12704223653E+04  0.87417271047E+02  0.16579620526E+04  0.20905628269E+04  0.25500000920E-02 0.  1.
</event>
<event>
 5   0  0.5714125E-09  0.3699855E+04  0.7818609E-02  0.8067994E-01
       -1   -1    0    0    0  501  0.00000000000E+00  0.00000000000E+00  0.14963023450E+04  0.14963023450E+04  0.50400001928E-02 0.  1.
        1   -1    0    0  501    0  0.00000000000E+00  0.00000000000E+00 -0.22871257878E+04  0.22871257878E+04  0.50400001928E-02 0. -1.
    10030    2    1    2    0    0  0.00000000000E+00  0.00000000000E+00 -0.79082344277E+03  0.37834281328E+04  0.36998549591E+04 0.  0.
        5    1    3    3  502    0  0.17478908874E+03  0.28585083043E+03 -0.22558332359E+04  0.22805849252E+04  0.46999998093E+01 0. -1.
       -5    1    3    3    0  502 -0.17478908874E+03 -0.28585083043E+03  0.14650097931E+04  0.15028432076E+04  0.46999998093E+01 0.  1.
</event>
<event>
 5   0  0.5714125E-09  0.3697011E+04  0.7818609E-02  0.8068625E-01
        1   -1    0    0  501    0  0.00000000000E+00  0.00000000000E+00  0.34158045235E+04  0.34158045235E+04  0.50400001928E-02 0.  1.
       -1   -1    0    0    0  501  0.00000000000E+00  0.00000000000E+00 -0.10003419568E+04  0.10003419568E+04  0.50400001928E-02 0. -1.
    10030    2    1    2    0    0  0.00000000000E+00  0.00000000000E+00  0.24154625666E+04  0.44161464803E+04  0.36970109987E+04 0.  0.
        2    1    3    3  502    0  0.13115376693E+03  0.11485259008E+04  0.29307628624E+04  0.31505053581E+04  0.25500000920E-02 0.  1.
       -2    1    3    3    0  502 -0.13115376693E+03 -0.11485259008E+04 -0.51530029578E+03  0.12656411222E+04  0.25500000920E-02 0. -1.
</event>
<event>
 5   0  0.1856107E-08  0.3699266E+04  0.7818609E-02  0.8068125E-01
       -2   -1    0    0    0  501  0.00000000000E+00  0.00000000000E+00  0.14622005144E+04  0.14622005144E+04  0.25500000920E-02 0.  1.
        2   -1    0    0  501    0  0.00000000000E+00  0.00000000000E+00 -0.23397213130E+04  0.23397213130E+04  0.25500000920E-02 0. -1.
    10030    2    1    2    0    0  0.00000000000E+00  0.00000000000E+00 -0.87752079855E+03  0.38019218274E+04  0.36992657150E+04 0.  0.
        2    1    3    3  502    0  0.46001133314E+03  0.71249762377E+03  0.12505931811E+04  0.15110415597E+04  0.25500000920E-02 0.  1.
       -2    1    3    3    0  502 -0.46001133314E+03 -0.71249762377E+03 -0.21281139797E+04  0.22908802677E+04  0.25500000920E-02 0. -1.
</event>
<event>
 5   0  0.1757996E-08  0.3699002E+04  0.7818609E-02  0.8068183E-01
       -2   -1    0    0    0  501  0.00000000000E+00  0.00000000000E+00  0.21111641017E+04  0.21111641017E+04  0.25500000920E-02 0. -1.
        2   -1    0    0  501    0  0.00000000000E+00  0.00000000000E+00 -0.16202693169E+04  0.16202693169E+04  0.25500000920E-02 0.  1.
    10030    2    1    2    0    0  0.00000000000E+00  0.00000000000E+00  0.49089478476E+03  0.37314334186E+04  0.36990022530E+04 0.  0.
        3    1    3    3  502    0 -0.32203840934E+03 -0.12278337392E+04  0.16023691023E+04  0.20442287490E+04  0.10100000352E+00 0. -1.
       -3    1    3    3    0  502  0.32203840934E+03  0.12278337392E+04 -0.11114743175E+04  0.16872046695E+04  0.10100000352E+00 0.  1.
</event>
<event>
 5   0  0.1856107E-08  0.3683115E+04  0.7818609E-02  0.8071714E-01
        2   -1    0    0  501    0  0.00000000000E+00  0.00000000000E+00  0.19424183609E+04  0.19424183609E+04  0.25500000920E-02 0.  1.
       -2   -1    0    0    0  501  0.00000000000E+00  0.00000000000E+00 -0.17459343225E+04  0.17459343226E+04  0.25500000920E-02 0. -1.
    10030    2    1    2    0    0  0.00000000000E+00  0.00000000000E+00  0.19648403832E+03  0.36883526834E+04  0.36831154666E+04 0.  0.
        2    1    3    3  502    0 -0.13704094903E+04 -0.12209898262E+04  0.24844382251E+03  0.18521778154E+04  0.25500000920E-02 0.  1.
       -2    1    3    3    0  502  0.13704094903E+04  0.12209898262E+04 -0.51959784186E+02  0.18361748680E+04  0.25500000920E-02 0. -1.
</event>
<event>
 5   0  0.5714125E-09  0.3700125E+04  0.7818609E-02  0.8067934E-01
        1   -1    0    0  501    0  0.00000000000E+00  0.00000000000E+00  0.14293022460E+04  0.14293022460E+04  0.50400001928E-02 0.  1.
       -1   -1    0    0    0  501  0.00000000000E+00  0.00000000000E+00 -0.23946864139E+04  0.23946864139E+04  0.50400001928E-02 0. -1.
    10030    2    1    2    0    0  0.00000000000E+00  0.00000000000E+00 -0.96538416795E+03  0.38239886599E+04  0.37001246843E+04 0.  0.
        3    1    3    3  502    0  0.15410983822E+04  0.97493940079E+03 -0.16042064362E+03  0.18306353684E+04  0.10100000352E+00 0.  1.
       -3    1    3    3    0  502 -0.15410983822E+04 -0.97493940079E+03 -0.80496352434E+03  0.19933532915E+04  0.10100000352E+00 0. -1.
</event>
<event>
 5   0  0.5714125E-09  0.3701987E+04  0.7818609E-02  0.8067522E-01
        1   -1    0    0  501    0  0.00000000000E+00  0.00000000000E+00  0.19484718671E+04  0.19484718671E+04  0.50400001928E-02 0. -1.
       -1   -1    0    0    0  501  0.00000000000E+00  0.00000000000E+00 -0.17583919254E+04  0.17583919254E+04  0.50400001928E-02 0.  1.
    10030    2    1    2    0    0  0.00000000000E+00  0.00000000000E+00  0.19007994165E+03  0.37068637925E+04  0.37019871410E+04 0.  0.
        5    1    3    3  502    0  0.65158383833E+03  0.29327582317E+03 -0.16147171443E+04  0.17657592568E+04  0.46999998093E+01 0.  1.
       -5    1    3    3    0  502 -0.65158383833E+03 -0.29327582317E+03  0.18047970860E+04  0.19411045357E+04  0.46999998093E+01 0. -1.
</event>
<event>
 5   0  0.1740290E-08  0.3698842E+04  0.7818609E-02  0.8068218E-01
        2   -1    0    0  501    0  0.00000000000E+00  0.00000000000E+00  0.28215687625E+04  0.28215687625E+04  0.25500000920E-02 0.  1.
       -2   -1    0    0    0  501  0.00000000000E+00  0.00000000000E+00 -0.12122188188E+04  0.12122188188E+04  0.25500000920E-02 0. -1.
    10030    2    1    2    0    0  0.00000000000E+00  0.00000000000E+00  0.16093499437E+04  0.40337875813E+04  0.36988423878E+04 0.  0.
        5    1    3    3  502    0 -0.10405577558E+04  0.85879410972E+03 -0.57480000196E+03  0.14665281785E+04  0.46999998093E+01 0. -1.
       -5    1    3    3    0  502  0.10405577558E+04 -0.85879410972E+03  0.21841499457E+04  0.25672594028E+04  0.46999998093E+01 0.  1.
</event>
<event>
 5   0  0.5714125E-09  0.3702039E+04  0.7818609E-02  0.8067510E-01
        1   -1    0    0  501    0  0.00000000000E+00  0.00000000000E+00  0.15536437571E+04  0.15536437571E+04  0.50400001928E-02 0. -1.
       -1   -1    0    0    0  501  0.00000000000E+00  0.00000000000E+00 -0.22053139887E+04  0.22053139887E+04  0.50400001928E-02 0.  1.
    10030    2    1    2    0    0  0.00000000000E+00  0.00000000000E+00 -0.65167023158E+03  0.37589577458E+04  0.37020385255E+04 0.  0.
        5    1    3    3  502    0 -0.74236930491E+01  0.36310023299E+02 -0.22049311669E+04  0.22052476210E+04  0.46999998093E+01 0.  1.
       -5    1    3    3    0  502  0.74236930491E+01 -0.36310023299E+02  0.15532609353E+04  0.15537101249E+04  0.46999998093E+01 0. -1.
</event>
<event>
 5   0  0.5714125E-09  0.3700257E+04  0.7818609E-02  0.8067905E-01
       -1   -1    0    0    0  501  0.00000000000E+00  0.00000000000E+00  0.19067804846E+04  0.19067804846E+04  0.50400001928E-02 0. -1.
        1   -1    0    0  501    0  0.00000000000E+00  0.00000000000E+00 -0.17951596393E+04  0.17951596393E+04  0.50400001928E-02 0.  1.
    10030    2    1    2    0    0  0.00000000000E+00  0.00000000000E+00  0.11162084531E+03  0.37019401239E+04  0.37002569462E+04 0.  0.
        2    1    3    3  502    0 -0.75970505041E+03  0.84961854652E+02 -0.16297720081E+04  0.18001464048E+04  0.25500000920E-02 0.  1.
       -2    1    3    3    0  502  0.75970505041E+03 -0.84961854652E+02  0.17413928534E+04  0.19017937191E+04  0.25500000920E-02 0. -1.
</event>
<event>
 5   0  0.1740290E-08  0.3700481E+04  0.7818609E-02  0.8067855E-01
       -2   -1    0    0    0  501  0.00000000000E+00  0.00000000000E+00  0.17587737444E+04  0.17587737444E+04  0.25500000920E-02 0. -1.
        2   -1    0    0  501    0  0.00000000000E+00  0.00000000000E+00 -0.19464645554E+04  0.19464645554E+04  0.25500000920E-02 0.  1.
    10030    2    1    2    0    0  0.00000000000E+00  0.00000000000E+00 -0.18769081099E+03  0.37052382998E+04  0.37004814576E+04 0.  0.
        5    1    3    3  502    0 -0.27335423959E+03  0.88498648800E+03 -0.16976050081E+04  0.19338584431E+04  0.46999998093E+01 0.  1.
       -5    1    3    3    0  502  0.27335423959E+03 -0.88498648800E+03  0.15099141971E+04  0.17713798568E+04  0.46999998093E+01 0. -1.
</event>
<event>
 5   0  0.5714125E-09  0.3694351E+04  0.7818609E-02  0.8069215E-01
       -1   -1    0    0    0  501  0.00000000000E+00  0.00000000000E+00  0.32615996774E+04  0.32615996774E+04  0.50400001928E-02 0. -1.
        1   -1    0    0  501    0  0.00000000000E+00  0.00000000000E+00 -0.10461300479E+04  0.10461300479E+04  0.50400001928E-02 0.  1.
    10030    2    1    2    0    0  0.00000000000E+00  0.00000000000E+00  0.22154696295E+04  0.43077297253E+04  0.36943510536E+04 0.  0.
        1    1    3    3  502    0 -0.32403026617E+03  0.15986057855E+04  0.96898237271E+02  0.16339906178E+04  0.50400001928E-02 0. -1.
       -1    1    3    3    0  502  0.32403026617E+03 -0.15986057855E+04  0.21185713922E+04  0.26737391075E+04  0.50400001928E-02 0.  1.
</event>
<event>
 5   0  0.1757996E-08  0.3699422E+04  0.7818609E-02  0.8068090E-01
        2   -1    0    0  501    0  0.00000000000E+00  0.00000000000E+00  0.24157156757E+04  0.24157156757E+04  0.25500000920E-02 0.  1.
       -2   -1    0    0    0  501  0.00000000000E+00  0.00000000000E+00 -0.14163216657E+04  0.14163216657E+04  0.25500000920E-02 0. -1.
    10030    2    1    2    0    0  0.00000000000E+00  0.00000000000E+00  0.99939400999E+03  0.38320373414E+04  0.36994218196E+04 0.  0.
        3    1    3    3  502    0 -0.18326471974E+04 -0.24635179710E+03  0.45171722326E+03  0.19035055603E+04  0.10100000352E+00 0. -1.
       -3    1    3    3    0  502  0.18326471974E+04  0.24635179710E+03  0.54767678673E+03  0.19285317812E+04  0.10100000352E+00 0.  1.
</event>
<event>
 5   0  0.1725865E-08  0.3689900E+04  0.7818609E-02  0.8070204E-01
        2   -1    0    0  501    0  0.00000000000E+00  0.00000000000E+00  0.26677009926E+04  0.26677009926E+04  0.25500000920E-02 0. -1.
       -2   -1    0    0    0  501  0.00000000000E+00  0.00000000000E+00 -0.12759455127E+04  0.12759455127E+04  0.25500000920E-02 0.  1.
    10030    2    1    2    0    0  0.00000000000E+00  0.00000000000E+00  0.13917554799E+04  0.39436465053E+04  0.36899003297E+04 0.  0.
        1    1    3    3  502    0  0.98080637231E+03  0.11102767304E+04  0.18711071078E+04  0.23865744000E+04  0.50400001928E-02 0. -1.
       -1    1    3    3    0  502 -0.98080637231E+03 -0.11102767304E+04 -0.47935162788E+03  0.15570721053E+04  0.50400001928E-02 0.  1.
</event>
<event>
 5   0  0.1757996E-08  0.3703415E+04  0.7818609E-02  0.8067205E-01
        2   -1    0    0  501    0  0.00000000000E+00  0.00000000000E+00  0.15270780818E+04  0.15270780818E+04  0.25500000920E-02 0.  1.
       -2   -1    0    0    0  501  0.00000000000E+00  0.00000000000E+00 -0.22453476323E+04  0.22453476323E+04  0.25500000920E-02 0. -1.
    10030    2    1    2    0    0  0.00000000000E+00  0.00000000000E+00 -0.71826955047E+03  0.37724257141E+04  0.37034152645E+04 0.  0.
        3    1    3    3  502    0  0.65809740044E+03  0.79444678272E+03  0.12072396734E+04  0.15879752889E+04  0.10100000352E+00 0.  1.
       -3    1    3    3    0  502 -0.65809740044E+03 -0.79444678272E+03 -0.19255092238E+04  0.21844504252E+04  0.10100000352E+00 0. -1.
</event>
<event>
 5   0  0.5714125E-09  0.3699860E+04  0.7818609E-02  0.8067993E-01
        1   -1    0    0  501    0  0.00000000000E+00  0.00000000000E+00  0.19574684275E+04  0.19574684275E+04  0.50400001928E-02 0. -1.
       -1   -1    0    0    0  501  0.00000000000E+00  0.00000000000E+00 -0.17482996852E+04  0.17482996852E+04  0.50400001928E-02 0.  1.
    10030    2    1    2    0    0  0.00000000000E+00  0.00000000000E+00  0.20916874233E+03  0.37057681128E+04  0.36998602329E+04 0.  0.
        2    1    3    3  502    0 -0.88376466317E+03  0.15425047268E+04  0.61714424606E+03  0.18818150367E+04  0.25500000920E-02 0. -1.
       -2    1    3    3    0  502  0.88376466317E+03 -0.15425047268E+04 -0.40797550373E+03  0.18239530760E+04  0.25500000920E-02 0.  1.
</event>
<event>
 5   0  0.1825308E-08  0.3701388E+04  0.7818609E-02  0.8067654E-01
       -2   -1    0    0    0  501  0.00000000000E+00  0.00000000000E+00  0.27297072687E+04  0.27297072687E+04  0.25500000920E-02 0. -1.
        2   -1    0    0  501    0  0.00000000000E+00  0.00000000000E+00 -0.12547381663E+04  0.12547381663E+04  0.25500000920E-02 0.  1.
    10030    2    1    2    0    0  0.00000000000E+00  0.00000000000E+00  0.14749691024E+04  0.39844454350E+04  0.37013877899E+04 0.  0.
        4    1    3    3  502    0  0.96375803210E+03  0.15761641511E+04  0.85512740359E+03  0.20357719580E+04  0.12699999809E+01 0. -1.
       -4    1    3    3    0  502 -0.96375803210E+03 -0.15761641511E+04  0.61984169880E+03  0.19486734770E+04  0.12699999809E+01 0.  1.
</event>
<event>
 5   0  0.5714125E-09  0.3699957E+04  0.7818609E-02  0.8067971E-01
        1   -1    0    0  501    0  0.00000000000E+00  0.00000000000E+00  0.97399301580E+03  0.97399301581E+03  0.50400001928E-02 0.  1.
       -1   -1    0    0    0  501  0.00000000000E+00  0.00000000000E+00 -0.35138030432E+04  0.35138030432E+04  0.50400001928E-02 0. -1.
    10030    2    1    2    0    0  0.00000000000E+00  0.00000000000E+00 -0.25398100274E+04  0.44877960590E+04  0.36999565527E+04 0.  0.
        5    1    3    3  502    0  0.32407197772E+03  0.42450169132E+03 -0.34182584789E+04  0.34597308351E+04  0.46999998093E+01 0. -1.
       -5    1    3    3    0  502 -0.32407197772E+03 -0.42450169132E+03  0.87844845151E+03  0.10280652239E+04  0.46999998093E+01 0.  1.
</event>
<event>
 5   0  0.1740290E-08  0.3701017E+04  0.7818609E-02  0.8067737E-01
       -2   -1    0    0    0  501  0.00000000000E+00  0.00000000000E+00  0.20913202382E+04  0.20913202382E+04  0.25500000920E-02 0.  1.
        2   -1    0    0  501    0  0.00000000000E+00  0.00000000000E+00 -0.16374256093E+04  0.16374256093E+04  0.25500000920E-02 0. -1.
    10030    2    1    2    0    0  0.00000000000E+00  0.00000000000E+00  0.45389462896E+03  0.37287458475E+04  0.37010167875E+04 0.  0.
        5    1    3    3  502    0  0.45216498333E+03 -0.73849760049E+03  0.18745984013E+04  0.20649390147E+04  0.46999998093E+01 0.  1.
       -5    1    3    3    0  502 -0.45216498333E+03  0.73849760049E+03 -0.14207037724E+04  0.16638068328E+04  0.46999998093E+01 0. -1.
</event>
<event>
 5   0  0.5714125E-09  0.3699668E+04  0.7818609E-02  0.8068036E-01
       -1   -1    0    0    0  501  0.00000000000E+00  0.00000000000E+00  0.17246486578E+04  0.17246486578E+04  0.50400001928E-02 0. -1.
        1   -1    0    0  501    0  0.00000000000E+00  0.00000000000E+00 -0.19841055480E+04  0.19841055480E+04  0.50400001928E-02 0.  1.
    10030    2    1    2    0    0  0.00000000000E+00  0.00000000000E+00 -0.25945689021E+03  0.37087542059E+04  0.36996675366E+04 0.  0.
        2    1    3    3  502    0  0.49689404910E+03 -0.16293565654E+04  0.59327694356E+03  0.18037971186E+04  0.25500000920E-02 0. -1.
       -2    1    3    3    0  502 -0.49689404910E+03  0.16293565654E+04 -0.85273383378E+03  0.19049570873E+04  0.25500000920E-02 0.  1.
</event>
<event>
 5   0  0.5714125E-09  0.3700880E+04  0.7818609E-02  0.8067767E-01
       -1   -1    0    0    0  501  0.00000000000E+00  0.00000000000E+00  0.22276635902E+04  0.22276635902E+04  0.50400001928E-02 0.  1.
        1   -1    0    0  501    0  0.00000000000E+00  0.00000000000E+00 -0.15370943401E+04  0.15370943401E+04  0.50400001928E-02 0. -1.
    10030    2    1    2    0    0  0.00000000000E+00  0.00000000000E+00  0.69056925004E+03  0.37647579303E+04  0.37008804877E+04 0.  0.
        3    1    3    3  502    0 -0.35235094790E+02  0.18072798201E+04 -0.57307822942E+02  0.18085314642E+04  0.10100000352E+00 0. -1.
       -3    1    3    3    0  502  0.35235094790E+02 -0.18072798201E+04  0.74787707298E+03  0.19562264661E+04  0.10100000352E+00 0.  1.
</event>
<event>
 5   0  0.5714125E-09  0.3693068E+04  0.7818609E-02  0.8069500E-01
       -1   -1    0    0    0  501  0.00000000000E+00  0.00000000000E+00  0.16177387535E+04  0.16177387535E+04  0.50400001928E-02 0.  1.
        1   -1    0    0  501    0  0.00000000000E+00  0.00000000000E+00 -0.21076878203E+04  0.21076878203E+04  0.50400001928E-02 0. -1.
    10030    2    1    2    0    0  0.00000000000E+00  0.00000000000E+00 -0.48994906685E+03  0.37254265738E+04  0.36930682459E+04 0.  0.
        5    1    3    3  502    0  0.13873696941E+04  0.12154458421E+04 -0.15724753882E+03  0.18511758808E+04  0.46999998093E+01 0. -1.
       -5    1    3    3    0  502 -0.13873696941E+04 -0.12154458421E+04 -0.33270152802E+03  0.18742506930E+04  0.46999998093E+01 0.  1.
</event>
<event>
 5   0  0.1740290E-08  0.3695626E+04  0.7818609E-02  0.8068932E-01
        2   -1    0    0  501    0  0.00000000000E+00  0.00000000000E+00  0.21288395699E+04  0.21288395699E+04  0.25500000920E-02 0. -1.
       -2   -1    0    0    0  501  0.00000000000E+00  0.00000000000E+00 -0.16038848466E+04  0.16038848466E+04  0.25500000920E-02 0.  1.
    10030    2    1    2    0    0  0.00000000000E+00  0.00000000000E+00  0.52495472332E+03  0.37327244165E+04  0.36956263486E+04 0.  0.
        5    1    3    3  502    0 -0.17880656055E+04  0.89535676339E+02  0.72444840900E+03  0.19313318809E+04  0.46999998093E+01 0. -1.
       -5    1    3    3    0  502  0.17880656055E+04 -0.89535676339E+02 -0.19949368568E+03  0.18013925356E+04  0.46999998093E+01 0.  1.
</event>
<event>
 5   0  0.5714125E-09  0.3699962E+04  0.7818609E-02  0.8067970E-01
       -1   -1    0    0    0  501  0.00000000000E+00  0.00000000000E+00  0.20763966242E+04  0.20763966242E+04  0.50400001928E-02 0. -1.
        1   -1    0    0  501    0  0.00000000000E+00  0.00000000000E+00 -0.16482540472E+04  0.16482540472E+04  0.50400001928E-02 0.  1.
    10030    2    1    2    0    0  0.00000000000E+00  0.00000000000E+00  0.42814257703E+03  0.37246506714E+04  0.36999616968E+04 0.  0.
        1    1    3    3  502    0 -0.16587349381E+04  0.66420811237E+03  0.69670251500E+03  0.19178030154E+04  0.50400001928E-02 0. -1.
       -1    1    3    3    0  502  0.16587349381E+04 -0.66420811237E+03 -0.26855993796E+03  0.18068476560E+04  0.50400001928E-02 0.  1.
</event>
<event>
 5   0  0.5714125E-09  0.3699102E+04  0.7818609E-02  0.8068161E-01
        1   -1    0    0  501    0  0.00000000000E+00  0.00000000000E+00  0.21670121253E+04  0.21670121253E+04  0.50400001928E-02 0. -1.
       -1   -1    0    0    0  501  0.00000000000E+00  0.00000000000E+00 -0.15785970145E+04  0.15785970145E+04  0.50400001928E-02 0.  1.
    10030    2    1    2    0    0  0.00000000000E+00  0.00000000000E+00  0.58841511077E+03  0.37456091398E+04  0.36991019837E+04 0.  0.
        5    1    3    3  502    0  0.40491348045E+03  0.18037269368E+04  0.23489645015E+03  0.18634871133E+04  0.46999998093E+01 0. -1.
       -5    1    3    3    0  502 -0.40491348045E+03 -0.18037269368E+04  0.35351866062E+03  0.18821220265E+04  0.46999998093E+01 0.  1.
</event>
<event>
 5   0  0.5714125E-09  0.3699425E+04  0.7818609E-02  0.8068089E-01
       -1   -1    0    0    0  501  0.00000000000E+00  0.00000000000E+00  0.17592004129E+04  0.17592004129E+04  0.50400001928E-02 0. -1.
        1   -1    0    0  501    0  0.00000000000E+00  0.00000000000E+00 -0.19448813896E+04  0.19448813896E+04  0.50400001928E-02 0.  1.
    10030    2    1    2    0    0  0.00000000000E+00  0.00000000000E+00 -0.18568097667E+03  0.37040818025E+04  0.36994248978E+04 0.  0.
        4    1    3    3  502    0  0.57658169906E+03  0.14891222539E+04 -0.10275588936E+04  0.18988971630E+04  0.12699999809E+01 0.  1.
       -4    1    3    3    0  502 -0.57658169906E+03 -0.14891222539E+04  0.84187791696E+03  0.18051846395E+04  0.12699999809E+01 0. -1.
</event>
<event>
 5   0  0.5714125E-09  0.3697007E+04  0.7818609E-02  0.8068626E-01
        1   -1    0    0  501    0  0.00000000000E+00  0.00000000000E+00  0.19745514592E+04  0.19745514592E+04  0.50400001928E-02 0.  1.
       -1   -1    0    0    0  501  0.00000000000E+00  0.00000000000E+00 -0.17305015888E+04  0.17305015888E+04  0.50400001928E-02 0. -1.
    10030    2    1    2    0    0  0.00000000000E+00  0.00000000000E+00  0.24404987044E+03  0.37050530480E+04  0.36970065930E+04 0.  0.
        2    1    3    3  502    0  0.54472963136E+03 -0.15393545111E+04 -0.74624503146E+03  0.17953340438E+04  0.25500000920E-02 0. -1.
       -2    1    3    3    0  502 -0.54472963136E+03  0.15393545111E+04  0.99029490190E+03  0.19097190041E+04  0.25500000920E-02 0.  1.
</event>
<event>
 5   0  0.1856107E-08  0.3686324E+04  0.7818609E-02  0.8070999E-01
        2   -1    0    0  501    0  0.00000000000E+00  0.00000000000E+00  0.27052607859E+04  0.27052607859E+04  0.25500000920E-02 0. -1.
       -2   -1    0    0    0  501  0.00000000000E+00  0.00000000000E+00 -0.12557922363E+04  0.12557922363E+04  0.25500000920E-02 0.  1.
    10030    2    1    2    0    0  0.00000000000E+00  0.00000000000E+00  0.14494685496E+04  0.39610530222E+04  0.36863236386E+04 0.  0.
        2    1    3    3  502    0  0.35121336734E+02  0.17005936701E+04 -0.38098796654E+02  0.17013829249E+04  0.25500000920E-02 0.  1.
       -2    1    3    3    0  502 -0.35121336734E+02 -0.17005936701E+04  0.14875673463E+04  0.22596700973E+04  0.25500000920E-02 0. -1.
</event>
<event>
 5   0  0.1757996E-08  0.3699848E+04  0.7818609E-02  0.8067996E-01
       -2   -1    0    0    0  501  0.00000000000E+00  0.00000000000E+00  0.14792993795E+04  0.14792993795E+04  0.25500000920E-02 0. -1.
        2   -1    0    0  501    0  0.00000000000E+00  0.00000000000E+00 -0.23134045348E+04  0.23134045348E+04  0.25500000920E-02 0.  1.
    10030    2    1    2    0    0  0.00000000000E+00  0.00000000000E+00 -0.83410515527E+03  0.37927039143E+04  0.36998475066E+04 0.  0.
        3    1    3    3  502    0 -0.58856175419E+03  0.15251739996E+04 -0.13046100364E+04  0.20915468020E+04  0.10100000352E+00 0.  1.
       -3    1    3    3    0  502  0.58856175419E+03 -0.15251739996E+04  0.47050488110E+03  0.17011571124E+04  0.10100000352E+00 0. -1.
</event>
<event>
 5   0  0.1825308E-08  0.3699974E+04  0.7818609E-02  0.8067968E-01
        2   -1    0    0  501    0  0.00000000000E+00  0.00000000000E+00  0.24031532425E+04  0.24031532425E+04  0.25500000920E-02 0.  1.
       -2   -1    0    0    0  501  0.00000000000E+00  0.00000000000E+00 -0.14241505147E+04  0.14241505147E+04  0.25500000920E-02 0. -1.
    10030    2    1    2    0    0  0.00000000000E+00  0.00000000000E+00  0.97900272784E+03  0.38273037571E+04  0.36999740146E+04 0.  0.
        4    1    3    3  502    0  0.13495630246E+04  0.18210074362E+03  0.17847794917E+04  0.22449767226E+04  0.12699999809E+01 0.  1.
       -4    1    3    3    0  502 -0.13495630246E+04 -0.18210074362E+03 -0.80577676385E+03  0.15823270345E+04  0.12699999809E+01 0. -1.
</event>
<event>
 5   0  0.5714125E-09  0.3699545E+04  0.7818609E-02  0.8068063E-01
       -1   -1    0    0    0  501  0.00000000000E+00  0.00000000000E+00  0.11069418161E+04  0.11069418161E+04  0.50400001928E-02 0.  1.
        1   -1    0    0  501    0  0.00000000000E+00  0.00000000000E+00 -0.30910907242E+04  0.30910907242E+04  0.50400001928E-02 0. -1.
    10030    2    1    2    0    0  0.00000000000E+00  0.00000000000E+00 -0.19841489081E+04  0.41980325403E+04  0.36995446098E+04 0.  0.
        5    1    3    3  502    0 -0.16612714647E+04  0.75316167327E+03 -0.13410150542E+04  0.22639387914E+04  0.46999998093E+01 0. -1.
       -5    1    3    3    0  502  0.16612714647E+04 -0.75316167327E+03 -0.64313385387E+03  0.19340937489E+04  0.46999998093E+01 0.  1.
</event>
<event>
 5   0  0.1725865E-08  0.3700859E+04  0.7818609E-02  0.8067772E-01
        2   -1    0    0  501    0  0.00000000000E+00  0.00000000000E+00  0.21135161308E+04  0.21135161308E+04  0.25500000920E-02 0. -1.
       -2   -1    0    0    0  501  0.00000000000E+00  0.00000000000E+00 -0.16200911508E+04  0.16200911508E+04  0.25500000920E-02 0.  1.
    10030    2    1    2    0    0  0.00000000000E+00  0.00000000000E+00  0.49342498000E+03  0.37336072816E+04  0.37008587006E+04 0.  0.
        1    1    3    3  502    0 -0.43206286163E+03  0.15178582973E+04  0.12214488483E+04  0.19956225636E+04  0.50400001928E-02 0. -1.
       -1    1    3    3    0  502  0.43206286163E+03 -0.15178582973E+04 -0.72802386835E+03  0.17379847180E+04  0.50400001928E-02 0.  1.
</event>
<event>
 5   0  0.1740290E-08  0.3700705E+04  0.7818609E-02  0.8067806E-01
        2   -1    0    0  501    0  0.00000000000E+00  0.00000000000E+00  0.23748053862E+04  0.23748053862E+04  0.25500000920E-02 0.  1.
       -2   -1    0    0    0  501  0.00000000000E+00  0.00000000000E+00 -0.14417198463E+04  0.14417198463E+04  0.25500000920E-02 0. -1.
    10030    2    1    2    0    0  0.00000000000E+00  0.00000000000E+00  0.93308553987E+03  0.38165252325E+04  0.37007048283E+04 0.  0.
        5    1    3    3  502    0 -0.12978976200E+04 -0.13020372763E+04  0.68272843359E+03  0.19611169024E+04  0.46999998093E+01 0. -1.
       -5    1    3    3    0  502  0.12978976200E+04  0.13020372763E+04  0.25035710628E+03  0.18554083301E+04  0.46999998093E+01 0.  1.
</event>
<event>
 5   0  0.5714125E-09  0.3671195E+04  0.7818609E-02  0.8074376E-01
       -1   -1    0    0    0  501  0.00000000000E+00  0.00000000000E+00  0.17622035461E+04  0.17622035461E+04  0.50400001928E-02 0.  1.
        1   -1    0    0  501    0  0.00000000000E+00  0.00000000000E+00 -0.19120481670E+04  0.19120481670E+04  0.50400001928E-02 0. -1.
    10030    2    1    2    0    0  0.00000000000E+00  0.00000000000E+00 -0.14984462092E+03  0.36742517131E+04  0.36711949337E+04 0.  0.
        4    1    3    3  502    0 -0.12408280797E+03 -0.38343518151E+03 -0.18672225448E+04  0.19102200728E+04  0.12699999809E+01 0. -1.
       -4    1    3    3    0  502  0.12408280797E+03  0.38343518151E+03  0.17173779239E+04  0.17640316403E+04  0.12699999809E+01 0.  1.
</event>
<event>
 5   0  0.5714125E-09  0.3699643E+04  0.7818609E-02  0.8068041E-01
        1   -1    0    0  501    0  0.00000000000E+00  0.00000000000E+00  0.19103448227E+04  0.19103448227E+04  0.50400001928E-02 0.  1.
       -1   -1    0    0    0  501  0.00000000000E+00  0.00000000000E+00 -0.17912160668E+04  0.17912160668E+04  0.50400001928E-02 0. -1.
    10030    2    1    2    0    0  0.00000000000E+00  0.00000000000E+00  0.11912875591E+03  0.37015608894E+04  0.36996434095E+04 0.  0.
        2    1    3    3  502    0 -0.16637906333E+04 -0.34807043535E+03 -0.67053160691E+03  0.18272834852E+04  0.25500000920E-02 0. -1.
       -2    1    3    3    0  502  0.16637906333E+04  0.34807043535E+03  0.78966036283E+03  0.18742774042E+04  0.25500000920E-02 0.  1.
</event>
<event>
 5   0  0.5714125E-09  0.3697888E+04  0.7818609E-02  0.8068430E-01
        1   -1    0    0  501    0  0.00000000000E+00  0.00000000000E+00  0.14734920395E+04  0.14734920395E+04  0.50400001928E-02 0. -1.
       -1   -1    0    0    0  501  0.00000000000E+00  0.00000000000E+00 -0.23200627527E+04  0.23200627527E+04  0.50400001928E-02 0.  1.
    10030    2    1    2    0    0  0.00000000000E+00  0.00000000000E+00 -0.84657071326E+03  0.37935547922E+04  0.36978880444E+04 0.  0.
        2    1    3    3  502    0  0.22114262417E+02 -0.66483898782E+03  0.13464809818E+04  0.15018358614E+04  0.25500000920E-02 0. -1.
       -2    1    3    3    0  502 -0.22114262417E+02  0.66483898782E+03 -0.21930516951E+04  0.22917189308E+04  0.25500000920E-02 0.  1.
</event>
<event>
 5   0  0.5714125E-09  0.3699573E+04  0.7818609E-02  0.8068056E-01
        1   -1    0    0  501    0  0.00000000000E+00  0.00000000000E+00  0.13763262302E+04  0.13763262302E+04  0.50400001928E-02 0.  1.
       -1   -1    0    0    0  501  0.00000000000E+00  0.00000000000E+00 -0.24861187342E+04  0.24861187342E+04  0.50400001928E-02 0. -1.
    10030    2    1    2    0    0  0.00000000000E+00  0.00000000000E+00 -0.11097925040E+04  0.38624449644E+04  0.36995731783E+04 0.  0.
        5    1    3    3  502    0 -0.81527971492E+03  0.10353736106E+04  0.80032988790E+03  0.15418266914E+04  0.46999998093E+01 0.  1.
       -5    1    3    3    0  502  0.81527971492E+03 -0.10353736106E+04 -0.19101223919E+04  0.23206182730E+04  0.46999998093E+01 0. -1.
</event>
<event>
 5   0  0.5714125E-09  0.3699047E+04  0.7818609E-02  0.8068173E-01
        1   -1    0    0  501    0  0.00000000000E+00  0.00000000000E+00  0.23505234813E+04  0.23505234813E+04  0.50400001928E-02 0.  1.
       -1   -1    0    0    0  501  0.00000000000E+00  0.00000000000E+00 -0.14553083194E+04  0.14553083194E+04  0.50400001928E-02 0. -1.
    10030    2    1    2    0    0  0.00000000000E+00  0.00000000000E+00  0.89521516189E+03  0.38058318008E+04  0.36990465677E+04 0.  0.
        2    1    3    3  502    0 -0.84718003553E+03 -0.86538064585E+03 -0.99065269316E+03  0.15646055200E+04  0.25500000920E-02 0. -1.
       -2    1    3    3    0  502  0.84718003553E+03  0.86538064585E+03  0.18858678551E+04  0.22412262808E+04  0.25500000920E-02 0.  1.
</event>
<event>
 5   0  0.1856107E-08  0.3701251E+04  0.7818609E-02  0.8067685E-01
        2   -1    0    0  501    0  0.00000000000E+00  0.00000000000E+00  0.22837336452E+04  0.22837336452E+04  0.25500000920E-02 0.  1.
       -2   -1    0    0    0  501  0.00000000000E+00  0.00000000000E+00 -0.14996555516E+04  0.14996555516E+04  0.25500000920E-02 0. -1.
    10030    2    1    2    0    0  0.00000000000E+00  0.00000000000E+00  0.78407809362E+03  0.37833891968E+04  0.37012505127E+04 0.  0.
        2    1    3    3  502    0  0.18199548942E+03  0.12760878099E+04  0.17493975922E+04  0.21729966388E+04  0.25500000920E-02 0.  1.
       -2    1    3    3    0  502 -0.18199548942E+03 -0.12760878099E+04 -0.96531949856E+03  0.16103925580E+04  0.25500000920E-02 0. -1.
</event>
<event>
 5   0  0.1856107E-08  0.3699634E+04  0.7818609E-02  0.8068043E-01
       -2   -1    0    0    0  501  0.00000000000E+00  0.00000000000E+00  0.15651469116E+04  0.15651469116E+04  0.25500000920E-02 0.  1.
        2   -1    0    0  501    0  0.00000000000E+00  0.00000000000E+00 -0.21862635710E+04  0.21862635710E+04  0.25500000920E-02 0. -1.
    10030    2    1    2    0    0  0.00000000000E+00  0.00000000000E+00 -0.62111665935E+03  0.37514104826E+04  0.36996344015E+04 0.  0.
        2    1    3    3  502    0 -0.18142104433E+04 -0.72027557920E+02  0.48338828750E+02  0.18162830573E+04  0.25500000920E-02 0.  1.
       -2    1    3    3    0  502  0.18142104433E+04  0.72027557920E+02 -0.66945548810E+03  0.19351274253E+04  0.25500000920E-02 0. -1.
</event>
<event>
 5   0  0.1757996E-08  0.3704661E+04  0.7818609E-02  0.8066930E-01
       -2   -1    0    0    0  501  0.00000000000E+00  0.00000000000E+00  0.18319740482E+04  0.18319740482E+04  0.25500000920E-02 0. -1.
        2   -1    0    0  501    0  0.00000000000E+00  0.00000000000E+00 -0.18729135332E+04  0.18729135332E+04  0.25500000920E-02 0.  1.
    10030    2    1    2    0    0  0.00000000000E+00  0.00000000000E+00 -0.40939484984E+02  0.37048875814E+04  0.37046613812E+04 0.  0.
        3    1    3    3  502    0  0.14661795825E+04 -0.31239123823E+03 -0.11085886222E+04  0.18644676445E+04  0.10100000352E+00 0.  1.
       -3    1    3    3    0  502 -0.14661795825E+04  0.31239123823E+03  0.10676491372E+04  0.18404199369E+04  0.10100000352E+00 0. -1.
</event>
<event>
 5   0  0.5714125E-09  0.3701629E+04  0.7818609E-02  0.8067601E-01
        1   -1    0    0  501    0  0.00000000000E+00  0.00000000000E+00  0.24036812601E+04  0.24036812601E+04  0.50400001928E-02 0. -1.
       -1   -1    0    0    0  501  0.00000000000E+00  0.00000000000E+00 -0.14251116767E+04  0.14251116767E+04  0.50400001928E-02 0.  1.
    10030    2    1    2    0    0  0.00000000000E+00  0.00000000000E+00  0.97856958336E+03  0.38287929368E+04  0.37016289554E+04 0.  0.
        1    1    3    3  502    0 -0.13555011036E+04  0.31563235176E+03  0.17512415312E+04  0.22369295751E+04  0.50400001928E-02 0. -1.
       -1    1    3    3    0  502  0.13555011036E+04 -0.31563235176E+03 -0.77267194780E+03  0.15918633617E+04  0.50400001928E-02 0.  1.
</event>
<event>
 5   0  0.5714125E-09  0.3699835E+04  0.7818609E-02  0.8067998E-01
       -1   -1    0    0    0  501  0.00000000000E+00  0.00000000000E+00  0.18101229504E+04  0.18101229504E+04  0.50400001928E-02 0.  1.
        1   -1    0    0  501    0  0.00000000000E+00  0.00000000000E+00 -0.18905873880E+04  0.18905873880E+04  0.50400001928E-02 0. -1.
    10030    2    1    2    0    0  0.00000000000E+00  0.00000000000E+00 -0.80464437563E+02  0.37007103384E+04  0.36998354670E+04 0.  0.
        2    1    3    3  502    0 -0.11412226356E+04  0.83897755836E+03  0.11499748545E+04  0.18244765313E+04  0.25500000920E-02 0.  1.
       -2    1    3    3    0  502  0.11412226356E+04 -0.83897755836E+03 -0.12304392920E+04  0.18762338071E+04  0.25500000920E-02 0. -1.
</event>
<event>
 5   0  0.5714125E-09  0.3700835E+04  0.7818609E-02  0.8067777E-01
       -1   -1    0    0    0  501  0.00000000000E+00  0.00000000000E+00  0.23367039516E+04  0.23367039516E+04  0.50400001928E-02 0.  1.
        1   -1    0    0  501    0  0.00000000000E+00  0.00000000000E+00 -0.14653313718E+04  0.14653313719E+04  0.50400001928E-02 0. -1.
    10030    2    1    2    0    0  0.00000000000E+00  0.00000000000E+00  0.87137257974E+03  0.38020353234E+04  0.37008353689E+04 0.  0.
        2    1    3    3  502    0  0.28950472757E+03  0.15656200103E+04  0.14043734200E+04  0.21230270151E+04  0.25500000920E-02 0.  1.
       -2    1    3    3    0  502 -0.28950472757E+03 -0.15656200103E+04 -0.53300084029E+03  0.16790083084E+04  0.25500000920E-02 0. -1.
</event>
<event>
 5   0  0.1757996E-08  0.3698281E+04  0.7818609E-02  0.8068343E-01
        2   -1    0    0  501    0  0.00000000000E+00  0.00000000000E+00  0.16569945695E+04  0.16569945695E+04  0.25500000920E-02 0. -1.
       -2   -1    0    0    0  501  0.00000000000E+00  0.00000000000E+00 -0.20635672644E+04  0.20635672644E+04  0.25500000920E-02 0.  1.
    10030    2    1    2    0    0  0.00000000000E+00  0.00000000000E+00 -0.40657269493E+03  0.37205618339E+04  0.36982805469E+04 0.  0.
        3    1    3    3  502    0  0.16543089049E+04  0.26826664187E+03  0.58283997014E+03  0.17743752098E+04  0.10100000352E+00 0. -1.
       -3    1    3    3    0  502 -0.16543089049E+04 -0.26826664187E+03 -0.98941266507E+03  0.19461866241E+04  0.10100000352E+00 0.  1.
</event>
<event>
 5   0  0.1856107E-08  0.3700378E+04  0.7818609E-02  0.8067878E-01
        2   -1    0    0  501    0  0.00000000000E+00  0.00000000000E+00  0.15615054287E+04  0.15615054287E+04  0.25500000920E-02 0.  1.
       -2   -1    0    0    0  501  0.00000000000E+00  0.00000000000E+00 -0.21922432141E+04  0.21922432141E+04  0.25500000920E-02 0. -1.
    10030    2    1    2    0    0  0.00000000000E+00  0.00000000000E+00 -0.63073778546E+03  0.37537486428E+04  0.37003781860E+04 0.  0.
        2    1    3    3  502    0  0.14082845333E+04  0.11526356896E+04 -0.65389647629E+03  0.19337566965E+04  0.25500000920E-02 0.  1.
       -2    1    3    3    0  502 -0.14082845333E+04 -0.11526356896E+04  0.23158690825E+02  0.18199919463E+04  0.25500000920E-02 0. -1.
</event>
<event>
 5   0  0.1856107E-08  0.3690909E+04  0.7818609E-02  0.8069980E-01
        2   -1    0    0  501    0  0.00000000000E+00  0.00000000000E+00  0.16508592609E+04  0.16508592609E+04  0.25500000920E-02 0.  1.
       -2   -1    0    0    0  501  0.00000000000E+00  0.00000000000E+00 -0.20629875647E+04  0.20629875647E+04  0.25500000920E-02 0. -1.
    10030    2    1    2    0    0  0.00000000000E+00  0.00000000000E+00 -0.41212830385E+03  0.37138468256E+04  0.36909088996E+04 0.  0.
        2    1    3    3  502    0  0.48896445563E+03 -0.17784672797E+03 -0.19876571383E+04  0.20546280921E+04  0.25500000920E-02 0. -1.
       -2    1    3    3    0  502 -0.48896445563E+03  0.17784672797E+03  0.15755288344E+04  0.16592187335E+04  0.25500000920E-02 0.  1.
</event>
<event>
 5   0  0.5714125E-09  0.3699307E+04  0.7818609E-02  0.8068115E-01
        1   -1    0    0  501    0  0.00000000000E+00  0.00000000000E+00  0.21954066203E+04  0.21954066203E+04  0.50400001928E-02 0.  1.
       -1   -1    0    0    0  501  0.00000000000E+00  0.00000000000E+00 -0.15583530952E+04  0.15583530952E+04  0.50400001928E-02 0. -1.
    10030    2    1    2    0    0  0.00000000000E+00  0.00000000000E+00  0.63705352507E+03  0.37537597155E+04  0.36993073417E+04 0.  0.
        4    1    3    3  502    0  0.46464826840E+03  0.68142818513E+03  0.19984853212E+04  0.21619869512E+04  0.12699999809E+01 0.  1.
       -4    1    3    3    0  502 -0.46464826840E+03 -0.68142818513E+03 -0.13614317962E+04  0.15917727644E+04  0.12699999809E+01 0. -1.
</event>
<event>
 5   0  0.5714125E-09  0.3699681E+04  0.7818609E-02  0.8068033E-01
        3   -1    0    0  501    0  0.00000000000E+00  0.00000000000E+00  0.12173031187E+04  0.12173031229E+04  0.10100000352E+00 0. -1.
       -3   -1    0    0    0  501  0.00000000000E+00  0.00000000000E+00 -0.28110580665E+04  0.28110580683E+04  0.10100000352E+00 0.  1.
    10030    2    1    2    0    0  0.00000000000E+00  0.00000000000E+00 -0.15937549478E+04  0.40283611913E+04  0.36996809395E+04 0.  0.
        3    1    3    3  502    0  0.11714895892E+04 -0.81682704498E+03  0.48329273417E+03  0.15077022770E+04  0.10100000352E+00 0. -1.
       -3    1    3    3    0  502 -0.11714895892E+04  0.81682704498E+03 -0.20770476820E+04  0.25206589143E+04  0.10100000352E+00 0.  1.
</event>
<event>
 5   0  0.1725865E-08  0.3699950E+04  0.7818609E-02  0.8067973E-01
        2   -1    0    0  501    0  0.00000000000E+00  0.00000000000E+00  0.24156222770E+04  0.24156222770E+04  0.25500000920E-02 0.  1.
       -2   -1    0    0    0  501  0.00000000000E+00  0.00000000000E+00 -0.14167810507E+04  0.14167810507E+04  0.25500000920E-02 0. -1.
    10030    2    1    2    0    0  0.00000000000E+00  0.00000000000E+00  0.99884122639E+03  0.38324033277E+04  0.36999501984E+04 0.  0.
        1    1    3    3  502    0  0.68695799100E+03 -0.14565174040E+03 -0.12733638350E+04  0.14541599524E+04  0.50400001928E-02 0. -1.
       -1    1    3    3    0  502 -0.68695799100E+03  0.14565174040E+03  0.22722050614E+04  0.23782433753E+04  0.50400001928E-02 0.  1.
</event>
<event>
 5   0  0.1757996E-08  0.3699156E+04  0.7818609E-02  0.8068149E-01
        2   -1    0    0  501    0  0.00000000000E+00  0.00000000000E+00  0.14784072319E+04  0.14784072319E+04  0.25500000920E-02 0.  1.
       -2   -1    0    0    0  501  0.00000000000E+00  0.00000000000E+00 -0.23139350709E+04  0.23139350709E+04  0.25500000920E-02 0. -1.
    10030    2    1    2    0    0  0.00000000000E+00  0.00000000000E+00 -0.83552783904E+03  0.37923423028E+04  0.36991557647E+04 0.  0.
        3    1    3    3  502    0  0.31854458172E+03  0.10222796099E+04 -0.19638707125E+04  0.22368089854E+04  0.10100000352E+00 0. -1.
       -3    1    3    3    0  502 -0.31854458172E+03 -0.10222796099E+04  0.11283428735E+04  0.15555333174E+04  0.10100000352E+00 0.  1.
</event>
<event>
 5   0  0.5714125E-09  0.3699950E+04  0.7818609E-02  0.8067973E-01
       -1   -1    0    0    0  501  0.00000000000E+00  0.00000000000E+00  0.14586511176E+04  0.14586511176E+04  0.50400001928E-02 0. -1.
        1   -1    0    0  501    0  0.00000000000E+00  0.00000000000E+00 -0.23462819822E+04  0.23462819823E+04  0.50400001928E-02 0.  1.
    10030    2    1    2    0    0  0.00000000000E+00  0.00000000000E+00 -0.88763086467E+03  0.38049330998E+04  0.36999496405E+04 0.  0.
        2    1    3    3  502    0 -0.11178486072E+04  0.34806155561E+03  0.10291937038E+04  0.15588367570E+04  0.25500000920E-02 0. -1.
       -2    1    3    3    0  502  0.11178486072E+04 -0.34806155561E+03 -0.19168245685E+04  0.22460963428E+04  0.25500000920E-02 0.  1.
</event>
<event>
 5   0  0.1757996E-08  0.3699226E+04  0.7818609E-02  0.8068133E-01
       -2   -1    0    0    0  501  0.00000000000E+00  0.00000000000E+00  0.12039103221E+04  0.12039103221E+04  0.25500000920E-02 0.  1.
        2   -1    0    0  501    0  0.00000000000E+00  0.00000000000E+00 -0.28416299605E+04  0.28416299605E+04  0.25500000920E-02 0. -1.
    10030    2    1    2    0    0  0.00000000000E+00  0.00000000000E+00 -0.16377196385E+04  0.40455402826E+04  0.36992256709E+04 0.  0.
        3    1    3    3  502    0  0.62016904533E+03 -0.16088713609E+04 -0.86877966046E+02  0.17264485199E+04  0.10100000352E+00 0.  1.
       -3    1    3    3    0  502 -0.62016904533E+03  0.16088713609E+04 -0.15508416724E+04  0.23190917627E+04  0.10100000352E+00 0. -1.
</event>
<event>
 5   0  0.1856107E-08  0.3699212E+04  0.7818609E-02  0.8068137E-01
       -2   -1    0    0    0  501  0.00000000000E+00  0.00000000000E+00  0.14264635095E+04  0.14264635095E+04  0.25500000920E-02 0. -1.
        2   -1    0    0  501    0  0.00000000000E+00  0.00000000000E+00 -0.23982677713E+04  0.23982677713E+04  0.25500000920E-02 0.  1.
    10030    2    1    2    0    0  0.00000000000E+00  0.00000000000E+00 -0.97180426181E+03  0.38247312808E+04  0.36992115169E+04 0.  0.
        2    1    3    3  502    0 -0.15188659344E+04 -0.10524051387E+04 -0.56945990986E+03  0.19335963622E+04  0.25500000920E-02 0. -1.
       -2    1    3    3    0  502  0.15188659344E+04  0.10524051387E+04 -0.40234435195E+03  0.18911349186E+04  0.25500000920E-02 0.  1.
</event>
<event>
 5   0  0.1757996E-08  0.3700191E+04  0.7818609E-02  0.8067920E-01
        2   -1    0    0  501    0  0.00000000000E+00  0.00000000000E+00  0.20735047416E+04  0.20735047416E+04  0.25500000920E-02 0.  1.
       -2   -1    0    0    0  501  0.00000000000E+00  0.00000000000E+00 -0.16507572346E+04  0.16507572346E+04  0.25500000920E-02 0. -1.
    10030    2    1    2    0    0  0.00000000000E+00  0.00000000000E+00  0.42274750703E+03  0.37242619763E+04  0.37001907807E+04 0.  0.
        3    1    3    3  502    0  0.96854565335E+03 -0.11111140178E+04 -0.91402256163E+03  0.17343852791E+04  0.10100000352E+00 0. -1.
       -3    1    3    3    0  502 -0.96854565335E+03  0.11111140178E+04  0.13367700687E+04  0.19898766971E+04  0.10100000352E+00 0.  1.
</event>
<event>
 5   0  0.5714125E-09  0.3698708E+04  0.7818609E-02  0.8068248E-01
        1   -1    0    0  501    0  0.00000000000E+00  0.00000000000E+00  0.16124812109E+04  0.16124812109E+04  0.50400001928E-02 0. -1.
       -1   -1    0    0    0  501  0.00000000000E+00  0.00000000000E+00 -0.21210232121E+04  0.21210232121E+04  0.50400001928E-02 0.  1.
    10030    2    1    2    0    0  0.00000000000E+00  0.00000000000E+00 -0.50854200118E+03  0.37335044230E+04  0.36987079243E+04 0.  0.
        5    1    3    3  502    0  0.13063443268E+04  0.22385430085E+03 -0.15561494253E+04  0.20440815473E+04  0.46999998093E+01 0.  1.
       -5    1    3    3    0  502 -0.13063443268E+04 -0.22385430085E+03  0.10476074241E+04  0.16894228757E+04  0.46999998093E+01 0. -1.
</event>
<event>
 5   0  0.5714125E-09  0.3702221E+04  0.7818609E-02  0.8067470E-01
       -1   -1    0    0    0  501  0.00000000000E+00  0.00000000000E+00  0.14005966948E+04  0.14005966948E+04  0.50400001928E-02 0. -1.
        1   -1    0    0  501    0  0.00000000000E+00  0.00000000000E+00 -0.24465354390E+04  0.24465354390E+04  0.50400001928E-02 0.  1.
    10030    2    1    2    0    0  0.00000000000E+00  0.00000000000E+00 -0.10459387442E+04  0.38471321339E+04  0.37022206578E+04 0.  0.
        5    1    3    3  502    0 -0.70769993835E+03 -0.16265898609E+04 -0.10727859330E+04  0.20730474009E+04  0.46999998093E+01 0.  1.
       -5    1    3    3    0  502  0.70769993835E+03  0.16265898609E+04  0.26847188847E+02  0.17740847330E+04  0.46999998093E+01 0. -1.
</event>
<event>
 5   0  0.1725865E-08  0.3699229E+04  0.7818609E-02  0.8068133E-01
       -2   -1    0    0    0  501  0.00000000000E+00  0.00000000000E+00  0.18231280288E+04  0.18231280288E+04  0.25500000920E-02 0. -1.
        2   -1    0    0  501    0  0.00000000000E+00  0.00000000000E+00 -0.18764856466E+04  0.18764856466E+04  0.25500000920E-02 0.  1.
    10030    2    1    2    0    0  0.00000000000E+00  0.00000000000E+00 -0.53357617783E+02  0.36996136753E+04  0.36992288806E+04 0.  0.
        1    1    3    3  502    0  0.37178656592E+03  0.73453202921E+03 -0.16831454626E+04  0.18736972009E+04  0.50400001928E-02 0.  1.
       -1    1    3    3    0  502 -0.37178656592E+03 -0.73453202921E+03  0.16297878448E+04  0.18259164744E+04  0.50400001928E-02 0. -1.
</event>
<event>
 5   0  0.5714125E-09  0.3699063E+04  0.7818609E-02  0.8068169E-01
       -1   -1    0    0    0  501  0.00000000000E+00  0.00000000000E+00  0.17864938444E+04  0.17864938444E+04  0.50400001928E-02 0. -1.
        1   -1    0    0  501    0  0.00000000000E+00  0.00000000000E+00 -0.19147937634E+04  0.19147937634E+04  0.50400001928E-02 0.  1.
    10030    2    1    2    0    0  0.00000000000E+00  0.00000000000E+00 -0.12829991902E+03  0.37012876078E+04  0.36990632715E+04 0.  0.
        2    1    3    3  502    0  0.80642480477E+03 -0.39462554614E+03  0.15538310400E+04  0.17945587726E+04  0.25500000920E-02 0. -1.
       -2    1    3    3    0  502 -0.80642480477E+03  0.39462554614E+03 -0.16821309591E+04  0.19067288352E+04  0.25500000920E-02 0.  1.
</event>
<event>
 5   0  0.1856107E-08  0.3700031E+04  0.7818609E-02  0.8067955E-01
        2   -1    0    0  501    0  0.00000000000E+00  0.00000000000E+00  0.22924456556E+04  0.22924456556E+04  0.25500000920E-02 0.  1.
       -2   -1    0    0    0  501  0.00000000000E+00  0.00000000000E+00 -0.14929720462E+04  0.14929720462E+04  0.25500000920E-02 0. -1.
    10030    2    1    2    0    0  0.00000000000E+00  0.00000000000E+00  0.79947360942E+03  0.37854177018E+04  0.37000309627E+04 0.  0.
        2    1    3    3  502    0  0.17615318242E+04  0.32429052739E+03  0.87345426250E+03  0.19927571509E+04  0.25500000920E-02 0. -1.
       -2    1    3    3    0  502 -0.17615318242E+04 -0.32429052739E+03 -0.73980653082E+02  0.17926605509E+04  0.25500000920E-02 0.  1.
</event>
<event>
 5   0  0.5714125E-09  0.3700075E+04  0.7818609E-02  0.8067945E-01
       -1   -1    0    0    0  501  0.00000000000E+00  0.00000000000E+00  0.14623204091E+04  0.14623204091E+04  0.50400001928E-02 0. -1.
        1   -1    0    0  501    0  0.00000000000E+00  0.00000000000E+00 -0.23405538291E+04  0.23405538291E+04  0.50400001928E-02 0.  1.
    10030    2    1    2    0    0  0.00000000000E+00  0.00000000000E+00 -0.87823341998E+03  0.38028742382E+04  0.37000754765E+04 0.  0.
        1    1    3    3  502    0  0.10022633005E+04  0.37945095042E+03 -0.19890340448E+04  0.22593740680E+04  0.50400001928E-02 0.  1.
       -1    1    3    3    0  502 -0.10022633005E+04 -0.37945095042E+03  0.11108006249E+04  0.15435001703E+04  0.50400001928E-02 0. -1.
</event>
<event>
 5   0  0.1825308E-08  0.3698698E+04  0.7818609E-02  0.8068250E-01
        2   -1    0    0  501    0  0.00000000000E+00  0.00000000000E+00  0.28340788593E+04  0.28340788593E+04  0.25500000920E-02 0.  1.
       -2   -1    0    0    0  501  0.00000000000E+00  0.00000000000E+00 -0.12067739491E+04  0.12067739491E+04  0.25500000920E-02 0. -1.
    10030    2    1    2    0    0  0.00000000000E+00  0.00000000000E+00  0.16273049102E+04  0.40408528084E+04  0.36986984397E+04 0.  0.
        4    1    3    3  502    0 -0.11540877550E+04  0.38762995394E+03  0.23345204253E+04  0.26329000658E+04  0.12699999809E+01 0.  1.
       -4    1    3    3    0  502  0.11540877550E+04 -0.38762995394E+03 -0.70721551513E+03  0.14079527425E+04  0.12699999809E+01 0. -1.
</event>
<event>
 5   0  0.5714125E-09  0.3702756E+04  0.7818609E-02  0.8067351E-01
       -1   -1    0    0    0  501  0.00000000000E+00  0.00000000000E+00  0.18797576183E+04  0.18797576183E+04  0.50400001928E-02 0.  1.
        1   -1    0    0  501    0  0.00000000000E+00  0.00000000000E+00 -0.18234269402E+04  0.18234269402E+04  0.50400001928E-02 0. -1.
    10030    2    1    2    0    0  0.00000000000E+00  0.00000000000E+00  0.56330678097E+02  0.37031845584E+04  0.37027560990E+04 0.  0.
        4    1    3    3  502    0  0.95038638997E+02  0.15935464730E+04  0.96591788739E+03  0.18658568226E+04  0.12699999809E+01 0.  1.
       -4    1    3    3    0  502 -0.95038638997E+02 -0.15935464730E+04 -0.90958720929E+03  0.18373277358E+04  0.12699999809E+01 0. -1.
</event>
<event>
 5   0  0.1740290E-08  0.3700421E+04  0.7818609E-02  0.8067869E-01
        2   -1    0    0  501    0  0.00000000000E+00  0.00000000000E+00  0.16297897886E+04  0.16297897886E+04  0.25500000920E-02 0.  1.
       -2   -1    0    0    0  501  0.00000000000E+00  0.00000000000E+00 -0.21004418952E+04  0.21004418952E+04  0.25500000920E-02 0. -1.
    10030    2    1    2    0    0  0.00000000000E+00  0.00000000000E+00 -0.47065210659E+03  0.37302316838E+04  0.37004209233E+04 0.  0.
        5    1    3    3  502    0 -0.31032290387E+02 -0.87225229253E+03 -0.18798698103E+04  0.20726117964E+04  0.46999998093E+01 0. -1.
       -5    1    3    3    0  502  0.31032290387E+02  0.87225229253E+03  0.14092177037E+04  0.16576198874E+04  0.46999998093E+01 0.  1.
</event>
<event>
 5   0  0.5714125E-09  0.3696592E+04  0.7818609E-02  0.8068718E-01
        1   -1    0    0  501    0  0.00000000000E+00  0.00000000000E+00  0.18193216596E+04  0.18193216596E+04  0.50400001928E-02 0.  1.
       -1   -1    0    0    0  501  0.00000000000E+00  0.00000000000E+00 -0.18777313068E+04  0.18777313068E+04  0.50400001928E-02 0. -1.
    10030    2    1    2    0    0  0.00000000000E+00  0.00000000000E+00 -0.58409647246E+02  0.36970529664E+04  0.36965915313E+04 0.  0.
        4    1    3    3  502    0 -0.60518869626E+03 -0.10314862800E+04 -0.14386281665E+04  0.18707939273E+04  0.12699999809E+01 0. -1.
       -4    1    3    3    0  502  0.60518869626E+03  0.10314862800E+04  0.13802185193E+04  0.18262590391E+04  0.12699999809E+01 0.  1.
</event>
<event>
 5   0  0.5714125E-09  0.3700015E+04  0.7818609E-02  0.8067959E-01
       -1   -1    0    0    0  501  0.00000000000E+00  0.00000000000E+00  0.26588273264E+04  0.26588273264E+04  0.50400001928E-02 0.  1.
        1   -1    0    0  501    0  0.00000000000E+00  0.00000000000E+00 -0.12872319474E+04  0.12872319474E+04  0.50400001928E-02 0. -1.
    10030    2    1    2    0    0  0.00000000000E+00  0.00000000000E+00  0.13715953790E+04  0.39460592738E+04  0.37000148525E+04 0.  0.
        5    1    3    3  502    0 -0.64536913625E+03  0.68140686359E+03  0.23860811121E+04  0.25640245317E+04  0.46999998093E+01 0.  1.
       -5    1    3    3    0  502  0.64536913625E+03 -0.68140686359E+03 -0.10144857331E+04  0.13820347421E+04  0.46999998093E+01 0. -1.
</event>
<event>
 5   0  0.1725865E-08  0.3700161E+04  0.7818609E-02  0.8067926E-01
        2   -1    0    0  501    0  0.00000000000E+00  0.00000000000E+00  0.15125318606E+04  0.15125318606E+04  0.25500000920E-02 0. -1.
       -2   -1    0    0    0  501  0.00000000000E+00  0.00000000000E+00 -0.22629596868E+04  0.22629596868E+04  0.25500000920E-02 0.  1.
    10030    2    1    2    0    0  0.00000000000E+00  0.00000000000E+00 -0.75042782618E+03  0.37754915474E+04  0.37001614157E+04 0.  0.
        1    1    3    3  502    0  0.95282163989E+03  0.79664432672E+03 -0.17743660691E+04  0.21658453795E+04  0.50400001928E-02 0.  1.
       -1    1    3    3    0  502 -0.95282163989E+03 -0.79664432672E+03  0.10239382429E+04  0.16096461679E+04  0.50400001928E-02 0. -1.
</event>
<event>
 5   0  0.5714125E-09  0.3692845E+04  0.7818609E-02  0.8069549E-01
        1   -1    0    0  501    0  0.00000000000E+00  0.00000000000E+00  0.11123216210E+04  0.11123216210E+04  0.50400001928E-02 0. -1.
       -1   -1    0    0    0  501  0.00000000000E+00  0.00000000000E+00 -0.30650087730E+04  0.30650087730E+04  0.50400001928E-02 0.  1.
    10030    2    1    2    0    0  0.00000000000E+00  0.00000000000E+00 -0.19526871521E+04  0.41773303940E+04  0.36928447174E+04 0.  0.
        5    1    3    3  502    0  0.17526667818E+04  0.94175201472E+02 -0.16247305762E+04  0.23917527782E+04  0.46999998093E+01 0.  1.
       -5    1    3    3    0  502 -0.17526667818E+04 -0.94175201472E+02 -0.32795657583E+03  0.17855776158E+04  0.46999998093E+01 0. -1.
</event>
<event>
 5   0  0.1725865E-08  0.3696464E+04  0.7818609E-02  0.8068746E-01
        2   -1    0    0  501    0  0.00000000000E+00  0.00000000000E+00  0.26452414273E+04  0.26452414273E+04  0.25500000920E-02 0. -1.
       -2   -1    0    0    0  501  0.00000000000E+00  0.00000000000E+00 -0.12913610828E+04  0.12913610828E+04  0.25500000920E-02 0.  1.
    10030    2    1    2    0    0  0.00000000000E+00  0.00000000000E+00  0.13538803445E+04  0.39366025101E+04  0.36964641666E+04 0.  0.
        1    1    3    3  502    0  0.80454324287E+03 -0.81516994518E+03  0.22217515986E+04  0.24995943741E+04  0.50400001928E-02 0. -1.
       -1    1    3    3    0  502 -0.80454324287E+03  0.81516994518E+03 -0.86787125405E+03  0.14370081360E+04  0.50400001928E-02 0.  1.
</event>
<event>
 5   0  0.5714125E-09  0.3700981E+04  0.7818609E-02  0.8067745E-01
       -1   -1    0    0    0  501  0.00000000000E+00  0.00000000000E+00  0.16919876806E+04  0.16919876806E+04  0.50400001928E-02 0.  1.
        1   -1    0    0  501    0  0.00000000000E+00  0.00000000000E+00 -0.20238410841E+04  0.20238410841E+04  0.50400001928E-02 0. -1.
    10030    2    1    2    0    0  0.00000000000E+00  0.00000000000E+00 -0.33185340349E+03  0.37158287646E+04  0.37009805088E+04 0.  0.
        3    1    3    3  502    0 -0.14641892065E+04  0.36036607774E+03 -0.12428906373E+04  0.19540959262E+04  0.10100000352E+00 0. -1.
       -3    1    3    3    0  502  0.14641892065E+04 -0.36036607774E+03  0.91103723381E+03  0.17617328384E+04  0.10100000352E+00 0.  1.
</event>
<event>
 5   0  0.5714125E-09  0.3699543E+04  0.7818609E-02  0.8068063E-01
       -1   -1    0    0    0  501  0.00000000000E+00  0.00000000000E+00  0.15573457525E+04  0.15573457525E+04  0.50400001928E-02 0.  1.
        1   -1    0    0  501    0  0.00000000000E+00  0.00000000000E+00 -0.21971062032E+04  0.21971062033E+04  0.50400001928E-02 0. -1.
    10030    2    1    2    0    0  0.00000000000E+00  0.00000000000E+00 -0.63976045078E+03  0.37544519557E+04  0.36995426817E+04 0.  0.
        5    1    3    3  502    0  0.66311568529E+03  0.17238269917E+04 -0.42302541191E+03  0.18948019681E+04  0.46999998093E+01 0. -1.
       -5    1    3    3    0  502 -0.66311568529E+03 -0.17238269917E+04 -0.21673503888E+03  0.18596499876E+04  0.46999998093E+01 0.  1.
</event>
<event>
 5   0  0.1825308E-08  0.3707408E+04  0.7818609E-02  0.8066322E-01
       -2   -1    0    0    0  501  0.00000000000E+00  0.00000000000E+00  0.29364423148E+04  0.29364423148E+04  0.25500000920E-02 0.  1.
        2   -1    0    0  501    0  0.00000000000E+00  0.00000000000E+00 -0.11701978023E+04  0.11701978023E+04  0.25500000920E-02 0. -1.
    10030    2    1    2    0    0  0.00000000000E+00  0.00000000000E+00  0.17662445125E+04  0.41066401170E+04  0.37074079048E+04 0.  0.
        4    1    3    3  502    0 -0.18038685275E+04 -0.42554872938E+03  0.92122637587E+03  0.20697084418E+04  0.12699999809E+01 0.  1.
       -4    1    3    3    0  502  0.18038685275E+04  0.42554872938E+03  0.84501813665E+03  0.20369316753E+04  0.12699999809E+01 0. -1.
</event>
<event>
 5   0  0.1856107E-08  0.3699054E+04  0.7818609E-02  0.8068172E-01
       -2   -1    0    0    0  501  0.00000000000E+00  0.00000000000E+00  0.15963276097E+04  0.15963276097E+04  0.25500000920E-02 0.  1.
        2   -1    0    0  501    0  0.00000000000E+00  0.00000000000E+00 -0.21428870214E+04  0.21428870214E+04  0.25500000920E-02 0. -1.
    10030    2    1    2    0    0  0.00000000000E+00  0.00000000000E+00 -0.54655941170E+03  0.37392146312E+04  0.36990537800E+04 0.  0.
        2    1    3    3  502    0  0.15686138239E+04  0.97798805611E+03 -0.21146225952E+03  0.18605714858E+04  0.25500000920E-02 0.  1.
       -2    1    3    3    0  502 -0.15686138239E+04 -0.97798805611E+03 -0.33509715218E+03  0.18786431454E+04  0.25500000920E-02 0. -1.
</event>
<event>
 5   0  0.5714125E-09  0.3708278E+04  0.7818609E-02  0.8066130E-01
       -1   -1    0    0    0  501  0.00000000000E+00  0.00000000000E+00  0.18040280243E+04  0.18040280243E+04  0.50400001928E-02 0.  1.
        1   -1    0    0  501    0  0.00000000000E+00  0.00000000000E+00 -0.19056417188E+04  0.19056417188E+04  0.50400001928E-02 0. -1.
    10030    2    1    2    0    0  0.00000000000E+00  0.00000000000E+00 -0.10161369453E+03  0.37096697431E+04  0.37082778024E+04 0.  0.
        4    1    3    3  502    0 -0.59988537044E+03  0.72158851467E+03  0.15489422491E+04  0.18110152252E+04  0.12699999809E+01 0.  1.
       -4    1    3    3    0  502  0.59988537044E+03 -0.72158851467E+03 -0.16505559436E+04  0.18986545178E+04  0.12699999809E+01 0. -1.
</event>
<event>
 5   0  0.1740290E-08  0.3671930E+04  0.7818609E-02  0.8074211E-01
        2   -1    0    0  501    0  0.00000000000E+00  0.00000000000E+00  0.14209763416E+04  0.14209763416E+04  0.25500000920E-02 0. -1.
       -2   -1    0    0    0  501  0.00000000000E+00  0.00000000000E+00 -0.23721488075E+04  0.23721488075E+04  0.25500000920E-02 0.  1.
    10030    2    1    2    0    0  0.00000000000E+00  0.00000000000E+00 -0.95117246584E+03  0.37931251491E+04  0.36719299200E+04 0.  0.
        5    1    3    3  502    0  0.10549053327E+04  0.15006734019E+04 -0.39624409028E+03  0.18766665631E+04  0.46999998093E+01 0.  1.
       -5    1    3    3    0  502 -0.10549053327E+04 -0.15006734019E+04 -0.55492837555E+03  0.19164585860E+04  0.46999998093E+01 0. -1.
</event>
<event>
 5   0  0.5714125E-09  0.3701330E+04  0.7818609E-02  0.8067667E-01
       -1   -1    0    0    0  501  0.00000000000E+00  0.00000000000E+00  0.19111465616E+04  0.19111465616E+04  0.50400001928E-02 0. -1.
        1   -1    0    0  501    0  0.00000000000E+00  0.00000000000E+00 -0.17920974060E+04  0.17920974060E+04  0.50400001928E-02 0.  1.
    10030    2    1    2    0    0  0.00000000000E+00  0.00000000000E+00  0.11904915562E+03  0.37032439676E+04  0.37013299207E+04 0.  0.
        1    1    3    3  502    0 -0.37800662134E+02 -0.53997181251E+03  0.18301748570E+04  0.19085435430E+04  0.50400001928E-02 0. -1.
       -1    1    3    3    0  502  0.37800662134E+02  0.53997181251E+03 -0.17111257013E+04  0.17947004246E+04  0.50400001928E-02 0.  1.
</event>
<event>
 5   0  0.1825308E-08  0.3697531E+04  0.7818609E-02  0.8068509E-01
        2   -1    0    0  501    0  0.00000000000E+00  0.00000000000E+00  0.34477602104E+04  0.34477602104E+04  0.25500000920E-02 0. -1.
       -2   -1    0    0    0  501  0.00000000000E+00  0.00000000000E+00 -0.99134922898E+03  0.99134922898E+03  0.25500000920E-02 0.  1.
    10030    2    1    2    0    0  0.00000000000E+00  0.00000000000E+00  0.24564109814E+04  0.44391094394E+04  0.36975312987E+04 0.  0.
        4    1    3    3  502    0 -0.42319634623E+03  0.97589863957E+03 -0.58716700291E+03  0.12150061746E+04  0.12699999809E+01 0.  1.
       -4    1    3    3    0  502  0.42319634623E+03 -0.97589863957E+03  0.30435779843E+04  0.32241032647E+04  0.12699999809E+01 0. -1.
</event>
<event>
 5   0  0.5714125E-09  0.3701040E+04  0.7818609E-02  0.8067731E-01
       -1   -1    0    0    0  501  0.00000000000E+00  0.00000000000E+00  0.15879813807E+04  0.15879813807E+04  0.50400001928E-02 0.  1.
        1   -1    0    0  501    0  0.00000000000E+00  0.00000000000E+00 -0.21564640582E+04  0.21564640582E+04  0.50400001928E-02 0. -1.
    10030    2    1    2    0    0  0.00000000000E+00  0.00000000000E+00 -0.56848267745E+03  0.37444454389E+04  0.37010402714E+04 0.  0.
        2    1    3    3  502    0 -0.18354972682E+04  0.68901026997E+02 -0.51188504504E+03  0.19067836460E+04  0.25500000920E-02 0. -1.
       -2    1    3    3    0  502  0.18354972682E+04 -0.68901026997E+02 -0.56597632409E+02  0.18376617929E+04  0.25500000920E-02 0.  1.
</event>
<event>
 5   0  0.5714125E-09  0.3706619E+04  0.7818609E-02  0.8066497E-01
       -1   -1    0    0    0  501  0.00000000000E+00  0.00000000000E+00  0.28026835878E+04  0.28026835878E+04  0.50400001928E-02 0. -1.
        1   -1    0    0  501    0  0.00000000000E+00  0.00000000000E+00 -0.12255238634E+04  0.12255238634E+04  0.50400001928E-02 0.  1.
    10030    2    1    2    0    0  0.00000000000E+00  0.00000000000E+00  0.15771597244E+04  0.40282074513E+04  0.37066187387E+04 0.  0.
        2    1    3    3  502    0  0.51017126680E+03  0.36697187419E+03 -0.11061936838E+04  0.12722450801E+04  0.25500000920E-02 0.  1.
       -2    1    3    3    0  502 -0.51017126680E+03 -0.36697187419E+03  0.26833534082E+04  0.27559623711E+04  0.25500000920E-02 0. -1.
</event>
<event>
 5   0  0.1856107E-08  0.3699508E+04  0.7818609E-02  0.8068071E-01
        2   -1    0    0  501    0  0.00000000000E+00  0.00000000000E+00  0.15880642471E+04  0.15880642471E+04  0.25500000920E-02 0. -1.
       -2   -1    0    0    0  501  0.00000000000E+00  0.00000000000E+00 -0.21545659306E+04  0.21545659306E+04  0.25500000920E-02 0.  1.
    10030    2    1    2    0    0  0.00000000000E+00  0.00000000000E+00 -0.56650168353E+03  0.37426301778E+04  0.36995076010E+04 0.  0.
        2    1    3    3  502    0 -0.73901655634E+03 -0.81158363286E+03  0.12229880711E+04  0.16433238529E+04  0.25500000920E-02 0. -1.
       -2    1    3    3    0  502  0.73901655634E+03  0.81158363286E+03 -0.17894897546E+04  0.20993063248E+04  0.25500000920E-02 0.  1.
</event>
<event>
 5   0  0.5714125E-09  0.3708884E+04  0.7818609E-02  0.8065996E-01
       -1   -1    0    0    0  501  0.00000000000E+00  0.00000000000E+00  0.21502572030E+04  0.21502572030E+04  0.50400001928E-02 0. -1.
        1   -1    0    0  501    0  0.00000000000E+00  0.00000000000E+00 -0.15993226195E+04  0.15993226195E+04  0.50400001928E-02 0.  1.
    10030    2    1    2    0    0  0.00000000000E+00  0.00000000000E+00  0.55093458348E+03  0.37495798226E+04  0.37088839198E+04 0.  0.
        5    1    3    3  502    0  0.34647919883E+03  0.15691946163E+04  0.12111022099E+04  0.20122649507E+04  0.46999998093E+01 0. -1.
       -5    1    3    3    0  502 -0.34647919883E+03 -0.15691946163E+04 -0.66016762638E+03  0.17373148719E+04  0.46999998093E+01 0.  1.
</event>
<event>
 5   0  0.5714125E-09  0.3701224E+04  0.7818609E-02  0.8067691E-01
       -1   -1    0    0    0  501  0.00000000000E+00  0.00000000000E+00  0.12111478434E+04  0.12111478434E+04  0.50400001928E-02 0.  1.
        1   -1    0    0  501    0  0.00000000000E+00  0.00000000000E+00 -0.28277017053E+04  0.28277017053E+04  0.50400001928E-02 0. -1.
    10030    2    1    2    0    0  0.00000000000E+00  0.00000000000E+00 -0.16165538619E+04  0.40388495487E+04  0.37012240257E+04 0.  0.
        4    1    3    3  502    0  0.12824973920E+04 -0.40481222561E+03  0.57894252073E+03  0.14641887016E+04  0.12699999809E+01 0.  1.
       -4    1    3    3    0  502 -0.12824973920E+04  0.40481222561E+03 -0.21954963826E+04  0.25746608471E+04  0.12699999809E+01 0. -1.
</event>
<event>
 5   0  0.5714125E-09  0.3699927E+04  0.7818609E-02  0.8067978E-01
       -1   -1    0    0    0  501  0.00000000000E+00  0.00000000000E+00  0.17301419161E+04  0.17301419161E+04  0.50400001928E-02 0. -1.
        1   -1    0    0  501    0  0.00000000000E+00  0.00000000000E+00 -0.19780836973E+04  0.19780836973E+04  0.50400001928E-02 0.  1.
    10030    2    1    2    0    0  0.00000000000E+00  0.00000000000E+00 -0.24794178120E+03  0.37082256134E+04  0.36999273065E+04 0.  0.
        5    1    3    3  502    0 -0.13886131359E+04  0.40607691161E+03 -0.12794653939E+04  0.19313722281E+04  0.46999998093E+01 0.  1.
       -5    1    3    3    0  502  0.13886131359E+04 -0.40607691161E+03  0.10315236127E+04  0.17768533853E+04  0.46999998093E+01 0. -1.
</event>
<event>
 5   0  0.1856107E-08  0.3710181E+04  0.7818609E-02  0.8065709E-01
       -2   -1    0    0    0  501  0.00000000000E+00  0.00000000000E+00  0.22259461283E+04  0.22259461283E+04  0.25500000920E-02 0. -1.
        2   -1    0    0  501    0  0.00000000000E+00  0.00000000000E+00 -0.15460213631E+04  0.15460213631E+04  0.25500000920E-02 0.  1.
    10030    2    1    2    0    0  0.00000000000E+00  0.00000000000E+00  0.67992476529E+03  0.37719674914E+04  0.37101807328E+04 0.  0.
        2    1    3    3  502    0 -0.85294981199E+03 -0.16262190179E+04  0.72428774270E+02  0.18377588534E+04  0.25500000920E-02 0. -1.
       -2    1    3    3    0  502  0.85294981199E+03  0.16262190179E+04  0.60749599102E+03  0.19342086380E+04  0.25500000920E-02 0.  1.
</event>
<event>
 5   0  0.1856107E-08  0.3699982E+04  0.7818609E-02  0.8067966E-01
        2   -1    0    0  501    0  0.00000000000E+00  0.00000000000E+00  0.24173967886E+04  0.24173967886E+04  0.25500000920E-02 0. -1.
       -2   -1    0    0    0  501  0.00000000000E+00  0.00000000000E+00 -0.14157657192E+04  0.14157657192E+04  0.25500000920E-02 0.  1.
    10030    2    1    2    0    0  0.00000000000E+00  0.00000000000E+00  0.10016310694E+04  0.38331625078E+04  0.36999824340E+04 0.  0.
        2    1    3    3  502    0  0.86209258153E+03  0.12121713946E+04 -0.63873370685E+03  0.16188093950E+04  0.25500000920E-02 0.  1.
       -2    1    3    3    0  502 -0.86209258153E+03 -0.12121713946E+04  0.16403647763E+04  0.22143531128E+04  0.25500000920E-02 0. -1.
</event>
<event>
 5   0  0.5714125E-09  0.3700007E+04  0.7818609E-02  0.8067960E-01
       -1   -1    0    0    0  501  0.00000000000E+00  0.00000000000E+00  0.15839523570E+04  0.15839523570E+04  0.50400001928E-02 0.  1.
        1   -1    0    0  501    0  0.00000000000E+00  0.00000000000E+00 -0.21607419161E+04  0.21607419161E+04  0.50400001928E-02 0. -1.
    10030    2    1    2    0    0  0.00000000000E+00  0.00000000000E+00 -0.57678955909E+03  0.37446942732E+04  0.37000066222E+04 0.  0.
        1    1    3    3  502    0 -0.13618455573E+04 -0.11910588881E+04  0.10262319239E+03  0.18121192335E+04  0.50400001928E-02 0.  1.
       -1    1    3    3    0  502  0.13618455573E+04  0.11910588881E+04 -0.67941275148E+03  0.19325750396E+04  0.50400001928E-02 0. -1.
</event>
<event>
 5   0  0.1757996E-08  0.3701315E+04  0.7818609E-02  0.8067670E-01
        2   -1    0    0  501    0  0.00000000000E+00  0.00000000000E+00  0.13178695736E+04  0.13178695736E+04  0.25500000920E-02 0. -1.
       -2   -1    0    0    0  501  0.00000000000E+00  0.00000000000E+00 -0.25988409938E+04  0.25988409938E+04  0.25500000920E-02 0.  1.
    10030    2    1    2    0    0  0.00000000000E+00  0.00000000000E+00 -0.12809714202E+04  0.39167105674E+04  0.37013151567E+04 0.  0.
        3    1    3    3  502    0  0.97898311622E+03 -0.24523259489E+02  0.10212244271E+04  0.14148882192E+04  0.10100000352E+00 0. -1.
       -3    1    3    3    0  502 -0.97898311622E+03  0.24523259489E+02 -0.23021958473E+04  0.25018223482E+04  0.10100000352E+00 0.  1.
</event>
<event>
 5   0  0.1757996E-08  0.3699646E+04  0.7818609E-02  0.8068040E-01
       -2   -1    0    0    0  501  0.00000000000E+00  0.00000000000E+00  0.13239137654E+04  0.13239137654E+04  0.25500000920E-02 0. -1.
        2   -1    0    0  501    0  0.00000000000E+00  0.00000000000E+00 -0.25846433728E+04  0.25846433728E+04  0.25500000920E-02 0.  1.
    10030    2    1    2    0    0  0.00000000000E+00  0.00000000000E+00 -0.12607296074E+04  0.39085571382E+04  0.36996458966E+04 0.  0.
        3    1    3    3  502    0 -0.18124989790E+04  0.32830588771E+03 -0.45074156938E+03  0.18963399688E+04  0.10100000352E+00 0.  1.
       -3    1    3    3    0  502  0.18124989790E+04 -0.32830588771E+03 -0.80998803801E+03  0.20122171694E+04  0.10100000352E+00 0. -1.
</event>
<event>
 5   0  0.1825308E-08  0.3699592E+04  0.7818609E-02  0.8068052E-01
       -2   -1    0    0    0  501  0.00000000000E+00  0.00000000000E+00  0.21668373728E+04  0.21668373728E+04  0.25500000920E-02 0. -1.
        2   -1    0    0  501    0  0.00000000000E+00  0.00000000000E+00 -0.15791428120E+04  0.15791428120E+04  0.25500000920E-02 0.  1.
    10030    2    1    2    0    0  0.00000000000E+00  0.00000000000E+00  0.58769456086E+03  0.37459801848E+04  0.36995922273E+04 0.  0.
        4    1    3    3  502    0  0.88881395650E+02 -0.41080832515E+03  0.21178453146E+04  0.21591511693E+04  0.12699999809E+01 0. -1.
       -4    1    3    3    0  502 -0.88881395650E+02  0.41080832515E+03 -0.15301507537E+04  0.15868290155E+04  0.12699999809E+01 0.  1.
</event>
<event>
 5   0  0.5714125E-09  0.3701473E+04  0.7818609E-02  0.8067636E-01
       -1   -1    0    0    0  501  0.00000000000E+00  0.00000000000E+00  0.15961979069E+04  0.15961979069E+04  0.50400001928E-02 0. -1.
        1   -1    0    0  501    0  0.00000000000E+00  0.00000000000E+00 -0.21458647040E+04  0.21458647040E+04  0.50400001928E-02 0.  1.
    10030    2    1    2    0    0  0.00000000000E+00  0.00000000000E+00 -0.54966679703E+03  0.37420626109E+04  0.37014725443E+04 0.  0.
        4    1    3    3  502    0  0.13357436952E+04 -0.12724379177E+04 -0.12517744365E+03  0.18490485334E+04  0.12699999809E+01 0.  1.
       -4    1    3    3    0  502 -0.13357436952E+04  0.12724379177E+04 -0.42448935338E+03  0.18930140775E+04  0.12699999809E+01 0. -1.
</event>
<event>
 5   0  0.5714125E-09  0.3696640E+04  0.7818609E-02  0.8068707E-01
       -1   -1    0    0    0  501  0.00000000000E+00  0.00000000000E+00  0.12668578035E+04  0.12668578035E+04  0.50400001928E-02 0. -1.
        1   -1    0    0  501    0  0.00000000000E+00  0.00000000000E+00 -0.26966609684E+04  0.26966609684E+04  0.50400001928E-02 0.  1.
    10030    2    1    2    0    0  0.00000000000E+00  0.00000000000E+00 -0.14298031649E+04  0.39635187719E+04  0.36966395503E+04 0.  0.
        4    1    3    3  502    0  0.17906275971E+04 -0.44802201089E+03 -0.61198501455E+03  0.19446331749E+04  0.12699999809E+01 0.  1.
       -4    1    3    3    0  502 -0.17906275971E+04  0.44802201089E+03 -0.81781815038E+03  0.20188855970E+04  0.12699999809E+01 0. -1.
</event>
<event>
 5   0  0.1740290E-08  0.3699232E+04  0.7818609E-02  0.8068132E-01
       -2   -1    0    0    0  501  0.00000000000E+00  0.00000000000E+00  0.12746773596E+04  0.12746773596E+04  0.25500000920E-02 0.  1.
        2   -1    0    0  501    0  0.00000000000E+00  0.00000000000E+00 -0.26838780033E+04  0.26838780033E+04  0.25500000920E-02 0. -1.
    10030    2    1    2    0    0  0.00000000000E+00  0.00000000000E+00 -0.14092006437E+04  0.39585553628E+04  0.36992315562E+04 0.  0.
        5    1    3    3  502    0  0.45577422366E+03 -0.16350186784E+04 -0.14909908190E+04  0.22592237459E+04  0.46999998093E+01 0. -1.
       -5    1    3    3    0  502 -0.45577422366E+03  0.16350186784E+04  0.81790175377E+02  0.16993316169E+04  0.46999998093E+01 0.  1.
</event>
<event>
 5   0  0.5714125E-09  0.3695831E+04  0.7818609E-02  0.8068886E-01
        1   -1    0    0  501    0  0.00000000000E+00  0.00000000000E+00  0.18319535898E+04  0.18319535898E+04  0.50400001928E-02 0. -1.
       -1   -1    0    0    0  501  0.00000000000E+00  0.00000000000E+00 -0.18640165340E+04  0.18640165340E+04  0.50400001928E-02 0.  1.
    10030    2    1    2    0    0  0.00000000000E+00  0.00000000000E+00 -0.32062944164E+02  0.36959701238E+04  0.36958310464E+04 0.  0.
        4    1    3    3  502    0  0.61384225879E+03 -0.11430560847E+03 -0.17553272326E+04  0.18630736424E+04  0.12699999809E+01 0.  1.
       -4    1    3    3    0  502 -0.61384225879E+03  0.11430560847E+03  0.17232642884E+04  0.18328964813E+04  0.12699999809E+01 0. -1.
</event>
<event>
 5   0  0.1757996E-08  0.3701006E+04  0.7818609E-02  0.8067739E-01
       -2   -1    0    0    0  501  0.00000000000E+00  0.00000000000E+00  0.22112641114E+04  0.22112641114E+04  0.25500000920E-02 0.  1.
        2   -1    0    0  501    0  0.00000000000E+00  0.00000000000E+00 -0.15485990254E+04  0.15485990254E+04  0.25500000920E-02 0. -1.
    10030    2    1    2    0    0  0.00000000000E+00  0.00000000000E+00  0.66266508596E+03  0.37598631368E+04  0.37010060512E+04 0.  0.
        3    1    3    3  502    0 -0.84478128342E+03 -0.14943550623E+04 -0.37075049049E+03  0.17561914489E+04  0.10100000352E+00 0. -1.
       -3    1    3    3    0  502  0.84478128342E+03  0.14943550623E+04  0.10334155765E+04  0.20036716879E+04  0.10100000352E+00 0.  1.
</event>
<event>
 5   0  0.1757996E-08  0.3699530E+04  0.7818609E-02  0.8068066E-01
       -2   -1    0    0    0  501  0.00000000000E+00  0.00000000000E+00  0.16645266324E+04  0.16645266324E+04  0.25500000920E-02 0.  1.
        2   -1    0    0  501    0  0.00000000000E+00  0.00000000000E+00 -0.20556177560E+04  0.20556177560E+04  0.25500000920E-02 0. -1.
    10030    2    1    2    0    0  0.00000000000E+00  0.00000000000E+00 -0.39109112357E+03  0.37201443885E+04  0.36995299707E+04 0.  0.
        3    1    3    3  502    0 -0.82171680519E+03  0.93928910950E+03  0.11774003724E+04  0.17157372137E+04  0.10100000352E+00 0. -1.
       -3    1    3    3    0  502  0.82171680519E+03 -0.93928910950E+03 -0.15684914960E+04  0.20044071748E+04  0.10100000352E+00 0.  1.
</event>
<event>
 5   0  0.5714125E-09  0.3700179E+04  0.7818609E-02  0.8067922E-01
       -1   -1    0    0    0  501  0.00000000000E+00  0.00000000000E+00  0.17488081894E+04  0.17488081894E+04  0.50400001928E-02 0.  1.
        1   -1    0    0  501    0  0.00000000000E+00  0.00000000000E+00 -0.19572367436E+04  0.19572367436E+04  0.50400001928E-02 0. -1.
    10030    2    1    2    0    0  0.00000000000E+00  0.00000000000E+00 -0.20842855418E+03  0.37060449330E+04  0.37001792636E+04 0.  0.
        4    1    3    3  502    0 -0.12598784560E+04  0.32202594433E+03  0.12138641347E+04  0.17788935278E+04  0.12699999809E+01 0.  1.
       -4    1    3    3    0  502  0.12598784560E+04 -0.32202594433E+03 -0.14222926889E+04  0.19271514052E+04  0.12699999809E+01 0. -1.
</event>
<event>
 5   0  0.5714125E-09  0.3699538E+04  0.7818609E-02  0.8068064E-01
       -1   -1    0    0    0  501  0.00000000000E+00  0.00000000000E+00  0.15279344790E+04  0.15279344790E+04  0.50400001928E-02 0.  1.
        1   -1    0    0  501    0  0.00000000000E+00  0.00000000000E+00 -0.22393929591E+04  0.22393929591E+04  0.50400001928E-02 0. -1.
    10030    2    1    2    0    0  0.00000000000E+00  0.00000000000E+00 -0.71145848010E+03  0.37673274380E+04  0.36995381950E+04 0.  0.
        3    1    3    3  502    0 -0.47527237143E+03  0.27933314491E+03  0.14423359918E+04  0.15440997236E+04  0.10100000352E+00 0.  1.
       -3    1    3    3    0  502  0.47527237143E+03 -0.27933314491E+03 -0.21537944719E+04  0.22232277145E+04  0.10100000352E+00 0. -1.
</event>
<event>
 5   0  0.5714125E-09  0.3719863E+04  0.7818609E-02  0.8063574E-01
        1   -1    0    0  501    0  0.00000000000E+00  0.00000000000E+00  0.14196905662E+04  0.14196905662E+04  0.50400001928E-02 0.  1.
       -1   -1    0    0    0  501  0.00000000000E+00  0.00000000000E+00 -0.24366890400E+04  0.24366890400E+04  0.50400001928E-02 0. -1.
    10030    2    1    2    0    0  0.00000000000E+00  0.00000000000E+00 -0.10169984737E+04  0.38563796062E+04  0.37198626012E+04 0.  0.
        4    1    3    3  502    0  0.21925021114E+03 -0.11825469468E+04 -0.19793178342E+04  0.23160718120E+04  0.12699999809E+01 0. -1.
       -4    1    3    3    0  502 -0.21925021114E+03  0.11825469468E+04  0.96231936049E+03  0.15403077942E+04  0.12699999809E+01 0.  1.
</event>
<event>
 5   0  0.1740290E-08  0.3699911E+04  0.7818609E-02  0.8067982E-01
       -2   -1    0    0    0  501  0.00000000000E+00  0.00000000000E+00  0.30442298362E+04  0.30442298362E+04  0.25500000920E-02 0. -1.
        2   -1    0    0  501    0  0.00000000000E+00  0.00000000000E+00 -0.11242039405E+04  0.11242039405E+04  0.25500000920E-02 0.  1.
    10030    2    1    2    0    0  0.00000000000E+00  0.00000000000E+00  0.19200258957E+04  0.41684337767E+04  0.36999109058E+04 0.  0.
        5    1    3    3  502    0  0.19167617120E+03  0.15460152695E+04 -0.16402938011E+03  0.15664707772E+04  0.46999998093E+01 0.  1.
       -5    1    3    3    0  502 -0.19167617120E+03 -0.15460152695E+04  0.20840552759E+04  0.26019629996E+04  0.46999998093E+01 0. -1.
</event>
<event>
 5   0  0.5714125E-09  0.3705305E+04  0.7818609E-02  0.8066787E-01
        1   -1    0    0  501    0  0.00000000000E+00  0.00000000000E+00  0.25975531299E+04  0.25975531299E+04  0.50400001928E-02 0.  1.
       -1   -1    0    0    0  501  0.00000000000E+00  0.00000000000E+00 -0.13213671022E+04  0.13213671022E+04  0.50400001928E-02 0. -1.
    10030    2    1    2    0    0  0.00000000000E+00  0.00000000000E+00  0.12761860277E+04  0.39189202321E+04  0.37053049818E+04 0.  0.
        4    1    3    3  502    0 -0.17202990627E+04  0.15120580259E+03  0.13476087437E+04  0.21905120404E+04  0.12699999809E+01 0.  1.
       -4    1    3    3    0  502  0.17202990627E+04 -0.15120580259E+03 -0.71422715953E+02  0.17284081917E+04  0.12699999809E+01 0. -1.
</event>
<event>
 5   0  0.5714125E-09  0.3697626E+04  0.7818609E-02  0.8068488E-01
       -1   -1    0    0    0  501  0.00000000000E+00  0.00000000000E+00  0.15680416489E+04  0.15680416489E+04  0.50400001928E-02 0.  1.
        1   -1    0    0  501    0  0.00000000000E+00  0.00000000000E+00 -0.21798583027E+04  0.21798583027E+04  0.50400001928E-02 0. -1.
    10030    2    1    2    0    0  0.00000000000E+00  0.00000000000E+00 -0.61181665385E+03  0.37478999516E+04  0.36976255123E+04 0.  0.
        2    1    3    3  502    0 -0.34219175584E+03  0.26210627939E+03  0.15163998188E+04  0.15764717916E+04  0.25500000920E-02 0.  1.
       -2    1    3    3    0  502  0.34219175584E+03 -0.26210627939E+03 -0.21282164726E+04  0.21714281600E+04  0.25500000920E-02 0. -1.
</event>
<event>
 5   0  0.5714125E-09  0.3697669E+04  0.7818609E-02  0.8068479E-01
        1   -1    0    0  501    0  0.00000000000E+00  0.00000000000E+00  0.15276253064E+04  0.15276253064E+04  0.50400001928E-02 0. -1.
       -1   -1    0    0    0  501  0.00000000000E+00  0.00000000000E+00 -0.22375831896E+04  0.22375831896E+04  0.50400001928E-02 0.  1.
    10030    2    1    2    0    0  0.00000000000E+00  0.00000000000E+00 -0.70995788325E+03  0.37652084960E+04  0.36976688362E+04 0.  0.
        5    1    3    3  502    0 -0.91384167643E+03  0.14190104017E+04  0.41343678713E+03  0.17377137845E+04  0.46999998093E+01 0. -1.
       -5    1    3    3    0  502  0.91384167643E+03 -0.14190104017E+04 -0.11233946704E+04  0.20274947115E+04  0.46999998093E+01 0.  1.
</event>
<event>
 5   0  0.1856107E-08  0.3699259E+04  0.7818609E-02  0.8068126E-01
       -2   -1    0    0    0  501  0.00000000000E+00  0.00000000000E+00  0.15051314614E+04  0.15051314614E+04  0.25500000920E-02 0. -1.
        2   -1    0    0  501    0  0.00000000000E+00  0.00000000000E+00 -0.22729765630E+04  0.22729765630E+04  0.25500000920E-02 0.  1.
    10030    2    1    2    0    0  0.00000000000E+00  0.00000000000E+00 -0.76784510160E+03  0.37781080244E+04  0.36992585938E+04 0.  0.
        2    1    3    3  502    0  0.85638874162E+03  0.56227890366E+03 -0.19567373578E+04  0.22087055779E+04  0.25500000920E-02 0.  1.
       -2    1    3    3    0  502 -0.85638874162E+03 -0.56227890366E+03  0.11888922562E+04  0.15694024465E+04  0.25500000920E-02 0. -1.
</event>
<event>
 5   0  0.1825308E-08  0.3699527E+04  0.7818609E-02  0.8068067E-01
        2   -1    0    0  501    0  0.00000000000E+00  0.00000000000E+00  0.12290281104E+04  0.12290281104E+04  0.25500000920E-02 0.  1.
       -2   -1    0    0    0  501  0.00000000000E+00  0.00000000000E+00 -0.27840085010E+04  0.27840085010E+04  0.25500000920E-02 0. -1.
    10030    2    1    2    0    0  0.00000000000E+00  0.00000000000E+00 -0.15549803906E+04  0.40130366114E+04  0.36995268385E+04 0.  0.
        4    1    3    3  502    0 -0.87097441881E+03 -0.43773315194E+03  0.92780628928E+03  0.13457462145E+04  0.12699999809E+01 0.  1.
       -4    1    3    3    0  502  0.87097441881E+03  0.43773315194E+03 -0.24827866799E+04  0.26672903968E+04  0.12699999809E+01 0. -1.
</event>
<event>
 5   0  0.1757996E-08  0.3700735E+04  0.7818609E-02  0.8067799E-01
        2   -1    0    0  501    0  0.00000000000E+00  0.00000000000E+00  0.14938828677E+04  0.14938828677E+04  0.25500000920E-02 0.  1.
       -2   -1    0    0    0  501  0.00000000000E+00  0.00000000000E+00 -0.22919204204E+04  0.22919204204E+04  0.25500000920E-02 0. -1.
    10030    2    1    2    0    0  0.00000000000E+00  0.00000000000E+00 -0.79803755265E+03  0.37858032881E+04  0.37007354135E+04 0.  0.
        3    1    3    3  502    0  0.17082003264E+04 -0.71076685433E+03 -0.42652102404E+03  0.18986990468E+04  0.10100000352E+00 0. -1.
       -3    1    3    3    0  502 -0.17082003264E+04  0.71076685433E+03 -0.37151652861E+03  0.18871042413E+04  0.10100000352E+00 0.  1.
</event>
<event>
 5   0  0.5714125E-09  0.3684251E+04  0.7818609E-02  0.8071461E-01
       -1   -1    0    0    0  501  0.00000000000E+00  0.00000000000E+00  0.10241875379E+04  0.10241875379E+04  0.50400001928E-02 0. -1.
        1   -1    0    0  501    0  0.00000000000E+00  0.00000000000E+00 -0.33132860147E+04  0.33132860147E+04  0.50400001928E-02 0.  1.
    10030    2    1    2    0    0  0.00000000000E+00  0.00000000000E+00 -0.22890984768E+04  0.43374735526E+04  0.36842509392E+04 0.  0.
        1    1    3    3  502    0  0.18318644867E+04  0.17842956775E+03 -0.10544134810E+04  0.21211676966E+04  0.50400001928E-02 0. -1.
       -1    1    3    3    0  502 -0.18318644867E+04 -0.17842956775E+03 -0.12346849959E+04  0.22163058560E+04  0.50400001928E-02 0.  1.
</event>
<event>
 5   0  0.5714125E-09  0.3709948E+04  0.7818609E-02  0.8065761E-01
        1   -1    0    0  501    0  0.00000000000E+00  0.00000000000E+00  0.21511717907E+04  0.21511717907E+04  0.50400001928E-02 0. -1.
       -1   -1    0    0    0  501  0.00000000000E+00  0.00000000000E+00 -0.15995597892E+04  0.15995597892E+04  0.50400001928E-02 0.  1.
    10030    2    1    2    0    0  0.00000000000E+00  0.00000000000E+00  0.55161200148E+03  0.37507315799E+04  0.37099476525E+04 0.  0.
        3    1    3    3  502    0  0.39887996034E+03  0.17757060529E+04 -0.86872444839E+02  0.18220274534E+04  0.10100000352E+00 0.  1.
       -3    1    3    3    0  502 -0.39887996034E+03 -0.17757060529E+04  0.63848444632E+03  0.19287041265E+04  0.10100000352E+00 0. -1.
</event>
<event>
 5   0  0.5714125E-09  0.3699380E+04  0.7818609E-02  0.8068099E-01
       -1   -1    0    0    0  501  0.00000000000E+00  0.00000000000E+00  0.30736990556E+04  0.30736990556E+04  0.50400001928E-02 0.  1.
        1   -1    0    0  501    0  0.00000000000E+00  0.00000000000E+00 -0.11131060601E+04  0.11131060601E+04  0.50400001928E-02 0. -1.
    10030    2    1    2    0    0  0.00000000000E+00  0.00000000000E+00  0.19605929955E+04  0.41868051157E+04  0.36993799727E+04 0.  0.
        5    1    3    3  502    0  0.77023077297E+03 -0.16769635496E+04  0.83772740866E+03  0.20266404445E+04  0.46999998093E+01 0. -1.
       -5    1    3    3    0  502 -0.77023077297E+03  0.16769635496E+04  0.11228655868E+04  0.21601646711E+04  0.46999998093E+01 0.  1.
</event>
<event>
 5   0  0.5714125E-09  0.3700104E+04  0.7818609E-02  0.8067939E-01
       -1   -1    0    0    0  501  0.00000000000E+00  0.00000000000E+00  0.18270378836E+04  0.18270378836E+04  0.50400001928E-02 0. -1.
        1   -1    0    0  501    0  0.00000000000E+00  0.00000000000E+00 -0.18733564609E+04  0.18733564609E+04  0.50400001928E-02 0.  1.
    10030    2    1    2    0    0  0.00000000000E+00  0.00000000000E+00 -0.46318577326E+02  0.37003943445E+04  0.37001044437E+04 0.  0.
        5    1    3    3  502    0  0.13933422091E+04  0.11461168955E+04  0.38636599859E+03  0.18450710622E+04  0.46999998093E+01 0. -1.
       -5    1    3    3    0  502 -0.13933422091E+04 -0.11461168955E+04 -0.43268457591E+03  0.18553232823E+04  0.46999998093E+01 0.  1.
</event>
<event>
 5   0  0.1856107E-08  0.3700186E+04  0.7818609E-02  0.8067921E-01
        2   -1    0    0  501    0  0.00000000000E+00  0.00000000000E+00  0.22160590416E+04  0.22160590416E+04  0.25500000920E-02 0. -1.
       -2   -1    0    0    0  501  0.00000000000E+00  0.00000000000E+00 -0.15445632031E+04  0.15445632031E+04  0.25500000920E-02 0.  1.
    10030    2    1    2    0    0  0.00000000000E+00  0.00000000000E+00  0.67149583854E+03  0.37606222447E+04  0.37001855367E+04 0.  0.
        2    1    3    3  502    0 -0.16539859930E+04  0.33895649640E+03  0.11045973248E+04  0.20175966944E+04  0.25500000920E-02 0. -1.
       -2    1    3    3    0  502  0.16539859930E+04 -0.33895649640E+03 -0.43310148628E+03  0.17430255502E+04  0.25500000920E-02 0.  1.
</event>
<event>
 5   0  0.1856107E-08  0.3700522E+04  0.7818609E-02  0.8067846E-01
        2   -1    0    0  501    0  0.00000000000E+00  0.00000000000E+00  0.21425310686E+04  0.21425310686E+04  0.25500000920E-02 0. -1.
       -2   -1    0    0    0  501  0.00000000000E+00  0.00000000000E+00 -0.15978608277E+04  0.15978608277E+04  0.25500000920E-02 0.  1.
    10030    2    1    2    0    0  0.00000000000E+00  0.00000000000E+00  0.54467024090E+03  0.37403918963E+04  0.37005223775E+04 0.  0.
        2    1    3    3  502    0  0.47360883927E+03  0.20846247598E+03  0.20679047011E+04  0.21316640892E+04  0.25500000920E-02 0. -1.
       -2    1    3    3    0  502 -0.47360883927E+03 -0.20846247598E+03 -0.15232344602E+04  0.16087278071E+04  0.25500000920E-02 0.  1.
</event>
<event>
 5   0  0.5714125E-09  0.3702499E+04  0.7818609E-02  0.8067408E-01
        1   -1    0    0  501    0  0.00000000000E+00  0.00000000000E+00  0.18217827853E+04  0.18217827853E+04  0.50400001928E-02 0. -1.
       -1   -1    0    0    0  501  0.00000000000E+00  0.00000000000E+00 -0.18811927847E+04  0.18811927847E+04  0.50400001928E-02 0.  1.
    10030    2    1    2    0    0  0.00000000000E+00  0.00000000000E+00 -0.59409999449E+02  0.37029755700E+04  0.37024989567E+04 0.  0.
        3    1    3    3  502    0 -0.12965481388E+04 -0.10984596596E+04  0.70487843337E+03  0.18397022357E+04  0.10100000352E+00 0. -1.
       -3    1    3    3    0  502  0.12965481388E+04  0.10984596596E+04 -0.76428843282E+03  0.18632733344E+04  0.10100000352E+00 0.  1.
</event>
<event>
 5   0  0.5714125E-09  0.3701047E+04  0.7818609E-02  0.8067730E-01
       -1   -1    0    0    0  501  0.00000000000E+00  0.00000000000E+00  0.17152854304E+04  0.17152854304E+04  0.50400001928E-02 0.  1.
        1   -1    0    0  501    0  0.00000000000E+00  0.00000000000E+00 -0.19964246003E+04  0.19964246003E+04  0.50400001928E-02 0. -1.
    10030    2    1    2    0    0  0.00000000000E+00  0.00000000000E+00 -0.28113916982E+03  0.37117100307E+04  0.37010474354E+04 0.  0.
        1    1    3    3  502    0  0.43653114103E+03 -0.11049986601E+04 -0.15634087209E+04  0.19636263149E+04  0.50400001928E-02 0. -1.
       -1    1    3    3    0  502 -0.43653114103E+03  0.11049986601E+04  0.12822695511E+04  0.17480837158E+04  0.50400001928E-02 0.  1.
</event>
<event>
 5   0  0.1725865E-08  0.3702324E+04  0.7818609E-02  0.8067447E-01
        2   -1    0    0  501    0  0.00000000000E+00  0.00000000000E+00  0.17951218975E+04  0.17951218975E+04  0.25500000920E-02 0.  1.
       -2   -1    0    0    0  501  0.00000000000E+00  0.00000000000E+00 -0.19089517353E+04  0.19089517353E+04  0.25500000920E-02 0. -1.
    10030    2    1    2    0    0  0.00000000000E+00  0.00000000000E+00 -0.11382983787E+03  0.37040736328E+04  0.37023241681E+04 0.  0.
        1    1    3    3  502    0 -0.11777636496E+04 -0.14176566594E+04  0.11615075996E+03  0.18467183373E+04  0.50400001928E-02 0.  1.
       -1    1    3    3    0  502  0.11777636496E+04  0.14176566594E+04 -0.22998059783E+03  0.18573552955E+04  0.50400001928E-02 0. -1.
</event>
<event>
 5   0  0.1740290E-08  0.3700356E+04  0.7818609E-02  0.8067883E-01
        2   -1    0    0  501    0  0.00000000000E+00  0.00000000000E+00  0.18117460047E+04  0.18117460047E+04  0.25500000920E-02 0.  1.
       -2   -1    0    0    0  501  0.00000000000E+00  0.00000000000E+00 -0.18894254233E+04  0.18894254233E+04  0.25500000920E-02 0. -1.
    10030    2    1    2    0    0  0.00000000000E+00  0.00000000000E+00 -0.77679418627E+02  0.37011714280E+04  0.37003561785E+04 0.  0.
        5    1    3    3  502    0  0.51816350770E+02 -0.11686594080E+04 -0.14725735021E+04  0.18806766216E+04  0.46999998093E+01 0. -1.
       -5    1    3    3    0  502 -0.51816350770E+02  0.11686594080E+04  0.13948940834E+04  0.18204948064E+04  0.46999998093E+01 0.  1.
</event>
<event>
 5   0  0.5714125E-09  0.3699912E+04  0.7818609E-02  0.8067981E-01
        1   -1    0    0  501    0  0.00000000000E+00  0.00000000000E+00  0.18589181305E+04  0.18589181305E+04  0.50400001928E-02 0. -1.
       -1   -1    0    0    0  501  0.00000000000E+00  0.00000000000E+00 -0.18410366809E+04  0.18410366809E+04  0.50400001928E-02 0.  1.
    10030    2    1    2    0    0  0.00000000000E+00  0.00000000000E+00  0.17881449612E+02  0.36999548114E+04  0.36999116017E+04 0.  0.
        2    1    3    3  502    0 -0.11291338603E+04 -0.54661284132E+02  0.14733366487E+04  0.18570546602E+04  0.25500000920E-02 0. -1.
       -2    1    3    3    0  502  0.11291338603E+04  0.54661284132E+02 -0.14554551991E+04  0.18429001512E+04  0.25500000920E-02 0.  1.
</event>
<event>
 5   0  0.5714125E-09  0.3701136E+04  0.7818609E-02  0.8067710E-01
       -1   -1    0    0    0  501  0.00000000000E+00  0.00000000000E+00  0.13525791160E+04  0.13525791160E+04  0.50400001928E-02 0. -1.
        1   -1    0    0  501    0  0.00000000000E+00  0.00000000000E+00 -0.25319045552E+04  0.25319045552E+04  0.50400001928E-02 0.  1.
    10030    2    1    2    0    0  0.00000000000E+00  0.00000000000E+00 -0.11793254393E+04  0.38844836712E+04  0.37011356231E+04 0.  0.
        2    1    3    3  502    0 -0.79085215574E+03 -0.14392256603E+04 -0.14850263113E+04  0.22140733454E+04  0.25500000920E-02 0.  1.
       -2    1    3    3    0  502  0.79085215574E+03  0.14392256603E+04  0.30570087204E+03  0.16704103258E+04  0.25500000920E-02 0. -1.
</event>
<event>
 5   0  0.5714125E-09  0.3699546E+04  0.7818609E-02  0.8068063E-01
       -1   -1    0    0    0  501  0.00000000000E+00  0.00000000000E+00  0.15356428128E+04  0.15356428129E+04  0.50400001928E-02 0. -1.
        1   -1    0    0  501    0  0.00000000000E+00  0.00000000000E+00 -0.22281611609E+04  0.22281611609E+04  0.50400001928E-02 0.  1.
    10030    2    1    2    0    0  0.00000000000E+00  0.00000000000E+00 -0.69251834805E+03  0.37638039738E+04  0.36995457411E+04 0.  0.
        3    1    3    3  502    0  0.63367737948E+03 -0.82825132194E+03 -0.19005757445E+04  0.21678873228E+04  0.10100000352E+00 0.  1.
       -3    1    3    3    0  502 -0.63367737948E+03  0.82825132194E+03  0.12080573964E+04  0.15959166510E+04  0.10100000352E+00 0. -1.
</event>
<event>
 5   0  0.1757996E-08  0.3699818E+04  0.7818609E-02  0.8068002E-01
        2   -1    0    0  501    0  0.00000000000E+00  0.00000000000E+00  0.19320524041E+04  0.19320524041E+04  0.25500000920E-02 0. -1.
       -2   -1    0    0    0  501  0.00000000000E+00  0.00000000000E+00 -0.17712582225E+04  0.17712582225E+04  0.25500000920E-02 0.  1.
    10030    2    1    2    0    0  0.00000000000E+00  0.00000000000E+00  0.16079418163E+03  0.37033106266E+04  0.36998182156E+04 0.  0.
        3    1    3    3  502    0  0.15996163629E+04  0.38535515487E+03 -0.76591423679E+03  0.18149092903E+04  0.10100000352E+00 0.  1.
       -3    1    3    3    0  502 -0.15996163629E+04 -0.38535515487E+03  0.92670841841E+03  0.18884013363E+04  0.10100000352E+00 0. -1.
</event>
<event>
 5   0  0.5714125E-09  0.3700873E+04  0.7818609E-02  0.8067768E-01
        1   -1    0    0  501    0  0.00000000000E+00  0.00000000000E+00  0.28592878769E+04  0.28592878769E+04  0.50400001928E-02 0. -1.
       -1   -1    0    0    0  501  0.00000000000E+00  0.00000000000E+00 -0.11975413189E+04  0.11975413189E+04  0.50400001928E-02 0.  1.
    10030    2    1    2    0    0  0.00000000000E+00  0.00000000000E+00  0.16617465580E+04  0.40568291958E+04  0.37008730728E+04 0.  0.
        5    1    3    3  502    0  0.23899854401E+02 -0.16898082069E+04  0.46763489951E+01  0.16899902181E+04  0.46999998093E+01 0.  1.
       -5    1    3    3    0  502 -0.23899854401E+02  0.16898082069E+04  0.16570702090E+04  0.23668389777E+04  0.46999998093E+01 0. -1.
</event>
<event>
 5   0  0.5714125E-09  0.3699664E+04  0.7818609E-02  0.8068036E-01
       -1   -1    0    0    0  501  0.00000000000E+00  0.00000000000E+00  0.21829992647E+04  0.21829992647E+04  0.50400001928E-02 0. -1.
        1   -1    0    0  501    0  0.00000000000E+00  0.00000000000E+00 -0.15675125338E+04  0.15675125338E+04  0.50400001928E-02 0.  1.
    10030    2    1    2    0    0  0.00000000000E+00  0.00000000000E+00  0.61548673082E+03  0.37505117985E+04  0.36996641516E+04 0.  0.
        2    1    3    3  502    0 -0.10948305139E+04 -0.50479576443E+03  0.17300249426E+04  0.21086628275E+04  0.25500000920E-02 0. -1.
       -2    1    3    3    0  502  0.10948305139E+04  0.50479576443E+03 -0.11145382118E+04  0.16418489710E+04  0.25500000920E-02 0.  1.
</event>
<event>
 5   0  0.1757996E-08  0.3693231E+04  0.7818609E-02  0.8069464E-01
        2   -1    0    0  501    0  0.00000000000E+00  0.00000000000E+00  0.13979305490E+04  0.13979305490E+04  0.25500000920E-02 0.  1.
       -2   -1    0    0    0  501  0.00000000000E+00  0.00000000000E+00 -0.24393121660E+04  0.24393121660E+04  0.25500000920E-02 0. -1.
    10030    2    1    2    0    0  0.00000000000E+00  0.00000000000E+00 -0.10413816171E+04  0.38372427150E+04  0.36932311032E+04 0.  0.
        3    1    3    3  502    0  0.27574894690E+03 -0.14642816267E+04 -0.16540182203E+04  0.22261928145E+04  0.10100000352E+00 0. -1.
       -3    1    3    3    0  502 -0.27574894690E+03  0.14642816267E+04  0.61263660323E+03  0.16110499005E+04  0.10100000352E+00 0.  1.
</event>
<event>
 5   0  0.1740290E-08  0.3698701E+04  0.7818609E-02  0.8068250E-01
       -2   -1    0    0    0  501  0.00000000000E+00  0.00000000000E+00  0.13357450557E+04  0.13357450557E+04  0.25500000920E-02 0.  1.
        2   -1    0    0  501    0  0.00000000000E+00  0.00000000000E+00 -0.25604411473E+04  0.25604411473E+04  0.25500000920E-02 0. -1.
    10030    2    1    2    0    0  0.00000000000E+00  0.00000000000E+00 -0.12246960916E+04  0.38961862030E+04  0.36987006383E+04 0.  0.
        5    1    3    3  502    0 -0.28647908932E+03  0.90224078495E+03 -0.22858732432E+04  0.24741356625E+04  0.46999998093E+01 0. -1.
       -5    1    3    3    0  502  0.28647908932E+03 -0.90224078495E+03  0.10611771516E+04  0.14220505405E+04  0.46999998093E+01 0.  1.
</event>
<event>
 5   0  0.1740290E-08  0.3699874E+04  0.7818609E-02  0.8067990E-01
        2   -1    0    0  501    0  0.00000000000E+00  0.00000000000E+00  0.19663888219E+04  0.19663888219E+04  0.25500000920E-02 0. -1.
       -2   -1    0    0    0  501  0.00000000000E+00  0.00000000000E+00 -0.17403814542E+04  0.17403814542E+04  0.25500000920E-02 0.  1.
    10030    2    1    2    0    0  0.00000000000E+00  0.00000000000E+00  0.22600736770E+03  0.37067702762E+04  0.36998738560E+04 0.  0.
        5    1    3    3  502    0  0.15965890174E+02 -0.17891916522E+03 -0.17316173936E+04  0.17409158122E+04  0.46999998093E+01 0.  1.
       -5    1    3    3    0  502 -0.15965890174E+02  0.17891916522E+03  0.19576247613E+04  0.19658544640E+04  0.46999998093E+01 0. -1.
</event>
<event>
 5   0  0.1740290E-08  0.3676831E+04  0.7818609E-02  0.8073116E-01
        2   -1    0    0  501    0  0.00000000000E+00  0.00000000000E+00  0.21370311076E+04  0.21370311076E+04  0.25500000920E-02 0. -1.
       -2   -1    0    0    0  501  0.00000000000E+00  0.00000000000E+00 -0.15815265943E+04  0.15815265943E+04  0.25500000920E-02 0.  1.
    10030    2    1    2    0    0  0.00000000000E+00  0.00000000000E+00  0.55550451332E+03  0.37185577019E+04  0.36768309885E+04 0.  0.
        5    1    3    3  502    0  0.10260905461E+04  0.15102149403E+04  0.60515941009E+02  0.18268265500E+04  0.46999998093E+01 0. -1.
       -5    1    3    3    0  502 -0.10260905461E+04 -0.15102149403E+04  0.49498857231E+03  0.18917311519E+04  0.46999998093E+01 0.  1.
</event>
<event>
 5   0  0.1856107E-08  0.3704784E+04  0.7818609E-02  0.8066902E-01
       -2   -1    0    0    0  501  0.00000000000E+00  0.00000000000E+00  0.11782742351E+04  0.11782742351E+04  0.25500000920E-02 0.  1.
        2   -1    0    0  501    0  0.00000000000E+00  0.00000000000E+00 -0.29121884367E+04  0.29121884367E+04  0.25500000920E-02 0. -1.
    10030    2    1    2    0    0  0.00000000000E+00  0.00000000000E+00 -0.17339142016E+04  0.40904626718E+04  0.37047842596E+04 0.  0.
        2    1    3    3  502    0  0.18034799988E+04 -0.30489418558E+03 -0.11904724705E+04  0.21823668970E+04  0.25500000920E-02 0.  1.
       -2    1    3    3    0  502 -0.18034799988E+04  0.30489418558E+03 -0.54344173114E+03  0.19080957747E+04  0.25500000920E-02 0. -1.
</event>
<event>
 5   0  0.1825308E-08  0.3700741E+04  0.7818609E-02  0.8067798E-01
        2   -1    0    0  501    0  0.00000000000E+00  0.00000000000E+00  0.24037002116E+04  0.24037002116E+04  0.25500000920E-02 0.  1.
       -2   -1    0    0    0  501  0.00000000000E+00  0.00000000000E+00 -0.14244166223E+04  0.14244166223E+04  0.25500000920E-02 0. -1.
    10030    2    1    2    0    0  0.00000000000E+00  0.00000000000E+00  0.97928358931E+03  0.38281168340E+04  0.37007407564E+04 0.  0.
        4    1    3    3  502    0 -0.16248684006E+04  0.80727346622E+03  0.86543808048E+03  0.20101921432E+04  0.12699999809E+01 0.  1.
       -4    1    3    3    0  502  0.16248684006E+04 -0.80727346622E+03  0.11384550883E+03  0.18179246908E+04  0.12699999809E+01 0. -1.
</event>
<event>
 5   0  0.1757996E-08  0.3700734E+04  0.7818609E-02  0.8067799E-01
       -2   -1    0    0    0  501  0.00000000000E+00  0.00000000000E+00  0.16580743352E+04  0.16580743352E+04  0.25500000920E-02 0.  1.
        2   -1    0    0  501    0  0.00000000000E+00  0.00000000000E+00 -0.20649604511E+04  0.20649604511E+04  0.25500000920E-02 0. -1.
    10030    2    1    2    0    0  0.00000000000E+00  0.00000000000E+00 -0.40688611593E+03  0.37230347863E+04  0.37007339419E+04 0.  0.
        3    1    3    3  502    0  0.68304807989E+03 -0.10839652371E+04 -0.15465246229E+04  0.20083012060E+04  0.10100000352E+00 0. -1.
       -3    1    3    3    0  502 -0.68304807989E+03  0.10839652371E+04  0.11396385070E+04  0.17147335803E+04  0.10100000352E+00 0.  1.
</event>
<event>
 5   0  0.1740290E-08  0.3699950E+04  0.7818609E-02  0.8067973E-01
        2   -1    0    0  501    0  0.00000000000E+00  0.00000000000E+00  0.19951575580E+04  0.19951575580E+04  0.25500000920E-02 0.  1.
       -2   -1    0    0    0  501  0.00000000000E+00  0.00000000000E+00 -0.17153571225E+04  0.17153571225E+04  0.25500000920E-02 0. -1.
    10030    2    1    2    0    0  0.00000000000E+00  0.00000000000E+00  0.27980043547E+03  0.37105146805E+04  0.36999501228E+04 0.  0.
        5    1    3    3  502    0  0.56091453668E+03 -0.14810150817E+04  0.10988495709E+04  0.19275692619E+04  0.46999998093E+01 0.  1.
       -5    1    3    3    0  502 -0.56091453668E+03  0.14810150817E+04 -0.81904913545E+03  0.17829454187E+04  0.46999998093E+01 0. -1.
</event>
<event>
 5   0  0.1725865E-08  0.3700111E+04  0.7818609E-02  0.8067937E-01
        2   -1    0    0  501    0  0.00000000000E+00  0.00000000000E+00  0.17091377444E+04  0.17091377444E+04  0.25500000920E-02 0.  1.
       -2   -1    0    0    0  501  0.00000000000E+00  0.00000000000E+00 -0.20025920365E+04  0.20025920365E+04  0.25500000920E-02 0. -1.
    10030    2    1    2    0    0  0.00000000000E+00  0.00000000000E+00 -0.29345429216E+03  0.37117297809E+04  0.37001111530E+04 0.  0.
        1    1    3    3  502    0 -0.38914842287E+03 -0.11503798430E+04  0.12533255818E+04  0.17451748600E+04  0.50400001928E-02 0.  1.
       -1    1    3    3    0  502  0.38914842287E+03  0.11503798430E+04 -0.15467798739E+04  0.19665549208E+04  0.50400001928E-02 0. -1.
</event>
<event>
 5   0  0.1725865E-08  0.3701227E+04  0.7818609E-02  0.8067690E-01
        2   -1    0    0  501    0  0.00000000000E+00  0.00000000000E+00  0.31645931139E+04  0.31645931139E+04  0.25500000920E-02 0. -1.
       -2   -1    0    0    0  501  0.00000000000E+00  0.00000000000E+00 -0.10822153464E+04  0.10822153464E+04  0.25500000920E-02 0.  1.
    10030    2    1    2    0    0  0.00000000000E+00  0.00000000000E+00  0.20823777675E+04  0.42468084602E+04  0.37012274898E+04 0.  0.
        1    1    3    3  502    0 -0.91169201032E+03  0.12112836665E+04  0.22589427369E+04  0.27205169970E+04  0.50400001928E-02 0.  1.
       -1    1    3    3    0  502  0.91169201032E+03 -0.12112836665E+04 -0.17656496938E+03  0.15262914632E+04  0.50400001928E-02 0. -1.
</event>
<event>
 5   0  0.5714125E-09  0.3703486E+04  0.7818609E-02  0.8067190E-01
       -1   -1    0    0    0  501  0.00000000000E+00  0.00000000000E+00  0.15366716738E+04  0.15366716738E+04  0.50400001928E-02 0. -1.
        1   -1    0    0  501    0  0.00000000000E+00  0.00000000000E+00 -0.22314147351E+04  0.22314147351E+04  0.50400001928E-02 0.  1.
    10030    2    1    2    0    0  0.00000000000E+00  0.00000000000E+00 -0.69474306137E+03  0.37680864089E+04  0.37034858261E+04 0.  0.
        2    1    3    3  502    0  0.35965347416E+03 -0.10033794176E+04 -0.18879938426E+04  0.21680963140E+04  0.25500000920E-02 0.  1.
       -2    1    3    3    0  502 -0.35965347416E+03  0.10033794176E+04  0.11932507812E+04  0.15999900950E+04  0.25500000920E-02 0. -1.
</event>
<event>
 5   0  0.1757996E-08  0.3699418E+04  0.7818609E-02  0.8068091E-01
       -2   -1    0    0    0  501  0.00000000000E+00  0.00000000000E+00  0.16095594024E+04  0.16095594024E+04  0.25500000920E-02 0. -1.
        2   -1    0    0  501    0  0.00000000000E+00  0.00000000000E+00 -0.21256888494E+04  0.21256888494E+04  0.25500000920E-02 0.  1.
    10030    2    1    2    0    0  0.00000000000E+00  0.00000000000E+00 -0.51612944704E+03  0.37352482518E+04  0.36994175077E+04 0.  0.
        3    1    3    3  502    0 -0.13732537655E+04  0.79471202897E+03 -0.12180783310E+04  0.20002769669E+04  0.10100000352E+00 0.  1.
       -3    1    3    3    0  502  0.13732537655E+04 -0.79471202897E+03  0.70194888393E+03  0.17349712849E+04  0.10100000352E+00 0. -1.
</event>
<event>
 5   0  0.5714125E-09  0.3703017E+04  0.7818609E-02  0.8067294E-01
        1   -1    0    0  501    0  0.00000000000E+00  0.00000000000E+00  0.19089069533E+04  0.19089069533E+04  0.50400001928E-02 0.  1.
       -1   -1    0    0    0  501  0.00000000000E+00  0.00000000000E+00 -0.17958355934E+04  0.17958355934E+04  0.50400001928E-02 0. -1.
    10030    2    1    2    0    0  0.00000000000E+00  0.00000000000E+00  0.11307135983E+03  0.37047425467E+04  0.37030166358E+04 0.  0.
        4    1    3    3  502    0  0.97288651282E+02  0.46999816818E+03  0.18455855880E+04  0.19069743405E+04  0.12699999809E+01 0.  1.
       -4    1    3    3    0  502 -0.97288651282E+02 -0.46999816818E+03 -0.17325142281E+04  0.17977682062E+04  0.12699999809E+01 0. -1.
</event>
<event>
 5   0  0.5714125E-09  0.3700280E+04  0.7818609E-02  0.8067900E-01
        1   -1    0    0  501    0  0.00000000000E+00  0.00000000000E+00  0.11238409549E+04  0.11238409549E+04  0.50400001928E-02 0.  1.
       -1   -1    0    0    0  501  0.00000000000E+00  0.00000000000E+00 -0.30458202346E+04  0.30458202346E+04  0.50400001928E-02 0. -1.
    10030    2    1    2    0    0  0.00000000000E+00  0.00000000000E+00 -0.19219792797E+04  0.41696611895E+04  0.37002797305E+04 0.  0.
        1    1    3    3  502    0  0.53166940048E+03 -0.17526743667E+04 -0.66611263957E+03  0.19489088834E+04  0.50400001928E-02 0. -1.
       -1    1    3    3    0  502 -0.53166940048E+03  0.17526743667E+04 -0.12558666401E+04  0.22207523061E+04  0.50400001928E-02 0.  1.
</event>
<event>
 5   0  0.5714125E-09  0.3700827E+04  0.7818609E-02  0.8067779E-01
        1   -1    0    0  501    0  0.00000000000E+00  0.00000000000E+00  0.23863184273E+04  0.23863184273E+04  0.50400001928E-02 0. -1.
       -1   -1    0    0    0  501  0.00000000000E+00  0.00000000000E+00 -0.14348589919E+04  0.14348589920E+04  0.50400001928E-02 0.  1.
    10030    2    1    2    0    0  0.00000000000E+00  0.00000000000E+00  0.95145943536E+03  0.38211774193E+04  0.37008271795E+04 0.  0.
        5    1    3    3  502    0  0.12237048796E+04 -0.91118729279E+03 -0.60535968179E+03  0.16414013371E+04  0.46999998093E+01 0.  1.
       -5    1    3    3    0  502 -0.12237048796E+04  0.91118729279E+03  0.15568191171E+04  0.21797760822E+04  0.46999998093E+01 0. -1.
</event>
<event>
 5   0  0.1825308E-08  0.3699595E+04  0.7818609E-02  0.8068052E-01
        2   -1    0    0  501    0  0.00000000000E+00  0.00000000000E+00  0.21876548297E+04  0.21876548297E+04  0.25500000920E-02 0. -1.
       -2   -1    0    0    0  501  0.00000000000E+00  0.00000000000E+00 -0.15641181758E+04  0.15641181758E+04  0.25500000920E-02 0.  1.
    10030    2    1    2    0    0  0.00000000000E+00  0.00000000000E+00  0.62353665387E+03  0.37517730056E+04  0.36995949409E+04 0.  0.
        4    1    3    3  502    0  0.11788495811E+04 -0.87008561940E+03 -0.83332217227E+03  0.16855749095E+04  0.12699999809E+01 0.  1.
       -4    1    3    3    0  502 -0.11788495811E+04  0.87008561940E+03  0.14568588261E+04  0.20661980960E+04  0.12699999809E+01 0. -1.
</event>
<event>
 5   0  0.5714125E-09  0.3700868E+04  0.7818609E-02  0.8067769E-01
        1   -1    0    0  501    0  0.00000000000E+00  0.00000000000E+00  0.17892547569E+04  0.17892547569E+04  0.50400001928E-02 0. -1.
       -1   -1    0    0    0  501  0.00000000000E+00  0.00000000000E+00 -0.19137052978E+04  0.19137052979E+04  0.50400001928E-02 0.  1.
    10030    2    1    2    0    0  0.00000000000E+00  0.00000000000E+00 -0.12445054097E+03  0.37029600547E+04  0.37008681725E+04 0.  0.
        2    1    3    3  502    0 -0.68773927507E+02  0.11535937579E+03  0.17843716688E+04  0.17894188696E+04  0.25500000920E-02 0. -1.
       -2    1    3    3    0  502  0.68773927507E+02 -0.11535937579E+03 -0.19088222097E+04  0.19135411851E+04  0.25500000920E-02 0.  1.
</event>
<event>
 5   0  0.1856107E-08  0.3699987E+04  0.7818609E-02  0.8067965E-01
        2   -1    0    0  501    0  0.00000000000E+00  0.00000000000E+00  0.18811769416E+04  0.18811769416E+04  0.25500000920E-02 0.  1.
       -2   -1    0    0    0  501  0.00000000000E+00  0.00000000000E+00 -0.18193273237E+04  0.18193273237E+04  0.25500000920E-02 0. -1.
    10030    2    1    2    0    0  0.00000000000E+00  0.00000000000E+00  0.61849617904E+02  0.37005042653E+04  0.36999873571E+04 0.  0.
        2    1    3    3  502    0 -0.34587146312E+03 -0.12908977545E+03  0.18439619380E+04  0.18805549362E+04  0.25500000920E-02 0.  1.
       -2    1    3    3    0  502  0.34587146312E+03  0.12908977545E+03 -0.17821123201E+04  0.18199493291E+04  0.25500000920E-02 0. -1.
</event>
<event>
 5   0  0.1725865E-08  0.3699123E+04  0.7818609E-02  0.8068156E-01
       -2   -1    0    0    0  501  0.00000000000E+00  0.00000000000E+00  0.16670380521E+04  0.16670380521E+04  0.25500000920E-02 0. -1.
        2   -1    0    0  501    0  0.00000000000E+00  0.00000000000E+00 -0.20520694188E+04  0.20520694188E+04  0.25500000920E-02 0.  1.
    10030    2    1    2    0    0  0.00000000000E+00  0.00000000000E+00 -0.38503136676E+03  0.37191074709E+04  0.36991230348E+04 0.  0.
        1    1    3    3  502    0 -0.14508317656E+04 -0.11791088301E+03 -0.13397596626E+04  0.19783254894E+04  0.50400001928E-02 0.  1.
       -1    1    3    3    0  502  0.14508317656E+04  0.11791088301E+03  0.95472829585E+03  0.17407819815E+04  0.50400001928E-02 0. -1.
</event>
<event>
 5   0  0.1740290E-08  0.3698056E+04  0.7818609E-02  0.8068393E-01
       -2   -1    0    0    0  501  0.00000000000E+00  0.00000000000E+00  0.12438989799E+04  0.12438989799E+04  0.25500000920E-02 0. -1.
        2   -1    0    0  501    0  0.00000000000E+00  0.00000000000E+00 -0.27485394874E+04  0.27485394874E+04  0.25500000920E-02 0.  1.
    10030    2    1    2    0    0  0.00000000000E+00  0.00000000000E+00 -0.15046405075E+04  0.39924384673E+04  0.36980564975E+04 0.  0.
        5    1    3    3  502    0  0.48400778778E+02  0.18333270260E+04 -0.49809057280E+03  0.19004070429E+04  0.46999998093E+01 0. -1.
       -5    1    3    3    0  502 -0.48400778778E+02 -0.18333270260E+04 -0.10065499347E+04  0.20920314244E+04  0.46999998093E+01 0.  1.
</event>
<event>
 5   0  0.5714125E-09  0.3701393E+04  0.7818609E-02  0.8067653E-01
       -1   -1    0    0    0  501  0.00000000000E+00  0.00000000000E+00  0.14348249421E+04  0.14348249422E+04  0.50400001928E-02 0. -1.
        1   -1    0    0  501    0  0.00000000000E+00  0.00000000000E+00 -0.23871050772E+04  0.23871050772E+04  0.50400001928E-02 0.  1.
    10030    2    1    2    0    0  0.00000000000E+00  0.00000000000E+00 -0.95228013506E+03  0.38219300194E+04  0.37013931995E+04 0.  0.
        2    1    3    3  502    0 -0.85864854833E+03  0.11098777450E+04 -0.17220711330E+04  0.22214038187E+04  0.25500000920E-02 0.  1.
       -2    1    3    3    0  502  0.85864854833E+03 -0.11098777450E+04  0.76979099799E+03  0.16005262007E+04  0.25500000920E-02 0. -1.
</event>
<event>
 5   0  0.5714125E-09  0.3701442E+04  0.7818609E-02  0.8067642E-01
        1   -1    0    0  501    0  0.00000000000E+00  0.00000000000E+00  0.27902100572E+04  0.27902100572E+04  0.50400001928E-02 0.  1.
       -1   -1    0    0    0  501  0.00000000000E+00  0.00000000000E+00 -0.12275662403E+04  0.12275662403E+04  0.50400001928E-02 0. -1.
    10030    2    1    2    0    0  0.00000000000E+00  0.00000000000E+00  0.15626438169E+04  0.40177762975E+04  0.37014417027E+04 0.  0.
        4    1    3    3  502    0  0.70381771751E+03  0.12815726010E+04  0.20129169693E+04  0.24878955061E+04  0.12699999809E+01 0.  1.
       -4    1    3    3    0  502 -0.70381771751E+03 -0.12815726010E+04 -0.45027315243E+03  0.15298807914E+04  0.12699999809E+01 0. -1.
</event>
<event>
 5   0  0.1825308E-08  0.3704555E+04  0.7818609E-02  0.8066953E-01
       -2   -1    0    0    0  501  0.00000000000E+00  0.00000000000E+00  0.12037871200E+04  0.12037871200E+04  0.25500000920E-02 0.  1.
        2   -1    0    0  501    0  0.00000000000E+00  0.00000000000E+00 -0.28501145222E+04  0.28501145222E+04  0.25500000920E-02 0. -1.
    10030    2    1    2    0    0  0.00000000000E+00  0.00000000000E+00 -0.16463274023E+04  0.40539016422E+04  0.37045545763E+04 0.  0.
        4    1    3    3  502    0 -0.40005648358E+03 -0.10628350960E+04 -0.24244629921E+04  0.26772534517E+04  0.12699999809E+01 0. -1.
       -4    1    3    3    0  502  0.40005648358E+03  0.10628350960E+04  0.77813558987E+03  0.13766481905E+04  0.12699999809E+01 0.  1.
</event>
<event>
 5   0  0.1757996E-08  0.3702957E+04  0.7818609E-02  0.8067307E-01
        2   -1    0    0  501    0  0.00000000000E+00  0.00000000000E+00  0.20053984456E+04  0.20053984456E+04  0.25500000920E-02 0.  1.
       -2   -1    0    0    0  501  0.00000000000E+00  0.00000000000E+00 -0.17093722206E+04  0.17093722206E+04  0.25500000920E-02 0. -1.
    10030    2    1    2    0    0  0.00000000000E+00  0.00000000000E+00  0.29602622496E+03  0.37147706662E+04  0.37029568693E+04 0.  0.
        3    1    3    3  502    0  0.17626725710E+04 -0.30611213152E+03 -0.33021853643E+03  0.18192755485E+04  0.10100000352E+00 0. -1.
       -3    1    3    3    0  502 -0.17626725710E+04  0.30611213152E+03  0.62624476139E+03  0.18954951176E+04  0.10100000352E+00 0.  1.
</event>
<event>
 5   0  0.5714125E-09  0.3699545E+04  0.7818609E-02  0.8068063E-01
        1   -1    0    0  501    0  0.00000000000E+00  0.00000000000E+00  0.28695918632E+04  0.28695918632E+04  0.50400001928E-02 0. -1.
       -1   -1    0    0    0  501  0.00000000000E+00  0.00000000000E+00 -0.11923850585E+04  0.11923850585E+04  0.50400001928E-02 0.  1.
    10030    2    1    2    0    0  0.00000000000E+00  0.00000000000E+00  0.16772068047E+04  0.40619769217E+04  0.36995450865E+04 0.  0.
        1    1    3    3  502    0  0.48076683365E+03  0.13107976101E+04 -0.49366554448E+03  0.14808891899E+04  0.50400001928E-02 0.  1.
       -1    1    3    3    0  502 -0.48076683365E+03 -0.13107976101E+04  0.21708723492E+04  0.25810877318E+04  0.50400001928E-02 0. -1.
</event>
<event>
 5   0  0.5714125E-09  0.3701840E+04  0.7818609E-02  0.8067554E-01
       -1   -1    0    0    0  501  0.00000000000E+00  0.00000000000E+00  0.14425676216E+04  0.14425676216E+04  0.50400001928E-02 0. -1.
        1   -1    0    0  501    0  0.00000000000E+00  0.00000000000E+00 -0.23748658296E+04  0.23748658296E+04  0.50400001928E-02 0.  1.
    10030    2    1    2    0    0  0.00000000000E+00  0.00000000000E+00 -0.93229820795E+03  0.38174334512E+04  0.37018398407E+04 0.  0.
        3    1    3    3  502    0 -0.71895576917E+03 -0.42575407682E+03  0.12370106430E+04  0.14927689952E+04  0.10100000352E+00 0. -1.
       -3    1    3    3    0  502  0.71895576917E+03  0.42575407682E+03 -0.21693088510E+04  0.23246644560E+04  0.10100000352E+00 0.  1.
</event>
<event>
 5   0  0.5714125E-09  0.3697603E+04  0.7818609E-02  0.8068493E-01
       -1   -1    0    0    0  501  0.00000000000E+00  0.00000000000E+00  0.18577942443E+04  0.18577942443E+04  0.50400001928E-02 0.  1.
        1   -1    0    0  501    0  0.00000000000E+00  0.00000000000E+00 -0.18398518956E+04  0.18398518956E+04  0.50400001928E-02 0. -1.
    10030    2    1    2    0    0  0.00000000000E+00  0.00000000000E+00  0.17942348663E+02  0.36976461399E+04  0.36976026082E+04 0.  0.
        2    1    3    3  502    0  0.17846569978E+04  0.20996007332E+03 -0.42575503821E+03  0.18467136174E+04  0.25500000920E-02 0. -1.
       -2    1    3    3    0  502 -0.17846569978E+04 -0.20996007332E+03  0.44369738687E+03  0.18509325226E+04  0.25500000920E-02 0.  1.
</event>
<event>
 5   0  0.5714125E-09  0.3710264E+04  0.7818609E-02  0.8065691E-01
       -1   -1    0    0    0  501  0.00000000000E+00  0.00000000000E+00  0.26997119290E+04  0.26997119290E+04  0.50400001928E-02 0.  1.
        1   -1    0    0  501    0  0.00000000000E+00  0.00000000000E+00 -0.12747711029E+04  0.12747711029E+04  0.50400001928E-02 0. -1.
    10030    2    1    2    0    0  0.00000000000E+00  0.00000000000E+00  0.14249408261E+04  0.39744830320E+04  0.37102640086E+04 0.  0.
        2    1    3    3  502    0 -0.95203184356E+03 -0.10140477008E+03 -0.98966890447E+03  0.13769866009E+04  0.25500000920E-02 0. -1.
       -2    1    3    3    0  502  0.95203184356E+03  0.10140477008E+03  0.24146097306E+04  0.25974964311E+04  0.25500000920E-02 0.  1.
</event>
<event>
 5   0  0.1740290E-08  0.3699517E+04  0.7818609E-02  0.8068069E-01
       -2   -1    0    0    0  501  0.00000000000E+00  0.00000000000E+00  0.18689323541E+04  0.18689323541E+04  0.25500000920E-02 0.  1.
        2   -1    0    0  501    0  0.00000000000E+00  0.00000000000E+00 -0.18307813288E+04  0.18307813288E+04  0.25500000920E-02 0. -1.
    10030    2    1    2    0    0  0.00000000000E+00  0.00000000000E+00  0.38151025262E+02  0.36997136829E+04  0.36995169732E+04 0.  0.
        5    1    3    3  502    0 -0.43693128464E+03 -0.17581643729E+04  0.39263715142E+03  0.18537089665E+04  0.46999998093E+01 0.  1.
       -5    1    3    3    0  502  0.43693128464E+03  0.17581643729E+04 -0.35448612616E+03  0.18460047165E+04  0.46999998093E+01 0. -1.
</event>
<event>
 5   0  0.5714125E-09  0.3699390E+04  0.7818609E-02  0.8068097E-01
        1   -1    0    0  501    0  0.00000000000E+00  0.00000000000E+00  0.20708882771E+04  0.20708882771E+04  0.50400001928E-02 0. -1.
       -1   -1    0    0    0  501  0.00000000000E+00  0.00000000000E+00 -0.16521277852E+04  0.16521277852E+04  0.50400001928E-02 0.  1.
    10030    2    1    2    0    0  0.00000000000E+00  0.00000000000E+00  0.41876049194E+03  0.37230160623E+04  0.36993902539E+04 0.  0.
        5    1    3    3  502    0  0.13226247730E+04  0.11424093903E+04  0.81898336445E+03  0.19300754769E+04  0.46999998093E+01 0. -1.
       -5    1    3    3    0  502 -0.13226247730E+04 -0.11424093903E+04 -0.40022287251E+03  0.17929405854E+04  0.46999998093E+01 0.  1.
</event>
<event>
 5   0  0.5714125E-09  0.3700134E+04  0.7818609E-02  0.8067932E-01
        1   -1    0    0  501    0  0.00000000000E+00  0.00000000000E+00  0.18260912275E+04  0.18260912275E+04  0.50400001928E-02 0.  1.
       -1   -1    0    0    0  501  0.00000000000E+00  0.00000000000E+00 -0.18743578271E+04  0.18743578271E+04  0.50400001928E-02 0. -1.
    10030    2    1    2    0    0  0.00000000000E+00  0.00000000000E+00 -0.48266599584E+02  0.37004490546E+04  0.37001342599E+04 0.  0.
        3    1    3    3  502    0  0.11045133026E+04 -0.13614841126E+04  0.56681438288E+03  0.18425165344E+04  0.10100000352E+00 0.  1.
       -3    1    3    3    0  502 -0.11045133026E+04  0.13614841126E+04 -0.61508098246E+03  0.18579325202E+04  0.10100000352E+00 0. -1.
</event>
<event>
 5   0  0.5714125E-09  0.3700861E+04  0.7818609E-02  0.8067771E-01
        1   -1    0    0  501    0  0.00000000000E+00  0.00000000000E+00  0.12248872695E+04  0.12248872695E+04  0.50400001928E-02 0.  1.
       -1   -1    0    0    0  501  0.00000000000E+00  0.00000000000E+00 -0.27954357973E+04  0.27954357973E+04  0.50400001928E-02 0. -1.
    10030    2    1    2    0    0  0.00000000000E+00  0.00000000000E+00 -0.15705485279E+04  0.40203230668E+04  0.37008613704E+04 0.  0.
        5    1    3    3  502    0  0.46327063668E+03 -0.79524733344E+03 -0.25291606174E+04  0.26914147809E+04  0.46999998093E+01 0. -1.
       -5    1    3    3    0  502 -0.46327063668E+03  0.79524733344E+03  0.95861208955E+03  0.13289082859E+04  0.46999998093E+01 0.  1.
</event>
<event>
 5   0  0.5714125E-09  0.3700268E+04  0.7818609E-02  0.8067902E-01
        1   -1    0    0  501    0  0.00000000000E+00  0.00000000000E+00  0.25529476242E+04  0.25529476242E+04  0.50400001928E-02 0. -1.
       -1   -1    0    0    0  501  0.00000000000E+00  0.00000000000E+00 -0.13408016781E+04  0.13408016781E+04  0.50400001928E-02 0.  1.
    10030    2    1    2    0    0  0.00000000000E+00  0.00000000000E+00  0.12121459461E+04  0.38937493023E+04  0.37002683463E+04 0.  0.
        1    1    3    3  502    0  0.15869416262E+04 -0.65371700175E+03 -0.12089517861E+03  0.17205653976E+04  0.50400001928E-02 0.  1.
       -1    1    3    3    0  502 -0.15869416262E+04  0.65371700175E+03  0.13330411247E+04  0.21731839047E+04  0.50400001928E-02 0. -1.
</event>
<event>
 5   0  0.1856107E-08  0.3698128E+04  0.7818609E-02  0.8068377E-01
       -2   -1    0    0    0  501  0.00000000000E+00  0.00000000000E+00  0.15254317213E+04  0.15254317213E+04  0.25500000920E-02 0.  1.
        2   -1    0    0  501    0  0.00000000000E+00  0.00000000000E+00 -0.22413569528E+04  0.22413569528E+04  0.25500000920E-02 0. -1.
    10030    2    1    2    0    0  0.00000000000E+00  0.00000000000E+00 -0.71592523147E+03  0.37667886740E+04  0.36981276314E+04 0.  0.
        2    1    3    3  502    0  0.11182909711E+04  0.79889157545E+03 -0.16179562814E+04  0.21228718694E+04  0.25500000920E-02 0. -1.
       -2    1    3    3    0  502 -0.11182909711E+04 -0.79889157545E+03  0.90203104994E+03  0.16439168046E+04  0.25500000920E-02 0.  1.
</event>
<event>
 5   0  0.1725865E-08  0.3699874E+04  0.7818609E-02  0.8067990E-01
        2   -1    0    0  501    0  0.00000000000E+00  0.00000000000E+00  0.21061000266E+04  0.21061000266E+04  0.25500000920E-02 0. -1.
       -2   -1    0    0    0  501  0.00000000000E+00  0.00000000000E+00 -0.16249306415E+04  0.16249306415E+04  0.25500000920E-02 0.  1.
    10030    2    1    2    0    0  0.00000000000E+00  0.00000000000E+00  0.48116938515E+03  0.37310306681E+04  0.36998737640E+04 0.  0.
        1    1    3    3  502    0 -0.12074012459E+03 -0.50229932154E+03  0.20318833475E+04  0.20965287320E+04  0.50400001928E-02 0. -1.
       -1    1    3    3    0  502  0.12074012459E+03  0.50229932154E+03 -0.15507139624E+04  0.16345019361E+04  0.50400001928E-02 0.  1.
</event>
<event>
 5   0  0.5714125E-09  0.3700395E+04  0.7818609E-02  0.8067874E-01
        3   -1    0    0  501    0  0.00000000000E+00  0.00000000000E+00  0.12877395762E+04  0.12877395801E+04  0.10100000352E+00 0. -1.
       -3   -1    0    0    0  501  0.00000000000E+00  0.00000000000E+00 -0.26583248482E+04  0.26583248501E+04  0.10100000352E+00 0.  1.
    10030    2    1    2    0    0  0.00000000000E+00  0.00000000000E+00 -0.13705852720E+04  0.39460644303E+04  0.37003946411E+04 0.  0.
        2    1    3    3  502    0  0.11743538314E+03  0.10131706333E+04  0.96086436675E+03  0.14012730400E+04  0.25500000920E-02 0. -1.
       -2    1    3    3    0  502 -0.11743538314E+03 -0.10131706333E+04 -0.23314496388E+04  0.25447913902E+04  0.25500000920E-02 0.  1.
</event>
<event>
 5   0  0.5714125E-09  0.3700140E+04  0.7818609E-02  0.8067931E-01
       -1   -1    0    0    0  501  0.00000000000E+00  0.00000000000E+00  0.12880574389E+04  0.12880574389E+04  0.50400001928E-02 0.  1.
        1   -1    0    0  501    0  0.00000000000E+00  0.00000000000E+00 -0.26573032661E+04  0.26573032661E+04  0.50400001928E-02 0. -1.
    10030    2    1    2    0    0  0.00000000000E+00  0.00000000000E+00 -0.13692458271E+04  0.39453607050E+04  0.37001401267E+04 0.  0.
        2    1    3    3  502    0  0.77768312057E+02 -0.14078865546E+04  0.59248891700E+03  0.15294559744E+04  0.25500000920E-02 0.  1.
       -2    1    3    3    0  502 -0.77768312057E+02  0.14078865546E+04 -0.19617347441E+04  0.24159047306E+04  0.25500000920E-02 0. -1.
</event>
<event>
 5   0  0.5714125E-09  0.3696663E+04  0.7818609E-02  0.8068702E-01
        1   -1    0    0  501    0  0.00000000000E+00  0.00000000000E+00  0.24654124438E+04  0.24654124439E+04  0.50400001928E-02 0.  1.
       -1   -1    0    0    0  501  0.00000000000E+00  0.00000000000E+00 -0.13857028398E+04  0.13857028398E+04  0.50400001928E-02 0. -1.
    10030    2    1    2    0    0  0.00000000000E+00  0.00000000000E+00  0.10797096040E+04  0.38511152837E+04  0.36966628328E+04 0.  0.
        3    1    3    3  502    0  0.31792621147E+03  0.57914610589E+03  0.23382009007E+04  0.24297470548E+04  0.10100000352E+00 0.  1.
       -3    1    3    3    0  502 -0.31792621147E+03 -0.57914610589E+03 -0.12584912967E+04  0.14213682289E+04  0.10100000352E+00 0. -1.
</event>
<event>
 5   0  0.1856107E-08  0.3698487E+04  0.7818609E-02  0.8068297E-01
       -2   -1    0    0    0  501  0.00000000000E+00  0.00000000000E+00  0.29459079963E+04  0.29459079963E+04  0.25500000920E-02 0.  1.
        2   -1    0    0  501    0  0.00000000000E+00  0.00000000000E+00 -0.11608308280E+04  0.11608308280E+04  0.25500000920E-02 0. -1.
    10030    2    1    2    0    0  0.00000000000E+00  0.00000000000E+00  0.17850771683E+04  0.41067388242E+04  0.36984866194E+04 0.  0.
        2    1    3    3  502    0 -0.54292559550E+03 -0.11992633768E+04  0.23346272073E+04  0.26802024263E+04  0.25500000920E-02 0.  1.
       -2    1    3    3    0  502  0.54292559550E+03  0.11992633768E+04 -0.54955003901E+03  0.14265363979E+04  0.25500000920E-02 0. -1.
</event>
<event>
 5   0  0.1725865E-08  0.3700137E+04  0.7818609E-02  0.8067931E-01
        2   -1    0    0  501    0  0.00000000000E+00  0.00000000000E+00  0.23504683003E+04  0.23504683003E+04  0.25500000920E-02 0. -1.
       -2   -1    0    0    0  501  0.00000000000E+00  0.00000000000E+00 -0.14562010384E+04  0.14562010384E+04  0.25500000920E-02 0.  1.
    10030    2    1    2    0    0  0.00000000000E+00  0.00000000000E+00  0.89426726192E+03  0.38066693388E+04  0.37001375000E+04 0.  0.
        1    1    3    3  502    0 -0.16389268352E+03  0.22224646370E+03  0.23291470281E+04  0.23454594819E+04  0.50400001928E-02 0. -1.
       -1    1    3    3    0  502  0.16389268352E+03 -0.22224646370E+03 -0.14348797662E+04  0.14612098569E+04  0.50400001928E-02 0.  1.
</event>
<event>
 5   0  0.5714125E-09  0.3701637E+04  0.7818609E-02  0.8067599E-01
        1   -1    0    0  501    0  0.00000000000E+00  0.00000000000E+00  0.14720898644E+04  0.14720898644E+04  0.50400001928E-02 0. -1.
       -1   -1    0    0    0  501  0.00000000000E+00  0.00000000000E+00 -0.23269835082E+04  0.23269835082E+04  0.50400001928E-02 0.  1.
    10030    2    1    2    0    0  0.00000000000E+00  0.00000000000E+00 -0.85489364379E+03  0.37990733727E+04  0.37016368472E+04 0.  0.
        1    1    3    3  502    0  0.67172636509E+03 -0.16710306296E+04  0.10360247487E+02  0.18010183257E+04  0.50400001928E-02 0. -1.
       -1    1    3    3    0  502 -0.67172636509E+03  0.16710306296E+04 -0.86525389128E+03  0.19980550470E+04  0.50400001928E-02 0.  1.
</event>
<event>
 5   0  0.1856107E-08  0.3703299E+04  0.7818609E-02  0.8067231E-01
        2   -1    0    0  501    0  0.00000000000E+00  0.00000000000E+00  0.20659405469E+04  0.20659405469E+04  0.25500000920E-02 0.  1.
       -2   -1    0    0    0  501  0.00000000000E+00  0.00000000000E+00 -0.16595856883E+04  0.16595856883E+04  0.25500000920E-02 0. -1.
    10030    2    1    2    0    0  0.00000000000E+00  0.00000000000E+00  0.40635485864E+03  0.37255262353E+04  0.37032987266E+04 0.  0.
        2    1    3    3  502    0 -0.10099198400E+04 -0.13627913853E+04  0.95024281434E+03  0.19442478878E+04  0.25500000920E-02 0.  1.
       -2    1    3    3    0  502  0.10099198400E+04  0.13627913853E+04 -0.54388795570E+03  0.17812783475E+04  0.25500000920E-02 0. -1.
</event>
<event>
 5   0  0.5714125E-09  0.3699255E+04  0.7818609E-02  0.8068127E-01
       -1   -1    0    0    0  501  0.00000000000E+00  0.00000000000E+00  0.15298218165E+04  0.15298218165E+04  0.50400001928E-02 0. -1.
        1   -1    0    0  501    0  0.00000000000E+00  0.00000000000E+00 -0.22362877419E+04  0.22362877419E+04  0.50400001928E-02 0.  1.
    10030    2    1    2    0    0  0.00000000000E+00  0.00000000000E+00 -0.70646592548E+03  0.37661095584E+04  0.36992549388E+04 0.  0.
        4    1    3    3  502    0 -0.88319566159E+03  0.14208135681E+04  0.44993161149E+03  0.17323930963E+04  0.12699999809E+01 0. -1.
       -4    1    3    3    0  502  0.88319566159E+03 -0.14208135681E+04 -0.11563975370E+04  0.20337164622E+04  0.12699999809E+01 0.  1.
</event>
<event>
 5   0  0.5714125E-09  0.3679285E+04  0.7818609E-02  0.8072568E-01
        1   -1    0    0  501    0  0.00000000000E+00  0.00000000000E+00  0.19977992213E+04  0.19977992213E+04  0.50400001928E-02 0. -1.
       -1   -1    0    0    0  501  0.00000000000E+00  0.00000000000E+00 -0.16940063272E+04  0.16940063272E+04  0.50400001928E-02 0.  1.
    10030    2    1    2    0    0  0.00000000000E+00  0.00000000000E+00  0.30379289407E+03  0.36918055485E+04  0.36792849965E+04 0.  0.
        3    1    3    3  502    0  0.10467226978E+04 -0.23200914605E+03  0.16519177512E+04  0.19693371771E+04  0.10100000352E+00 0. -1.
       -3    1    3    3    0  502 -0.10467226978E+04  0.23200914605E+03 -0.13481248571E+04  0.17224683715E+04  0.10100000352E+00 0.  1.
</event>
<event>
 5   0  0.1740290E-08  0.3699141E+04  0.7818609E-02  0.8068152E-01
       -2   -1    0    0    0  501  0.00000000000E+00  0.00000000000E+00  0.19484557557E+04  0.19484557557E+04  0.25500000920E-02 0.  1.
        2   -1    0    0  501    0  0.00000000000E+00  0.00000000000E+00 -0.17557035309E+04  0.17557035309E+04  0.25500000920E-02 0. -1.
    10030    2    1    2    0    0  0.00000000000E+00  0.00000000000E+00  0.19275222474E+03  0.37041592866E+04  0.36991407922E+04 0.  0.
        5    1    3    3  502    0  0.17319000110E+04 -0.61270543976E+03  0.31115009066E+03  0.18632557723E+04  0.46999998093E+01 0. -1.
       -5    1    3    3    0  502 -0.17319000110E+04  0.61270543976E+03 -0.11839786592E+03  0.18409035143E+04  0.46999998093E+01 0.  1.
</event>
<event>
 5   0  0.1856107E-08  0.3700397E+04  0.7818609E-02  0.8067874E-01
       -2   -1    0    0    0  501  0.00000000000E+00  0.00000000000E+00  0.27952818419E+04  0.27952818419E+04  0.25500000920E-02 0. -1.
        2   -1    0    0  501    0  0.00000000000E+00  0.00000000000E+00 -0.12246473577E+04  0.12246473577E+04  0.25500000920E-02 0.  1.
    10030    2    1    2    0    0  0.00000000000E+00  0.00000000000E+00  0.15706344842E+04  0.40199291996E+04  0.37003970174E+04 0.  0.
        2    1    3    3  502    0 -0.13112173234E+04  0.10942636647E+04  0.12150861313E+02  0.17078792347E+04  0.25500000920E-02 0.  1.
       -2    1    3    3    0  502  0.13112173234E+04 -0.10942636647E+04  0.15584836229E+04  0.23120499648E+04  0.25500000920E-02 0. -1.
</event>
<event>
 5   0  0.5714125E-09  0.3699519E+04  0.7818609E-02  0.8068068E-01
       -3   -1    0    0    0  501  0.00000000000E+00  0.00000000000E+00  0.17942335952E+04  0.17942335981E+04  0.10100000352E+00 0. -1.
        3   -1    0    0  501    0  0.00000000000E+00  0.00000000000E+00 -0.19070041163E+04  0.19070041189E+04  0.10100000352E+00 0.  1.
    10030    2    1    2    0    0  0.00000000000E+00  0.00000000000E+00 -0.11277052106E+03  0.37012377170E+04  0.36995193536E+04 0.  0.
        5    1    3    3  502    0 -0.23076849785E+03 -0.18311582470E+04 -0.17970705375E+03  0.18543762672E+04  0.46999998093E+01 0.  1.
       -5    1    3    3    0  502  0.23076849785E+03  0.18311582470E+04  0.66936532688E+02  0.18468614498E+04  0.46999998093E+01 0. -1.
</event>
<event>
 5   0  0.5714125E-09  0.3700402E+04  0.7818609E-02  0.8067873E-01
       -1   -1    0    0    0  501  0.00000000000E+00  0.00000000000E+00  0.13503600330E+04  0.13503600330E+04  0.50400001928E-02 0. -1.
        1   -1    0    0  501    0  0.00000000000E+00  0.00000000000E+00 -0.25350606398E+04  0.25350606398E+04  0.50400001928E-02 0.  1.
    10030    2    1    2    0    0  0.00000000000E+00  0.00000000000E+00 -0.11847006068E+04  0.38854206729E+04  0.37004024480E+04 0.  0.
        5    1    3    3  502    0 -0.10863265012E+03 -0.16334168749E+04  0.31294823290E+03  0.16666764612E+04  0.46999998093E+01 0. -1.
       -5    1    3    3    0  502  0.10863265012E+03  0.16334168749E+04 -0.14976488397E+04  0.22187442117E+04  0.46999998093E+01 0.  1.
</event>
<event>
 5   0  0.5714125E-09  0.3701453E+04  0.7818609E-02  0.8067640E-01
        1   -1    0    0  501    0  0.00000000000E+00  0.00000000000E+00  0.23891138289E+04  0.23891138289E+04  0.50400001928E-02 0.  1.
       -1   -1    0    0    0  501  0.00000000000E+00  0.00000000000E+00 -0.14336647863E+04  0.14336647863E+04  0.50400001928E-02 0. -1.
    10030    2    1    2    0    0  0.00000000000E+00  0.00000000000E+00  0.95544904254E+03  0.38227786152E+04  0.37014528861E+04 0.  0.
        2    1    3    3  502    0  0.14930884145E+04  0.35687090457E+03  0.15452984201E+04  0.21782141913E+04  0.25500000920E-02 0.  1.
       -2    1    3    3    0  502 -0.14930884145E+04 -0.35687090457E+03 -0.58984937757E+03  0.16445644239E+04  0.25500000920E-02 0. -1.
</event>
<event>
 5   0  0.5714125E-09  0.3695370E+04  0.7818609E-02  0.8068989E-01
       -1   -1    0    0    0  501  0.00000000000E+00  0.00000000000E+00  0.26750688523E+04  0.26750688523E+04  0.50400001928E-02 0.  1.
        1   -1    0    0  501    0  0.00000000000E+00  0.00000000000E+00 -0.12762062641E+04  0.12762062641E+04  0.50400001928E-02 0. -1.
    10030    2    1    2    0    0  0.00000000000E+00  0.00000000000E+00  0.13988625882E+04  0.39512751164E+04  0.36953698739E+04 0.  0.
        1    1    3    3  502    0  0.17212301901E+04  0.20266643317E+03  0.14582922467E+02  0.17331819616E+04  0.50400001928E-02 0. -1.
       -1    1    3    3    0  502 -0.17212301901E+04 -0.20266643317E+03  0.13842796658E+04  0.22180931548E+04  0.50400001928E-02 0.  1.
</event>
<event>
 5   0  0.1856107E-08  0.3699930E+04  0.7818609E-02  0.8067977E-01
       -2   -1    0    0    0  501  0.00000000000E+00  0.00000000000E+00  0.22493042780E+04  0.22493042780E+04  0.25500000920E-02 0. -1.
        2   -1    0    0  501    0  0.00000000000E+00  0.00000000000E+00 -0.15215237702E+04  0.15215237702E+04  0.25500000920E-02 0.  1.
    10030    2    1    2    0    0  0.00000000000E+00  0.00000000000E+00  0.72778050781E+03  0.37708280482E+04  0.36999296887E+04 0.  0.
        2    1    3    3  502    0  0.14186992786E+04 -0.11184698022E+04 -0.42099180694E+02  0.18070569118E+04  0.25500000920E-02 0.  1.
       -2    1    3    3    0  502 -0.14186992786E+04  0.11184698022E+04  0.76987968850E+03  0.19637711364E+04  0.25500000920E-02 0. -1.
</event>
<event>
 5   0  0.5714125E-09  0.3701540E+04  0.7818609E-02  0.8067621E-01
       -1   -1    0    0    0  501  0.00000000000E+00  0.00000000000E+00  0.16033441122E+04  0.16033441122E+04  0.50400001928E-02 0. -1.
        1   -1    0    0  501    0  0.00000000000E+00  0.00000000000E+00 -0.21363779468E+04  0.21363779468E+04  0.50400001928E-02 0.  1.
    10030    2    1    2    0    0  0.00000000000E+00  0.00000000000E+00 -0.53303383453E+03  0.37397220590E+04  0.37015396810E+04 0.  0.
        1    1    3    3  502    0  0.65244553315E+03 -0.12357063688E+04  0.95954701336E+03  0.16951064493E+04  0.50400001928E-02 0. -1.
       -1    1    3    3    0  502 -0.65244553315E+03  0.12357063688E+04 -0.14925808479E+04  0.20446156097E+04  0.50400001928E-02 0.  1.
</event>
<event>
 5   0  0.1740290E-08  0.3701234E+04  0.7818609E-02  0.8067688E-01
       -2   -1    0    0    0  501  0.00000000000E+00  0.00000000000E+00  0.15155834504E+04  0.15155834504E+04  0.25500000920E-02 0.  1.
        2   -1    0    0  501    0  0.00000000000E+00  0.00000000000E+00 -0.22597131726E+04  0.22597131726E+04  0.25500000920E-02 0. -1.
    10030    2    1    2    0    0  0.00000000000E+00  0.00000000000E+00 -0.74412972218E+03  0.37752966230E+04  0.37012343277E+04 0.  0.
        5    1    3    3  502    0  0.56546767138E+03  0.14988480323E+03  0.14187844559E+04  0.15346630132E+04  0.46999998093E+01 0.  1.
       -5    1    3    3    0  502 -0.56546767138E+03 -0.14988480323E+03 -0.21629141781E+04  0.22406336098E+04  0.46999998093E+01 0. -1.
</event>
<event>
 5   0  0.5714125E-09  0.3702682E+04  0.7818609E-02  0.8067368E-01
        1   -1    0    0  501    0  0.00000000000E+00  0.00000000000E+00  0.24038396969E+04  0.24038396969E+04  0.50400001928E-02 0.  1.
       -1   -1    0    0    0  501  0.00000000000E+00  0.00000000000E+00 -0.14258286344E+04  0.14258286344E+04  0.50400001928E-02 0. -1.
    10030    2    1    2    0    0  0.00000000000E+00  0.00000000000E+00  0.97801106255E+03  0.38296683313E+04  0.37026819860E+04 0.  0.
        3    1    3    3  502    0  0.11340801549E+04 -0.93164090235E+03  0.16561435324E+04  0.22128949317E+04  0.10100000352E+00 0.  1.
       -3    1    3    3    0  502 -0.11340801549E+04  0.93164090235E+03 -0.67813246988E+03  0.16167733996E+04  0.10100000352E+00 0. -1.
</event>
<event>
 5   0  0.5714125E-09  0.3706083E+04  0.7818609E-02  0.8066615E-01
        3   -1    0    0  501    0  0.00000000000E+00  0.00000000000E+00  0.21016269021E+04  0.21016269045E+04  0.10100000352E+00 0. -1.
       -3   -1    0    0    0  501  0.00000000000E+00  0.00000000000E+00 -0.16338590797E+04  0.16338590828E+04  0.10100000352E+00 0.  1.
    10030    2    1    2    0    0  0.00000000000E+00  0.00000000000E+00  0.46776782241E+03  0.37354859873E+04  0.37060826793E+04 0.  0.
        1    1    3    3  502    0 -0.16662670986E+04  0.43466897057E+02 -0.58212349916E+03  0.17655603029E+04  0.50400001928E-02 0.  1.
       -1    1    3    3    0  502  0.16662670986E+04 -0.43466897057E+02  0.10498913216E+04  0.19699256844E+04  0.50400001928E-02 0. -1.
</event>
<event>
 5   0  0.5714125E-09  0.3700009E+04  0.7818609E-02  0.8067960E-01
        1   -1    0    0  501    0  0.00000000000E+00  0.00000000000E+00  0.15947291418E+04  0.15947291418E+04  0.50400001928E-02 0.  1.
       -1   -1    0    0    0  501  0.00000000000E+00  0.00000000000E+00 -0.21461430505E+04  0.21461430505E+04  0.50400001928E-02 0. -1.
    10030    2    1    2    0    0  0.00000000000E+00  0.00000000000E+00 -0.55141390868E+03  0.37408721924E+04  0.37000091163E+04 0.  0.
        5    1    3    3  502    0  0.10656746284E+04 -0.36547859144E+03  0.12078973585E+04  0.16517491133E+04  0.46999998093E+01 0.  1.
       -5    1    3    3    0  502 -0.10656746284E+04  0.36547859144E+03 -0.17593112672E+04  0.20891230791E+04  0.46999998093E+01 0. -1.
</event>
<event>
 5   0  0.1856107E-08  0.3701603E+04  0.7818609E-02  0.8067607E-01
        2   -1    0    0  501    0  0.00000000000E+00  0.00000000000E+00  0.25082711669E+04  0.25082711669E+04  0.25500000920E-02 0.  1.
       -2   -1    0    0    0  501  0.00000000000E+00  0.00000000000E+00 -0.13656678543E+04  0.13656678543E+04  0.25500000920E-02 0. -1.
    10030    2    1    2    0    0  0.00000000000E+00  0.00000000000E+00  0.11426033125E+04  0.38739390212E+04  0.37016025192E+04 0.  0.
        2    1    3    3  502    0  0.13333768475E+04 -0.10348396025E+04 -0.22344712681E+03  0.17025614347E+04  0.25500000920E-02 0.  1.
       -2    1    3    3    0  502 -0.13333768475E+04  0.10348396025E+04  0.13660504394E+04  0.21713775865E+04  0.25500000920E-02 0. -1.
</event>
<event>
 5   0  0.5714125E-09  0.3699478E+04  0.7818609E-02  0.8068078E-01
       -3   -1    0    0    0  501  0.00000000000E+00  0.00000000000E+00  0.12176669616E+04  0.12176669657E+04  0.10100000352E+00 0.  1.
        3   -1    0    0  501    0  0.00000000000E+00  0.00000000000E+00 -0.28099098991E+04  0.28099099009E+04  0.10100000352E+00 0. -1.
    10030    2    1    2    0    0  0.00000000000E+00  0.00000000000E+00 -0.15922429375E+04  0.40275768666E+04  0.36994780503E+04 0.  0.
        3    1    3    3  502    0  0.16468377726E+04 -0.77295474326E+03 -0.43177557437E+03  0.18697496735E+04  0.10100000352E+00 0.  1.
       -3    1    3    3    0  502 -0.16468377726E+04  0.77295474326E+03 -0.11604673632E+04  0.21578271932E+04  0.10100000352E+00 0. -1.
</event>
<event>
 5   0  0.5714125E-09  0.3715476E+04  0.7818609E-02  0.8064541E-01
       -1   -1    0    0    0  501  0.00000000000E+00  0.00000000000E+00  0.25593549785E+04  0.25593549785E+04  0.50400001928E-02 0. -1.
        1   -1    0    0  501    0  0.00000000000E+00  0.00000000000E+00 -0.13484607811E+04  0.13484607811E+04  0.50400001928E-02 0.  1.
    10030    2    1    2    0    0  0.00000000000E+00  0.00000000000E+00  0.12108941974E+04  0.39078157597E+04  0.37154756431E+04 0.  0.
        1    1    3    3  502    0 -0.18344584931E+04 -0.25064528930E+03  0.44549272694E+03  0.19043436648E+04  0.50400001928E-02 0. -1.
       -1    1    3    3    0  502  0.18344584931E+04  0.25064528930E+03  0.76540147047E+03  0.20034720949E+04  0.50400001928E-02 0.  1.
</event>
<event>
 5   0  0.1856107E-08  0.3697986E+04  0.7818609E-02  0.8068408E-01
        2   -1    0    0  501    0  0.00000000000E+00  0.00000000000E+00  0.16076584265E+04  0.16076584265E+04  0.25500000920E-02 0.  1.
       -2   -1    0    0    0  501  0.00000000000E+00  0.00000000000E+00 -0.21265561791E+04  0.21265561791E+04  0.25500000920E-02 0. -1.
    10030    2    1    2    0    0  0.00000000000E+00  0.00000000000E+00 -0.51889775261E+03  0.37342146056E+04  0.36979864579E+04 0.  0.
        2    1    3    3  502    0 -0.32104517469E+03  0.13922102686E+03 -0.20928135871E+04  0.21218673872E+04  0.25500000920E-02 0. -1.
       -2    1    3    3    0  502  0.32104517469E+03 -0.13922102686E+03  0.15739158345E+04  0.16123472184E+04  0.25500000920E-02 0.  1.
</event>
<event>
 5   0  0.5714125E-09  0.3695416E+04  0.7818609E-02  0.8068978E-01
        1   -1    0    0  501    0  0.00000000000E+00  0.00000000000E+00  0.24026239782E+04  0.24026239782E+04  0.50400001928E-02 0. -1.
       -1   -1    0    0    0  501  0.00000000000E+00  0.00000000000E+00 -0.14209566535E+04  0.14209566535E+04  0.50400001928E-02 0.  1.
    10030    2    1    2    0    0  0.00000000000E+00  0.00000000000E+00  0.98166732475E+03  0.38235806317E+04  0.36954158238E+04 0.  0.
        2    1    3    3  502    0 -0.23101660845E+03 -0.74969916161E+03  0.22217572596E+04  0.23561881986E+04  0.25500000920E-02 0. -1.
       -2    1    3    3    0  502  0.23101660845E+03  0.74969916161E+03 -0.12400899349E+04  0.14673924332E+04  0.25500000920E-02 0.  1.
</event>
<event>
 5   0  0.5714125E-09  0.3701140E+04  0.7818609E-02  0.8067709E-01
       -1   -1    0    0    0  501  0.00000000000E+00  0.00000000000E+00  0.15460217418E+04  0.15460217418E+04  0.50400001928E-02 0.  1.
        1   -1    0    0  501    0  0.00000000000E+00  0.00000000000E+00 -0.22151102168E+04  0.22151102168E+04  0.50400001928E-02 0. -1.
    10030    2    1    2    0    0  0.00000000000E+00  0.00000000000E+00 -0.66908847505E+03  0.37611319586E+04  0.37011395843E+04 0.  0.
        2    1    3    3  502    0 -0.34708311337E+03  0.17483259192E+04  0.17101175071E+03  0.17906298407E+04  0.25500000920E-02 0.  1.
       -2    1    3    3    0  502  0.34708311337E+03 -0.17483259192E+04 -0.84010022576E+03  0.19705021179E+04  0.25500000920E-02 0. -1.
</event>
<event>
 5   0  0.5714125E-09  0.3695092E+04  0.7818609E-02  0.8069050E-01
       -1   -1    0    0    0  501  0.00000000000E+00  0.00000000000E+00  0.13820831026E+04  0.13820831026E+04  0.50400001928E-02 0.  1.
        1   -1    0    0  501    0  0.00000000000E+00  0.00000000000E+00 -0.24697696688E+04  0.24697696688E+04  0.50400001928E-02 0. -1.
    10030    2    1    2    0    0  0.00000000000E+00  0.00000000000E+00 -0.10876865662E+04  0.38518527714E+04  0.36950923813E+04 0.  0.
        4    1    3    3  502    0  0.80790943204E+03 -0.86803730690E+03 -0.20207115079E+04  0.23429645810E+04  0.12699999809E+01 0. -1.
       -4    1    3    3    0  502 -0.80790943204E+03  0.86803730690E+03  0.93302494169E+03  0.15088881904E+04  0.12699999809E+01 0.  1.
</event>
<event>
 5   0  0.5714125E-09  0.3696238E+04  0.7818609E-02  0.8068796E-01
       -1   -1    0    0    0  501  0.00000000000E+00  0.00000000000E+00  0.18545329141E+04  0.18545329141E+04  0.50400001928E-02 0. -1.
        1   -1    0    0  501    0  0.00000000000E+00  0.00000000000E+00 -0.18417275927E+04  0.18417275927E+04  0.50400001928E-02 0.  1.
    10030    2    1    2    0    0  0.00000000000E+00  0.00000000000E+00  0.12805321424E+02  0.36962605069E+04  0.36962383254E+04 0.  0.
        4    1    3    3  502    0  0.98626923117E+03 -0.14376504767E+04 -0.60677060166E+03  0.18460059766E+04  0.12699999809E+01 0.  1.
       -4    1    3    3    0  502 -0.98626923117E+03  0.14376504767E+04  0.61957592308E+03  0.18502545303E+04  0.12699999809E+01 0. -1.
</event>
<event>
 5   0  0.5714125E-09  0.3700057E+04  0.7818609E-02  0.8067949E-01
       -1   -1    0    0    0  501  0.00000000000E+00  0.00000000000E+00  0.20231320868E+04  0.20231320868E+04  0.50400001928E-02 0. -1.
        1   -1    0    0  501    0  0.00000000000E+00  0.00000000000E+00 -0.16917357851E+04  0.16917357851E+04  0.50400001928E-02 0.  1.
    10030    2    1    2    0    0  0.00000000000E+00  0.00000000000E+00  0.33139630171E+03  0.37148678720E+04  0.37000567289E+04 0.  0.
        5    1    3    3  502    0  0.75251422171E+03 -0.92843037672E+03 -0.12521595792E+04  0.17309495429E+04  0.46999998093E+01 0.  1.
       -5    1    3    3    0  502 -0.75251422171E+03  0.92843037672E+03  0.15835558809E+04  0.19839183290E+04  0.46999998093E+01 0. -1.
</event>
<event>
 5   0  0.5714125E-09  0.3698597E+04  0.7818609E-02  0.8068273E-01
       -1   -1    0    0    0  501  0.00000000000E+00  0.00000000000E+00  0.20752705256E+04  0.20752705256E+04  0.50400001928E-02 0.  1.
        1   -1    0    0  501    0  0.00000000000E+00  0.00000000000E+00 -0.16479320232E+04  0.16479320233E+04  0.50400001928E-02 0. -1.
    10030    2    1    2    0    0  0.00000000000E+00  0.00000000000E+00  0.42733850235E+03  0.37232025489E+04  0.36985968994E+04 0.  0.
        3    1    3    3  502    0 -0.12811606833E+04  0.40173871110E+03  0.14937967029E+04  0.20085306292E+04  0.10100000352E+00 0.  1.
       -3    1    3    3    0  502  0.12811606833E+04 -0.40173871110E+03 -0.10664582006E+04  0.17146719197E+04  0.10100000352E+00 0. -1.
</event>
<event>
 5   0  0.1740290E-08  0.3699591E+04  0.7818609E-02  0.8068052E-01
       -2   -1    0    0    0  501  0.00000000000E+00  0.00000000000E+00  0.18867454554E+04  0.18867454554E+04  0.25500000920E-02 0. -1.
        2   -1    0    0  501    0  0.00000000000E+00  0.00000000000E+00 -0.18135690489E+04  0.18135690489E+04  0.25500000920E-02 0.  1.
    10030    2    1    2    0    0  0.00000000000E+00  0.00000000000E+00  0.73176406479E+02  0.37003145043E+04  0.36995908752E+04 0.  0.
        5    1    3    3  502    0  0.90338547500E+03  0.55241637401E+03 -0.14804325334E+04  0.18201570654E+04  0.46999998093E+01 0.  1.
       -5    1    3    3    0  502 -0.90338547500E+03 -0.55241637401E+03  0.15536089399E+04  0.18801574389E+04  0.46999998093E+01 0. -1.
</event>
<event>
 5   0  0.5714125E-09  0.3703519E+04  0.7818609E-02  0.8067182E-01
       -1   -1    0    0    0  501  0.00000000000E+00  0.00000000000E+00  0.23691394321E+04  0.23691394321E+04  0.50400001928E-02 0. -1.
        1   -1    0    0  501    0  0.00000000000E+00  0.00000000000E+00 -0.14473668836E+04  0.14473668836E+04  0.50400001928E-02 0.  1.
    10030    2    1    2    0    0  0.00000000000E+00  0.00000000000E+00  0.92177254852E+03  0.38165063158E+04  0.37035193839E+04 0.  0.
        5    1    3    3  502    0  0.13961614899E+04  0.93508357292E+03 -0.34088846083E+03  0.17146064350E+04  0.46999998093E+01 0. -1.
       -5    1    3    3    0  502 -0.13961614899E+04 -0.93508357292E+03  0.12626610093E+04  0.21018998808E+04  0.46999998093E+01 0.  1.
</event>
<event>
 5   0  0.1725865E-08  0.3701640E+04  0.7818609E-02  0.8067598E-01
        2   -1    0    0  501    0  0.00000000000E+00  0.00000000000E+00  0.22225628057E+04  0.22225628057E+04  0.25500000920E-02 0. -1.
       -2   -1    0    0    0  501  0.00000000000E+00  0.00000000000E+00 -0.15412545451E+04  0.15412545451E+04  0.25500000920E-02 0.  1.
    10030    2    1    2    0    0  0.00000000000E+00  0.00000000000E+00  0.68130826059E+03  0.37638173509E+04  0.37016401912E+04 0.  0.
        1    1    3    3  502    0  0.13603535405E+04 -0.51483765332E+03  0.15043941575E+04  0.20925633432E+04  0.50400001928E-02 0. -1.
       -1    1    3    3    0  502 -0.13603535405E+04  0.51483765332E+03 -0.82308589691E+03  0.16712540076E+04  0.50400001928E-02 0.  1.
</event>
<event>
 5   0  0.5714125E-09  0.3700710E+04  0.7818609E-02  0.8067805E-01
       -1   -1    0    0    0  501  0.00000000000E+00  0.00000000000E+00  0.17572025891E+04  0.17572025891E+04  0.50400001928E-02 0. -1.
        1   -1    0    0  501    0  0.00000000000E+00  0.00000000000E+00 -0.19484454568E+04  0.19484454568E+04  0.50400001928E-02 0.  1.
    10030    2    1    2    0    0  0.00000000000E+00  0.00000000000E+00 -0.19124286777E+03  0.37056480459E+04  0.37007098786E+04 0.  0.
        3    1    3    3  502    0  0.12386848520E+04 -0.52203898102E+03  0.11776682700E+04  0.17871114751E+04  0.10100000352E+00 0. -1.
       -3    1    3    3    0  502 -0.12386848520E+04  0.52203898102E+03 -0.13689111377E+04  0.19185365708E+04  0.10100000352E+00 0.  1.
</event>
<event>
 5   0  0.5714125E-09  0.3700835E+04  0.7818609E-02  0.8067777E-01
       -1   -1    0    0    0  501  0.00000000000E+00  0.00000000000E+00  0.18433133723E+04  0.18433133723E+04  0.50400001928E-02 0. -1.
        1   -1    0    0  501    0  0.00000000000E+00  0.00000000000E+00 -0.18575485179E+04  0.18575485179E+04  0.50400001928E-02 0.  1.
    10030    2    1    2    0    0  0.00000000000E+00  0.00000000000E+00 -0.14235145556E+02  0.37008618902E+04  0.37008345128E+04 0.  0.
        2    1    3    3  502    0  0.27130317844E+03 -0.16949180538E+04  0.68403976583E+03  0.18477724494E+04  0.25500000920E-02 0. -1.
       -2    1    3    3    0  502 -0.27130317844E+03  0.16949180538E+04 -0.69827491138E+03  0.18530894408E+04  0.25500000920E-02 0.  1.
</event>
<event>
 5   0  0.1725865E-08  0.3700627E+04  0.7818609E-02  0.8067823E-01
        2   -1    0    0  501    0  0.00000000000E+00  0.00000000000E+00  0.17780962816E+04  0.17780962816E+04  0.25500000920E-02 0.  1.
       -2   -1    0    0    0  501  0.00000000000E+00  0.00000000000E+00 -0.19254643050E+04  0.19254643050E+04  0.25500000920E-02 0. -1.
    10030    2    1    2    0    0  0.00000000000E+00  0.00000000000E+00 -0.14736802335E+03  0.37035605866E+04  0.37006274717E+04 0.  0.
        1    1    3    3  502    0 -0.64498406688E+03  0.11632240714E+04  0.12136349425E+04  0.18005567085E+04  0.50400001928E-02 0.  1.
       -1    1    3    3    0  502  0.64498406688E+03 -0.11632240714E+04 -0.13610029659E+04  0.19030038781E+04  0.50400001928E-02 0. -1.
</event>
<event>
 5   0  0.1757996E-08  0.3699581E+04  0.7818609E-02  0.8068055E-01
       -2   -1    0    0    0  501  0.00000000000E+00  0.00000000000E+00  0.14618413551E+04  0.14618413551E+04  0.25500000920E-02 0.  1.
        2   -1    0    0  501    0  0.00000000000E+00  0.00000000000E+00 -0.23406955114E+04  0.23406955114E+04  0.25500000920E-02 0. -1.
    10030    2    1    2    0    0  0.00000000000E+00  0.00000000000E+00 -0.87885415630E+03  0.38025368665E+04  0.36995813267E+04 0.  0.
        3    1    3    3  502    0 -0.16927174088E+04  0.48430786283E+02  0.32565867965E+03  0.17244394315E+04  0.10100000352E+00 0.  1.
       -3    1    3    3    0  502  0.16927174088E+04 -0.48430786283E+02 -0.12045128359E+04  0.20780974350E+04  0.10100000352E+00 0. -1.
</event>
<event>
 5   0  0.1725865E-08  0.3700995E+04  0.7818609E-02  0.8067741E-01
       -2   -1    0    0    0  501  0.00000000000E+00  0.00000000000E+00  0.22004693966E+04  0.22004693966E+04  0.25500000920E-02 0.  1.
        2   -1    0    0  501    0  0.00000000000E+00  0.00000000000E+00 -0.15561866617E+04  0.15561866617E+04  0.25500000920E-02 0. -1.
    10030    2    1    2    0    0  0.00000000000E+00  0.00000000000E+00  0.64428273487E+03  0.37566560583E+04  0.37009950686E+04 0.  0.
        1    1    3    3  502    0  0.13396976985E+04 -0.11466605238E+04  0.89157836690E+03  0.19759889333E+04  0.50400001928E-02 0.  1.
       -1    1    3    3    0  502 -0.13396976985E+04  0.11466605238E+04 -0.24729563203E+03  0.17806671249E+04  0.50400001928E-02 0. -1.
</event>
<event>
 5   0  0.1757996E-08  0.3698853E+04  0.7818609E-02  0.8068216E-01
        2   -1    0    0  501    0  0.00000000000E+00  0.00000000000E+00  0.16102626418E+04  0.16102626418E+04  0.25500000920E-02 0.  1.
       -2   -1    0    0    0  501  0.00000000000E+00  0.00000000000E+00 -0.21241123161E+04  0.21241123161E+04  0.25500000920E-02 0. -1.
    10030    2    1    2    0    0  0.00000000000E+00  0.00000000000E+00 -0.51384967421E+03  0.37343749579E+04  0.36988531788E+04 0.  0.
        3    1    3    3  502    0 -0.85495566219E+03 -0.15590565740E+04  0.25665689313E+03  0.17965186769E+04  0.10100000352E+00 0.  1.
       -3    1    3    3    0  502  0.85495566219E+03  0.15590565740E+04 -0.77050656733E+03  0.19378562810E+04  0.10100000352E+00 0. -1.
</event>
<event>
 5   0  0.1856107E-08  0.3700866E+04  0.7818609E-02  0.8067770E-01
       -2   -1    0    0    0  501  0.00000000000E+00  0.00000000000E+00  0.17767205870E+04  0.17767205870E+04  0.25500000920E-02 0.  1.
        2   -1    0    0  501    0  0.00000000000E+00  0.00000000000E+00 -0.19272033796E+04  0.19272033796E+04  0.25500000920E-02 0. -1.
    10030    2    1    2    0    0  0.00000000000E+00  0.00000000000E+00 -0.15048279256E+03  0.37039239666E+04  0.37008658014E+04 0.  0.
        2    1    3    3  502    0  0.16729142491E+03 -0.14123143755E+04  0.11095795854E+04  0.18038251502E+04  0.25500000920E-02 0.  1.
       -2    1    3    3    0  502 -0.16729142491E+03  0.14123143755E+04 -0.12600623779E+04  0.19000988165E+04  0.25500000920E-02 0. -1.
</event>
<event>
 5   0  0.1725865E-08  0.3700236E+04  0.7818609E-02  0.8067910E-01
        2   -1    0    0  501    0  0.00000000000E+00  0.00000000000E+00  0.24201159935E+04  0.24201159935E+04  0.25500000920E-02 0.  1.
       -2   -1    0    0    0  501  0.00000000000E+00  0.00000000000E+00 -0.14143685445E+04  0.14143685445E+04  0.25500000920E-02 0. -1.
    10030    2    1    2    0    0  0.00000000000E+00  0.00000000000E+00  0.10057474490E+04  0.38344845380E+04  0.37002356332E+04 0.  0.
        1    1    3    3  502    0  0.75032094180E+03  0.92992121401E+03 -0.96088983730E+03  0.15333115337E+04  0.50400001928E-02 0. -1.
       -1    1    3    3    0  502 -0.75032094180E+03 -0.92992121401E+03  0.19666372863E+04  0.23011730043E+04  0.50400001928E-02 0.  1.
</event>
<event>
 5   0  0.5714125E-09  0.3697199E+04  0.7818609E-02  0.8068583E-01
       -1   -1    0    0    0  501  0.00000000000E+00  0.00000000000E+00  0.18047176760E+04  0.18047176760E+04  0.50400001928E-02 0.  1.
        1   -1    0    0  501    0  0.00000000000E+00  0.00000000000E+00 -0.18935478687E+04  0.18935478687E+04  0.50400001928E-02 0. -1.
    10030    2    1    2    0    0  0.00000000000E+00  0.00000000000E+00 -0.88830192710E+02  0.36982655448E+04  0.36971985660E+04 0.  0.
        5    1    3    3  502    0 -0.76639800876E+03 -0.15524109950E+03 -0.17199601487E+04  0.18893783924E+04  0.46999998093E+01 0. -1.
       -5    1    3    3    0  502  0.76639800876E+03  0.15524109950E+03  0.16311299559E+04  0.18088871524E+04  0.46999998093E+01 0.  1.
</event>
<event>
 5   0  0.5714125E-09  0.3700867E+04  0.7818609E-02  0.8067770E-01
       -1   -1    0    0    0  501  0.00000000000E+00  0.00000000000E+00  0.22089042931E+04  0.22089042931E+04  0.50400001928E-02 0. -1.
        1   -1    0    0  501    0  0.00000000000E+00  0.00000000000E+00 -0.15501371264E+04  0.15501371264E+04  0.50400001928E-02 0.  1.
    10030    2    1    2    0    0  0.00000000000E+00  0.00000000000E+00  0.65876716667E+03  0.37590414195E+04  0.37008672245E+04 0.  0.
        5    1    3    3  502    0  0.15364662819E+04  0.92265526429E+03  0.79712314344E+03  0.19614914652E+04  0.46999998093E+01 0. -1.
       -5    1    3    3    0  502 -0.15364662819E+04 -0.92265526429E+03 -0.13835597677E+03  0.17975499543E+04  0.46999998093E+01 0.  1.
</event>
<event>
 5   0  0.1856107E-08  0.3701105E+04  0.7818609E-02  0.8067717E-01
        2   -1    0    0  501    0  0.00000000000E+00  0.00000000000E+00  0.14784782250E+04  0.14784782250E+04  0.25500000920E-02 0.  1.
       -2   -1    0    0    0  501  0.00000000000E+00  0.00000000000E+00 -0.23162631431E+04  0.23162631431E+04  0.25500000920E-02 0. -1.
    10030    2    1    2    0    0  0.00000000000E+00  0.00000000000E+00 -0.83778491802E+03  0.37947413681E+04  0.37011050352E+04 0.  0.
        2    1    3    3  502    0  0.13573828798E+04  0.12118645241E+04 -0.76422320435E+03  0.19736111606E+04  0.25500000920E-02 0. -1.
       -2    1    3    3    0  502 -0.13573828798E+04 -0.12118645241E+04 -0.73561713669E+02  0.18211302075E+04  0.25500000920E-02 0.  1.
</event>
<event>
 5   0  0.5714125E-09  0.3700749E+04  0.7818609E-02  0.8067796E-01
        1   -1    0    0  501    0  0.00000000000E+00  0.00000000000E+00  0.11534548083E+04  0.11534548083E+04  0.50400001928E-02 0. -1.
       -1   -1    0    0    0  501  0.00000000000E+00  0.00000000000E+00 -0.29683745422E+04  0.29683745422E+04  0.50400001928E-02 0.  1.
    10030    2    1    2    0    0  0.00000000000E+00  0.00000000000E+00 -0.18149197339E+04  0.41218293505E+04  0.37007490531E+04 0.  0.
        3    1    3    3  502    0 -0.80779779622E+03 -0.11408452550E+04  0.44284723196E+03  0.14663488181E+04  0.10100000352E+00 0. -1.
       -3    1    3    3    0  502  0.80779779622E+03  0.11408452550E+04 -0.22577669659E+04  0.26554805324E+04  0.10100000352E+00 0.  1.
</event>
<event>
 5   0  0.5714125E-09  0.3699462E+04  0.7818609E-02  0.8068081E-01
       -1   -1    0    0    0  501  0.00000000000E+00  0.00000000000E+00  0.25969198513E+04  0.25969198513E+04  0.50400001928E-02 0. -1.
        1   -1    0    0  501    0  0.00000000000E+00  0.00000000000E+00 -0.13175243730E+04  0.13175243730E+04  0.50400001928E-02 0.  1.
    10030    2    1    2    0    0  0.00000000000E+00  0.00000000000E+00  0.12793954783E+04  0.39144442243E+04  0.36994622306E+04 0.  0.
        5    1    3    3  502    0 -0.36391453561E+03  0.17919809277E+04  0.93493493275E+03  0.20537173255E+04  0.46999998093E+01 0. -1.
       -5    1    3    3    0  502  0.36391453561E+03 -0.17919809277E+04  0.34446054559E+03  0.18607268988E+04  0.46999998093E+01 0.  1.
</event>
<event>
 5   0  0.1740290E-08  0.3700631E+04  0.7818609E-02  0.8067822E-01
       -2   -1    0    0    0  501  0.00000000000E+00  0.00000000000E+00  0.14406626754E+04  0.14406626754E+04  0.25500000920E-02 0. -1.
        2   -1    0    0  501    0  0.00000000000E+00  0.00000000000E+00 -0.23764536193E+04  0.23764536193E+04  0.25500000920E-02 0.  1.
    10030    2    1    2    0    0  0.00000000000E+00  0.00000000000E+00 -0.93579094390E+03  0.38171162947E+04  0.37006313133E+04 0.  0.
        5    1    3    3  502    0  0.48792754690E+03 -0.17086150103E+04 -0.10000890505E+04  0.20390288726E+04  0.46999998093E+01 0.  1.
       -5    1    3    3    0  502 -0.48792754690E+03  0.17086150103E+04  0.64298106580E+02  0.17780874222E+04  0.46999998093E+01 0. -1.
</event>
<event>
 5   0  0.1757996E-08  0.3698191E+04  0.7818609E-02  0.8068363E-01
        2   -1    0    0  501    0  0.00000000000E+00  0.00000000000E+00  0.18426596175E+04  0.18426596175E+04  0.25500000920E-02 0.  1.
       -2   -1    0    0    0  501  0.00000000000E+00  0.00000000000E+00 -0.18555538040E+04  0.18555538040E+04  0.25500000920E-02 0. -1.
    10030    2    1    2    0    0  0.00000000000E+00  0.00000000000E+00 -0.12894186518E+02  0.36982134215E+04  0.36981909430E+04 0.  0.
        3    1    3    3  502    0 -0.82749813738E+03  0.16375229059E+04  0.22359694849E+03  0.18483046395E+04  0.10100000352E+00 0. -1.
       -3    1    3    3    0  502  0.82749813738E+03 -0.16375229059E+04 -0.23649113501E+03  0.18499087820E+04  0.10100000352E+00 0.  1.
</event>
<event>
 5   0  0.5714125E-09  0.3700709E+04  0.7818609E-02  0.8067805E-01
       -1   -1    0    0    0  501  0.00000000000E+00  0.00000000000E+00  0.16651284130E+04  0.16651284130E+04  0.50400001928E-02 0. -1.
        1   -1    0    0  501    0  0.00000000000E+00  0.00000000000E+00 -0.20561844122E+04  0.20561844122E+04  0.50400001928E-02 0.  1.
    10030    2    1    2    0    0  0.00000000000E+00  0.00000000000E+00 -0.39105599922E+03  0.37213128252E+04  0.37007086279E+04 0.  0.
        5    1    3    3  502    0  0.29239581441E+03 -0.15298055339E+04 -0.12000838838E+04  0.19662206646E+04  0.46999998093E+01 0.  1.
       -5    1    3    3    0  502 -0.29239581441E+03  0.15298055339E+04  0.80902788460E+03  0.17550921605E+04  0.46999998093E+01 0. -1.
</event>
<event>
 5   0  0.1856107E-08  0.3700134E+04  0.7818609E-02  0.8067932E-01
       -2   -1    0    0    0  501  0.00000000000E+00  0.00000000000E+00  0.16690361679E+04  0.16690361679E+04  0.25500000920E-02 0.  1.
        2   -1    0    0  501    0  0.00000000000E+00  0.00000000000E+00 -0.20507327566E+04  0.20507327566E+04  0.25500000920E-02 0. -1.
    10030    2    1    2    0    0  0.00000000000E+00  0.00000000000E+00 -0.38169658870E+03  0.37197689246E+04  0.37001335876E+04 0.  0.
        2    1    3    3  502    0  0.15654658415E+04 -0.87441268012E+03 -0.64875008812E+03  0.19068711317E+04  0.25500000920E-02 0. -1.
       -2    1    3    3    0  502 -0.15654658415E+04  0.87441268012E+03  0.26705349942E+03  0.18128977929E+04  0.25500000920E-02 0.  1.
</event>
<event>
 5   0  0.5714125E-09  0.3723426E+04  0.7818609E-02  0.8062790E-01
        1   -1    0    0  501    0  0.00000000000E+00  0.00000000000E+00  0.11492969238E+04  0.11492969238E+04  0.50400001928E-02 0. -1.
       -1   -1    0    0    0  501  0.00000000000E+00  0.00000000000E+00 -0.30157355596E+04  0.30157355596E+04  0.50400001928E-02 0.  1.
    10030    2    1    2    0    0  0.00000000000E+00  0.00000000000E+00 -0.18664386358E+04  0.41650324834E+04  0.37234261650E+04 0.  0.
        1    1    3    3  502    0  0.16822481347E+04 -0.63861439667E+03 -0.39887340449E+03  0.18430646020E+04  0.50400001928E-02 0. -1.
       -1    1    3    3    0  502 -0.16822481347E+04  0.63861439667E+03 -0.14675652314E+04  0.23219678815E+04  0.50400001928E-02 0.  1.
</event>
<event>
 5   0  0.1725865E-08  0.3699706E+04  0.7818609E-02  0.8068027E-01
        2   -1    0    0  501    0  0.00000000000E+00  0.00000000000E+00  0.20545932396E+04  0.20545932396E+04  0.25500000920E-02 0.  1.
       -2   -1    0    0    0  501  0.00000000000E+00  0.00000000000E+00 -0.16655154729E+04  0.16655154729E+04  0.25500000920E-02 0. -1.
    10030    2    1    2    0    0  0.00000000000E+00  0.00000000000E+00  0.38907776672E+03  0.37201087125E+04  0.36997063835E+04 0.  0.
        1    1    3    3  502    0 -0.16725358276E+03 -0.16902941831E+04  0.93130642013E+03  0.19371112086E+04  0.50400001928E-02 0.  1.
       -1    1    3    3    0  502  0.16725358276E+03  0.16902941831E+04 -0.54222865341E+03  0.17829975039E+04  0.50400001928E-02 0. -1.
</event>
<event>
 5   0  0.5714125E-09  0.3701097E+04  0.7818609E-02  0.8067719E-01
        1   -1    0    0  501    0  0.00000000000E+00  0.00000000000E+00  0.16089007010E+04  0.16089007010E+04  0.50400001928E-02 0. -1.
       -1   -1    0    0    0  501  0.00000000000E+00  0.00000000000E+00 -0.21284909003E+04  0.21284909003E+04  0.50400001928E-02 0.  1.
    10030    2    1    2    0    0  0.00000000000E+00  0.00000000000E+00 -0.51959019928E+03  0.37373916013E+04  0.37010974057E+04 0.  0.
        2    1    3    3  502    0 -0.18264703394E+04 -0.15885793353E+03 -0.51385875648E+03  0.19040169551E+04  0.25500000920E-02 0.  1.
       -2    1    3    3    0  502  0.18264703394E+04  0.15885793353E+03 -0.57314428013E+01  0.18333746462E+04  0.25500000920E-02 0. -1.
</event>
<event>
 5   0  0.5714125E-09  0.3700294E+04  0.7818609E-02  0.8067897E-01
       -1   -1    0    0    0  501  0.00000000000E+00  0.00000000000E+00  0.11595129506E+04  0.11595129506E+04  0.50400001928E-02 0. -1.
        1   -1    0    0  501    0  0.00000000000E+00  0.00000000000E+00 -0.29521387761E+04  0.29521387761E+04  0.50400001928E-02 0.  1.
    10030    2    1    2    0    0  0.00000000000E+00  0.00000000000E+00 -0.17926258255E+04  0.41116517268E+04  0.37002935792E+04 0.  0.
        3    1    3    3  502    0  0.24659987004E+03 -0.83946393912E+03 -0.27077338563E+04  0.28455814604E+04  0.10100000352E+00 0.  1.
       -3    1    3    3    0  502 -0.24659987004E+03  0.83946393912E+03  0.91510803085E+03  0.12660702663E+04  0.10100000352E+00 0. -1.
</event>
<event>
 5   0  0.5714125E-09  0.3700233E+04  0.7818609E-02  0.8067910E-01
       -1   -1    0    0    0  501  0.00000000000E+00  0.00000000000E+00  0.25519360698E+04  0.25519360698E+04  0.50400001928E-02 0. -1.
        1   -1    0    0  501    0  0.00000000000E+00  0.00000000000E+00 -0.13413075437E+04  0.13413075437E+04  0.50400001928E-02 0.  1.
    10030    2    1    2    0    0  0.00000000000E+00  0.00000000000E+00  0.12106285261E+04  0.38932436136E+04  0.37002330205E+04 0.  0.
        5    1    3    3  502    0  0.15850952960E+04  0.61609445624E+03  0.13718843413E+04  0.21849915817E+04  0.46999998093E+01 0. -1.
       -5    1    3    3    0  502 -0.15850952960E+04 -0.61609445624E+03 -0.16125581516E+03  0.17082520318E+04  0.46999998093E+01 0.  1.
</event>
<event>
 5   0  0.5714125E-09  0.3710021E+04  0.7818609E-02  0.8065745E-01
        1   -1    0    0  501    0  0.00000000000E+00  0.00000000000E+00  0.24497692219E+04  0.24497692219E+04  0.50400001928E-02 0. -1.
       -1   -1    0    0    0  501  0.00000000000E+00  0.00000000000E+00 -0.14046484652E+04  0.14046484652E+04  0.50400001928E-02 0.  1.
    10030    2    1    2    0    0  0.00000000000E+00  0.00000000000E+00  0.10451207567E+04  0.38544176871E+04  0.37100213356E+04 0.  0.
        2    1    3    3  502    0 -0.15184885896E+04  0.18175005320E+03  0.16132904329E+04  0.22229589964E+04  0.25500000920E-02 0. -1.
       -2    1    3    3    0  502  0.15184885896E+04 -0.18175005320E+03 -0.56816967618E+03  0.16314586907E+04  0.25500000920E-02 0.  1.
</event>
<event>
 5   0  0.1825308E-08  0.3697401E+04  0.7818609E-02  0.8068538E-01
        2   -1    0    0  501    0  0.00000000000E+00  0.00000000000E+00  0.22278571409E+04  0.22278571409E+04  0.25500000920E-02 0. -1.
       -2   -1    0    0    0  501  0.00000000000E+00  0.00000000000E+00 -0.15340722634E+04  0.15340722634E+04  0.25500000920E-02 0.  1.
    10030    2    1    2    0    0  0.00000000000E+00  0.00000000000E+00  0.69378487750E+03  0.37619294043E+04  0.36974011666E+04 0.  0.
        4    1    3    3  502    0  0.15937365427E+04 -0.70202613745E+03 -0.28430153241E+03  0.17645582562E+04  0.12699999809E+01 0.  1.
       -4    1    3    3    0  502 -0.15937365427E+04  0.70202613745E+03  0.97808640991E+03  0.19973711481E+04  0.12699999809E+01 0. -1.
</event>
<event>
 5   0  0.5714125E-09  0.3700659E+04  0.7818609E-02  0.8067816E-01
        1   -1    0    0  501    0  0.00000000000E+00  0.00000000000E+00  0.20652283119E+04  0.20652283119E+04  0.50400001928E-02 0. -1.
       -1   -1    0    0    0  501  0.00000000000E+00  0.00000000000E+00 -0.16577917841E+04  0.16577917841E+04  0.50400001928E-02 0.  1.
    10030    2    1    2    0    0  0.00000000000E+00  0.00000000000E+00  0.40743652778E+03  0.37230200960E+04  0.37006586050E+04 0.  0.
        4    1    3    3  502    0 -0.14299775115E+04  0.80622327049E+03  0.10626248738E+04  0.19555062977E+04  0.12699999809E+01 0. -1.
       -4    1    3    3    0  502  0.14299775115E+04 -0.80622327049E+03 -0.65518834599E+03  0.17675137982E+04  0.12699999809E+01 0.  1.
</event>
<event>
 5   0  0.5714125E-09  0.3699865E+04  0.7818609E-02  0.8067992E-01
       -1   -1    0    0    0  501  0.00000000000E+00  0.00000000000E+00  0.20045755879E+04  0.20045755879E+04  0.50400001928E-02 0.  1.
        1   -1    0    0  501    0  0.00000000000E+00  0.00000000000E+00 -0.17072192351E+04  0.17072192351E+04  0.50400001928E-02 0. -1.
    10030    2    1    2    0    0  0.00000000000E+00  0.00000000000E+00  0.29735635274E+03  0.37117948230E+04  0.36998648634E+04 0.  0.
        5    1    3    3  502    0 -0.12874716762E+04  0.84971263115E+03  0.11730646642E+04  0.19379622465E+04  0.46999998093E+01 0.  1.
       -5    1    3    3    0  502  0.12874716762E+04 -0.84971263115E+03 -0.87570831145E+03  0.17738325765E+04  0.46999998093E+01 0. -1.
</event>
<event>
 5   0  0.1740290E-08  0.3698934E+04  0.7818609E-02  0.8068198E-01
        2   -1    0    0  501    0  0.00000000000E+00  0.00000000000E+00  0.18226286947E+04  0.18226286947E+04  0.25500000920E-02 0. -1.
       -2   -1    0    0    0  501  0.00000000000E+00  0.00000000000E+00 -0.18767009439E+04  0.18767009439E+04  0.25500000920E-02 0.  1.
    10030    2    1    2    0    0  0.00000000000E+00  0.00000000000E+00 -0.54072249199E+02  0.36993296387E+04  0.36989344368E+04 0.  0.
        5    1    3    3  502    0 -0.10807968120E+04  0.33272588576E+03 -0.14906400004E+04  0.18710579801E+04  0.46999998093E+01 0.  1.
       -5    1    3    3    0  502  0.10807968120E+04 -0.33272588576E+03  0.14365677512E+04  0.18282716586E+04  0.46999998093E+01 0. -1.
</event>
<event>
 5   0  0.1725865E-08  0.3699134E+04  0.7818609E-02  0.8068154E-01
        2   -1    0    0  501    0  0.00000000000E+00  0.00000000000E+00  0.20214128181E+04  0.20214128182E+04  0.25500000920E-02 0.  1.
       -2   -1    0    0    0  501  0.00000000000E+00  0.00000000000E+00 -0.16923306109E+04  0.16923306109E+04  0.25500000920E-02 0. -1.
    10030    2    1    2    0    0  0.00000000000E+00  0.00000000000E+00  0.32908220728E+03  0.37137434290E+04  0.36991343795E+04 0.  0.
        1    1    3    3  502    0 -0.52724808093E+03 -0.73798131511E+03  0.17828288730E+04  0.20002714192E+04  0.50400001928E-02 0.  1.
       -1    1    3    3    0  502  0.52724808093E+03  0.73798131511E+03 -0.14537466657E+04  0.17134720098E+04  0.50400001928E-02 0. -1.
</event>
<event>
 5   0  0.1757996E-08  0.3698237E+04  0.7818609E-02  0.8068353E-01
        2   -1    0    0  501    0  0.00000000000E+00  0.00000000000E+00  0.24997419221E+04  0.24997419221E+04  0.25500000920E-02 0.  1.
       -2   -1    0    0    0  501  0.00000000000E+00  0.00000000000E+00 -0.13678371617E+04  0.13678371617E+04  0.25500000920E-02 0. -1.
    10030    2    1    2    0    0  0.00000000000E+00  0.00000000000E+00  0.11319047605E+04  0.38675790838E+04  0.36982373616E+04 0.  0.
        3    1    3    3  502    0  0.46229731458E+02  0.17897807229E+04  0.82408669273E+02  0.17922732557E+04  0.10100000352E+00 0.  1.
       -3    1    3    3    0  502 -0.46229731458E+02 -0.17897807229E+04  0.10494960912E+04  0.20753058280E+04  0.10100000352E+00 0. -1.
</event>
<event>
 5   0  0.1757996E-08  0.3698744E+04  0.7818609E-02  0.8068240E-01
       -2   -1    0    0    0  501  0.00000000000E+00  0.00000000000E+00  0.18800297273E+04  0.18800297273E+04  0.25500000920E-02 0. -1.
        2   -1    0    0  501    0  0.00000000000E+00  0.00000000000E+00 -0.18192139406E+04  0.18192139406E+04  0.25500000920E-02 0.  1.
    10030    2    1    2    0    0  0.00000000000E+00  0.00000000000E+00  0.60815786736E+02  0.36992436680E+04  0.36987437266E+04 0.  0.
        3    1    3    3  502    0 -0.15495421312E+04 -0.33786852893E+03 -0.92100419863E+03  0.18339805624E+04  0.10100000352E+00 0.  1.
       -3    1    3    3    0  502  0.15495421312E+04  0.33786852893E+03  0.98181998536E+03  0.18652631056E+04  0.10100000352E+00 0. -1.
</event>
<event>
 5   0  0.5714125E-09  0.3700873E+04  0.7818609E-02  0.8067768E-01
        1   -1    0    0  501    0  0.00000000000E+00  0.00000000000E+00  0.24994304741E+04  0.24994304741E+04  0.50400001928E-02 0.  1.
       -1   -1    0    0    0  501  0.00000000000E+00  0.00000000000E+00 -0.13699578686E+04  0.13699578686E+04  0.50400001928E-02 0. -1.
    10030    2    1    2    0    0  0.00000000000E+00  0.00000000000E+00  0.11294726055E+04  0.38693883427E+04  0.37008725700E+04 0.  0.
        4    1    3    3  502    0  0.16293973395E+04 -0.85697355073E+03  0.75970380877E+03  0.19916050930E+04  0.12699999809E+01 0.  1.
       -4    1    3    3    0  502 -0.16293973395E+04  0.85697355073E+03  0.36976879674E+03  0.18777832496E+04  0.12699999809E+01 0. -1.
</event>
<event>
 5   0  0.1725865E-08  0.3700206E+04  0.7818609E-02  0.8067916E-01
       -2   -1    0    0    0  501  0.00000000000E+00  0.00000000000E+00  0.17602370785E+04  0.17602370785E+04  0.25500000920E-02 0.  1.
        2   -1    0    0  501    0  0.00000000000E+00  0.00000000000E+00 -0.19445569071E+04  0.19445569071E+04  0.25500000920E-02 0. -1.
    10030    2    1    2    0    0  0.00000000000E+00  0.00000000000E+00 -0.18431982860E+03  0.37047939856E+04  0.37002060316E+04 0.  0.
        1    1    3    3  502    0 -0.37885783802E+03  0.98319748189E+03 -0.16147922471E+04  0.19281505520E+04  0.50400001928E-02 0. -1.
       -1    1    3    3    0  502  0.37885783802E+03 -0.98319748189E+03  0.14304724185E+04  0.17766434336E+04  0.50400001928E-02 0.  1.
</event>
<event>
 5   0  0.5714125E-09  0.3699864E+04  0.7818609E-02  0.8067992E-01
        1   -1    0    0  501    0  0.00000000000E+00  0.00000000000E+00  0.22441603654E+04  0.22441603654E+04  0.50400001928E-02 0.  1.
       -1   -1    0    0    0  501  0.00000000000E+00  0.00000000000E+00 -0.15249575016E+04  0.15249575017E+04  0.50400001928E-02 0. -1.
    10030    2    1    2    0    0  0.00000000000E+00  0.00000000000E+00  0.71920286376E+03  0.37691178671E+04  0.36998644214E+04 0.  0.
        2    1    3    3  502    0  0.18011638947E+04  0.39921887052E+03  0.22036054540E+03  0.18579897341E+04  0.25500000920E-02 0. -1.
       -2    1    3    3    0  502 -0.18011638947E+04 -0.39921887052E+03  0.49884231836E+03  0.19111281330E+04  0.25500000920E-02 0.  1.
</event>
<event>
 5   0  0.5714125E-09  0.3699992E+04  0.7818609E-02  0.8067964E-01
       -1   -1    0    0    0  501  0.00000000000E+00  0.00000000000E+00  0.12096612513E+04  0.12096612513E+04  0.50400001928E-02 0.  1.
        1   -1    0    0  501    0  0.00000000000E+00  0.00000000000E+00 -0.28292920245E+04  0.28292920245E+04  0.50400001928E-02 0. -1.
    10030    2    1    2    0    0  0.00000000000E+00  0.00000000000E+00 -0.16196307731E+04  0.40389532758E+04  0.36999918544E+04 0.  0.
        1    1    3    3  502    0 -0.49206378480E+03 -0.17520056220E+04 -0.11732325811E+04  0.21652078785E+04  0.50400001928E-02 0. -1.
       -1    1    3    3    0  502  0.49206378480E+03  0.17520056220E+04 -0.44639819208E+03  0.18737453973E+04  0.50400001928E-02 0.  1.
</event>
<event>
 5   0  0.5714125E-09  0.3700783E+04  0.7818609E-02  0.8067788E-01
       -1   -1    0    0    0  501  0.00000000000E+00  0.00000000000E+00  0.16410947199E+04  0.16410947199E+04  0.50400001928E-02 0.  1.
        1   -1    0    0  501    0  0.00000000000E+00  0.00000000000E+00 -0.20863814036E+04  0.20863814036E+04  0.50400001928E-02 0. -1.
    10030    2    1    2    0    0  0.00000000000E+00  0.00000000000E+00 -0.44528668370E+03  0.37274761235E+04  0.37007834333E+04 0.  0.
        5    1    3    3  502    0  0.67309343888E+03  0.15971930952E+04 -0.87527276664E+03  0.19417015906E+04  0.46999998093E+01 0. -1.
       -5    1    3    3    0  502 -0.67309343888E+03 -0.15971930952E+04  0.42998608294E+03  0.17857745329E+04  0.46999998093E+01 0.  1.
</event>
<event>
 5   0  0.1856107E-08  0.3699677E+04  0.7818609E-02  0.8068033E-01
        2   -1    0    0  501    0  0.00000000000E+00  0.00000000000E+00  0.18560197531E+04  0.18560197531E+04  0.25500000920E-02 0.  1.
       -2   -1    0    0    0  501  0.00000000000E+00  0.00000000000E+00 -0.18436779922E+04  0.18436779922E+04  0.25500000920E-02 0. -1.
    10030    2    1    2    0    0  0.00000000000E+00  0.00000000000E+00  0.12341760946E+02  0.36996977453E+04  0.36996771599E+04 0.  0.
        2    1    3    3  502    0 -0.10637984591E+04  0.13539256591E+03 -0.15011213094E+04  0.18448207214E+04  0.25500000920E-02 0. -1.
       -2    1    3    3    0  502  0.10637984591E+04 -0.13539256591E+03  0.15134630704E+04  0.18548770239E+04  0.25500000920E-02 0.  1.
</event>
<event>
 5   0  0.1725865E-08  0.3699871E+04  0.7818609E-02  0.8067990E-01
       -2   -1    0    0    0  501  0.00000000000E+00  0.00000000000E+00  0.26049901047E+04  0.26049901047E+04  0.25500000920E-02 0. -1.
        2   -1    0    0  501    0  0.00000000000E+00  0.00000000000E+00 -0.13137329110E+04  0.13137329110E+04  0.25500000920E-02 0.  1.
    10030    2    1    2    0    0  0.00000000000E+00  0.00000000000E+00  0.12912571937E+04  0.39187230157E+04  0.36998709347E+04 0.  0.
        1    1    3    3  502    0  0.97072971024E+03 -0.11338126288E+04  0.18031670660E+04  0.23407816463E+04  0.50400001928E-02 0.  1.
       -1    1    3    3    0  502 -0.97072971024E+03  0.11338126288E+04 -0.51190987236E+03  0.15779413693E+04  0.50400001928E-02 0. -1.
</event>
<event>
 5   0  0.1757996E-08  0.3698025E+04  0.7818609E-02  0.8068400E-01
        2   -1    0    0  501    0  0.00000000000E+00  0.00000000000E+00  0.16979646239E+04  0.16979646239E+04  0.25500000920E-02 0.  1.
       -2   -1    0    0    0  501  0.00000000000E+00  0.00000000000E+00 -0.20134969937E+04  0.20134969937E+04  0.25500000920E-02 0. -1.
    10030    2    1    2    0    0  0.00000000000E+00  0.00000000000E+00 -0.31553236974E+03  0.37114616176E+04  0.36980246974E+04 0.  0.
        3    1    3    3  502    0  0.78287869049E+03 -0.48839647250E+03  0.14503718733E+04  0.17190138858E+04  0.10100000352E+00 0.  1.
       -3    1    3    3    0  502 -0.78287869049E+03  0.48839647250E+03 -0.17659042431E+04  0.19924477319E+04  0.10100000352E+00 0. -1.
</event>
<event>
 5   0  0.1740290E-08  0.3699902E+04  0.7818609E-02  0.8067984E-01
       -2   -1    0    0    0  501  0.00000000000E+00  0.00000000000E+00  0.12949527093E+04  0.12949527093E+04  0.25500000920E-02 0.  1.
        2   -1    0    0  501    0  0.00000000000E+00  0.00000000000E+00 -0.26428132665E+04  0.26428132666E+04  0.25500000920E-02 0. -1.
    10030    2    1    2    0    0  0.00000000000E+00  0.00000000000E+00 -0.13478605572E+04  0.39377659759E+04  0.36999017283E+04 0.  0.
        5    1    3    3  502    0 -0.10468095194E+04  0.66885408947E+02  0.94784982969E+03  0.14137627868E+04  0.46999998093E+01 0.  1.
       -5    1    3    3    0  502  0.10468095194E+04 -0.66885408947E+02 -0.22957103869E+04  0.25240031890E+04  0.46999998093E+01 0. -1.
</event>
<event>
 5   0  0.1825308E-08  0.3691004E+04  0.7818609E-02  0.8069958E-01
       -2   -1    0    0    0  501  0.00000000000E+00  0.00000000000E+00  0.18091268381E+04  0.18091268381E+04  0.25500000920E-02 0. -1.
        2   -1    0    0  501    0  0.00000000000E+00  0.00000000000E+00 -0.18826086803E+04  0.18826086803E+04  0.25500000920E-02 0.  1.
    10030    2    1    2    0    0  0.00000000000E+00  0.00000000000E+00 -0.73481842157E+02  0.36917355183E+04  0.36910041393E+04 0.  0.
        4    1    3    3  502    0  0.12178793204E+04 -0.22405560241E+03  0.13319034646E+04  0.18186256910E+04  0.12699999809E+01 0. -1.
       -4    1    3    3    0  502 -0.12178793204E+04  0.22405560241E+03 -0.14053853068E+04  0.18731098274E+04  0.12699999809E+01 0.  1.
</event>
<event>
 5   0  0.1725865E-08  0.3699215E+04  0.7818609E-02  0.8068136E-01
       -2   -1    0    0    0  501  0.00000000000E+00  0.00000000000E+00  0.12976929884E+04  0.12976929884E+04  0.25500000920E-02 0. -1.
        2   -1    0    0  501    0  0.00000000000E+00  0.00000000000E+00 -0.26362537812E+04  0.26362537812E+04  0.25500000920E-02 0.  1.
    10030    2    1    2    0    0  0.00000000000E+00  0.00000000000E+00 -0.13385607928E+04  0.39339467696E+04  0.36992150776E+04 0.  0.
        1    1    3    3  502    0 -0.31933874707E+03  0.51691953069E+03  0.11885307179E+04  0.13348364334E+04  0.50400001928E-02 0. -1.
       -1    1    3    3    0  502  0.31933874707E+03 -0.51691953069E+03 -0.25270915107E+04  0.25991103362E+04  0.50400001928E-02 0.  1.
</event>
<event>
 5   0  0.5714125E-09  0.3684611E+04  0.7818609E-02  0.8071381E-01
        1   -1    0    0  501    0  0.00000000000E+00  0.00000000000E+00  0.15481448660E+04  0.15481448660E+04  0.50400001928E-02 0. -1.
       -1   -1    0    0    0  501  0.00000000000E+00  0.00000000000E+00 -0.21923585660E+04  0.21923585660E+04  0.50400001928E-02 0.  1.
    10030    2    1    2    0    0  0.00000000000E+00  0.00000000000E+00 -0.64421370002E+03  0.37405034320E+04  0.36846105131E+04 0.  0.
        1    1    3    3  502    0 -0.11789115226E+04  0.51912061834E+03 -0.16591931229E+04  0.21005333641E+04  0.50400001928E-02 0.  1.
       -1    1    3    3    0  502  0.11789115226E+04 -0.51912061834E+03  0.10149794229E+04  0.16399700679E+04  0.50400001928E-02 0. -1.
</event>
<event>
 5   0  0.5714125E-09  0.3701383E+04  0.7818609E-02  0.8067655E-01
        1   -1    0    0  501    0  0.00000000000E+00  0.00000000000E+00  0.20695557806E+04  0.20695557806E+04  0.50400001928E-02 0. -1.
       -1   -1    0    0    0  501  0.00000000000E+00  0.00000000000E+00 -0.16549730176E+04  0.16549730177E+04  0.50400001928E-02 0.  1.
    10030    2    1    2    0    0  0.00000000000E+00  0.00000000000E+00  0.41458276294E+03  0.37245287982E+04  0.37013829715E+04 0.  0.
        5    1    3    3  502    0  0.56205589553E+03 -0.14716158010E+04 -0.77011004916E+03  0.17534684124E+04  0.46999998093E+01 0.  1.
       -5    1    3    3    0  502 -0.56205589553E+03  0.14716158010E+04  0.11846928121E+04  0.19710603858E+04  0.46999998093E+01 0. -1.
</event>
<event>
 5   0  0.1740290E-08  0.3699976E+04  0.7818609E-02  0.8067967E-01
       -2   -1    0    0    0  501  0.00000000000E+00  0.00000000000E+00  0.19946253819E+04  0.19946253819E+04  0.25500000920E-02 0. -1.
        2   -1    0    0  501    0  0.00000000000E+00  0.00000000000E+00 -0.17158390520E+04  0.17158390520E+04  0.25500000920E-02 0.  1.
    10030    2    1    2    0    0  0.00000000000E+00  0.00000000000E+00  0.27878632988E+03  0.37104644339E+04  0.36999762833E+04 0.  0.
        5    1    3    3  502    0  0.16076521593E+02  0.16394091630E+04  0.99886001053E+03  0.19198083938E+04  0.46999998093E+01 0.  1.
       -5    1    3    3    0  502 -0.16076521593E+02 -0.16394091630E+04 -0.72007368066E+03  0.17906560401E+04  0.46999998093E+01 0. -1.
</event>
<event>
 5   0  0.1740290E-08  0.3698211E+04  0.7818609E-02  0.8068358E-01
       -2   -1    0    0    0  501  0.00000000000E+00  0.00000000000E+00  0.11634050893E+04  0.11634050893E+04  0.25500000920E-02 0.  1.
        2   -1    0    0  501    0  0.00000000000E+00  0.00000000000E+00 -0.29389513548E+04  0.29389513548E+04  0.25500000920E-02 0. -1.
    10030    2    1    2    0    0  0.00000000000E+00  0.00000000000E+00 -0.17755462654E+04  0.41023564441E+04  0.36982108990E+04 0.  0.
        5    1    3    3  502    0  0.17797331602E+04  0.36440881360E+02 -0.14428471702E+04  0.22914205432E+04  0.46999998093E+01 0. -1.
       -5    1    3    3    0  502 -0.17797331602E+04 -0.36440881360E+02 -0.33269909528E+03  0.18109359009E+04  0.46999998093E+01 0.  1.
</event>
<event>
 5   0  0.1740290E-08  0.3699375E+04  0.7818609E-02  0.8068100E-01
        2   -1    0    0  501    0  0.00000000000E+00  0.00000000000E+00  0.19859896131E+04  0.19859896131E+04  0.25500000920E-02 0. -1.
       -2   -1    0    0    0  501  0.00000000000E+00  0.00000000000E+00 -0.17227397053E+04  0.17227397053E+04  0.25500000920E-02 0.  1.
    10030    2    1    2    0    0  0.00000000000E+00  0.00000000000E+00  0.26324990777E+03  0.37087293184E+04  0.36993746287E+04 0.  0.
        5    1    3    3  502    0  0.11741680117E+04  0.58861496992E+03 -0.11740442862E+04  0.17616867424E+04  0.46999998093E+01 0.  1.
       -5    1    3    3    0  502 -0.11741680117E+04 -0.58861496992E+03  0.14372941940E+04  0.19470425759E+04  0.46999998093E+01 0. -1.
</event>
<event>
 5   0  0.1825308E-08  0.3697972E+04  0.7818609E-02  0.8068411E-01
        2   -1    0    0  501    0  0.00000000000E+00  0.00000000000E+00  0.15185374523E+04  0.15185374523E+04  0.25500000920E-02 0. -1.
       -2   -1    0    0    0  501  0.00000000000E+00  0.00000000000E+00 -0.22513437594E+04  0.22513437594E+04  0.25500000920E-02 0.  1.
    10030    2    1    2    0    0  0.00000000000E+00  0.00000000000E+00 -0.73280630713E+03  0.37698812117E+04  0.36979723183E+04 0.  0.
        4    1    3    3  502    0  0.23813859795E+03  0.82392067230E+03 -0.20363012172E+04  0.22095428319E+04  0.12699999809E+01 0.  1.
       -4    1    3    3    0  502 -0.23813859795E+03 -0.82392067230E+03  0.13034949100E+04  0.15603383798E+04  0.12699999809E+01 0. -1.
</event>
<event>
 5   0  0.1825308E-08  0.3699891E+04  0.7818609E-02  0.8067986E-01
       -2   -1    0    0    0  501  0.00000000000E+00  0.00000000000E+00  0.17771599770E+04  0.17771599770E+04  0.25500000920E-02 0.  1.
        2   -1    0    0  501    0  0.00000000000E+00  0.00000000000E+00 -0.19257115497E+04  0.19257115497E+04  0.25500000920E-02 0. -1.
    10030    2    1    2    0    0  0.00000000000E+00  0.00000000000E+00 -0.14855157272E+03  0.37028715267E+04  0.36998905353E+04 0.  0.
        4    1    3    3  502    0  0.17942255862E+04  0.30540493758E+03  0.25731917366E+03  0.18381328571E+04  0.12699999809E+01 0.  1.
       -4    1    3    3    0  502 -0.17942255862E+04 -0.30540493758E+03 -0.40587074637E+03  0.18647386696E+04  0.12699999809E+01 0. -1.
</event>
<event>
 5   0  0.5714125E-09  0.3702498E+04  0.7818609E-02  0.8067408E-01
        1   -1    0    0  501    0  0.00000000000E+00  0.00000000000E+00  0.24463051733E+04  0.24463051733E+04  0.50400001928E-02 0. -1.
       -1   -1    0    0    0  501  0.00000000000E+00  0.00000000000E+00 -0.14009383311E+04  0.14009383311E+04  0.50400001928E-02 0.  1.
    10030    2    1    2    0    0  0.00000000000E+00  0.00000000000E+00  0.10453668422E+04  0.38472435045E+04  0.37024979066E+04 0.  0.
        5    1    3    3  502    0  0.47426090384E+03 -0.16777037223E+04 -0.12413689591E+03  0.17478687718E+04  0.46999998093E+01 0.  1.
       -5    1    3    3    0  502 -0.47426090384E+03  0.16777037223E+04  0.11695037381E+04  0.20993747327E+04  0.46999998093E+01 0. -1.
</event>
<event>
 5   0  0.1757996E-08  0.3699762E+04  0.7818609E-02  0.8068015E-01
       -2   -1    0    0    0  501  0.00000000000E+00  0.00000000000E+00  0.20566015207E+04  0.20566015207E+04  0.25500000920E-02 0.  1.
        2   -1    0    0  501    0  0.00000000000E+00  0.00000000000E+00 -0.16639392516E+04  0.16639392516E+04  0.25500000920E-02 0. -1.
    10030    2    1    2    0    0  0.00000000000E+00  0.00000000000E+00  0.39266226908E+03  0.37205407723E+04  0.36997621520E+04 0.  0.
        3    1    3    3  502    0 -0.28832811099E+03 -0.98185443177E+03 -0.13533912244E+04  0.16967141896E+04  0.10100000352E+00 0. -1.
       -3    1    3    3    0  502  0.28832811099E+03  0.98185443177E+03  0.17460534934E+04  0.20238265827E+04  0.10100000352E+00 0.  1.
</event>
<event>
 5   0  0.1856107E-08  0.3698219E+04  0.7818609E-02  0.8068357E-01
        2   -1    0    0  501    0  0.00000000000E+00  0.00000000000E+00  0.30826310795E+04  0.30826310795E+04  0.25500000920E-02 0.  1.
       -2   -1    0    0    0  501  0.00000000000E+00  0.00000000000E+00 -0.11091844151E+04  0.11091844151E+04  0.25500000920E-02 0. -1.
    10030    2    1    2    0    0  0.00000000000E+00  0.00000000000E+00  0.19734466644E+04  0.41918154946E+04  0.36982192206E+04 0.  0.
        2    1    3    3  502    0  0.14653566447E+04  0.25530822350E+03 -0.25841864486E+03  0.15097127479E+04  0.25500000920E-02 0. -1.
       -2    1    3    3    0  502 -0.14653566447E+04 -0.25530822350E+03  0.22318653093E+04  0.26821027467E+04  0.25500000920E-02 0.  1.
</event>
<event>
 5   0  0.5714125E-09  0.3700190E+04  0.7818609E-02  0.8067920E-01
        1   -1    0    0  501    0  0.00000000000E+00  0.00000000000E+00  0.18388419937E+04  0.18388419937E+04  0.50400001928E-02 0. -1.
       -1   -1    0    0    0  501  0.00000000000E+00  0.00000000000E+00 -0.18614171143E+04  0.18614171143E+04  0.50400001928E-02 0.  1.
    10030    2    1    2    0    0  0.00000000000E+00  0.00000000000E+00 -0.22575120541E+02  0.37002591080E+04  0.37001902425E+04 0.  0.
        3    1    3    3  502    0  0.10342265680E+04  0.58175257875E+03 -0.14307474178E+04  0.18587896171E+04  0.10100000352E+00 0.  1.
       -3    1    3    3    0  502 -0.10342265680E+04 -0.58175257875E+03  0.14081722973E+04  0.18414694909E+04  0.10100000352E+00 0. -1.
</event>
<event>
 5   0  0.1740290E-08  0.3694872E+04  0.7818609E-02  0.8069099E-01
       -2   -1    0    0    0  501  0.00000000000E+00  0.00000000000E+00  0.18889648387E+04  0.18889648387E+04  0.25500000920E-02 0.  1.
        2   -1    0    0  501    0  0.00000000000E+00  0.00000000000E+00 -0.18068205134E+04  0.18068205134E+04  0.25500000920E-02 0. -1.
    10030    2    1    2    0    0  0.00000000000E+00  0.00000000000E+00  0.82144325322E+02  0.36957853521E+04  0.36948723494E+04 0.  0.
        5    1    3    3  502    0  0.13706227683E+04  0.12111159206E+04 -0.21897243033E+03  0.18421127983E+04  0.46999998093E+01 0. -1.
       -5    1    3    3    0  502 -0.13706227683E+04 -0.12111159206E+04  0.30111675565E+03  0.18536725538E+04  0.46999998093E+01 0.  1.
</event>
<event>
 5   0  0.1856107E-08  0.3698603E+04  0.7818609E-02  0.8068271E-01
       -2   -1    0    0    0  501  0.00000000000E+00  0.00000000000E+00  0.30698026089E+04  0.30698026089E+04  0.25500000920E-02 0. -1.
        2   -1    0    0  501    0  0.00000000000E+00  0.00000000000E+00 -0.11140509141E+04  0.11140509142E+04  0.25500000920E-02 0.  1.
    10030    2    1    2    0    0  0.00000000000E+00  0.00000000000E+00  0.19557516948E+04  0.41838535231E+04  0.36986031973E+04 0.  0.
        2    1    3    3  502    0 -0.19293709777E+03 -0.18363720503E+04  0.86235301957E+03  0.20379253571E+04  0.25500000920E-02 0.  1.
       -2    1    3    3    0  502  0.19293709777E+03  0.18363720503E+04  0.10933986752E+04  0.21459281660E+04  0.25500000920E-02 0. -1.
</event>
<event>
 5   0  0.5714125E-09  0.3696310E+04  0.7818609E-02  0.8068780E-01
       -1   -1    0    0    0  501  0.00000000000E+00  0.00000000000E+00  0.12920270716E+04  0.12920270716E+04  0.50400001928E-02 0.  1.
        1   -1    0    0  501    0  0.00000000000E+00  0.00000000000E+00 -0.26436569303E+04  0.26436569304E+04  0.50400001928E-02 0. -1.
    10030    2    1    2    0    0  0.00000000000E+00  0.00000000000E+00 -0.13516298587E+04  0.39356840020E+04  0.36963096852E+04 0.  0.
        1    1    3    3  502    0 -0.31746515445E+03  0.17956840608E+04 -0.35565837960E+03  0.18578908078E+04  0.50400001928E-02 0. -1.
       -1    1    3    3    0  502  0.31746515445E+03 -0.17956840608E+04 -0.99597147911E+03  0.20777931942E+04  0.50400001928E-02 0.  1.
</event>
<event>
 5   0  0.1740290E-08  0.3699268E+04  0.7818609E-02  0.8068124E-01
        2   -1    0    0  501    0  0.00000000000E+00  0.00000000000E+00  0.30269375847E+04  0.30269375847E+04  0.25500000920E-02 0.  1.
       -2   -1    0    0    0  501  0.00000000000E+00  0.00000000000E+00 -0.11302333450E+04  0.11302333450E+04  0.25500000920E-02 0. -1.
    10030    2    1    2    0    0  0.00000000000E+00  0.00000000000E+00  0.18967042397E+04  0.41571709297E+04  0.36992679230E+04 0.  0.
        5    1    3    3  502    0  0.14094812063E+04 -0.98506637591E+03  0.17139526523E+04  0.24278897875E+04  0.46999998093E+01 0.  1.
       -5    1    3    3    0  502 -0.14094812063E+04  0.98506637591E+03  0.18275158732E+03  0.17292811422E+04  0.46999998093E+01 0. -1.
</event>
<event>
 5   0  0.1740290E-08  0.3697916E+04  0.7818609E-02  0.8068424E-01
       -2   -1    0    0    0  501  0.00000000000E+00  0.00000000000E+00  0.13170668722E+04  0.13170668722E+04  0.25500000920E-02 0.  1.
        2   -1    0    0  501    0  0.00000000000E+00  0.00000000000E+00 -0.25956510181E+04  0.25956510181E+04  0.25500000920E-02 0. -1.
    10030    2    1    2    0    0  0.00000000000E+00  0.00000000000E+00 -0.12785841459E+04  0.39127178902E+04  0.36979161524E+04 0.  0.
        5    1    3    3  502    0  0.81622126614E+03 -0.54381280520E+03 -0.22977149219E+04  0.24982925118E+04  0.46999998093E+01 0. -1.
       -5    1    3    3    0  502 -0.81622126614E+03  0.54381280520E+03  0.10191307760E+04  0.14144253784E+04  0.46999998093E+01 0.  1.
</event>
<event>
 5   0  0.1757996E-08  0.3700471E+04  0.7818609E-02  0.8067857E-01
        2   -1    0    0  501    0  0.00000000000E+00  0.00000000000E+00  0.32089306668E+04  0.32089306668E+04  0.25500000920E-02 0. -1.
       -2   -1    0    0    0  501  0.00000000000E+00  0.00000000000E+00 -0.10668264486E+04  0.10668264486E+04  0.25500000920E-02 0.  1.
    10030    2    1    2    0    0  0.00000000000E+00  0.00000000000E+00  0.21421042182E+04  0.42757571153E+04  0.37004713791E+04 0.  0.
        3    1    3    3  502    0 -0.13217568198E+04  0.46989036367E+03 -0.32296197840E+03  0.14394938327E+04  0.10100000352E+00 0.  1.
       -3    1    3    3    0  502  0.13217568198E+04 -0.46989036367E+03  0.24650661966E+04  0.28362632827E+04  0.10100000352E+00 0. -1.
</event>
<event>
 5   0  0.5714125E-09  0.3699781E+04  0.7818609E-02  0.8068010E-01
       -1   -1    0    0    0  501  0.00000000000E+00  0.00000000000E+00  0.20469368464E+04  0.20469368464E+04  0.50400001928E-02 0.  1.
        1   -1    0    0  501    0  0.00000000000E+00  0.00000000000E+00 -0.16718123887E+04  0.16718123887E+04  0.50400001928E-02 0. -1.
    10030    2    1    2    0    0  0.00000000000E+00  0.00000000000E+00  0.37512445766E+03  0.37187492351E+04  0.36997807387E+04 0.  0.
        2    1    3    3  502    0  0.76615906825E+03 -0.76321025092E+03 -0.13210006148E+04  0.17072001140E+04  0.25500000920E-02 0. -1.
       -2    1    3    3    0  502 -0.76615906825E+03  0.76321025092E+03  0.16961250725E+04  0.20115491211E+04  0.25500000920E-02 0.  1.
</event>
<event>
 5   0  0.5714125E-09  0.3699308E+04  0.7818609E-02  0.8068115E-01
       -1   -1    0    0    0  501  0.00000000000E+00  0.00000000000E+00  0.15708451911E+04  0.15708451911E+04  0.50400001928E-02 0.  1.
        1   -1    0    0  501    0  0.00000000000E+00  0.00000000000E+00 -0.21779481562E+04  0.21779481562E+04  0.50400001928E-02 0. -1.
    10030    2    1    2    0    0  0.00000000000E+00  0.00000000000E+00 -0.60710296509E+03  0.37487933474E+04  0.36993077124E+04 0.  0.
        5    1    3    3  502    0  0.16235768509E+04 -0.40128420448E+03 -0.11041619585E+04  0.20040525253E+04  0.46999998093E+01 0. -1.
       -5    1    3    3    0  502 -0.16235768509E+04  0.40128420448E+03  0.49705899340E+03  0.17447408221E+04  0.46999998093E+01 0.  1.
</event>
<event>
 5   0  0.1856107E-08  0.3699620E+04  0.7818609E-02  0.8068046E-01
        2   -1    0    0  501    0  0.00000000000E+00  0.00000000000E+00  0.30297655556E+04  0.30297655556E+04  0.25500000920E-02 0. -1.
       -2   -1    0    0    0  501  0.00000000000E+00  0.00000000000E+00 -0.11293932252E+04  0.11293932252E+04  0.25500000920E-02 0.  1.
    10030    2    1    2    0    0  0.00000000000E+00  0.00000000000E+00  0.19003723305E+04  0.41591587808E+04  0.36996198142E+04 0.  0.
        2    1    3    3  502    0 -0.10327781107E+04  0.14763995647E+04  0.14210291052E+04  0.22947134938E+04  0.25500000920E-02 0. -1.
       -2    1    3    3    0  502  0.10327781107E+04 -0.14763995647E+04  0.47934322523E+03  0.18644452870E+04  0.25500000920E-02 0.  1.
</event>
<event>
 5   0  0.1725865E-08  0.3700449E+04  0.7818609E-02  0.8067862E-01
       -2   -1    0    0    0  501  0.00000000000E+00  0.00000000000E+00  0.14205552835E+04  0.14205552835E+04  0.25500000920E-02 0. -1.
        2   -1    0    0  501    0  0.00000000000E+00  0.00000000000E+00 -0.24098533412E+04  0.24098533412E+04  0.25500000920E-02 0.  1.
    10030    2    1    2    0    0  0.00000000000E+00  0.00000000000E+00 -0.98929805765E+03  0.38304086247E+04  0.37004485654E+04 0.  0.
        1    1    3    3  502    0  0.11563880670E+04 -0.12769930276E+04 -0.11931713016E+04  0.20956150192E+04  0.50400001928E-02 0.  1.
       -1    1    3    3    0  502 -0.11563880670E+04  0.12769930276E+04  0.20387324397E+03  0.17347936055E+04  0.50400001928E-02 0. -1.
</event>
<event>
 5   0  0.5714125E-09  0.3699568E+04  0.7818609E-02  0.8068058E-01
        1   -1    0    0  501    0  0.00000000000E+00  0.00000000000E+00  0.21057401537E+04  0.21057401537E+04  0.50400001928E-02 0. -1.
       -1   -1    0    0    0  501  0.00000000000E+00  0.00000000000E+00 -0.16249395107E+04  0.16249395107E+04  0.50400001928E-02 0.  1.
    10030    2    1    2    0    0  0.00000000000E+00  0.00000000000E+00  0.48080064304E+03  0.37306796644E+04  0.36995677450E+04 0.  0.
        2    1    3    3  502    0 -0.85952090465E+03  0.45268738109E+03 -0.13470037127E+04  0.16607591796E+04  0.25500000920E-02 0.  1.
       -2    1    3    3    0  502  0.85952090465E+03 -0.45268738109E+03  0.18278043557E+04  0.20699204848E+04  0.25500000920E-02 0. -1.
</event>
<event>
 5   0  0.5714125E-09  0.3699637E+04  0.7818609E-02  0.8068042E-01
        1   -1    0    0  501    0  0.00000000000E+00  0.00000000000E+00  0.19682427238E+04  0.19682427239E+04  0.50400001928E-02 0.  1.
       -1   -1    0    0    0  501  0.00000000000E+00  0.00000000000E+00 -0.17385195510E+04  0.17385195510E+04  0.50400001928E-02 0. -1.
    10030    2    1    2    0    0  0.00000000000E+00  0.00000000000E+00  0.22972317288E+03  0.37067622748E+04  0.36996369857E+04 0.  0.
        3    1    3    3  502    0  0.74478138609E+03 -0.91814567774E+03  0.15403235825E+04  0.19417228298E+04  0.10100000352E+00 0.  1.
       -3    1    3    3    0  502 -0.74478138609E+03  0.91814567774E+03 -0.13106004096E+04  0.17650394450E+04  0.10100000352E+00 0. -1.
</event>
<event>
 5   0  0.1856107E-08  0.3705183E+04  0.7818609E-02  0.8066814E-01
        2   -1    0    0  501    0  0.00000000000E+00  0.00000000000E+00  0.18192036571E+04  0.18192036571E+04  0.25500000920E-02 0.  1.
       -2   -1    0    0    0  501  0.00000000000E+00  0.00000000000E+00 -0.18865919391E+04  0.18865919391E+04  0.25500000920E-02 0. -1.
    10030    2    1    2    0    0  0.00000000000E+00  0.00000000000E+00 -0.67388281984E+02  0.37057955963E+04  0.37051828323E+04 0.  0.
        2    1    3    3  502    0  0.17049637547E+04  0.38669480931E+03  0.57931885945E+03  0.18417504232E+04  0.25500000920E-02 0.  1.
       -2    1    3    3    0  502 -0.17049637547E+04 -0.38669480931E+03 -0.64670714143E+03  0.18640451731E+04  0.25500000920E-02 0. -1.
</event>
<event>
 5   0  0.5714125E-09  0.3700811E+04  0.7818609E-02  0.8067782E-01
        1   -1    0    0  501    0  0.00000000000E+00  0.00000000000E+00  0.20363240408E+04  0.20363240408E+04  0.50400001928E-02 0. -1.
       -1   -1    0    0    0  501  0.00000000000E+00  0.00000000000E+00 -0.16814617710E+04  0.16814617710E+04  0.50400001928E-02 0.  1.
    10030    2    1    2    0    0  0.00000000000E+00  0.00000000000E+00  0.35486226982E+03  0.37177858118E+04  0.37008112776E+04 0.  0.
        1    1    3    3  502    0  0.30056514485E+03 -0.87713922542E+03 -0.14312533038E+04  0.17053441432E+04  0.50400001928E-02 0.  1.
       -1    1    3    3    0  502 -0.30056514485E+03  0.87713922542E+03  0.17861155737E+04  0.20124416686E+04  0.50400001928E-02 0. -1.
</event>
<event>
 5   0  0.5714125E-09  0.3699985E+04  0.7818609E-02  0.8067965E-01
        1   -1    0    0  501    0  0.00000000000E+00  0.00000000000E+00  0.17376334640E+04  0.17376334640E+04  0.50400001928E-02 0. -1.
       -1   -1    0    0    0  501  0.00000000000E+00  0.00000000000E+00 -0.19696171118E+04  0.19696171118E+04  0.50400001928E-02 0.  1.
    10030    2    1    2    0    0  0.00000000000E+00  0.00000000000E+00 -0.23198364776E+03  0.37072505758E+04  0.36999851917E+04 0.  0.
        1    1    3    3  502    0 -0.11257705422E+04 -0.10024280397E+04 -0.11905955072E+04  0.19208693215E+04  0.50400001928E-02 0.  1.
       -1    1    3    3    0  502  0.11257705422E+04  0.10024280397E+04  0.95861185949E+03  0.17863812543E+04  0.50400001928E-02 0. -1.
</event>
<event>
 5   0  0.5714125E-09  0.3699983E+04  0.7818609E-02  0.8067966E-01
       -1   -1    0    0    0  501  0.00000000000E+00  0.00000000000E+00  0.17401456288E+04  0.17401456288E+04  0.50400001928E-02 0. -1.
        1   -1    0    0  501    0  0.00000000000E+00  0.00000000000E+00 -0.19667710906E+04  0.19667710906E+04  0.50400001928E-02 0.  1.
    10030    2    1    2    0    0  0.00000000000E+00  0.00000000000E+00 -0.22662546185E+03  0.37069167194E+04  0.36999827655E+04 0.  0.
        2    1    3    3  502    0  0.16813630386E+04 -0.69821786025E+03 -0.44252901380E+03  0.18735852732E+04  0.25500000920E-02 0. -1.
       -2    1    3    3    0  502 -0.16813630386E+04  0.69821786025E+03  0.21590355195E+03  0.18333314462E+04  0.25500000920E-02 0.  1.
</event>
<event>
 5   0  0.1825308E-08  0.3696377E+04  0.7818609E-02  0.8068765E-01
       -2   -1    0    0    0  501  0.00000000000E+00  0.00000000000E+00  0.12413642125E+04  0.12413642125E+04  0.25500000920E-02 0.  1.
        2   -1    0    0  501    0  0.00000000000E+00  0.00000000000E+00 -0.27516507315E+04  0.27516507315E+04  0.25500000920E-02 0. -1.
    10030    2    1    2    0    0  0.00000000000E+00  0.00000000000E+00 -0.15102865190E+04  0.39930149440E+04  0.36963770064E+04 0.  0.
        4    1    3    3  502    0  0.11463428511E+04 -0.25000566768E+03 -0.22977456025E+04  0.25799692310E+04  0.12699999809E+01 0. -1.
       -4    1    3    3    0  502 -0.11463428511E+04  0.25000566768E+03  0.78745908346E+03  0.14130457130E+04  0.12699999809E+01 0.  1.
</event>
<event>
 5   0  0.1740290E-08  0.3699570E+04  0.7818609E-02  0.8068057E-01
        2   -1    0    0  501    0  0.00000000000E+00  0.00000000000E+00  0.21817566770E+04  0.21817566770E+04  0.25500000920E-02 0. -1.
       -2   -1    0    0    0  501  0.00000000000E+00  0.00000000000E+00 -0.15683253176E+04  0.15683253176E+04  0.25500000920E-02 0.  1.
    10030    2    1    2    0    0  0.00000000000E+00  0.00000000000E+00  0.61343135938E+03  0.37500819947E+04  0.36995698309E+04 0.  0.
        5    1    3    3  502    0  0.16295583351E+04 -0.68215796429E+03 -0.24930103297E+03  0.17840888293E+04  0.46999998093E+01 0.  1.
       -5    1    3    3    0  502 -0.16295583351E+04  0.68215796429E+03  0.86273239235E+03  0.19659931654E+04  0.46999998093E+01 0. -1.
</event>
<event>
 5   0  0.1825308E-08  0.3701801E+04  0.7818609E-02  0.8067563E-01
       -2   -1    0    0    0  501  0.00000000000E+00  0.00000000000E+00  0.14063351879E+04  0.14063351879E+04  0.25500000920E-02 0. -1.
        2   -1    0    0  501    0  0.00000000000E+00  0.00000000000E+00 -0.24360002977E+04  0.24360002977E+04  0.25500000920E-02 0.  1.
    10030    2    1    2    0    0  0.00000000000E+00  0.00000000000E+00 -0.10296651099E+04  0.38423354856E+04  0.37018011488E+04 0.  0.
        4    1    3    3  502    0  0.71370276383E+03  0.15903037684E+04 -0.11608710899E+04  0.20942924847E+04  0.12699999809E+01 0.  1.
       -4    1    3    3    0  502 -0.71370276383E+03 -0.15903037684E+04  0.13120598003E+03  0.17480430009E+04  0.12699999809E+01 0. -1.
</event>
<event>
 5   0  0.1725865E-08  0.3705992E+04  0.7818609E-02  0.8066635E-01
       -2   -1    0    0    0  501  0.00000000000E+00  0.00000000000E+00  0.15114913677E+04  0.15114913678E+04  0.25500000920E-02 0. -1.
        2   -1    0    0  501    0  0.00000000000E+00  0.00000000000E+00 -0.22716597070E+04  0.22716597070E+04  0.25500000920E-02 0.  1.
    10030    2    1    2    0    0  0.00000000000E+00  0.00000000000E+00 -0.76016833924E+03  0.37831510747E+04  0.37059919253E+04 0.  0.
        1    1    3    3  502    0 -0.11180837330E+04  0.56127496833E+02 -0.18874219370E+04  0.21944528015E+04  0.50400001928E-02 0.  1.
       -1    1    3    3    0  502  0.11180837330E+04 -0.56127496833E+02  0.11272535977E+04  0.15886982733E+04  0.50400001928E-02 0. -1.
</event>
<event>
 5   0  0.1740290E-08  0.3703580E+04  0.7818609E-02  0.8067169E-01
       -2   -1    0    0    0  501  0.00000000000E+00  0.00000000000E+00  0.18924239225E+04  0.18924239225E+04  0.25500000920E-02 0.  1.
        2   -1    0    0  501    0  0.00000000000E+00  0.00000000000E+00 -0.18120283175E+04  0.18120283175E+04  0.25500000920E-02 0. -1.
    10030    2    1    2    0    0  0.00000000000E+00  0.00000000000E+00  0.80395605040E+02  0.37044522401E+04  0.37035797474E+04 0.  0.
        5    1    3    3  502    0  0.14511373914E+04 -0.55718043742E+03 -0.96644570536E+03  0.18303795126E+04  0.46999998093E+01 0. -1.
       -5    1    3    3    0  502 -0.14511373914E+04  0.55718043742E+03  0.10468413104E+04  0.18740727275E+04  0.46999998093E+01 0.  1.
</event>
<event>
 5   0  0.1757996E-08  0.3712477E+04  0.7818609E-02  0.8065202E-01
       -2   -1    0    0    0  501  0.00000000000E+00  0.00000000000E+00  0.14058910636E+04  0.14058910636E+04  0.25500000920E-02 0. -1.
        2   -1    0    0  501    0  0.00000000000E+00  0.00000000000E+00 -0.24508447266E+04  0.24508447266E+04  0.25500000920E-02 0.  1.
    10030    2    1    2    0    0  0.00000000000E+00  0.00000000000E+00 -0.10449536630E+04  0.38567357902E+04  0.37124766393E+04 0.  0.
        3    1    3    3  502    0  0.71351547381E+03 -0.89932402910E+03 -0.20378328818E+04  0.23389422620E+04  0.10100000352E+00 0.  1.
       -3    1    3    3    0  502 -0.71351547381E+03  0.89932402910E+03  0.99287921883E+03  0.15177935281E+04  0.10100000352E+00 0. -1.
</event>
<event>
 5   0  0.1825308E-08  0.3700013E+04  0.7818609E-02  0.8067959E-01
        2   -1    0    0  501    0  0.00000000000E+00  0.00000000000E+00  0.29178986918E+04  0.29178986918E+04  0.25500000920E-02 0.  1.
       -2   -1    0    0    0  501  0.00000000000E+00  0.00000000000E+00 -0.11729414086E+04  0.11729414086E+04  0.25500000920E-02 0. -1.
    10030    2    1    2    0    0  0.00000000000E+00  0.00000000000E+00  0.17449572832E+04  0.40908401004E+04  0.37000130820E+04 0.  0.
        4    1    3    3  502    0 -0.43640168801E+03  0.13250809932E+03  0.28547685024E+04  0.28909703639E+04  0.12699999809E+01 0.  1.
       -4    1    3    3    0  502  0.43640168801E+03 -0.13250809932E+03 -0.11098112192E+04  0.11998697366E+04  0.12699999809E+01 0. -1.
</event>
<event>
 5   0  0.5714125E-09  0.3700963E+04  0.7818609E-02  0.8067748E-01
        1   -1    0    0  501    0  0.00000000000E+00  0.00000000000E+00  0.25661581459E+04  0.25661581459E+04  0.50400001928E-02 0.  1.
       -1   -1    0    0    0  501  0.00000000000E+00  0.00000000000E+00 -0.13344000275E+04  0.13344000275E+04  0.50400001928E-02 0. -1.
    10030    2    1    2    0    0  0.00000000000E+00  0.00000000000E+00  0.12317581183E+04  0.39005581734E+04  0.37009628479E+04 0.  0.
        3    1    3    3  502    0 -0.14924374073E+04  0.10932794142E+04  0.65871842984E+03  0.19638073409E+04  0.10100000352E+00 0.  1.
       -3    1    3    3    0  502  0.14924374073E+04 -0.10932794142E+04  0.57303968850E+03  0.19367508325E+04  0.10100000352E+00 0. -1.
</event>
<event>
 5   0  0.5714125E-09  0.3700110E+04  0.7818609E-02  0.8067937E-01
        1   -1    0    0  501    0  0.00000000000E+00  0.00000000000E+00  0.20069186072E+04  0.20069186072E+04  0.50400001928E-02 0. -1.
       -1   -1    0    0    0  501  0.00000000000E+00  0.00000000000E+00 -0.17054523068E+04  0.17054523068E+04  0.50400001928E-02 0.  1.
    10030    2    1    2    0    0  0.00000000000E+00  0.00000000000E+00  0.30146630042E+03  0.37123709141E+04  0.37001102515E+04 0.  0.
        2    1    3    3  502    0  0.13465327070E+04 -0.10465374653E+04 -0.56879938327E+03  0.17977551935E+04  0.25500000920E-02 0.  1.
       -2    1    3    3    0  502 -0.13465327070E+04  0.10465374653E+04  0.87026568369E+03  0.19146157206E+04  0.25500000920E-02 0. -1.
</event>
<event>
 5   0  0.5714125E-09  0.3699386E+04  0.7818609E-02  0.8068098E-01
       -1   -1    0    0    0  501  0.00000000000E+00  0.00000000000E+00  0.10860955201E+04  0.10860955201E+04  0.50400001928E-02 0. -1.
        1   -1    0    0  501    0  0.00000000000E+00  0.00000000000E+00 -0.31501500869E+04  0.31501500869E+04  0.50400001928E-02 0.  1.
    10030    2    1    2    0    0  0.00000000000E+00  0.00000000000E+00 -0.20640545668E+04  0.42362456070E+04  0.36993858393E+04 0.  0.
        5    1    3    3  502    0  0.16578118157E+04 -0.42072200756E+03 -0.18385006988E+04  0.25110662941E+04  0.46999998093E+01 0.  1.
       -5    1    3    3    0  502 -0.16578118157E+04  0.42072200756E+03 -0.22555386805E+03  0.17251793128E+04  0.46999998093E+01 0. -1.
</event>
<event>
 5   0  0.1825308E-08  0.3699775E+04  0.7818609E-02  0.8068012E-01
       -2   -1    0    0    0  501  0.00000000000E+00  0.00000000000E+00  0.12728745673E+04  0.12728745673E+04  0.25500000920E-02 0. -1.
        2   -1    0    0  501    0  0.00000000000E+00  0.00000000000E+00 -0.26884693972E+04  0.26884693972E+04  0.25500000920E-02 0.  1.
    10030    2    1    2    0    0  0.00000000000E+00  0.00000000000E+00 -0.14155948299E+04  0.39613439645E+04  0.36997753016E+04 0.  0.
        4    1    3    3  502    0  0.32937915712E+03 -0.19130742912E+03  0.12304311872E+04  0.12880418009E+04  0.12699999809E+01 0. -1.
       -4    1    3    3    0  502 -0.32937915712E+03  0.19130742912E+03 -0.26460260171E+04  0.26733021636E+04  0.12699999809E+01 0.  1.
</event>
<event>
 5   0  0.5714125E-09  0.3702536E+04  0.7818609E-02  0.8067400E-01
       -1   -1    0    0    0  501  0.00000000000E+00  0.00000000000E+00  0.19285899766E+04  0.19285899766E+04  0.50400001928E-02 0.  1.
        1   -1    0    0  501    0  0.00000000000E+00  0.00000000000E+00 -0.17770465241E+04  0.17770465241E+04  0.50400001928E-02 0. -1.
    10030    2    1    2    0    0  0.00000000000E+00  0.00000000000E+00  0.15154345247E+03  0.37056365007E+04  0.37025364896E+04 0.  0.
        1    1    3    3  502    0 -0.14007529554E+04  0.69690246393E+03 -0.91470945643E+03  0.18123121354E+04  0.50400001928E-02 0. -1.
       -1    1    3    3    0  502  0.14007529554E+04 -0.69690246393E+03  0.10662529089E+04  0.18933243653E+04  0.50400001928E-02 0.  1.
</event>
<event>
 5   0  0.5714125E-09  0.3699864E+04  0.7818609E-02  0.8067992E-01
       -1   -1    0    0    0  501  0.00000000000E+00  0.00000000000E+00  0.13425475975E+04  0.13425475975E+04  0.50400001928E-02 0. -1.
        1   -1    0    0  501    0  0.00000000000E+00  0.00000000000E+00 -0.25490704837E+04  0.25490704837E+04  0.50400001928E-02 0.  1.
    10030    2    1    2    0    0  0.00000000000E+00  0.00000000000E+00 -0.12065228862E+04  0.38916180813E+04  0.36998640266E+04 0.  0.
        5    1    3    3  502    0  0.92567256934E+03 -0.11255741468E+04 -0.18018091021E+04  0.23173961673E+04  0.46999998093E+01 0.  1.
       -5    1    3    3    0  502 -0.92567256934E+03  0.11255741468E+04  0.59528621595E+03  0.15742219140E+04  0.46999998093E+01 0. -1.
</event>
<event>
 5   0  0.5714125E-09  0.3698167E+04  0.7818609E-02  0.8068368E-01
        1   -1    0    0  501    0  0.00000000000E+00  0.00000000000E+00  0.27329899474E+04  0.27329899474E+04  0.50400001928E-02 0. -1.
       -1   -1    0    0    0  501  0.00000000000E+00  0.00000000000E+00 -0.12510508333E+04  0.12510508333E+04  0.50400001928E-02 0.  1.
    10030    2    1    2    0    0  0.00000000000E+00  0.00000000000E+00  0.14819391141E+04  0.39840407807E+04  0.36981667627E+04 0.  0.
        1    1    3    3  502    0  0.33045881354E+03  0.12583165148E+03  0.26962266739E+04  0.27193151544E+04  0.50400001928E-02 0. -1.
       -1    1    3    3    0  502 -0.33045881354E+03 -0.12583165148E+03 -0.12142875598E+04  0.12647256263E+04  0.50400001928E-02 0.  1.
</event>
<event>
 5   0  0.5714125E-09  0.3699852E+04  0.7818609E-02  0.8067995E-01
       -1   -1    0    0    0  501  0.00000000000E+00  0.00000000000E+00  0.18586321973E+04  0.18586321973E+04  0.50400001928E-02 0.  1.
        1   -1    0    0  501    0  0.00000000000E+00  0.00000000000E+00 -0.18412608329E+04  0.18412608329E+04  0.50400001928E-02 0. -1.
    10030    2    1    2    0    0  0.00000000000E+00  0.00000000000E+00  0.17371364407E+02  0.36998930302E+04  0.36998522498E+04 0.  0.
        2    1    3    3  502    0 -0.18375832905E+02  0.63794604589E+03  0.17450555452E+04  0.18580989436E+04  0.25500000920E-02 0.  1.
       -2    1    3    3    0  502  0.18375832905E+02 -0.63794604589E+03 -0.17276841807E+04  0.18417940865E+04  0.25500000920E-02 0. -1.
</event>
<event>
 5   0  0.1740290E-08  0.3700364E+04  0.7818609E-02  0.8067881E-01
       -2   -1    0    0    0  501  0.00000000000E+00  0.00000000000E+00  0.27120396242E+04  0.27120396242E+04  0.25500000920E-02 0. -1.
        2   -1    0    0  501    0  0.00000000000E+00  0.00000000000E+00 -0.12622138535E+04  0.12622138535E+04  0.25500000920E-02 0.  1.
    10030    2    1    2    0    0  0.00000000000E+00  0.00000000000E+00  0.14498257707E+04  0.39742534777E+04  0.37003642982E+04 0.  0.
        5    1    3    3  502    0  0.11573340314E+04 -0.25642811521E+03 -0.80078629562E+03  0.14305447284E+04  0.46999998093E+01 0.  1.
       -5    1    3    3    0  502 -0.11573340314E+04  0.25642811521E+03  0.22506120663E+04  0.25437087493E+04  0.46999998093E+01 0. -1.
</event>
<event>
 5   0  0.1825308E-08  0.3679341E+04  0.7818609E-02  0.8072556E-01
       -2   -1    0    0    0  501  0.00000000000E+00  0.00000000000E+00  0.22099060837E+04  0.22099060837E+04  0.25500000920E-02 0. -1.
        2   -1    0    0  501    0  0.00000000000E+00  0.00000000000E+00 -0.15314623983E+04  0.15314623983E+04  0.25500000920E-02 0.  1.
    10030    2    1    2    0    0  0.00000000000E+00  0.00000000000E+00  0.67844368542E+03  0.37413684820E+04  0.36793412840E+04 0.  0.
        4    1    3    3  502    0 -0.10439805447E+04 -0.14584995813E+04  0.75510325076E+03  0.19460983887E+04  0.12699999809E+01 0. -1.
       -4    1    3    3    0  502  0.10439805447E+04  0.14584995813E+04 -0.76659565334E+02  0.17952700933E+04  0.12699999809E+01 0.  1.
</event>
<event>
 5   0  0.5714125E-09  0.3699548E+04  0.7818609E-02  0.8068062E-01
        1   -1    0    0  501    0  0.00000000000E+00  0.00000000000E+00  0.14758966026E+04  0.14758966026E+04  0.50400001928E-02 0.  1.
       -1   -1    0    0    0  501  0.00000000000E+00  0.00000000000E+00 -0.23183627558E+04  0.23183627558E+04  0.50400001928E-02 0. -1.
    10030    2    1    2    0    0  0.00000000000E+00  0.00000000000E+00 -0.84246615317E+03  0.37942593584E+04  0.36995479263E+04 0.  0.
        3    1    3    3  502    0 -0.10999533556E+04  0.45394093362E+02 -0.19457967724E+04  0.22356393041E+04  0.10100000352E+00 0. -1.
       -3    1    3    3    0  502  0.10999533556E+04 -0.45394093362E+02  0.11033306192E+04  0.15586200543E+04  0.10100000352E+00 0.  1.
</event>
<event>
 5   0  0.5714125E-09  0.3702309E+04  0.7818609E-02  0.8067450E-01
        1   -1    0    0  501    0  0.00000000000E+00  0.00000000000E+00  0.12527489188E+04  0.12527489188E+04  0.50400001928E-02 0.  1.
       -1   -1    0    0    0  501  0.00000000000E+00  0.00000000000E+00 -0.27354028835E+04  0.27354028835E+04  0.50400001928E-02 0. -1.
    10030    2    1    2    0    0  0.00000000000E+00  0.00000000000E+00 -0.14826539647E+04  0.39881518023E+04  0.37023090118E+04 0.  0.
        2    1    3    3  502    0  0.10891466904E+04  0.39331129248E+03 -0.22970754394E+04  0.25724482230E+04  0.25500000920E-02 0. -1.
       -2    1    3    3    0  502 -0.10891466904E+04 -0.39331129248E+03  0.81442147465E+03  0.14157035793E+04  0.25500000920E-02 0.  1.
</event>
<event>
 5   0  0.1825308E-08  0.3705752E+04  0.7818609E-02  0.8066688E-01
       -2   -1    0    0    0  501  0.00000000000E+00  0.00000000000E+00  0.14618562457E+04  0.14618562457E+04  0.25500000920E-02 0.  1.
        2   -1    0    0  501    0  0.00000000000E+00  0.00000000000E+00 -0.23484864500E+04  0.23484864500E+04  0.25500000920E-02 0. -1.
    10030    2    1    2    0    0  0.00000000000E+00  0.00000000000E+00 -0.88663020435E+03  0.38103426957E+04  0.37057520613E+04 0.  0.
        4    1    3    3  502    0  0.87209841769E+03 -0.22226576412E+03 -0.21086537970E+04  0.22926796917E+04  0.12699999809E+01 0. -1.
       -4    1    3    3    0  502 -0.87209841769E+03  0.22226576412E+03  0.12220235927E+04  0.15176630041E+04  0.12699999809E+01 0.  1.
</event>
<event>
 5   0  0.5714125E-09  0.3701688E+04  0.7818609E-02  0.8067588E-01
       -1   -1    0    0    0  501  0.00000000000E+00  0.00000000000E+00  0.15265864542E+04  0.15265864542E+04  0.50400001928E-02 0. -1.
        1   -1    0    0  501    0  0.00000000000E+00  0.00000000000E+00 -0.22439759109E+04  0.22439759109E+04  0.50400001928E-02 0.  1.
    10030    2    1    2    0    0  0.00000000000E+00  0.00000000000E+00 -0.71738945677E+03  0.37705623651E+04  0.37016878470E+04 0.  0.
        1    1    3    3  502    0  0.90912910974E+03  0.11371666753E+04  0.80535405265E+03  0.16638085634E+04  0.50400001928E-02 0. -1.
       -1    1    3    3    0  502 -0.90912910974E+03 -0.11371666753E+04 -0.15227435094E+04  0.21067538017E+04  0.50400001928E-02 0.  1.
</event>
<event>
 5   0  0.1725865E-08  0.3699815E+04  0.7818609E-02  0.8068003E-01
       -2   -1    0    0    0  501  0.00000000000E+00  0.00000000000E+00  0.14603656021E+04  0.14603656021E+04  0.25500000920E-02 0. -1.
        2   -1    0    0  501    0  0.00000000000E+00  0.00000000000E+00 -0.23433566962E+04  0.23433566962E+04  0.25500000920E-02 0.  1.
    10030    2    1    2    0    0  0.00000000000E+00  0.00000000000E+00 -0.88299109410E+03  0.38037222983E+04  0.36998148670E+04 0.  0.
        1    1    3    3  502    0 -0.32921759413E+03  0.30260835519E+02  0.14297474654E+04  0.14674732561E+04  0.50400001928E-02 0. -1.
       -1    1    3    3    0  502  0.32921759413E+03 -0.30260835519E+02 -0.23127385595E+04  0.23362490422E+04  0.50400001928E-02 0.  1.
</event>
<event>
 5   0  0.5714125E-09  0.3700248E+04  0.7818609E-02  0.8067907E-01
        1   -1    0    0  501    0  0.00000000000E+00  0.00000000000E+00  0.23812814963E+04  0.23812814963E+04  0.50400001928E-02 0.  1.
       -1   -1    0    0    0  501  0.00000000000E+00  0.00000000000E+00 -0.14374441291E+04  0.14374441291E+04  0.50400001928E-02 0. -1.
    10030    2    1    2    0    0  0.00000000000E+00  0.00000000000E+00  0.94383736717E+03  0.38187256253E+04  0.37002481574E+04 0.  0.
        1    1    3    3  502    0 -0.17745089817E+04 -0.44768473434E+03  0.75200363752E+03  0.19785886936E+04  0.50400001928E-02 0.  1.
       -1    1    3    3    0  502  0.17745089817E+04  0.44768473434E+03  0.19183372965E+03  0.18401369317E+04  0.50400001928E-02 0. -1.
</event>
<event>
 5   0  0.5714125E-09  0.3725855E+04  0.7818609E-02  0.8062256E-01
        1   -1    0    0  501    0  0.00000000000E+00  0.00000000000E+00  0.20788438336E+04  0.20788438336E+04  0.50400001928E-02 0.  1.
       -1   -1    0    0    0  501  0.00000000000E+00  0.00000000000E+00 -0.16694366740E+04  0.16694366740E+04  0.50400001928E-02 0. -1.
    10030    2    1    2    0    0  0.00000000000E+00  0.00000000000E+00  0.40940715958E+03  0.37482805076E+04  0.37258546055E+04 0.  0.
        1    1    3    3  502    0  0.15494574760E+04  0.71912320896E+03 -0.54310186463E+03  0.17924609605E+04  0.50400001928E-02 0. -1.
       -1    1    3    3    0  502 -0.15494574760E+04 -0.71912320896E+03  0.95250902421E+03  0.19558195471E+04  0.50400001928E-02 0.  1.
</event>
<event>
 5   0  0.1757996E-08  0.3698013E+04  0.7818609E-02  0.8068402E-01
        2   -1    0    0  501    0  0.00000000000E+00  0.00000000000E+00  0.14237051393E+04  0.14237051393E+04  0.25500000920E-02 0.  1.
       -2   -1    0    0    0  501  0.00000000000E+00  0.00000000000E+00 -0.24013568819E+04  0.24013568819E+04  0.25500000920E-02 0. -1.
    10030    2    1    2    0    0  0.00000000000E+00  0.00000000000E+00 -0.97765174262E+03  0.38250620212E+04  0.36980125116E+04 0.  0.
        3    1    3    3  502    0  0.16726901900E+04 -0.70906091749E+03 -0.13326563341E+03  0.18216529845E+04  0.10100000352E+00 0. -1.
       -3    1    3    3    0  502 -0.16726901900E+04  0.70906091749E+03 -0.84438610922E+03  0.20034090367E+04  0.10100000352E+00 0.  1.
</event>
<event>
 5   0  0.5714125E-09  0.3701268E+04  0.7818609E-02  0.8067681E-01
       -1   -1    0    0    0  501  0.00000000000E+00  0.00000000000E+00  0.22553220783E+04  0.22553220783E+04  0.50400001928E-02 0. -1.
        1   -1    0    0  501    0  0.00000000000E+00  0.00000000000E+00 -0.15185620717E+04  0.15185620717E+04  0.50400001928E-02 0.  1.
    10030    2    1    2    0    0  0.00000000000E+00  0.00000000000E+00  0.73676000664E+03  0.37738841500E+04  0.37012681975E+04 0.  0.
        5    1    3    3  502    0  0.72158448725E+03 -0.98711149252E+03  0.17847889754E+04  0.21634618202E+04  0.46999998093E+01 0. -1.
       -5    1    3    3    0  502 -0.72158448725E+03  0.98711149252E+03 -0.10480289687E+04  0.16104223298E+04  0.46999998093E+01 0.  1.
</event>
<event>
 5   0  0.1757996E-08  0.3699482E+04  0.7818609E-02  0.8068077E-01
       -2   -1    0    0    0  501  0.00000000000E+00  0.00000000000E+00  0.20262409342E+04  0.20262409342E+04  0.25500000920E-02 0. -1.
        2   -1    0    0  501    0  0.00000000000E+00  0.00000000000E+00 -0.16886155091E+04  0.16886155091E+04  0.25500000920E-02 0.  1.
    10030    2    1    2    0    0  0.00000000000E+00  0.00000000000E+00  0.33762542511E+03  0.37148564433E+04  0.36994820539E+04 0.  0.
        3    1    3    3  502    0  0.10732899195E+04 -0.60498823515E+03  0.15542493208E+04  0.19833438878E+04  0.10100000352E+00 0. -1.
       -3    1    3    3    0  502 -0.10732899195E+04  0.60498823515E+03 -0.12166238957E+04  0.17315125555E+04  0.10100000352E+00 0.  1.
</event>
<event>
 5   0  0.1825308E-08  0.3699770E+04  0.7818609E-02  0.8068013E-01
       -2   -1    0    0    0  501  0.00000000000E+00  0.00000000000E+00  0.22368231360E+04  0.22368231360E+04  0.25500000920E-02 0.  1.
        2   -1    0    0  501    0  0.00000000000E+00  0.00000000000E+00 -0.15298813908E+04  0.15298813909E+04  0.25500000920E-02 0. -1.
    10030    2    1    2    0    0  0.00000000000E+00  0.00000000000E+00  0.70694174517E+03  0.37667045269E+04  0.36997697714E+04 0.  0.
        4    1    3    3  502    0  0.10182883146E+04 -0.60823814489E+03 -0.10917917333E+04  0.16121028300E+04  0.12699999809E+01 0. -1.
       -4    1    3    3    0  502 -0.10182883146E+04  0.60823814489E+03  0.17987334785E+04  0.21546016969E+04  0.12699999809E+01 0.  1.
</event>
<event>
 5   0  0.1757996E-08  0.3699866E+04  0.7818609E-02  0.8067992E-01
       -2   -1    0    0    0  501  0.00000000000E+00  0.00000000000E+00  0.14106318039E+04  0.14106318039E+04  0.25500000920E-02 0. -1.
        2   -1    0    0  501    0  0.00000000000E+00  0.00000000000E+00 -0.24260419038E+04  0.24260419038E+04  0.25500000920E-02 0.  1.
    10030    2    1    2    0    0  0.00000000000E+00  0.00000000000E+00 -0.10154100999E+04  0.38366737077E+04  0.36998658717E+04 0.  0.
        3    1    3    3  502    0 -0.18346094080E+04  0.11455838916E+01 -0.26130831075E+03  0.18531257474E+04  0.10100000352E+00 0. -1.
       -3    1    3    3    0  502  0.18346094080E+04 -0.11455838916E+01 -0.75410178910E+03  0.19835479603E+04  0.10100000352E+00 0.  1.
</event>
<event>
 5   0  0.1725865E-08  0.3706005E+04  0.7818609E-02  0.8066632E-01
       -2   -1    0    0    0  501  0.00000000000E+00  0.00000000000E+00  0.20220671547E+04  0.20220671547E+04  0.25500000920E-02 0.  1.
        2   -1    0    0  501    0  0.00000000000E+00  0.00000000000E+00 -0.16980735448E+04  0.16980735448E+04  0.25500000920E-02 0. -1.
    10030    2    1    2    0    0  0.00000000000E+00  0.00000000000E+00  0.32399360996E+03  0.37201406995E+04  0.37060052570E+04 0.  0.
        1    1    3    3  502    0 -0.77156832199E+03 -0.15972644413E+04  0.69980835003E+03  0.19069093050E+04  0.50400001928E-02 0.  1.
       -1    1    3    3    0  502  0.77156832199E+03  0.15972644413E+04 -0.37581474007E+03  0.18132313944E+04  0.50400001928E-02 0. -1.
</event>
<event>
 5   0  0.5714125E-09  0.3698053E+04  0.7818609E-02  0.8068393E-01
        1   -1    0    0  501    0  0.00000000000E+00  0.00000000000E+00  0.20450747907E+04  0.20450747907E+04  0.50400001928E-02 0. -1.
       -1   -1    0    0    0  501  0.00000000000E+00  0.00000000000E+00 -0.16717719667E+04  0.16717719667E+04  0.50400001928E-02 0.  1.
    10030    2    1    2    0    0  0.00000000000E+00  0.00000000000E+00  0.37330282401E+03  0.37168467574E+04  0.36980528416E+04 0.  0.
        2    1    3    3  502    0 -0.15613421948E+04 -0.48498354744E+03  0.10546957513E+04  0.19456057202E+04  0.25500000920E-02 0. -1.
       -2    1    3    3    0  502  0.15613421948E+04  0.48498354744E+03 -0.68139292733E+03  0.17712410372E+04  0.25500000920E-02 0.  1.
</event>
<event>
 5   0  0.5714125E-09  0.3698831E+04  0.7818609E-02  0.8068221E-01
       -1   -1    0    0    0  501  0.00000000000E+00  0.00000000000E+00  0.15729904172E+04  0.15729904172E+04  0.50400001928E-02 0.  1.
        1   -1    0    0  501    0  0.00000000000E+00  0.00000000000E+00 -0.21744173138E+04  0.21744173138E+04  0.50400001928E-02 0. -1.
    10030    2    1    2    0    0  0.00000000000E+00  0.00000000000E+00 -0.60142689657E+03  0.37474077311E+04  0.36988309492E+04 0.  0.
        4    1    3    3  502    0  0.44134626165E+03  0.58247388053E+03  0.14205019280E+04  0.15974635158E+04  0.12699999809E+01 0.  1.
       -4    1    3    3    0  502 -0.44134626165E+03 -0.58247388053E+03 -0.20219288245E+04  0.21499442152E+04  0.12699999809E+01 0. -1.
</event>
<event>
 5   0  0.1740290E-08  0.3698663E+04  0.7818609E-02  0.8068258E-01
        2   -1    0    0  501    0  0.00000000000E+00  0.00000000000E+00  0.19634569339E+04  0.19634569339E+04  0.25500000920E-02 0.  1.
       -2   -1    0    0    0  501  0.00000000000E+00  0.00000000000E+00 -0.17418398488E+04  0.17418398488E+04  0.25500000920E-02 0. -1.
    10030    2    1    2    0    0  0.00000000000E+00  0.00000000000E+00  0.22161708504E+03  0.37052967827E+04  0.36986632876E+04 0.  0.
        5    1    3    3  502    0  0.18650255759E+03  0.18059746737E+04 -0.24150060946E+03  0.18315764687E+04  0.46999998093E+01 0. -1.
       -5    1    3    3    0  502 -0.18650255759E+03 -0.18059746737E+04  0.46311769450E+03  0.18737203140E+04  0.46999998093E+01 0.  1.
</event>
<event>
 5   0  0.5714125E-09  0.3700432E+04  0.7818609E-02  0.8067866E-01
        1   -1    0    0  501    0  0.00000000000E+00  0.00000000000E+00  0.16615859893E+04  0.16615859893E+04  0.50400001928E-02 0.  1.
       -1   -1    0    0    0  501  0.00000000000E+00  0.00000000000E+00 -0.20602604200E+04  0.20602604200E+04  0.50400001928E-02 0. -1.
    10030    2    1    2    0    0  0.00000000000E+00  0.00000000000E+00 -0.39867443069E+03  0.37218464094E+04  0.37004323252E+04 0.  0.
        1    1    3    3  502    0 -0.14966954618E+03  0.18422534965E+04 -0.11518145507E+03  0.18519086602E+04  0.50400001928E-02 0. -1.
       -1    1    3    3    0  502  0.14966954618E+03 -0.18422534965E+04 -0.28349297562E+03  0.18699377491E+04  0.50400001928E-02 0.  1.
</event>
<event>
 5   0  0.5714125E-09  0.3700256E+04  0.7818609E-02  0.8067905E-01
        1   -1    0    0  501    0  0.00000000000E+00  0.00000000000E+00  0.20041601802E+04  0.20041601802E+04  0.50400001928E-02 0.  1.
       -1   -1    0    0    0  501  0.00000000000E+00  0.00000000000E+00 -0.17079344850E+04  0.17079344850E+04  0.50400001928E-02 0. -1.
    10030    2    1    2    0    0  0.00000000000E+00  0.00000000000E+00  0.29622569521E+03  0.37120946653E+04  0.37002563616E+04 0.  0.
        4    1    3    3  502    0  0.17669739362E+04  0.54770693898E+03  0.17636123935E+03  0.18583015584E+04  0.12699999809E+01 0. -1.
       -4    1    3    3    0  502 -0.17669739362E+04 -0.54770693898E+03  0.11986445586E+03  0.18537931069E+04  0.12699999809E+01 0.  1.
</event>
<event>
 5   0  0.5714125E-09  0.3703046E+04  0.7818609E-02  0.8067287E-01
        1   -1    0    0  501    0  0.00000000000E+00  0.00000000000E+00  0.17592899698E+04  0.17592899698E+04  0.50400001928E-02 0.  1.
       -1   -1    0    0    0  501  0.00000000000E+00  0.00000000000E+00 -0.19485911081E+04  0.19485911082E+04  0.50400001928E-02 0. -1.
    10030    2    1    2    0    0  0.00000000000E+00  0.00000000000E+00 -0.18930113834E+03  0.37078810780E+04  0.37030456610E+04 0.  0.
        5    1    3    3  502    0 -0.35368490308E+03 -0.11999960625E+04  0.12720607353E+04  0.17841648368E+04  0.46999998093E+01 0.  1.
       -5    1    3    3    0  502  0.35368490308E+03  0.11999960625E+04 -0.14613618736E+04  0.19237162411E+04  0.46999998093E+01 0. -1.
</event>
<event>
 5   0  0.1825308E-08  0.3705150E+04  0.7818609E-02  0.8066822E-01
       -2   -1    0    0    0  501  0.00000000000E+00  0.00000000000E+00  0.21926566245E+04  0.21926566245E+04  0.25500000920E-02 0. -1.
        2   -1    0    0  501    0  0.00000000000E+00  0.00000000000E+00 -0.15652397500E+04  0.15652397500E+04  0.25500000920E-02 0.  1.
    10030    2    1    2    0    0  0.00000000000E+00  0.00000000000E+00  0.62741687452E+03  0.37578963745E+04  0.37051495553E+04 0.  0.
        4    1    3    3  502    0  0.12316665109E+04  0.13798967021E+04  0.41966767346E+03  0.18966390989E+04  0.12699999809E+01 0. -1.
       -4    1    3    3    0  502 -0.12316665109E+04 -0.13798967021E+04  0.20774920106E+03  0.18612572756E+04  0.12699999809E+01 0.  1.
</event>
<event>
 5   0  0.5714125E-09  0.3700126E+04  0.7818609E-02  0.8067934E-01
        1   -1    0    0  501    0  0.00000000000E+00  0.00000000000E+00  0.12554887683E+04  0.12554887683E+04  0.50400001928E-02 0. -1.
       -1   -1    0    0    0  501  0.00000000000E+00  0.00000000000E+00 -0.27262156439E+04  0.27262156439E+04  0.50400001928E-02 0.  1.
    10030    2    1    2    0    0  0.00000000000E+00  0.00000000000E+00 -0.14707268756E+04  0.39817044123E+04  0.37001260092E+04 0.  0.
        1    1    3    3  502    0  0.59291944900E+03  0.86038556666E+03  0.90755439547E+03  0.13840056998E+04  0.50400001928E-02 0. -1.
       -1    1    3    3    0  502 -0.59291944900E+03 -0.86038556666E+03 -0.23782812711E+04  0.25976987125E+04  0.50400001928E-02 0.  1.
</event>
<event>
 5   0  0.1856107E-08  0.3699336E+04  0.7818609E-02  0.8068109E-01
       -2   -1    0    0    0  501  0.00000000000E+00  0.00000000000E+00  0.14844227793E+04  0.14844227793E+04  0.25500000920E-02 0.  1.
        2   -1    0    0  501    0  0.00000000000E+00  0.00000000000E+00 -0.23047828024E+04  0.23047828024E+04  0.25500000920E-02 0. -1.
    10030    2    1    2    0    0  0.00000000000E+00  0.00000000000E+00 -0.82036002304E+03  0.37892055817E+04  0.36993362071E+04 0.  0.
        2    1    3    3  502    0  0.12845987321E+04  0.11451074595E+04 -0.11047439007E+04  0.20449753256E+04  0.25500000920E-02 0.  1.
       -2    1    3    3    0  502 -0.12845987321E+04 -0.11451074595E+04  0.28438387761E+03  0.17442302561E+04  0.25500000920E-02 0. -1.
</event>
<event>
 5   0  0.1740290E-08  0.3706090E+04  0.7818609E-02  0.8066613E-01
        2   -1    0    0  501    0  0.00000000000E+00  0.00000000000E+00  0.34004128954E+04  0.34004128954E+04  0.25500000920E-02 0.  1.
       -2   -1    0    0    0  501  0.00000000000E+00  0.00000000000E+00 -0.10098115585E+04  0.10098115585E+04  0.25500000920E-02 0. -1.
    10030    2    1    2    0    0  0.00000000000E+00  0.00000000000E+00  0.23906013368E+04  0.44102244539E+04  0.37060902555E+04 0.  0.
        5    1    3    3  502    0 -0.11981850825E+04 -0.11727194915E+04  0.25615829602E+03  0.16960417625E+04  0.46999998093E+01 0. -1.
       -5    1    3    3    0  502  0.11981850825E+04  0.11727194915E+04  0.21344430408E+04  0.27141826914E+04  0.46999998093E+01 0.  1.
</event>
<event>
 5   0  0.5714125E-09  0.3698231E+04  0.7818609E-02  0.8068354E-01
       -1   -1    0    0    0  501  0.00000000000E+00  0.00000000000E+00  0.21278892398E+04  0.21278892398E+04  0.50400001928E-02 0. -1.
        1   -1    0    0  501    0  0.00000000000E+00  0.00000000000E+00 -0.16068640558E+04  0.16068640559E+04  0.50400001928E-02 0.  1.
    10030    2    1    2    0    0  0.00000000000E+00  0.00000000000E+00  0.52102518392E+03  0.37347532956E+04  0.36982313255E+04 0.  0.
        3    1    3    3  502    0  0.45852407539E+03 -0.43577992948E+03  0.20152218795E+04  0.21121713255E+04  0.10100000352E+00 0. -1.
       -3    1    3    3    0  502 -0.45852407539E+03  0.43577992948E+03 -0.14941966955E+04  0.16225819701E+04  0.10100000352E+00 0.  1.
</event>
<event>
 5   0  0.5714125E-09  0.3699153E+04  0.7818609E-02  0.8068149E-01
        1   -1    0    0  501    0  0.00000000000E+00  0.00000000000E+00  0.24022110008E+04  0.24022110008E+04  0.50400001928E-02 0.  1.
       -1   -1    0    0    0  501  0.00000000000E+00  0.00000000000E+00 -0.14240772398E+04  0.14240772398E+04  0.50400001928E-02 0. -1.
    10030    2    1    2    0    0  0.00000000000E+00  0.00000000000E+00  0.97813376100E+03  0.38262882406E+04  0.36991534228E+04 0.  0.
        5    1    3    3  502    0 -0.16111987240E+02  0.27805310064E+02  0.24019160257E+04  0.24021355948E+04  0.46999998093E+01 0.  1.
       -5    1    3    3    0  502  0.16111987240E+02 -0.27805310064E+02 -0.14237822647E+04  0.14241526458E+04  0.46999998093E+01 0. -1.
</event>
<event>
 5   0  0.1856107E-08  0.3699039E+04  0.7818609E-02  0.8068175E-01
       -2   -1    0    0    0  501  0.00000000000E+00  0.00000000000E+00  0.12979465002E+04  0.12979465002E+04  0.25500000920E-02 0. -1.
        2   -1    0    0  501    0  0.00000000000E+00  0.00000000000E+00 -0.26354885800E+04  0.26354885800E+04  0.25500000920E-02 0.  1.
    10030    2    1    2    0    0  0.00000000000E+00  0.00000000000E+00 -0.13375420798E+04  0.39334350802E+04  0.36990394313E+04 0.  0.
        2    1    3    3  502    0 -0.13253343152E+04  0.12510026321E+04 -0.10036970014E+04  0.20806071958E+04  0.25500000920E-02 0.  1.
       -2    1    3    3    0  502  0.13253343152E+04 -0.12510026321E+04 -0.33384507838E+03  0.18528278843E+04  0.25500000920E-02 0. -1.
</event>
<event>
 5   0  0.5714125E-09  0.3700183E+04  0.7818609E-02  0.8067921E-01
       -1   -1    0    0    0  501  0.00000000000E+00  0.00000000000E+00  0.27789117649E+04  0.27789117649E+04  0.50400001928E-02 0. -1.
        1   -1    0    0  501    0  0.00000000000E+00  0.00000000000E+00 -0.12317190075E+04  0.12317190075E+04  0.50400001928E-02 0.  1.
    10030    2    1    2    0    0  0.00000000000E+00  0.00000000000E+00  0.15471927574E+04  0.40106307724E+04  0.37001829365E+04 0.  0.
        4    1    3    3  502    0 -0.46019596217E+03  0.10409980428E+04 -0.80733121125E+03  0.13954363283E+04  0.12699999809E+01 0.  1.
       -4    1    3    3    0  502  0.46019596217E+03 -0.10409980428E+04  0.23545239687E+04  0.26151944441E+04  0.12699999809E+01 0. -1.
</event>
<event>
 5   0  0.1757996E-08  0.3700940E+04  0.7818609E-02  0.8067753E-01
        2   -1    0    0  501    0  0.00000000000E+00  0.00000000000E+00  0.13317054025E+04  0.13317054025E+04  0.25500000920E-02 0.  1.
       -2   -1    0    0    0  501  0.00000000000E+00  0.00000000000E+00 -0.25713192974E+04  0.25713192974E+04  0.25500000920E-02 0. -1.
    10030    2    1    2    0    0  0.00000000000E+00  0.00000000000E+00 -0.12396138948E+04  0.39030246999E+04  0.37009403129E+04 0.  0.
        3    1    3    3  502    0 -0.11437855344E+03 -0.10611660900E+04  0.97438382346E+03  0.14451919491E+04  0.10100000352E+00 0.  1.
       -3    1    3    3    0  502  0.11437855344E+03  0.10611660900E+04 -0.22139977183E+04  0.24578327508E+04  0.10100000352E+00 0. -1.
</event>
<event>
 5   0  0.1740290E-08  0.3700455E+04  0.7818609E-02  0.8067861E-01
        2   -1    0    0  501    0  0.00000000000E+00  0.00000000000E+00  0.18167083526E+04  0.18167083526E+04  0.25500000920E-02 0. -1.
       -2   -1    0    0    0  501  0.00000000000E+00  0.00000000000E+00 -0.18843647005E+04  0.18843647005E+04  0.25500000920E-02 0.  1.
    10030    2    1    2    0    0  0.00000000000E+00  0.00000000000E+00 -0.67656347916E+02  0.37010730530E+04  0.37004546157E+04 0.  0.
        5    1    3    3  502    0 -0.14145836203E+04  0.37331116726E+03 -0.11666740604E+04  0.18712451735E+04  0.46999998093E+01 0.  1.
       -5    1    3    3    0  502  0.14145836203E+04 -0.37331116726E+03  0.10990177125E+04  0.18298278795E+04  0.46999998093E+01 0. -1.
</event>
<event>
 5   0  0.1725865E-08  0.3697874E+04  0.7818609E-02  0.8068433E-01
       -2   -1    0    0    0  501  0.00000000000E+00  0.00000000000E+00  0.21927481251E+04  0.21927481251E+04  0.25500000920E-02 0.  1.
        2   -1    0    0  501    0  0.00000000000E+00  0.00000000000E+00 -0.15590333840E+04  0.15590333840E+04  0.25500000920E-02 0. -1.
    10030    2    1    2    0    0  0.00000000000E+00  0.00000000000E+00  0.63371474111E+03  0.37517815091E+04  0.36978737294E+04 0.  0.
        1    1    3    3  502    0 -0.11446867813E+04 -0.11037366929E+04  0.12740218376E+04  0.20375657431E+04  0.50400001928E-02 0.  1.
       -1    1    3    3    0  502  0.11446867813E+04  0.11037366929E+04 -0.64030709644E+03  0.17142157660E+04  0.50400001928E-02 0. -1.
</event>
<event>
 5   0  0.5714125E-09  0.3699187E+04  0.7818609E-02  0.8068142E-01
        1   -1    0    0  501    0  0.00000000000E+00  0.00000000000E+00  0.17026127875E+04  0.17026127875E+04  0.50400001928E-02 0.  1.
       -1   -1    0    0    0  501  0.00000000000E+00  0.00000000000E+00 -0.20092627064E+04  0.20092627064E+04  0.50400001928E-02 0. -1.
    10030    2    1    2    0    0  0.00000000000E+00  0.00000000000E+00 -0.30664991891E+03  0.37118754939E+04  0.36991871417E+04 0.  0.
        4    1    3    3  502    0  0.10531597960E+04 -0.71116786375E+03  0.11951929818E+04  0.17445323623E+04  0.12699999809E+01 0.  1.
       -4    1    3    3    0  502 -0.10531597960E+04  0.71116786375E+03 -0.15018429007E+04  0.19673431316E+04  0.12699999809E+01 0. -1.
</event>
<event>
 5   0  0.1725865E-08  0.3692701E+04  0.7818609E-02  0.8069581E-01
       -2   -1    0    0    0  501  0.00000000000E+00  0.00000000000E+00  0.17721473331E+04  0.17721473331E+04  0.25500000920E-02 0. -1.
        2   -1    0    0  501    0  0.00000000000E+00  0.00000000000E+00 -0.19236611871E+04  0.19236611871E+04  0.25500000920E-02 0.  1.
    10030    2    1    2    0    0  0.00000000000E+00  0.00000000000E+00 -0.15151385400E+03  0.36958085202E+04  0.36927014732E+04 0.  0.
        1    1    3    3  502    0  0.12645460490E+04 -0.13406870545E+04 -0.18762106671E+03  0.18524902571E+04  0.50400001928E-02 0. -1.
       -1    1    3    3    0  502 -0.12645460490E+04  0.13406870545E+04  0.36107212706E+02  0.18433182631E+04  0.50400001928E-02 0.  1.
</event>
<event>
 5   0  0.5714125E-09  0.3700061E+04  0.7818609E-02  0.8067948E-01
        1   -1    0    0  501    0  0.00000000000E+00  0.00000000000E+00  0.29709697316E+04  0.29709697316E+04  0.50400001928E-02 0. -1.
       -1   -1    0    0    0  501  0.00000000000E+00  0.00000000000E+00 -0.11520188522E+04  0.11520188522E+04  0.50400001928E-02 0.  1.
    10030    2    1    2    0    0  0.00000000000E+00  0.00000000000E+00  0.18189508794E+04  0.41229885838E+04  0.37000611563E+04 0.  0.
        1    1    3    3  502    0 -0.45940056540E+03  0.45355679881E+03 -0.10224346807E+04  0.12091878785E+04  0.50400001928E-02 0.  1.
       -1    1    3    3    0  502  0.45940056540E+03 -0.45355679881E+03  0.28413855601E+04  0.29138007053E+04  0.50400001928E-02 0. -1.
</event>
<event>
 5   0  0.1825308E-08  0.3700447E+04  0.7818609E-02  0.8067863E-01
        2   -1    0    0  501    0  0.00000000000E+00  0.00000000000E+00  0.14071134078E+04  0.14071134078E+04  0.25500000920E-02 0. -1.
       -2   -1    0    0    0  501  0.00000000000E+00  0.00000000000E+00 -0.24328719069E+04  0.24328719069E+04  0.25500000920E-02 0.  1.
    10030    2    1    2    0    0  0.00000000000E+00  0.00000000000E+00 -0.10257584991E+04  0.38399853148E+04  0.37004468270E+04 0.  0.
        4    1    3    3  502    0 -0.81806795079E+03  0.17093972106E+03 -0.22258433048E+04  0.23775692610E+04  0.12699999809E+01 0.  1.
       -4    1    3    3    0  502  0.81806795079E+03 -0.17093972106E+03  0.12000848058E+04  0.14624160537E+04  0.12699999809E+01 0. -1.
</event>
<event>
 5   0  0.5714125E-09  0.3699833E+04  0.7818609E-02  0.8067999E-01
        1   -1    0    0  501    0  0.00000000000E+00  0.00000000000E+00  0.17224999756E+04  0.17224999756E+04  0.50400001928E-02 0.  1.
       -1   -1    0    0    0  501  0.00000000000E+00  0.00000000000E+00 -0.19867581891E+04  0.19867581891E+04  0.50400001928E-02 0. -1.
    10030    2    1    2    0    0  0.00000000000E+00  0.00000000000E+00 -0.26425821345E+03  0.37092581647E+04  0.36998329326E+04 0.  0.
        1    1    3    3  502    0  0.15000112804E+04 -0.10531781987E+03 -0.12124014577E+04  0.19315907898E+04  0.50400001928E-02 0. -1.
       -1    1    3    3    0  502 -0.15000112804E+04  0.10531781987E+03  0.94814324427E+03  0.17776673750E+04  0.50400001928E-02 0.  1.
</event>
<event>
 5   0  0.1740290E-08  0.3699590E+04  0.7818609E-02  0.8068053E-01
       -2   -1    0    0    0  501  0.00000000000E+00  0.00000000000E+00  0.17236600915E+04  0.17236600915E+04  0.25500000920E-02 0.  1.
        2   -1    0    0  501    0  0.00000000000E+00  0.00000000000E+00 -0.19851608013E+04  0.19851608013E+04  0.25500000920E-02 0. -1.
    10030    2    1    2    0    0  0.00000000000E+00  0.00000000000E+00 -0.26150070980E+03  0.37088208928E+04  0.36995904900E+04 0.  0.
        5    1    3    3  502    0 -0.44799555369E+03 -0.13173189690E+04 -0.13526807385E+04  0.19405660392E+04  0.46999998093E+01 0. -1.
       -5    1    3    3    0  502  0.44799555369E+03  0.13173189690E+04  0.10911800287E+04  0.17682548536E+04  0.46999998093E+01 0.  1.
</event>
<event>
 5   0  0.1740290E-08  0.3700007E+04  0.7818609E-02  0.8067960E-01
       -2   -1    0    0    0  501  0.00000000000E+00  0.00000000000E+00  0.29291071856E+04  0.29291071856E+04  0.25500000920E-02 0.  1.
        2   -1    0    0  501    0  0.00000000000E+00  0.00000000000E+00 -0.11684494419E+04  0.11684494419E+04  0.25500000920E-02 0. -1.
    10030    2    1    2    0    0  0.00000000000E+00  0.00000000000E+00  0.17606577437E+04  0.40975566275E+04  0.37000073818E+04 0.  0.
        5    1    3    3  502    0  0.17708655446E+04 -0.53162936744E+03  0.81119548058E+03  0.20190727473E+04  0.46999998093E+01 0.  1.
       -5    1    3    3    0  502 -0.17708655446E+04  0.53162936744E+03  0.94946226312E+03  0.20784838802E+04  0.46999998093E+01 0. -1.
</event>
<event>
 5   0  0.1856107E-08  0.3701188E+04  0.7818609E-02  0.8067699E-01
       -2   -1    0    0    0  501  0.00000000000E+00  0.00000000000E+00  0.14148375454E+04  0.14148375454E+04  0.25500000920E-02 0.  1.
        2   -1    0    0  501    0  0.00000000000E+00  0.00000000000E+00 -0.24205588483E+04  0.24205588483E+04  0.25500000920E-02 0. -1.
    10030    2    1    2    0    0  0.00000000000E+00  0.00000000000E+00 -0.10057213029E+04  0.38353963937E+04  0.37011876685E+04 0.  0.
        2    1    3    3  502    0  0.54806605523E+03  0.76149789240E+03  0.11501111134E+04  0.14842543630E+04  0.25500000920E-02 0.  1.
       -2    1    3    3    0  502 -0.54806605523E+03 -0.76149789240E+03 -0.21558324163E+04  0.23511420307E+04  0.25500000920E-02 0. -1.
</event>
<event>
 5   0  0.1856107E-08  0.3706586E+04  0.7818609E-02  0.8066504E-01
        2   -1    0    0  501    0  0.00000000000E+00  0.00000000000E+00  0.22539143502E+04  0.22539143502E+04  0.25500000920E-02 0.  1.
       -2   -1    0    0    0  501  0.00000000000E+00  0.00000000000E+00 -0.15238798233E+04  0.15238798233E+04  0.25500000920E-02 0. -1.
    10030    2    1    2    0    0  0.00000000000E+00  0.00000000000E+00  0.73003452689E+03  0.37777941735E+04  0.37065858154E+04 0.  0.
        2    1    3    3  502    0 -0.16127283725E+04  0.34357469248E+03  0.12272954663E+04  0.20555268264E+04  0.25500000920E-02 0.  1.
       -2    1    3    3    0  502  0.16127283725E+04 -0.34357469248E+03 -0.49726093936E+03  0.17222673470E+04  0.25500000920E-02 0. -1.
</event>
<event>
 5   0  0.1725865E-08  0.3697437E+04  0.7818609E-02  0.8068530E-01
       -2   -1    0    0    0  501  0.00000000000E+00  0.00000000000E+00  0.14802790776E+04  0.14802790776E+04  0.25500000920E-02 0.  1.
        2   -1    0    0  501    0  0.00000000000E+00  0.00000000000E+00 -0.23088618436E+04  0.23088618436E+04  0.25500000920E-02 0. -1.
    10030    2    1    2    0    0  0.00000000000E+00  0.00000000000E+00 -0.82858276599E+03  0.37891409212E+04  0.36974368853E+04 0.  0.
        1    1    3    3  502    0 -0.36416875188E+03  0.10628444500E+04 -0.19188678719E+04  0.22235806966E+04  0.50400001928E-02 0. -1.
       -1    1    3    3    0  502  0.36416875188E+03 -0.10628444500E+04  0.10902851059E+04  0.15655602246E+04  0.50400001928E-02 0.  1.
</event>
<event>
 5   0  0.5714125E-09  0.3700452E+04  0.7818609E-02  0.8067862E-01
        1   -1    0    0  501    0  0.00000000000E+00  0.00000000000E+00  0.25145117076E+04  0.25145117076E+04  0.50400001928E-02 0.  1.
       -1   -1    0    0    0  501  0.00000000000E+00  0.00000000000E+00 -0.13614314585E+04  0.13614314585E+04  0.50400001928E-02 0. -1.
    10030    2    1    2    0    0  0.00000000000E+00  0.00000000000E+00  0.11530802491E+04  0.38759431661E+04  0.37004515084E+04 0.  0.
        5    1    3    3  502    0  0.65727933261E+02  0.14802388960E+04  0.17371912294E+04  0.22832614410E+04  0.46999998093E+01 0. -1.
       -5    1    3    3    0  502 -0.65727933261E+02 -0.14802388960E+04 -0.58411098024E+03  0.15926817252E+04  0.46999998093E+01 0.  1.
</event>
<event>
 5   0  0.5714125E-09  0.3700594E+04  0.7818609E-02  0.8067830E-01
       -1   -1    0    0    0  501  0.00000000000E+00  0.00000000000E+00  0.14647732427E+04  0.14647732427E+04  0.50400001928E-02 0.  1.
        1   -1    0    0  501    0  0.00000000000E+00  0.00000000000E+00 -0.23372888645E+04  0.23372888645E+04  0.50400001928E-02 0. -1.
    10030    2    1    2    0    0  0.00000000000E+00  0.00000000000E+00 -0.87251562174E+03  0.38020621072E+04  0.37005935682E+04 0.  0.
        3    1    3    3  502    0 -0.30862438660E+03  0.70542132371E+03 -0.21648678666E+04  0.22977208590E+04  0.10100000352E+00 0. -1.
       -3    1    3    3    0  502  0.30862438660E+03 -0.70542132371E+03  0.12923522449E+04  0.15043412482E+04  0.10100000352E+00 0.  1.
</event>
<event>
 5   0  0.1757996E-08  0.3697918E+04  0.7818609E-02  0.8068423E-01
       -2   -1    0    0    0  501  0.00000000000E+00  0.00000000000E+00  0.15405640396E+04  0.15405640396E+04  0.25500000920E-02 0. -1.
        2   -1    0    0  501    0  0.00000000000E+00  0.00000000000E+00 -0.22190895844E+04  0.22190895844E+04  0.25500000920E-02 0.  1.
    10030    2    1    2    0    0  0.00000000000E+00  0.00000000000E+00 -0.67852554473E+03  0.37596536240E+04  0.36979181248E+04 0.  0.
        3    1    3    3  502    0 -0.70267524083E+03 -0.11079289606E+04 -0.16638526482E+04  0.21188828945E+04  0.10100000352E+00 0.  1.
       -3    1    3    3    0  502  0.70267524083E+03  0.11079289606E+04  0.98532710343E+03  0.16407707295E+04  0.10100000352E+00 0. -1.
</event>
<event>
 5   0  0.5714125E-09  0.3697459E+04  0.7818609E-02  0.8068525E-01
        1   -1    0    0  501    0  0.00000000000E+00  0.00000000000E+00  0.16198091611E+04  0.16198091611E+04  0.50400001928E-02 0. -1.
       -1   -1    0    0    0  501  0.00000000000E+00  0.00000000000E+00 -0.21100024601E+04  0.21100024601E+04  0.50400001928E-02 0.  1.
    10030    2    1    2    0    0  0.00000000000E+00  0.00000000000E+00 -0.49019329901E+03  0.37298116213E+04  0.36974592979E+04 0.  0.
        1    1    3    3  502    0 -0.14342447285E+04 -0.11253778832E+04  0.64620767260E+02  0.18242009661E+04  0.50400001928E-02 0. -1.
       -1    1    3    3    0  502  0.14342447285E+04  0.11253778832E+04 -0.55481406627E+03  0.19056106552E+04  0.50400001928E-02 0.  1.
</event>
<event>
 5   0  0.1856107E-08  0.3701991E+04  0.7818609E-02  0.8067521E-01
       -2   -1    0    0    0  501  0.00000000000E+00  0.00000000000E+00  0.17536863969E+04  0.17536863969E+04  0.25500000920E-02 0. -1.
        2   -1    0    0  501    0  0.00000000000E+00  0.00000000000E+00 -0.19537040905E+04  0.19537040905E+04  0.25500000920E-02 0.  1.
    10030    2    1    2    0    0  0.00000000000E+00  0.00000000000E+00 -0.20001769355E+03  0.37073904874E+04  0.37019909709E+04 0.  0.
        2    1    3    3  502    0 -0.29504240771E+03  0.17568497445E+04 -0.60334836665E+03  0.18808509507E+04  0.25500000920E-02 0.  1.
       -2    1    3    3    0  502  0.29504240771E+03 -0.17568497445E+04  0.40333067310E+03  0.18265395367E+04  0.25500000920E-02 0. -1.
</event>
<event>
 5   0  0.5714125E-09  0.3700319E+04  0.7818609E-02  0.8067891E-01
        1   -1    0    0  501    0  0.00000000000E+00  0.00000000000E+00  0.26191248133E+04  0.26191248133E+04  0.50400001928E-02 0.  1.
       -1   -1    0    0    0  501  0.00000000000E+00  0.00000000000E+00 -0.13069598255E+04  0.13069598255E+04  0.50400001928E-02 0. -1.
    10030    2    1    2    0    0  0.00000000000E+00  0.00000000000E+00  0.13121649878E+04  0.39260846387E+04  0.37003193964E+04 0.  0.
        4    1    3    3  502    0  0.10036077252E+04  0.80210367217E+03 -0.75649540603E+03  0.14909344986E+04  0.12699999809E+01 0. -1.
       -4    1    3    3    0  502 -0.10036077252E+04 -0.80210367217E+03  0.20686603938E+04  0.24351501401E+04  0.12699999809E+01 0.  1.
</event>
<event>
 5   0  0.5714125E-09  0.3713029E+04  0.7818609E-02  0.8065081E-01
       -1   -1    0    0    0  501  0.00000000000E+00  0.00000000000E+00  0.17645676653E+04  0.17645676653E+04  0.50400001928E-02 0. -1.
        1   -1    0    0  501    0  0.00000000000E+00  0.00000000000E+00 -0.19532523091E+04  0.19532523091E+04  0.50400001928E-02 0.  1.
    10030    2    1    2    0    0  0.00000000000E+00  0.00000000000E+00 -0.18868464385E+03  0.37178199744E+04  0.37130288805E+04 0.  0.
        1    1    3    3  502    0  0.11563540454E+04 -0.10984405446E+04 -0.10457892307E+04  0.19071972691E+04  0.50400001928E-02 0.  1.
       -1    1    3    3    0  502 -0.11563540454E+04  0.10984405446E+04  0.85710458685E+03  0.18106227053E+04  0.50400001928E-02 0. -1.
</event>
<event>
 5   0  0.5714125E-09  0.3697525E+04  0.7818609E-02  0.8068510E-01
       -1   -1    0    0    0  501  0.00000000000E+00  0.00000000000E+00  0.18066724298E+04  0.18066724298E+04  0.50400001928E-02 0. -1.
        1   -1    0    0  501    0  0.00000000000E+00  0.00000000000E+00 -0.18918333992E+04  0.18918333992E+04  0.50400001928E-02 0.  1.
    10030    2    1    2    0    0  0.00000000000E+00  0.00000000000E+00 -0.85160969430E+02  0.36985058290E+04  0.36975252503E+04 0.  0.
        2    1    3    3  502    0  0.24212285335E+02  0.15668678382E+04 -0.10237902665E+04  0.18718460319E+04  0.25500000920E-02 0.  1.
       -2    1    3    3    0  502 -0.24212285335E+02 -0.15668678382E+04  0.93862929706E+03  0.18266597972E+04  0.25500000920E-02 0. -1.
</event>
<event>
 5   0  0.5714125E-09  0.3687958E+04  0.7818609E-02  0.8070636E-01
       -1   -1    0    0    0  501  0.00000000000E+00  0.00000000000E+00  0.23537584810E+04  0.23537584810E+04  0.50400001928E-02 0.  1.
        1   -1    0    0  501    0  0.00000000000E+00  0.00000000000E+00 -0.14446077596E+04  0.14446077596E+04  0.50400001928E-02 0. -1.
    10030    2    1    2    0    0  0.00000000000E+00  0.00000000000E+00  0.90915072139E+03  0.37983662406E+04  0.36879575735E+04 0.  0.
        3    1    3    3  502    0 -0.17661582424E+04 -0.28086715236E+03  0.91753943615E+03  0.20099950053E+04  0.10100000352E+00 0.  1.
       -3    1    3    3    0  502  0.17661582424E+04  0.28086715236E+03 -0.83887147638E+01  0.17883712353E+04  0.10100000352E+00 0. -1.
</event>
<event>
 5   0  0.1825308E-08  0.3692313E+04  0.7818609E-02  0.8069667E-01
       -2   -1    0    0    0  501  0.00000000000E+00  0.00000000000E+00  0.26526520754E+04  0.26526520754E+04  0.25500000920E-02 0.  1.
        2   -1    0    0  501    0  0.00000000000E+00  0.00000000000E+00 -0.12848628723E+04  0.12848628723E+04  0.25500000920E-02 0. -1.
    10030    2    1    2    0    0  0.00000000000E+00  0.00000000000E+00  0.13677892031E+04  0.39375149477E+04  0.36923131854E+04 0.  0.
        4    1    3    3  502    0  0.36795752508E+03  0.17323282372E+04  0.12778654746E+03  0.17755801520E+04  0.12699999809E+01 0. -1.
       -4    1    3    3    0  502 -0.36795752508E+03 -0.17323282372E+04  0.12400026557E+04  0.21619347957E+04  0.12699999809E+01 0.  1.
</event>
<event>
 5   0  0.1825308E-08  0.3704702E+04  0.7818609E-02  0.8066921E-01
        2   -1    0    0  501    0  0.00000000000E+00  0.00000000000E+00  0.13949249433E+04  0.13949249433E+04  0.25500000920E-02 0.  1.
       -2   -1    0    0    0  501  0.00000000000E+00  0.00000000000E+00 -0.24597765266E+04  0.24597765266E+04  0.25500000920E-02 0. -1.
    10030    2    1    2    0    0  0.00000000000E+00  0.00000000000E+00 -0.10648515833E+04  0.38547014699E+04  0.37047016786E+04 0.  0.
        4    1    3    3  502    0  0.82545976149E+03 -0.36796729136E+02 -0.22573997766E+04  0.24038704585E+04  0.12699999809E+01 0. -1.
       -4    1    3    3    0  502 -0.82545976149E+03  0.36796729136E+02  0.11925481933E+04  0.14508310113E+04  0.12699999809E+01 0.  1.
</event>
<event>
 5   0  0.5714125E-09  0.3698879E+04  0.7818609E-02  0.8068210E-01
        1   -1    0    0  501    0  0.00000000000E+00  0.00000000000E+00  0.16686261312E+04  0.16686261312E+04  0.50400001928E-02 0. -1.
       -1   -1    0    0    0  501  0.00000000000E+00  0.00000000000E+00 -0.20498459771E+04  0.20498459771E+04  0.50400001928E-02 0.  1.
    10030    2    1    2    0    0  0.00000000000E+00  0.00000000000E+00 -0.38121984590E+03  0.37184721083E+04  0.36988790531E+04 0.  0.
        2    1    3    3  502    0 -0.15849979091E+04  0.88457577390E+03  0.16585809743E+03  0.18226907528E+04  0.25500000920E-02 0.  1.
       -2    1    3    3    0  502  0.15849979091E+04 -0.88457577390E+03 -0.54707794333E+03  0.18957813555E+04  0.25500000920E-02 0. -1.
</event>
<event>
 5   0  0.1825308E-08  0.3698675E+04  0.7818609E-02  0.8068255E-01
       -2   -1    0    0    0  501  0.00000000000E+00  0.00000000000E+00  0.15642297145E+04  0.15642297145E+04  0.25500000920E-02 0. -1.
        2   -1    0    0  501    0  0.00000000000E+00  0.00000000000E+00 -0.21864114093E+04  0.21864114093E+04  0.25500000920E-02 0.  1.
    10030    2    1    2    0    0  0.00000000000E+00  0.00000000000E+00 -0.62218169477E+03  0.37506411239E+04  0.36986752735E+04 0.  0.
        4    1    3    3  502    0  0.80262868399E+03 -0.63659922141E+03 -0.18723906820E+04  0.21343195291E+04  0.12699999809E+01 0.  1.
       -4    1    3    3    0  502 -0.80262868399E+03  0.63659922141E+03  0.12502089873E+04  0.16163215948E+04  0.12699999809E+01 0. -1.
</event>
<event>
 5   0  0.1725865E-08  0.3702705E+04  0.7818609E-02  0.8067363E-01
       -2   -1    0    0    0  501  0.00000000000E+00  0.00000000000E+00  0.12891296942E+04  0.12891296942E+04  0.25500000920E-02 0. -1.
        2   -1    0    0  501    0  0.00000000000E+00  0.00000000000E+00 -0.26587746241E+04  0.26587746241E+04  0.25500000920E-02 0.  1.
    10030    2    1    2    0    0  0.00000000000E+00  0.00000000000E+00 -0.13696449299E+04  0.39479043183E+04  0.37027045888E+04 0.  0.
        1    1    3    3  502    0  0.61384847258E+03  0.16833427756E+04 -0.11815633663E+04  0.21462862894E+04  0.50400001928E-02 0.  1.
       -1    1    3    3    0  502 -0.61384847258E+03 -0.16833427756E+04 -0.18808156364E+03  0.18016180289E+04  0.50400001928E-02 0. -1.
</event>
<event>
 5   0  0.1825308E-08  0.3701953E+04  0.7818609E-02  0.8067529E-01
        2   -1    0    0  501    0  0.00000000000E+00  0.00000000000E+00  0.17720662017E+04  0.17720662017E+04  0.25500000920E-02 0. -1.
       -2   -1    0    0    0  501  0.00000000000E+00  0.00000000000E+00 -0.19334009636E+04  0.19334009636E+04  0.25500000920E-02 0.  1.
    10030    2    1    2    0    0  0.00000000000E+00  0.00000000000E+00 -0.16133476186E+03  0.37054671653E+04  0.37019532693E+04 0.  0.
        4    1    3    3  502    0 -0.90537134173E+03  0.15529952520E+03  0.15278108575E+04  0.17827009952E+04  0.12699999809E+01 0. -1.
       -4    1    3    3    0  502  0.90537134173E+03 -0.15529952520E+03 -0.16891456193E+04  0.19227661702E+04  0.12699999809E+01 0.  1.
</event>
<event>
 5   0  0.5714125E-09  0.3699629E+04  0.7818609E-02  0.8068044E-01
        1   -1    0    0  501    0  0.00000000000E+00  0.00000000000E+00  0.23361701128E+04  0.23361701128E+04  0.50400001928E-02 0. -1.
       -1   -1    0    0    0  501  0.00000000000E+00  0.00000000000E+00 -0.14647108636E+04  0.14647108636E+04  0.50400001928E-02 0.  1.
    10030    2    1    2    0    0  0.00000000000E+00  0.00000000000E+00  0.87145924921E+03  0.38008809764E+04  0.36996290319E+04 0.  0.
        5    1    3    3  502    0 -0.11521025297E+03  0.50622518250E+03  0.22597795253E+04  0.23186554144E+04  0.46999998093E+01 0. -1.
       -5    1    3    3    0  502  0.11521025297E+03 -0.50622518250E+03 -0.13883202761E+04  0.14822255620E+04  0.46999998093E+01 0.  1.
</event>
<event>
 5   0  0.1740290E-08  0.3698429E+04  0.7818609E-02  0.8068310E-01
        2   -1    0    0  501    0  0.00000000000E+00  0.00000000000E+00  0.26759783505E+04  0.26759783505E+04  0.25500000920E-02 0.  1.
       -2   -1    0    0    0  501  0.00000000000E+00  0.00000000000E+00 -0.12778859181E+04  0.12778859181E+04  0.25500000920E-02 0. -1.
    10030    2    1    2    0    0  0.00000000000E+00  0.00000000000E+00  0.13980924324E+04  0.39538642686E+04  0.36984294241E+04 0.  0.
        5    1    3    3  502    0  0.22513099276E+03 -0.17820367209E+04  0.11689904559E+04  0.21431051338E+04  0.46999998093E+01 0.  1.
       -5    1    3    3    0  502 -0.22513099276E+03  0.17820367209E+04  0.22910197651E+03  0.18107591348E+04  0.46999998093E+01 0. -1.
</event>
<event>
 5   0  0.5714125E-09  0.3701101E+04  0.7818609E-02  0.8067718E-01
        1   -1    0    0  501    0  0.00000000000E+00  0.00000000000E+00  0.17180861515E+04  0.17180861515E+04  0.50400001928E-02 0. -1.
       -1   -1    0    0    0  501  0.00000000000E+00  0.00000000000E+00 -0.19932278304E+04  0.19932278304E+04  0.50400001928E-02 0.  1.
    10030    2    1    2    0    0  0.00000000000E+00  0.00000000000E+00 -0.27514167886E+03  0.37113139819E+04  0.37011009887E+04 0.  0.
        5    1    3    3  502    0 -0.55998267535E+03  0.16123879039E+04 -0.85448402187E+03  0.19088060098E+04  0.46999998093E+01 0.  1.
       -5    1    3    3    0  502  0.55998267535E+03 -0.16123879039E+04  0.57934234302E+03  0.18025079722E+04  0.46999998093E+01 0. -1.
</event>
<event>
 5   0  0.5714125E-09  0.3699110E+04  0.7818609E-02  0.8068159E-01
        1   -1    0    0  501    0  0.00000000000E+00  0.00000000000E+00  0.16767273205E+04  0.16767273205E+04  0.50400001928E-02 0. -1.
       -1   -1    0    0    0  501  0.00000000000E+00  0.00000000000E+00 -0.20401973279E+04  0.20401973279E+04  0.50400001928E-02 0.  1.
    10030    2    1    2    0    0  0.00000000000E+00  0.00000000000E+00 -0.36347000732E+03  0.37169246484E+04  0.36991104871E+04 0.  0.
        3    1    3    3  502    0  0.84616589017E+03  0.14529740544E+04  0.59251079188E+03  0.17827505055E+04  0.10100000352E+00 0.  1.
       -3    1    3    3    0  502 -0.84616589017E+03 -0.14529740544E+04 -0.95598079920E+03  0.19341741429E+04  0.10100000352E+00 0. -1.
</event>
<event>
 5   0  0.1757996E-08  0.3699085E+04  0.7818609E-02  0.8068165E-01
       -2   -1    0    0    0  501  0.00000000000E+00  0.00000000000E+00  0.13029611141E+04  0.13029611141E+04  0.25500000920E-02 0.  1.
        2   -1    0    0  501    0  0.00000000000E+00  0.00000000000E+00 -0.26254101120E+04  0.26254101120E+04  0.25500000920E-02 0. -1.
    10030    2    1    2    0    0  0.00000000000E+00  0.00000000000E+00 -0.13224489979E+04  0.39283712261E+04  0.36990849055E+04 0.  0.
        3    1    3    3  502    0 -0.12875204688E+03 -0.13996057393E+04 -0.19379640874E+04  0.23939879133E+04  0.10100000352E+00 0.  1.
       -3    1    3    3    0  502  0.12875204688E+03  0.13996057393E+04  0.61551508945E+03  0.15343833128E+04  0.10100000352E+00 0. -1.
</event>
<event>
 5   0  0.5714125E-09  0.3701371E+04  0.7818609E-02  0.8067658E-01
       -1   -1    0    0    0  501  0.00000000000E+00  0.00000000000E+00  0.27157413311E+04  0.27157413311E+04  0.50400001928E-02 0.  1.
        1   -1    0    0  501    0  0.00000000000E+00  0.00000000000E+00 -0.12611792812E+04  0.12611792812E+04  0.50400001928E-02 0. -1.
    10030    2    1    2    0    0  0.00000000000E+00  0.00000000000E+00  0.14545620499E+04  0.39769206123E+04  0.37013709352E+04 0.  0.
        1    1    3    3  502    0 -0.63697747991E+03 -0.16577094963E+04  0.12869170962E+04  0.21931476686E+04  0.50400001928E-02 0.  1.
       -1    1    3    3    0  502  0.63697747991E+03  0.16577094963E+04  0.16764495371E+03  0.17837729437E+04  0.50400001928E-02 0. -1.
</event>
<event>
 5   0  0.5714125E-09  0.3699692E+04  0.7818609E-02  0.8068030E-01
        1   -1    0    0  501    0  0.00000000000E+00  0.00000000000E+00  0.19853252151E+04  0.19853252151E+04  0.50400001928E-02 0. -1.
       -1   -1    0    0    0  501  0.00000000000E+00  0.00000000000E+00 -0.17236117135E+04  0.17236117135E+04  0.50400001928E-02 0.  1.
    10030    2    1    2    0    0  0.00000000000E+00  0.00000000000E+00  0.26171350165E+03  0.37089369286E+04  0.36996917687E+04 0.  0.
        4    1    3    3  502    0 -0.65402986137E+02 -0.11336957669E+04 -0.13330609681E+04  0.17511701231E+04  0.12699999809E+01 0.  1.
       -4    1    3    3    0  502  0.65402986137E+02  0.11336957669E+04  0.15947744697E+04  0.19577668055E+04  0.12699999809E+01 0. -1.
</event>
<event>
 5   0  0.5714125E-09  0.3697385E+04  0.7818609E-02  0.8068542E-01
       -1   -1    0    0    0  501  0.00000000000E+00  0.00000000000E+00  0.13225284359E+04  0.13225284359E+04  0.50400001928E-02 0. -1.
        1   -1    0    0  501    0  0.00000000000E+00  0.00000000000E+00 -0.25841892909E+04  0.25841892909E+04  0.50400001928E-02 0.  1.
    10030    2    1    2    0    0  0.00000000000E+00  0.00000000000E+00 -0.12616608550E+04  0.39067177268E+04  0.36973849251E+04 0.  0.
        5    1    3    3  502    0 -0.53987033582E+03  0.13734947703E+04  0.54562260457E+03  0.15734274627E+04  0.46999998093E+01 0. -1.
       -5    1    3    3    0  502  0.53987033582E+03 -0.13734947703E+04 -0.18072834595E+04  0.23332902641E+04  0.46999998093E+01 0.  1.
</event>
<event>
 5   0  0.5714125E-09  0.3699825E+04  0.7818609E-02  0.8068001E-01
       -1   -1    0    0    0  501  0.00000000000E+00  0.00000000000E+00  0.17316834341E+04  0.17316834341E+04  0.50400001928E-02 0. -1.
        1   -1    0    0  501    0  0.00000000000E+00  0.00000000000E+00 -0.19762134212E+04  0.19762134212E+04  0.50400001928E-02 0.  1.
    10030    2    1    2    0    0  0.00000000000E+00  0.00000000000E+00 -0.24452998710E+03  0.37078968553E+04  0.36998248844E+04 0.  0.
        4    1    3    3  502    0  0.16281760983E+03 -0.68097823380E+03 -0.18382896892E+04  0.19671175672E+04  0.12699999809E+01 0.  1.
       -4    1    3    3    0  502 -0.16281760983E+03  0.68097823380E+03  0.15937597021E+04  0.17407792881E+04  0.12699999809E+01 0. -1.
</event>
<event>
 5   0  0.5714125E-09  0.3710567E+04  0.7818609E-02  0.8065624E-01
       -1   -1    0    0    0  501  0.00000000000E+00  0.00000000000E+00  0.25674808588E+04  0.25674808588E+04  0.50400001928E-02 0.  1.
        1   -1    0    0  501    0  0.00000000000E+00  0.00000000000E+00 -0.13406439564E+04  0.13406439564E+04  0.50400001928E-02 0. -1.
    10030    2    1    2    0    0  0.00000000000E+00  0.00000000000E+00  0.12268369024E+04  0.39081248151E+04  0.37105674479E+04 0.  0.
        1    1    3    3  502    0 -0.15119302500E+04 -0.10586690539E+04  0.41535171365E+03  0.18918853804E+04  0.50400001928E-02 0. -1.
       -1    1    3    3    0  502  0.15119302500E+04  0.10586690539E+04  0.81148518877E+03  0.20162394347E+04  0.50400001928E-02 0.  1.
</event>
<event>
 5   0  0.1825308E-08  0.3699388E+04  0.7818609E-02  0.8068097E-01
        2   -1    0    0  501    0  0.00000000000E+00  0.00000000000E+00  0.22981349166E+04  0.22981349166E+04  0.25500000920E-02 0.  1.
       -2   -1    0    0    0  501  0.00000000000E+00  0.00000000000E+00 -0.14887584491E+04  0.14887584491E+04  0.25500000920E-02 0. -1.
    10030    2    1    2    0    0  0.00000000000E+00  0.00000000000E+00  0.80937646748E+03  0.37868933657E+04  0.36993879355E+04 0.  0.
        4    1    3    3  502    0  0.60906178003E+02 -0.96741707096E+03  0.20173123910E+04  0.22381144402E+04  0.12699999809E+01 0.  1.
       -4    1    3    3    0  502 -0.60906178003E+02  0.96741707096E+03 -0.12079359235E+04  0.15487789255E+04  0.12699999809E+01 0. -1.
</event>
<event>
 5   0  0.5714125E-09  0.3700174E+04  0.7818609E-02  0.8067923E-01
        1   -1    0    0  501    0  0.00000000000E+00  0.00000000000E+00  0.21892666299E+04  0.21892666300E+04  0.50400001928E-02 0. -1.
       -1   -1    0    0    0  501  0.00000000000E+00  0.00000000000E+00 -0.15634557068E+04  0.15634557069E+04  0.50400001928E-02 0.  1.
    10030    2    1    2    0    0  0.00000000000E+00  0.00000000000E+00  0.62581092310E+03  0.37527223368E+04  0.37001737291E+04 0.  0.
        4    1    3    3  502    0 -0.13185456629E+04  0.10176502628E+04  0.11297283110E+04  0.20125760587E+04  0.12699999809E+01 0. -1.
       -4    1    3    3    0  502  0.13185456629E+04 -0.10176502628E+04 -0.50391738787E+03  0.17401462781E+04  0.12699999809E+01 0.  1.
</event>
<event>
 5   0  0.5714125E-09  0.3701312E+04  0.7818609E-02  0.8067671E-01
        1   -1    0    0  501    0  0.00000000000E+00  0.00000000000E+00  0.13456931189E+04  0.13456931189E+04  0.50400001928E-02 0. -1.
       -1   -1    0    0    0  501  0.00000000000E+00  0.00000000000E+00 -0.25451030336E+04  0.25451030336E+04  0.50400001928E-02 0.  1.
    10030    2    1    2    0    0  0.00000000000E+00  0.00000000000E+00 -0.11994099146E+04  0.38907961525E+04  0.37013120048E+04 0.  0.
        1    1    3    3  502    0 -0.57619318525E+03  0.41433077346E+03  0.11969629828E+04  0.13915419357E+04  0.50400001928E-02 0. -1.
       -1    1    3    3    0  502  0.57619318525E+03 -0.41433077346E+03 -0.23963728975E+04  0.24992542168E+04  0.50400001928E-02 0.  1.
</event>
<event>
 5   0  0.5714125E-09  0.3699652E+04  0.7818609E-02  0.8068039E-01
        1   -1    0    0  501    0  0.00000000000E+00  0.00000000000E+00  0.19702036011E+04  0.19702036012E+04  0.50400001928E-02 0.  1.
       -1   -1    0    0    0  501  0.00000000000E+00  0.00000000000E+00 -0.17368032073E+04  0.17368032073E+04  0.50400001928E-02 0. -1.
    10030    2    1    2    0    0  0.00000000000E+00  0.00000000000E+00  0.23340039384E+03  0.37070068085E+04  0.36996518396E+04 0.  0.
        3    1    3    3  502    0 -0.11880090618E+04 -0.14155593200E+04  0.19860745618E+03  0.18586604454E+04  0.10100000352E+00 0.  1.
       -3    1    3    3    0  502  0.11880090618E+04  0.14155593200E+04  0.34792937662E+02  0.18483463631E+04  0.10100000352E+00 0. -1.
</event>
<event>
 5   0  0.5714125E-09  0.3700123E+04  0.7818609E-02  0.8067935E-01
       -1   -1    0    0    0  501  0.00000000000E+00  0.00000000000E+00  0.22242708941E+04  0.22242708941E+04  0.50400001928E-02 0. -1.
        1   -1    0    0  501    0  0.00000000000E+00  0.00000000000E+00 -0.15388083937E+04  0.15388083937E+04  0.50400001928E-02 0.  1.
    10030    2    1    2    0    0  0.00000000000E+00  0.00000000000E+00  0.68546250033E+03  0.37630792878E+04  0.37001225502E+04 0.  0.
        3    1    3    3  502    0  0.84268516569E+03  0.91773953666E+03  0.17336128488E+04  0.21348952353E+04  0.10100000352E+00 0. -1.
       -3    1    3    3    0  502 -0.84268516569E+03 -0.91773953666E+03 -0.10481503485E+04  0.16281840525E+04  0.10100000352E+00 0.  1.
</event>
<event>
 5   0  0.1825308E-08  0.3707146E+04  0.7818609E-02  0.8066380E-01
       -2   -1    0    0    0  501  0.00000000000E+00  0.00000000000E+00  0.12780969796E+04  0.12780969796E+04  0.25500000920E-02 0. -1.
        2   -1    0    0  501    0  0.00000000000E+00  0.00000000000E+00 -0.26881635669E+04  0.26881635669E+04  0.25500000920E-02 0.  1.
    10030    2    1    2    0    0  0.00000000000E+00  0.00000000000E+00 -0.14100665873E+04  0.39662605465E+04  0.37071464689E+04 0.  0.
        4    1    3    3  502    0  0.48173006277E+03  0.17403886116E+04 -0.11522391921E+04  0.21421188439E+04  0.12699999809E+01 0.  1.
       -4    1    3    3    0  502 -0.48173006277E+03 -0.17403886116E+04 -0.25782739516E+03  0.18241417026E+04  0.12699999809E+01 0. -1.
</event>
<event>
 5   0  0.5714125E-09  0.3700394E+04  0.7818609E-02  0.8067874E-01
       -1   -1    0    0    0  501  0.00000000000E+00  0.00000000000E+00  0.12105179717E+04  0.12105179717E+04  0.50400001928E-02 0.  1.
        1   -1    0    0  501    0  0.00000000000E+00  0.00000000000E+00 -0.28279044354E+04  0.28279044354E+04  0.50400001928E-02 0. -1.
    10030    2    1    2    0    0  0.00000000000E+00  0.00000000000E+00 -0.16173864637E+04  0.40384224070E+04  0.37003941094E+04 0.  0.
        2    1    3    3  502    0  0.16303143287E+03 -0.10550011618E+03  0.11993655852E+04  0.12149844977E+04  0.25500000920E-02 0.  1.
       -2    1    3    3    0  502 -0.16303143287E+03  0.10550011618E+03 -0.28167520489E+04  0.28234379093E+04  0.25500000920E-02 0. -1.
</event>
<event>
 5   0  0.5714125E-09  0.3698291E+04  0.7818609E-02  0.8068341E-01
        1   -1    0    0  501    0  0.00000000000E+00  0.00000000000E+00  0.16821375088E+04  0.16821375088E+04  0.50400001928E-02 0.  1.
       -1   -1    0    0    0  501  0.00000000000E+00  0.00000000000E+00 -0.20327344391E+04  0.20327344391E+04  0.50400001928E-02 0. -1.
    10030    2    1    2    0    0  0.00000000000E+00  0.00000000000E+00 -0.35059693026E+03  0.37148719479E+04  0.36982908730E+04 0.  0.
        4    1    3    3  502    0 -0.17392321019E+04 -0.10127786159E+03 -0.79787704599E+03  0.19161928146E+04  0.12699999809E+01 0. -1.
       -4    1    3    3    0  502  0.17392321019E+04  0.10127786159E+03  0.44728011573E+03  0.17986791332E+04  0.12699999809E+01 0.  1.
</event>
<event>
 5   0  0.1825308E-08  0.3699720E+04  0.7818609E-02  0.8068024E-01
        2   -1    0    0  501    0  0.00000000000E+00  0.00000000000E+00  0.14531124666E+04  0.14531124666E+04  0.25500000920E-02 0.  1.
       -2   -1    0    0    0  501  0.00000000000E+00  0.00000000000E+00 -0.23549323602E+04  0.23549323602E+04  0.25500000920E-02 0. -1.
    10030    2    1    2    0    0  0.00000000000E+00  0.00000000000E+00 -0.90181989358E+03  0.38080448268E+04  0.36997197573E+04 0.  0.
        4    1    3    3  502    0 -0.17603171603E+04 -0.14919012138E+03  0.11379374487E+03  0.17702894753E+04  0.12699999809E+01 0. -1.
       -4    1    3    3    0  502  0.17603171603E+04  0.14919012138E+03 -0.10156136384E+04  0.20377553515E+04  0.12699999809E+01 0.  1.
</event>
<event>
 5   0  0.1740290E-08  0.3696939E+04  0.7818609E-02  0.8068641E-01
        2   -1    0    0  501    0  0.00000000000E+00  0.00000000000E+00  0.14889577853E+04  0.14889577853E+04  0.25500000920E-02 0. -1.
       -2   -1    0    0    0  501  0.00000000000E+00  0.00000000000E+00 -0.22947858873E+04  0.22947858873E+04  0.25500000920E-02 0.  1.
    10030    2    1    2    0    0  0.00000000000E+00  0.00000000000E+00 -0.80582810203E+03  0.37837436726E+04  0.36969389026E+04 0.  0.
        5    1    3    3  502    0  0.67893971150E+03 -0.10024275741E+04  0.10266635691E+04  0.15874130991E+04  0.46999998093E+01 0. -1.
       -5    1    3    3    0  502 -0.67893971150E+03  0.10024275741E+04 -0.18324916711E+04  0.21963305735E+04  0.46999998093E+01 0.  1.
</event>
<event>
 5   0  0.5714125E-09  0.3700219E+04  0.7818609E-02  0.8067913E-01
       -1   -1    0    0    0  501  0.00000000000E+00  0.00000000000E+00  0.15711407198E+04  0.15711407198E+04  0.50400001928E-02 0. -1.
        1   -1    0    0  501    0  0.00000000000E+00  0.00000000000E+00 -0.21786114974E+04  0.21786114974E+04  0.50400001928E-02 0.  1.
    10030    2    1    2    0    0  0.00000000000E+00  0.00000000000E+00 -0.60747077757E+03  0.37497522172E+04  0.37002190401E+04 0.  0.
        4    1    3    3  502    0 -0.12661921218E+04  0.73876408235E+03  0.84004037736E+03  0.16895811041E+04  0.12699999809E+01 0. -1.
       -4    1    3    3    0  502  0.12661921218E+04 -0.73876408235E+03 -0.14475111549E+04  0.20601711131E+04  0.12699999809E+01 0.  1.
</event>
<event>
 5   0  0.1825308E-08  0.3700040E+04  0.7818609E-02  0.8067953E-01
       -2   -1    0    0    0  501  0.00000000000E+00  0.00000000000E+00  0.27099946504E+04  0.27099946504E+04  0.25500000920E-02 0. -1.
        2   -1    0    0  501    0  0.00000000000E+00  0.00000000000E+00 -0.12629447909E+04  0.12629447909E+04  0.25500000920E-02 0.  1.
    10030    2    1    2    0    0  0.00000000000E+00  0.00000000000E+00  0.14470498595E+04  0.39729394413E+04  0.37000397982E+04 0.  0.
        4    1    3    3  502    0  0.13921505927E+04  0.48751880313E+03 -0.47543981355E+03  0.15497749789E+04  0.12699999809E+01 0.  1.
       -4    1    3    3    0  502 -0.13921505927E+04 -0.48751880313E+03  0.19224896730E+04  0.24231644624E+04  0.12699999809E+01 0. -1.
</event>
<event>
 5   0  0.1757996E-08  0.3707388E+04  0.7818609E-02  0.8066326E-01
       -2   -1    0    0    0  501  0.00000000000E+00  0.00000000000E+00  0.13906026168E+04  0.13906026168E+04  0.25500000920E-02 0. -1.
        2   -1    0    0  501    0  0.00000000000E+00  0.00000000000E+00 -0.24710021556E+04  0.24710021556E+04  0.25500000920E-02 0.  1.
    10030    2    1    2    0    0  0.00000000000E+00  0.00000000000E+00 -0.10803995388E+04  0.38616047724E+04  0.37073883334E+04 0.  0.
        3    1    3    3  502    0 -0.88539186724E+02 -0.55951182331E+03  0.12982380320E+04  0.14164443745E+04  0.10100000352E+00 0. -1.
       -3    1    3    3    0  502  0.88539186724E+02  0.55951182331E+03 -0.23786375709E+04  0.24451603979E+04  0.10100000352E+00 0.  1.
</event>
<event>
 5   0  0.5714125E-09  0.3699775E+04  0.7818609E-02  0.8068012E-01
       -1   -1    0    0    0  501  0.00000000000E+00  0.00000000000E+00  0.14785531625E+04  0.14785531625E+04  0.50400001928E-02 0. -1.
        1   -1    0    0  501    0  0.00000000000E+00  0.00000000000E+00 -0.23144811627E+04  0.23144811627E+04  0.50400001928E-02 0.  1.
    10030    2    1    2    0    0  0.00000000000E+00  0.00000000000E+00 -0.83592800020E+03  0.37930343252E+04  0.36997748270E+04 0.  0.
        5    1    3    3  502    0 -0.11877258431E+04  0.13423300034E+04  0.51306243208E+02  0.17930970239E+04  0.46999998093E+01 0. -1.
       -5    1    3    3    0  502  0.11877258431E+04 -0.13423300034E+04 -0.88723424341E+03  0.19999373013E+04  0.46999998093E+01 0.  1.
</event>
<event>
 5   0  0.1856107E-08  0.3706373E+04  0.7818609E-02  0.8066551E-01
       -2   -1    0    0    0  501  0.00000000000E+00  0.00000000000E+00  0.26297763811E+04  0.26297763811E+04  0.25500000920E-02 0. -1.
        2   -1    0    0  501    0  0.00000000000E+00  0.00000000000E+00 -0.13059288892E+04  0.13059288892E+04  0.25500000920E-02 0.  1.
    10030    2    1    2    0    0  0.00000000000E+00  0.00000000000E+00  0.13238474919E+04  0.39357052702E+04  0.37063734016E+04 0.  0.
        2    1    3    3  502    0 -0.31269353762E+03  0.29799661010E+03 -0.12517275449E+04  0.13241605170E+04  0.25500000920E-02 0.  1.
       -2    1    3    3    0  502  0.31269353762E+03 -0.29799661010E+03  0.25755750368E+04  0.26115447533E+04  0.25500000920E-02 0. -1.
</event>
<event>
 5   0  0.5714125E-09  0.3700371E+04  0.7818609E-02  0.8067880E-01
        3   -1    0    0  501    0  0.00000000000E+00  0.00000000000E+00  0.17584648345E+04  0.17584648374E+04  0.10100000352E+00 0.  1.
       -3   -1    0    0    0  501  0.00000000000E+00  0.00000000000E+00 -0.19466897578E+04  0.19466897604E+04  0.10100000352E+00 0. -1.
    10030    2    1    2    0    0  0.00000000000E+00  0.00000000000E+00 -0.18822492323E+03  0.37051545978E+04  0.37003705182E+04 0.  0.
        4    1    3    3  502    0 -0.28983713896E+02 -0.21245467641E+03  0.17459812928E+04  0.17590990117E+04  0.12699999809E+01 0.  1.
       -4    1    3    3    0  502  0.28983713896E+02  0.21245467641E+03 -0.19342062160E+04  0.19460555861E+04  0.12699999809E+01 0. -1.
</event>
<event>
 5   0  0.1856107E-08  0.3701345E+04  0.7818609E-02  0.8067664E-01
       -2   -1    0    0    0  501  0.00000000000E+00  0.00000000000E+00  0.21780903928E+04  0.21780903928E+04  0.25500000920E-02 0. -1.
        2   -1    0    0  501    0  0.00000000000E+00  0.00000000000E+00 -0.15724733390E+04  0.15724733390E+04  0.25500000920E-02 0.  1.
    10030    2    1    2    0    0  0.00000000000E+00  0.00000000000E+00  0.60561705384E+03  0.37505637318E+04  0.37013452001E+04 0.  0.
        2    1    3    3  502    0  0.37415313472E+03  0.15843386159E+04 -0.58916360443E+03  0.17312519085E+04  0.25500000920E-02 0.  1.
       -2    1    3    3    0  502 -0.37415313472E+03 -0.15843386159E+04  0.11947806583E+04  0.20193118232E+04  0.25500000920E-02 0. -1.
</event>
<event>
 5   0  0.5714125E-09  0.3699455E+04  0.7818609E-02  0.8068083E-01
        1   -1    0    0  501    0  0.00000000000E+00  0.00000000000E+00  0.18817522669E+04  0.18817522669E+04  0.50400001928E-02 0.  1.
       -1   -1    0    0    0  501  0.00000000000E+00  0.00000000000E+00 -0.18182479737E+04  0.18182479737E+04  0.50400001928E-02 0. -1.
    10030    2    1    2    0    0  0.00000000000E+00  0.00000000000E+00  0.63504293172E+02  0.37000002406E+04  0.36994552282E+04 0.  0.
        3    1    3    3  502    0  0.11360668337E+04  0.43050401740E+03  0.14267732766E+04  0.18739433163E+04  0.10100000352E+00 0.  1.
       -3    1    3    3    0  502 -0.11360668337E+04 -0.43050401740E+03 -0.13632689834E+04  0.18260569243E+04  0.10100000352E+00 0. -1.
</event>
<event>
 5   0  0.1757996E-08  0.3699432E+04  0.7818609E-02  0.8068088E-01
       -2   -1    0    0    0  501  0.00000000000E+00  0.00000000000E+00  0.21837650579E+04  0.21837650579E+04  0.25500000920E-02 0.  1.
        2   -1    0    0  501    0  0.00000000000E+00  0.00000000000E+00 -0.15667663529E+04  0.15667663529E+04  0.25500000920E-02 0. -1.
    10030    2    1    2    0    0  0.00000000000E+00  0.00000000000E+00  0.61699870501E+03  0.37505314107E+04  0.36994321809E+04 0.  0.
        3    1    3    3  502    0  0.11293325586E+04 -0.62970491123E+03  0.16494671456E+04  0.20958678817E+04  0.10100000352E+00 0.  1.
       -3    1    3    3    0  502 -0.11293325586E+04  0.62970491123E+03 -0.10324684406E+04  0.16546635290E+04  0.10100000352E+00 0. -1.
</event>
<event>
 5   0  0.5714125E-09  0.3700294E+04  0.7818609E-02  0.8067897E-01
       -1   -1    0    0    0  501  0.00000000000E+00  0.00000000000E+00  0.18817360684E+04  0.18817360684E+04  0.50400001928E-02 0.  1.
        1   -1    0    0  501    0  0.00000000000E+00  0.00000000000E+00 -0.18190881495E+04  0.18190881495E+04  0.50400001928E-02 0. -1.
    10030    2    1    2    0    0  0.00000000000E+00  0.00000000000E+00  0.62647918862E+02  0.37008242179E+04  0.37002939248E+04 0.  0.
        4    1    3    3  502    0  0.13058297010E+04  0.99067213293E+03 -0.82694801137E+03  0.18358831960E+04  0.12699999809E+01 0.  1.
       -4    1    3    3    0  502 -0.13058297010E+04 -0.99067213293E+03  0.88959593023E+03  0.18649410219E+04  0.12699999809E+01 0. -1.
</event>
<event>
 5   0  0.5714125E-09  0.3699143E+04  0.7818609E-02  0.8068152E-01
       -1   -1    0    0    0  501  0.00000000000E+00  0.00000000000E+00  0.14216905839E+04  0.14216905839E+04  0.50400001928E-02 0.  1.
        1   -1    0    0  501    0  0.00000000000E+00  0.00000000000E+00 -0.24062301377E+04  0.24062301377E+04  0.50400001928E-02 0. -1.
    10030    2    1    2    0    0  0.00000000000E+00  0.00000000000E+00 -0.98453955385E+03  0.38279207216E+04  0.36991429978E+04 0.  0.
        1    1    3    3  502    0 -0.19360811165E+03 -0.49294940767E+03  0.13415492636E+04  0.14423028968E+04  0.50400001928E-02 0.  1.
       -1    1    3    3    0  502  0.19360811165E+03  0.49294940767E+03 -0.23260888175E+04  0.23856178248E+04  0.50400001928E-02 0. -1.
</event>
<event>
 5   0  0.1856107E-08  0.3697610E+04  0.7818609E-02  0.8068492E-01
       -2   -1    0    0    0  501  0.00000000000E+00  0.00000000000E+00  0.13016560868E+04  0.13016560868E+04  0.25500000920E-02 0.  1.
        2   -1    0    0  501    0  0.00000000000E+00  0.00000000000E+00 -0.26259472043E+04  0.26259472043E+04  0.25500000920E-02 0. -1.
    10030    2    1    2    0    0  0.00000000000E+00  0.00000000000E+00 -0.13242911175E+04  0.39276032911E+04  0.36976101266E+04 0.  0.
        2    1    3    3  502    0 -0.18054189858E+04  0.17614001439E+03 -0.10414524951E+04  0.20916946046E+04  0.25500000920E-02 0. -1.
       -2    1    3    3    0  502  0.18054189858E+04 -0.17614001439E+03 -0.28283862235E+03  0.18359086866E+04  0.25500000920E-02 0.  1.
</event>
<event>
 5   0  0.5714125E-09  0.3700177E+04  0.7818609E-02  0.8067923E-01
        1   -1    0    0  501    0  0.00000000000E+00  0.00000000000E+00  0.17816877805E+04  0.17816877805E+04  0.50400001928E-02 0.  1.
       -1   -1    0    0    0  501  0.00000000000E+00  0.00000000000E+00 -0.19211152019E+04  0.19211152019E+04  0.50400001928E-02 0. -1.
    10030    2    1    2    0    0  0.00000000000E+00  0.00000000000E+00 -0.13942742140E+03  0.37028029824E+04  0.37001770121E+04 0.  0.
        3    1    3    3  502    0 -0.10864662480E+04  0.36167885670E+03  0.13844545028E+04  0.17966454253E+04  0.10100000352E+00 0.  1.
       -3    1    3    3    0  502  0.10864662480E+04 -0.36167885670E+03 -0.15238819242E+04  0.19061575572E+04  0.10100000352E+00 0. -1.
</event>
<event>
 5   0  0.1825308E-08  0.3702023E+04  0.7818609E-02  0.8067514E-01
        2   -1    0    0  501    0  0.00000000000E+00  0.00000000000E+00  0.28645349301E+04  0.28645349301E+04  0.25500000920E-02 0.  1.
       -2   -1    0    0    0  501  0.00000000000E+00  0.00000000000E+00 -0.11960907137E+04  0.11960907137E+04  0.25500000920E-02 0. -1.
    10030    2    1    2    0    0  0.00000000000E+00  0.00000000000E+00  0.16684442163E+04  0.40606256438E+04  0.37020230302E+04 0.  0.
        4    1    3    3  502    0  0.38579732621E+03  0.77030853768E+03  0.26312188630E+04  0.27686691998E+04  0.12699999809E+01 0.  1.
       -4    1    3    3    0  502 -0.38579732621E+03 -0.77030853768E+03 -0.96277464663E+03  0.12919564440E+04  0.12699999809E+01 0. -1.
</event>
<event>
 5   0  0.1757996E-08  0.3697104E+04  0.7818609E-02  0.8068604E-01
       -2   -1    0    0    0  501  0.00000000000E+00  0.00000000000E+00  0.12930039026E+04  0.12930039026E+04  0.25500000920E-02 0.  1.
        2   -1    0    0  501    0  0.00000000000E+00  0.00000000000E+00 -0.26427946296E+04  0.26427946296E+04  0.25500000920E-02 0. -1.
    10030    2    1    2    0    0  0.00000000000E+00  0.00000000000E+00 -0.13497907270E+04  0.39357985322E+04  0.36971036067E+04 0.  0.
        3    1    3    3  502    0 -0.58228272945E+02  0.18907738181E+03  0.12817010438E+04  0.12968802427E+04  0.10100000352E+00 0.  1.
       -3    1    3    3    0  502  0.58228272945E+02 -0.18907738181E+03 -0.26314917708E+04  0.26389182894E+04  0.10100000352E+00 0. -1.
</event>
<event>
 5   0  0.1740290E-08  0.3700532E+04  0.7818609E-02  0.8067844E-01
        2   -1    0    0  501    0  0.00000000000E+00  0.00000000000E+00  0.19928595877E+04  0.19928595877E+04  0.25500000920E-02 0. -1.
       -2   -1    0    0    0  501  0.00000000000E+00  0.00000000000E+00 -0.17178752433E+04  0.17178752433E+04  0.25500000920E-02 0.  1.
    10030    2    1    2    0    0  0.00000000000E+00  0.00000000000E+00  0.27498434436E+03  0.37107348310E+04  0.37005319343E+04 0.  0.
        5    1    3    3  502    0  0.11877184083E+04 -0.75376591233E+03  0.13427311707E+04  0.19446817618E+04  0.46999998093E+01 0. -1.
       -5    1    3    3    0  502 -0.11877184083E+04  0.75376591233E+03 -0.10677468264E+04  0.17660530692E+04  0.46999998093E+01 0.  1.
</event>
<event>
 5   0  0.5714125E-09  0.3700229E+04  0.7818609E-02  0.8067911E-01
       -1   -1    0    0    0  501  0.00000000000E+00  0.00000000000E+00  0.17540262339E+04  0.17540262339E+04  0.50400001928E-02 0.  1.
        1   -1    0    0  501    0  0.00000000000E+00  0.00000000000E+00 -0.19514669964E+04  0.19514669964E+04  0.50400001928E-02 0. -1.
    10030    2    1    2    0    0  0.00000000000E+00  0.00000000000E+00 -0.19744076254E+03  0.37054932303E+04  0.37002293476E+04 0.  0.
        4    1    3    3  502    0  0.14039140489E+03 -0.52732821299E+03 -0.18690411889E+04  0.19470750806E+04  0.12699999809E+01 0. -1.
       -4    1    3    3    0  502 -0.14039140489E+03  0.52732821299E+03  0.16716004264E+04  0.17584181497E+04  0.12699999809E+01 0.  1.
</event>
<event>
 5   0  0.5714125E-09  0.3696359E+04  0.7818609E-02  0.8068769E-01
       -1   -1    0    0    0  501  0.00000000000E+00  0.00000000000E+00  0.15960098998E+04  0.15960098998E+04  0.50400001928E-02 0.  1.
        1   -1    0    0  501    0  0.00000000000E+00  0.00000000000E+00 -0.21401917917E+04  0.21401917917E+04  0.50400001928E-02 0. -1.
    10030    2    1    2    0    0  0.00000000000E+00  0.00000000000E+00 -0.54418189197E+03  0.37362016915E+04  0.36963589041E+04 0.  0.
        3    1    3    3  502    0 -0.11480506393E+04  0.58731698757E+03  0.10661153714E+04  0.16731896215E+04  0.10100000352E+00 0.  1.
       -3    1    3    3    0  502  0.11480506393E+04 -0.58731698757E+03 -0.16102972633E+04  0.20630120700E+04  0.10100000352E+00 0. -1.
</event>
<event>
 5   0  0.5714125E-09  0.3700413E+04  0.7818609E-02  0.8067870E-01
       -1   -1    0    0    0  501  0.00000000000E+00  0.00000000000E+00  0.13812157773E+04  0.13812157773E+04  0.50400001928E-02 0.  1.
        1   -1    0    0  501    0  0.00000000000E+00  0.00000000000E+00 -0.24784424705E+04  0.24784424705E+04  0.50400001928E-02 0. -1.
    10030    2    1    2    0    0  0.00000000000E+00  0.00000000000E+00 -0.10972266931E+04  0.38596582478E+04  0.37004128653E+04 0.  0.
        5    1    3    3  502    0  0.13722587685E+04  0.42803300837E+02  0.74505031194E+03  0.15620653980E+04  0.46999998093E+01 0.  1.
       -5    1    3    3    0  502 -0.13722587685E+04 -0.42803300837E+02 -0.18422770051E+04  0.22975928498E+04  0.46999998093E+01 0. -1.
</event>
<event>
 5   0  0.1825308E-08  0.3700899E+04  0.7818609E-02  0.8067763E-01
        2   -1    0    0  501    0  0.00000000000E+00  0.00000000000E+00  0.19518887252E+04  0.19518887252E+04  0.25500000920E-02 0.  1.
       -2   -1    0    0    0  501  0.00000000000E+00  0.00000000000E+00 -0.17542823394E+04  0.17542823394E+04  0.25500000920E-02 0. -1.
    10030    2    1    2    0    0  0.00000000000E+00  0.00000000000E+00  0.19760638584E+03  0.37061710647E+04  0.37008993065E+04 0.  0.
        4    1    3    3  502    0 -0.11322282329E+04 -0.19842088929E+03 -0.13533833576E+04  0.17756575532E+04  0.12699999809E+01 0. -1.
       -4    1    3    3    0  502  0.11322282329E+04  0.19842088929E+03  0.15509897434E+04  0.19305135114E+04  0.12699999809E+01 0.  1.
</event>
<event>
 5   0  0.1725865E-08  0.3699658E+04  0.7818609E-02  0.8068038E-01
       -2   -1    0    0    0  501  0.00000000000E+00  0.00000000000E+00  0.19403522120E+04  0.19403522121E+04  0.25500000920E-02 0. -1.
        2   -1    0    0  501    0  0.00000000000E+00  0.00000000000E+00 -0.17635285446E+04  0.17635285446E+04  0.25500000920E-02 0.  1.
    10030    2    1    2    0    0  0.00000000000E+00  0.00000000000E+00  0.17682366748E+03  0.37038807566E+04  0.36996575585E+04 0.  0.
        1    1    3    3  502    0 -0.17438299128E+04 -0.46054509643E+03 -0.32293668745E+03  0.18323025555E+04  0.50400001928E-02 0. -1.
       -1    1    3    3    0  502  0.17438299128E+04  0.46054509643E+03  0.49976035493E+03  0.18715782012E+04  0.50400001928E-02 0.  1.
</event>
<event>
 5   0  0.1740290E-08  0.3693068E+04  0.7818609E-02  0.8069500E-01
        2   -1    0    0  501    0  0.00000000000E+00  0.00000000000E+00  0.13459915692E+04  0.13459915692E+04  0.25500000920E-02 0. -1.
       -2   -1    0    0    0  501  0.00000000000E+00  0.00000000000E+00 -0.25332163516E+04  0.25332163516E+04  0.25500000920E-02 0.  1.
    10030    2    1    2    0    0  0.00000000000E+00  0.00000000000E+00 -0.11872247825E+04  0.38792079208E+04  0.36930680211E+04 0.  0.
        5    1    3    3  502    0  0.96939494340E+03 -0.85737775426E+03  0.78990871560E+03  0.15161797515E+04  0.46999998093E+01 0. -1.
       -5    1    3    3    0  502 -0.96939494340E+03  0.85737775426E+03 -0.19771334981E+04  0.23630281693E+04  0.46999998093E+01 0.  1.
</event>
<event>
 5   0  0.1825308E-08  0.3699662E+04  0.7818609E-02  0.8068037E-01
        2   -1    0    0  501    0  0.00000000000E+00  0.00000000000E+00  0.24734241635E+04  0.24734241635E+04  0.25500000920E-02 0.  1.
       -2   -1    0    0    0  501  0.00000000000E+00  0.00000000000E+00 -0.13834566602E+04  0.13834566602E+04  0.25500000920E-02 0. -1.
    10030    2    1    2    0    0  0.00000000000E+00  0.00000000000E+00  0.10899675033E+04  0.38568808238E+04  0.36996622185E+04 0.  0.
        4    1    3    3  502    0  0.14471230491E+04 -0.40802284327E+03  0.16683787235E+04  0.22459156124E+04  0.12699999809E+01 0.  1.
       -4    1    3    3    0  502 -0.14471230491E+04  0.40802284327E+03 -0.57841122025E+03  0.16109652114E+04  0.12699999809E+01 0. -1.
</event>
<event>
 5   0  0.1856107E-08  0.3699140E+04  0.7818609E-02  0.8068152E-01
        2   -1    0    0  501    0  0.00000000000E+00  0.00000000000E+00  0.20929253659E+04  0.20929253659E+04  0.25500000920E-02 0.  1.
       -2   -1    0    0    0  501  0.00000000000E+00  0.00000000000E+00 -0.16345106757E+04  0.16345106757E+04  0.25500000920E-02 0. -1.
    10030    2    1    2    0    0  0.00000000000E+00  0.00000000000E+00  0.45841469020E+03  0.37274360416E+04  0.36991398211E+04 0.  0.
        2    1    3    3  502    0  0.44071747067E+03  0.10271626420E+03  0.20362816185E+04  0.20859590959E+04  0.25500000920E-02 0.  1.
       -2    1    3    3    0  502 -0.44071747067E+03 -0.10271626420E+03 -0.15778669283E+04  0.16414769457E+04  0.25500000920E-02 0. -1.
</event>
<event>
 5   0  0.1740290E-08  0.3699370E+04  0.7818609E-02  0.8068101E-01
        2   -1    0    0  501    0  0.00000000000E+00  0.00000000000E+00  0.14856769792E+04  0.14856769792E+04  0.25500000920E-02 0.  1.
       -2   -1    0    0    0  501  0.00000000000E+00  0.00000000000E+00 -0.23028797041E+04  0.23028797041E+04  0.25500000920E-02 0. -1.
    10030    2    1    2    0    0  0.00000000000E+00  0.00000000000E+00 -0.81720272495E+03  0.37885566833E+04  0.36993704125E+04 0.  0.
        5    1    3    3  502    0  0.14938371198E+04 -0.49659995008E+03 -0.14031749294E+04  0.21088107605E+04  0.46999998093E+01 0. -1.
       -5    1    3    3    0  502 -0.14938371198E+04  0.49659995008E+03  0.58597220448E+03  0.16797459228E+04  0.46999998093E+01 0.  1.
</event>
<event>
 5   0  0.1740290E-08  0.3699796E+04  0.7818609E-02  0.8068007E-01
       -2   -1    0    0    0  501  0.00000000000E+00  0.00000000000E+00  0.11170433645E+04  0.11170433645E+04  0.25500000920E-02 0.  1.
        2   -1    0    0  501    0  0.00000000000E+00  0.00000000000E+00 -0.30635540130E+04  0.30635540130E+04  0.25500000920E-02 0. -1.
    10030    2    1    2    0    0  0.00000000000E+00  0.00000000000E+00 -0.19465106485E+04  0.41805973775E+04  0.36997960387E+04 0.  0.
        5    1    3    3  502    0  0.16254368657E+04 -0.32145232321E+02 -0.19705775504E+04  0.25546577642E+04  0.46999998093E+01 0. -1.
       -5    1    3    3    0  502 -0.16254368657E+04  0.32145232321E+02  0.24066901892E+02  0.16259396133E+04  0.46999998093E+01 0.  1.
</event>
<event>
 5   0  0.5714125E-09  0.3703568E+04  0.7818609E-02  0.8067172E-01
       -1   -1    0    0    0  501  0.00000000000E+00  0.00000000000E+00  0.17332471168E+04  0.17332471168E+04  0.50400001928E-02 0.  1.
        1   -1    0    0  501    0  0.00000000000E+00  0.00000000000E+00 -0.19784272311E+04  0.19784272311E+04  0.50400001928E-02 0. -1.
    10030    2    1    2    0    0  0.00000000000E+00  0.00000000000E+00 -0.24518011435E+03  0.37116743479E+04  0.37035676282E+04 0.  0.
        2    1    3    3  502    0  0.16076297574E+04  0.91871686001E+03 -0.98263724060E+02  0.18542302622E+04  0.25500000920E-02 0.  1.
       -2    1    3    3    0  502 -0.16076297574E+04 -0.91871686001E+03 -0.14691639029E+03  0.18574440857E+04  0.25500000920E-02 0. -1.
</event>
<event>
 5   0  0.5714125E-09  0.3698288E+04  0.7818609E-02  0.8068341E-01
       -1   -1    0    0    0  501  0.00000000000E+00  0.00000000000E+00  0.15578655853E+04  0.15578655853E+04  0.50400001928E-02 0. -1.
        1   -1    0    0  501    0  0.00000000000E+00  0.00000000000E+00 -0.21948830926E+04  0.21948830927E+04  0.50400001928E-02 0.  1.
    10030    2    1    2    0    0  0.00000000000E+00  0.00000000000E+00 -0.63701750731E+03  0.37527486780E+04  0.36982876221E+04 0.  0.
        2    1    3    3  502    0 -0.10062993569E+04 -0.20292672706E+03 -0.18791808534E+04  0.21412936118E+04  0.25500000920E-02 0.  1.
       -2    1    3    3    0  502  0.10062993569E+04  0.20292672706E+03  0.12421633460E+04  0.16114550662E+04  0.25500000920E-02 0. -1.
</event>
<event>
 5   0  0.5714125E-09  0.3697756E+04  0.7818609E-02  0.8068459E-01
       -4   -1    0    0    0  501  0.00000000000E+00  0.00000000000E+00  0.26904186270E+04  0.26904189267E+04  0.12699999809E+01 0.  1.
        4   -1    0    0  501    0  0.00000000000E+00  0.00000000000E+00 -0.12705636726E+04  0.12705643073E+04  0.12699999809E+01 0. -1.
    10030    2    1    2    0    0  0.00000000000E+00  0.00000000000E+00  0.14198549544E+04  0.39609832340E+04  0.36977560883E+04 0.  0.
        2    1    3    3  502    0 -0.14565999016E+04 -0.10861012443E+04  0.34344602217E+03  0.18491225910E+04  0.25500000920E-02 0.  1.
       -2    1    3    3    0  502  0.14565999016E+04  0.10861012443E+04  0.10764089322E+04  0.21118606430E+04  0.25500000920E-02 0. -1.
</event>
<event>
 5   0  0.5714125E-09  0.3700618E+04  0.7818609E-02  0.8067825E-01
       -1   -1    0    0    0  501  0.00000000000E+00  0.00000000000E+00  0.27886015629E+04  0.27886015629E+04  0.50400001928E-02 0. -1.
        1   -1    0    0  501    0  0.00000000000E+00  0.00000000000E+00 -0.12277278552E+04  0.12277278552E+04  0.50400001928E-02 0.  1.
    10030    2    1    2    0    0  0.00000000000E+00  0.00000000000E+00  0.15608737076E+04  0.40163294181E+04  0.37006182272E+04 0.  0.
        5    1    3    3  502    0 -0.30418140231E+03 -0.10105216569E+04  0.24299490168E+04  0.26492177447E+04  0.46999998093E+01 0. -1.
       -5    1    3    3    0  502  0.30418140231E+03  0.10105216569E+04 -0.86907530914E+03  0.13671116734E+04  0.46999998093E+01 0.  1.
</event>
<event>
 5   0  0.1757996E-08  0.3698654E+04  0.7818609E-02  0.8068260E-01
       -2   -1    0    0    0  501  0.00000000000E+00  0.00000000000E+00  0.25071547433E+04  0.25071547433E+04  0.25500000920E-02 0.  1.
        2   -1    0    0  501    0  0.00000000000E+00  0.00000000000E+00 -0.13641002932E+04  0.13641002932E+04  0.25500000920E-02 0. -1.
    10030    2    1    2    0    0  0.00000000000E+00  0.00000000000E+00  0.11430544501E+04  0.38712550365E+04  0.36986540906E+04 0.  0.
        3    1    3    3  502    0  0.11455678030E+04 -0.13938975090E+04  0.14671153348E+03  0.18101933988E+04  0.10100000352E+00 0. -1.
       -3    1    3    3    0  502 -0.11455678030E+04  0.13938975090E+04  0.99634291658E+03  0.20610616377E+04  0.10100000352E+00 0.  1.
</event>
<event>
 5   0  0.5714125E-09  0.3701843E+04  0.7818609E-02  0.8067553E-01
        1   -1    0    0  501    0  0.00000000000E+00  0.00000000000E+00  0.26598386986E+04  0.26598386986E+04  0.50400001928E-02 0. -1.
       -1   -1    0    0    0  501  0.00000000000E+00  0.00000000000E+00 -0.12880145570E+04  0.12880145570E+04  0.50400001928E-02 0.  1.
    10030    2    1    2    0    0  0.00000000000E+00  0.00000000000E+00  0.13718241416E+04  0.39478532556E+04  0.37018433047E+04 0.  0.
        1    1    3    3  502    0  0.11502124910E+04  0.12000688354E+04 -0.18228861506E+03  0.16722389552E+04  0.50400001928E-02 0.  1.
       -1    1    3    3    0  502 -0.11502124910E+04 -0.12000688354E+04  0.15541127567E+04  0.22756143004E+04  0.50400001928E-02 0. -1.
</event>
<event>
 5   0  0.5714125E-09  0.3700858E+04  0.7818609E-02  0.8067772E-01
        1   -1    0    0  501    0  0.00000000000E+00  0.00000000000E+00  0.23287473207E+04  0.23287473207E+04  0.50400001928E-02 0. -1.
       -1   -1    0    0    0  501  0.00000000000E+00  0.00000000000E+00 -0.14703556561E+04  0.14703556561E+04  0.50400001928E-02 0.  1.
    10030    2    1    2    0    0  0.00000000000E+00  0.00000000000E+00  0.85839166455E+03  0.37991029768E+04  0.37008576275E+04 0.  0.
        2    1    3    3  502    0  0.14550588022E+04 -0.11393185678E+04  0.33265744088E+03  0.18777390366E+04  0.25500000920E-02 0.  1.
       -2    1    3    3    0  502 -0.14550588022E+04  0.11393185678E+04  0.52573422367E+03  0.19213639402E+04  0.25500000920E-02 0. -1.
</event>
<event>
 5   0  0.5714125E-09  0.3699602E+04  0.7818609E-02  0.8068050E-01
        1   -1    0    0  501    0  0.00000000000E+00  0.00000000000E+00  0.12569601916E+04  0.12569601916E+04  0.50400001928E-02 0. -1.
       -1   -1    0    0    0  501  0.00000000000E+00  0.00000000000E+00 -0.27222534508E+04  0.27222534508E+04  0.50400001928E-02 0.  1.
    10030    2    1    2    0    0  0.00000000000E+00  0.00000000000E+00 -0.14652932592E+04  0.39792136424E+04  0.36996022593E+04 0.  0.
        5    1    3    3  502    0 -0.10242823692E+04 -0.89850329931E+03  0.61302216209E+03  0.14940819294E+04  0.46999998093E+01 0. -1.
       -5    1    3    3    0  502  0.10242823692E+04  0.89850329931E+03 -0.20783154213E+04  0.24851317130E+04  0.46999998093E+01 0.  1.
</event>
<event>
 5   0  0.1856107E-08  0.3702189E+04  0.7818609E-02  0.8067477E-01
        2   -1    0    0  501    0  0.00000000000E+00  0.00000000000E+00  0.25782172256E+04  0.25782172256E+04  0.25500000920E-02 0. -1.
       -2   -1    0    0    0  501  0.00000000000E+00  0.00000000000E+00 -0.13290390495E+04  0.13290390495E+04  0.25500000920E-02 0.  1.
    10030    2    1    2    0    0  0.00000000000E+00  0.00000000000E+00  0.12491781761E+04  0.39072562750E+04  0.37021892825E+04 0.  0.
        2    1    3    3  502    0  0.70914404675E+02 -0.18449667252E+04  0.48449495781E+03  0.19088390278E+04  0.25500000920E-02 0.  1.
       -2    1    3    3    0  502 -0.70914404675E+02  0.18449667252E+04  0.76468321828E+03  0.19984172473E+04  0.25500000920E-02 0. -1.
</event>
<event>
 5   0  0.1825308E-08  0.3699210E+04  0.7818609E-02  0.8068137E-01
        2   -1    0    0  501    0  0.00000000000E+00  0.00000000000E+00  0.17947237594E+04  0.17947237594E+04  0.25500000920E-02 0. -1.
       -2   -1    0    0    0  501  0.00000000000E+00  0.00000000000E+00 -0.19061645421E+04  0.19061645421E+04  0.25500000920E-02 0.  1.
    10030    2    1    2    0    0  0.00000000000E+00  0.00000000000E+00 -0.11144078270E+03  0.37008883015E+04  0.36992100741E+04 0.  0.
        4    1    3    3  502    0  0.16243547714E+04  0.37120980018E+01 -0.94070916537E+03  0.18770928452E+04  0.12699999809E+01 0.  1.
       -4    1    3    3    0  502 -0.16243547714E+04 -0.37120980018E+01  0.82926838267E+03  0.18237954563E+04  0.12699999809E+01 0. -1.
</event>
<event>
 5   0  0.5714125E-09  0.3700361E+04  0.7818609E-02  0.8067882E-01
       -1   -1    0    0    0  501  0.00000000000E+00  0.00000000000E+00  0.14036471179E+04  0.14036471179E+04  0.50400001928E-02 0. -1.
        1   -1    0    0  501    0  0.00000000000E+00  0.00000000000E+00 -0.24387671622E+04  0.24387671622E+04  0.50400001928E-02 0.  1.
    10030    2    1    2    0    0  0.00000000000E+00  0.00000000000E+00 -0.10351200442E+04  0.38424142801E+04  0.37003613329E+04 0.  0.
        3    1    3    3  502    0  0.31669080664E+03 -0.77356365888E+03  0.11964029769E+04  0.14594772676E+04  0.10100000352E+00 0. -1.
       -3    1    3    3    0  502 -0.31669080664E+03  0.77356365888E+03 -0.22315230211E+04  0.23829370125E+04  0.10100000352E+00 0.  1.
</event>
<event>
 5   0  0.1856107E-08  0.3673822E+04  0.7818609E-02  0.8073788E-01
       -2   -1    0    0    0  501  0.00000000000E+00  0.00000000000E+00  0.17696319633E+04  0.17696319633E+04  0.25500000920E-02 0.  1.
        2   -1    0    0  501    0  0.00000000000E+00  0.00000000000E+00 -0.19067480798E+04  0.19067480798E+04  0.25500000920E-02 0. -1.
    10030    2    1    2    0    0  0.00000000000E+00  0.00000000000E+00 -0.13711611653E+03  0.36763800431E+04  0.36738221775E+04 0.  0.
        2    1    3    3  502    0  0.45644817005E+03 -0.11851934393E+04 -0.13965893982E+04  0.18877209454E+04  0.25500000920E-02 0. -1.
       -2    1    3    3    0  502 -0.45644817005E+03  0.11851934393E+04  0.12594732817E+04  0.17886590977E+04  0.25500000920E-02 0.  1.
</event>
<event>
 5   0  0.5714125E-09  0.3700097E+04  0.7818609E-02  0.8067940E-01
       -1   -1    0    0    0  501  0.00000000000E+00  0.00000000000E+00  0.18728550719E+04  0.18728550719E+04  0.50400001928E-02 0.  1.
        1   -1    0    0  501    0  0.00000000000E+00  0.00000000000E+00 -0.18275200604E+04  0.18275200605E+04  0.50400001928E-02 0. -1.
    10030    2    1    2    0    0  0.00000000000E+00  0.00000000000E+00  0.45335011468E+02  0.37003751324E+04  0.37000974118E+04 0.  0.
        5    1    3    3  502    0 -0.10187402222E+04 -0.84481616449E+03 -0.12701445460E+04  0.18343487263E+04  0.46999998093E+01 0. -1.
       -5    1    3    3    0  502  0.10187402222E+04  0.84481616449E+03  0.13154795575E+04  0.18660264061E+04  0.46999998093E+01 0.  1.
</event>
<event>
 5   0  0.5714125E-09  0.3698730E+04  0.7818609E-02  0.8068243E-01
       -1   -1    0    0    0  501  0.00000000000E+00  0.00000000000E+00  0.23372044984E+04  0.23372044984E+04  0.50400001928E-02 0.  1.
        1   -1    0    0  501    0  0.00000000000E+00  0.00000000000E+00 -0.14633510788E+04  0.14633510788E+04  0.50400001928E-02 0. -1.
    10030    2    1    2    0    0  0.00000000000E+00  0.00000000000E+00  0.87385341958E+03  0.38005555772E+04  0.36987299031E+04 0.  0.
        4    1    3    3  502    0  0.49516781585E+03 -0.29850175142E+03 -0.13680940550E+04  0.14852533176E+04  0.12699999809E+01 0. -1.
       -4    1    3    3    0  502 -0.49516781585E+03  0.29850175142E+03  0.22419474745E+04  0.23153022595E+04  0.12699999809E+01 0.  1.
</event>
<event>
 5   0  0.5714125E-09  0.3701258E+04  0.7818609E-02  0.8067683E-01
       -1   -1    0    0    0  501  0.00000000000E+00  0.00000000000E+00  0.25134721150E+04  0.25134721150E+04  0.50400001928E-02 0.  1.
        1   -1    0    0  501    0  0.00000000000E+00  0.00000000000E+00 -0.13625881080E+04  0.13625881080E+04  0.50400001928E-02 0. -1.
    10030    2    1    2    0    0  0.00000000000E+00  0.00000000000E+00  0.11508840070E+04  0.38760602230E+04  0.37012577396E+04 0.  0.
        2    1    3    3  502    0  0.24172282580E+03  0.12276549828E+04  0.20033864534E+04  0.23620169269E+04  0.25500000920E-02 0.  1.
       -2    1    3    3    0  502 -0.24172282580E+03 -0.12276549828E+04 -0.85250244643E+03  0.15140432961E+04  0.25500000920E-02 0. -1.
</event>
<event>
 5   0  0.5714125E-09  0.3698944E+04  0.7818609E-02  0.8068196E-01
       -1   -1    0    0    0  501  0.00000000000E+00  0.00000000000E+00  0.20271314524E+04  0.20271314524E+04  0.50400001928E-02 0.  1.
        1   -1    0    0  501    0  0.00000000000E+00  0.00000000000E+00 -0.16873824186E+04  0.16873824186E+04  0.50400001928E-02 0. -1.
    10030    2    1    2    0    0  0.00000000000E+00  0.00000000000E+00  0.33974903386E+03  0.37145138710E+04  0.36989436184E+04 0.  0.
        5    1    3    3  502    0  0.11054376128E+04 -0.82007127604E+03 -0.10706450735E+04  0.17437924696E+04  0.46999998093E+01 0. -1.
       -5    1    3    3    0  502 -0.11054376128E+04  0.82007127604E+03  0.14103941074E+04  0.19707214014E+04  0.46999998093E+01 0.  1.
</event>
<event>
 5   0  0.5714125E-09  0.3696650E+04  0.7818609E-02  0.8068705E-01
       -1   -1    0    0    0  501  0.00000000000E+00  0.00000000000E+00  0.13718897281E+04  0.13718897281E+04  0.50400001928E-02 0.  1.
        1   -1    0    0  501    0  0.00000000000E+00  0.00000000000E+00 -0.24902184469E+04  0.24902184469E+04  0.50400001928E-02 0. -1.
    10030    2    1    2    0    0  0.00000000000E+00  0.00000000000E+00 -0.11183287188E+04  0.38621081750E+04  0.36966498931E+04 0.  0.
        1    1    3    3  502    0  0.33252893238E+03 -0.11738346527E+04 -0.20097781845E+04  0.23511000901E+04  0.50400001928E-02 0. -1.
       -1    1    3    3    0  502 -0.33252893238E+03  0.11738346527E+04  0.89144946572E+03  0.15110080849E+04  0.50400001928E-02 0.  1.
</event>
<event>
 5   0  0.1757996E-08  0.3699103E+04  0.7818609E-02  0.8068161E-01
        2   -1    0    0  501    0  0.00000000000E+00  0.00000000000E+00  0.20643719488E+04  0.20643719488E+04  0.25500000920E-02 0. -1.
       -2   -1    0    0    0  501  0.00000000000E+00  0.00000000000E+00 -0.16570858819E+04  0.16570858819E+04  0.25500000920E-02 0.  1.
    10030    2    1    2    0    0  0.00000000000E+00  0.00000000000E+00  0.40728606697E+03  0.37214578307E+04  0.36991034651E+04 0.  0.
        3    1    3    3  502    0  0.12125443878E+04  0.25333740326E+03  0.15854051194E+04  0.20119525678E+04  0.10100000352E+00 0. -1.
       -3    1    3    3    0  502 -0.12125443878E+04 -0.25333740326E+03 -0.11781190524E+04  0.17095052629E+04  0.10100000352E+00 0.  1.
</event>
<event>
 5   0  0.1757996E-08  0.3700391E+04  0.7818609E-02  0.8067875E-01
       -2   -1    0    0    0  501  0.00000000000E+00  0.00000000000E+00  0.19552095210E+04  0.19552095210E+04  0.25500000920E-02 0.  1.
        2   -1    0    0  501    0  0.00000000000E+00  0.00000000000E+00 -0.17508220175E+04  0.17508220175E+04  0.25500000920E-02 0. -1.
    10030    2    1    2    0    0  0.00000000000E+00  0.00000000000E+00  0.20438750349E+03  0.37060315385E+04  0.37003912648E+04 0.  0.
        3    1    3    3  502    0  0.52705689299E+03 -0.15207602856E+04 -0.81173377411E+03  0.18026126997E+04  0.10100000352E+00 0. -1.
       -3    1    3    3    0  502 -0.52705689299E+03  0.15207602856E+04  0.10161212776E+04  0.19034188388E+04  0.10100000352E+00 0.  1.
</event>
<event>
 5   0  0.5714125E-09  0.3699368E+04  0.7818609E-02  0.8068102E-01
       -1   -1    0    0    0  501  0.00000000000E+00  0.00000000000E+00  0.20339495146E+04  0.20339495146E+04  0.50400001928E-02 0. -1.
        1   -1    0    0  501    0  0.00000000000E+00  0.00000000000E+00 -0.16821121992E+04  0.16821121992E+04  0.50400001928E-02 0.  1.
    10030    2    1    2    0    0  0.00000000000E+00  0.00000000000E+00  0.35183731543E+03  0.37160617139E+04  0.36993682116E+04 0.  0.
        5    1    3    3  502    0 -0.38382329995E+02  0.52512360129E+02  0.20327943551E+04  0.20338401440E+04  0.46999998093E+01 0. -1.
       -5    1    3    3    0  502  0.38382329995E+02 -0.52512360129E+02 -0.16809570396E+04  0.16822215699E+04  0.46999998093E+01 0.  1.
</event>
<event>
 5   0  0.5714125E-09  0.3702313E+04  0.7818609E-02  0.8067449E-01
        1   -1    0    0  501    0  0.00000000000E+00  0.00000000000E+00  0.21844832553E+04  0.21844832553E+04  0.50400001928E-02 0.  1.
       -1   -1    0    0    0  501  0.00000000000E+00  0.00000000000E+00 -0.15686913115E+04  0.15686913115E+04  0.50400001928E-02 0. -1.
    10030    2    1    2    0    0  0.00000000000E+00  0.00000000000E+00  0.61579194382E+03  0.37531745668E+04  0.37023127381E+04 0.  0.
        3    1    3    3  502    0 -0.43426506539E+03 -0.13759499304E+04  0.14835502448E+04  0.20694795715E+04  0.10100000352E+00 0.  1.
       -3    1    3    3    0  502  0.43426506539E+03  0.13759499304E+04 -0.86775830098E+03  0.16836949953E+04  0.10100000352E+00 0. -1.
</event>
<event>
 5   0  0.5714125E-09  0.3699408E+04  0.7818609E-02  0.8068093E-01
        1   -1    0    0  501    0  0.00000000000E+00  0.00000000000E+00  0.31649789765E+04  0.31649789765E+04  0.50400001928E-02 0. -1.
       -1   -1    0    0    0  501  0.00000000000E+00  0.00000000000E+00 -0.10810195151E+04  0.10810195151E+04  0.50400001928E-02 0.  1.
    10030    2    1    2    0    0  0.00000000000E+00  0.00000000000E+00  0.20839594614E+04  0.42459984916E+04  0.36994075409E+04 0.  0.
        3    1    3    3  502    0 -0.19374622763E+03  0.43261446801E+03  0.30940836789E+04  0.31301831737E+04  0.10100000352E+00 0. -1.
       -3    1    3    3    0  502  0.19374622763E+03 -0.43261446801E+03 -0.10101242175E+04  0.11158153179E+04  0.10100000352E+00 0.  1.
</event>
<event>
 5   0  0.1856107E-08  0.3699343E+04  0.7818609E-02  0.8068107E-01
        2   -1    0    0  501    0  0.00000000000E+00  0.00000000000E+00  0.31975510854E+04  0.31975510854E+04  0.25500000920E-02 0. -1.
       -2   -1    0    0    0  501  0.00000000000E+00  0.00000000000E+00 -0.10699704285E+04  0.10699704285E+04  0.25500000920E-02 0.  1.
    10030    2    1    2    0    0  0.00000000000E+00  0.00000000000E+00  0.21275806569E+04  0.42675215139E+04  0.36993432417E+04 0.  0.
        2    1    3    3  502    0  0.10305385012E+04  0.15197349417E+04  0.13209170254E+04  0.22619517421E+04  0.25500000920E-02 0. -1.
       -2    1    3    3    0  502 -0.10305385012E+04 -0.15197349417E+04  0.80666363154E+03  0.20055697719E+04  0.25500000920E-02 0.  1.
</event>
<event>
 5   0  0.1856107E-08  0.3697522E+04  0.7818609E-02  0.8068511E-01
       -2   -1    0    0    0  501  0.00000000000E+00  0.00000000000E+00  0.14049269655E+04  0.14049269655E+04  0.25500000920E-02 0.  1.
        2   -1    0    0  501    0  0.00000000000E+00  0.00000000000E+00 -0.24328080074E+04  0.24328080074E+04  0.25500000920E-02 0. -1.
    10030    2    1    2    0    0  0.00000000000E+00  0.00000000000E+00 -0.10278810419E+04  0.38377349729E+04  0.36975221819E+04 0.  0.
        2    1    3    3  502    0 -0.27088065232E+03  0.10971892407E+04 -0.20325420125E+04  0.23256026295E+04  0.25500000920E-02 0. -1.
       -2    1    3    3    0  502  0.27088065232E+03 -0.10971892407E+04  0.10046609706E+04  0.15121323433E+04  0.25500000920E-02 0.  1.
</event>
<event>
 5   0  0.5714125E-09  0.3698980E+04  0.7818609E-02  0.8068188E-01
        1   -1    0    0  501    0  0.00000000000E+00  0.00000000000E+00  0.26036528951E+04  0.26036528951E+04  0.50400001928E-02 0.  1.
       -1   -1    0    0    0  501  0.00000000000E+00  0.00000000000E+00 -0.13137748482E+04  0.13137748482E+04  0.50400001928E-02 0. -1.
    10030    2    1    2    0    0  0.00000000000E+00  0.00000000000E+00  0.12898780469E+04  0.39174277432E+04  0.36989802308E+04 0.  0.
        4    1    3    3  502    0  0.12601561629E+04 -0.12387094520E+04  0.66596023559E+02  0.17682848483E+04  0.12699999809E+01 0. -1.
       -4    1    3    3    0  502 -0.12601561629E+04  0.12387094520E+04  0.12232820234E+04  0.21491428950E+04  0.12699999809E+01 0.  1.
</event>
<event>
 5   0  0.1725865E-08  0.3700738E+04  0.7818609E-02  0.8067798E-01
        2   -1    0    0  501    0  0.00000000000E+00  0.00000000000E+00  0.26884853914E+04  0.26884853914E+04  0.25500000920E-02 0. -1.
       -2   -1    0    0    0  501  0.00000000000E+00  0.00000000000E+00 -0.12735293122E+04  0.12735293122E+04  0.25500000920E-02 0.  1.
    10030    2    1    2    0    0  0.00000000000E+00  0.00000000000E+00  0.14149560793E+04  0.39620147036E+04  0.37007377380E+04 0.  0.
        1    1    3    3  502    0  0.13011941610E+04 -0.11782806007E+04  0.81003776184E+02  0.17572743185E+04  0.50400001928E-02 0.  1.
       -1    1    3    3    0  502 -0.13011941610E+04  0.11782806007E+04  0.13339523031E+04  0.22047403851E+04  0.50400001928E-02 0. -1.
</event>
<event>
 5   0  0.1740290E-08  0.3698873E+04  0.7818609E-02  0.8068212E-01
        2   -1    0    0  501    0  0.00000000000E+00  0.00000000000E+00  0.19399186870E+04  0.19399186870E+04  0.25500000920E-02 0. -1.
       -2   -1    0    0    0  501  0.00000000000E+00  0.00000000000E+00 -0.17631743198E+04  0.17631743198E+04  0.25500000920E-02 0.  1.
    10030    2    1    2    0    0  0.00000000000E+00  0.00000000000E+00  0.17674436721E+03  0.37030930068E+04  0.36988726993E+04 0.  0.
        5    1    3    3  502    0 -0.13964524297E+04  0.21181699155E+03 -0.11069108534E+04  0.17944970197E+04  0.46999998093E+01 0.  1.
       -5    1    3    3    0  502  0.13964524297E+04 -0.21181699155E+03  0.12836552206E+04  0.19085959871E+04  0.46999998093E+01 0. -1.
</event>
<event>
 5   0  0.1740290E-08  0.3705663E+04  0.7818609E-02  0.8066708E-01
        2   -1    0    0  501    0  0.00000000000E+00  0.00000000000E+00  0.12160690991E+04  0.12160690991E+04  0.25500000920E-02 0.  1.
       -2   -1    0    0    0  501  0.00000000000E+00  0.00000000000E+00 -0.28230175021E+04  0.28230175021E+04  0.25500000920E-02 0. -1.
    10030    2    1    2    0    0  0.00000000000E+00  0.00000000000E+00 -0.16069484030E+04  0.40390866013E+04  0.37056628830E+04 0.  0.
        5    1    3    3  502    0 -0.71298765841E+03 -0.12829783738E+04 -0.20359567003E+04  0.25098857911E+04  0.46999998093E+01 0. -1.
       -5    1    3    3    0  502  0.71298765841E+03  0.12829783738E+04  0.42900829733E+03  0.15292008102E+04  0.46999998093E+01 0.  1.
</event>
<event>
 5   0  0.1856107E-08  0.3700300E+04  0.7818609E-02  0.8067895E-01
       -2   -1    0    0    0  501  0.00000000000E+00  0.00000000000E+00  0.23110026553E+04  0.23110026553E+04  0.25500000920E-02 0.  1.
        2   -1    0    0  501    0  0.00000000000E+00  0.00000000000E+00 -0.14811991841E+04  0.14811991841E+04  0.25500000920E-02 0. -1.
    10030    2    1    2    0    0  0.00000000000E+00  0.00000000000E+00  0.82980347123E+03  0.37922018395E+04  0.37003001217E+04 0.  0.
        2    1    3    3  502    0 -0.81229892701E+03  0.34024632856E+03 -0.12526105615E+04  0.15312185767E+04  0.25500000920E-02 0. -1.
       -2    1    3    3    0  502  0.81229892701E+03 -0.34024632856E+03  0.20824140327E+04  0.22609832628E+04  0.25500000920E-02 0.  1.
</event>
<event>
 5   0  0.5714125E-09  0.3700810E+04  0.7818609E-02  0.8067782E-01
       -1   -1    0    0    0  501  0.00000000000E+00  0.00000000000E+00  0.16215420203E+04  0.16215420203E+04  0.50400001928E-02 0.  1.
        1   -1    0    0  501    0  0.00000000000E+00  0.00000000000E+00 -0.21115699962E+04  0.21115699962E+04  0.50400001928E-02 0. -1.
    10030    2    1    2    0    0  0.00000000000E+00  0.00000000000E+00 -0.49002797591E+03  0.37331120165E+04  0.37008104397E+04 0.  0.
        5    1    3    3  502    0  0.51671508759E+03 -0.16234534950E+04  0.48335601975E+03  0.17709463188E+04  0.46999998093E+01 0.  1.
       -5    1    3    3    0  502 -0.51671508759E+03  0.16234534950E+04 -0.97338399566E+03  0.19621656977E+04  0.46999998093E+01 0. -1.
</event>
<event>
 5   0  0.1757996E-08  0.3697267E+04  0.7818609E-02  0.8068568E-01
       -2   -1    0    0    0  501  0.00000000000E+00  0.00000000000E+00  0.20899247234E+04  0.20899247234E+04  0.25500000920E-02 0. -1.
        2   -1    0    0  501    0  0.00000000000E+00  0.00000000000E+00 -0.16352006222E+04  0.16352006222E+04  0.25500000920E-02 0.  1.
    10030    2    1    2    0    0  0.00000000000E+00  0.00000000000E+00  0.45472410126E+03  0.37251253456E+04  0.36972672114E+04 0.  0.
        3    1    3    3  502    0 -0.85969220419E+03  0.11463707355E+04 -0.94943239500E+03  0.17189119908E+04  0.10100000352E+00 0.  1.
       -3    1    3    3    0  502  0.85969220419E+03 -0.11463707355E+04  0.14041564963E+04  0.20062133549E+04  0.10100000352E+00 0. -1.
</event>
<event>
 5   0  0.5714125E-09  0.3702726E+04  0.7818609E-02  0.8067358E-01
        1   -1    0    0  501    0  0.00000000000E+00  0.00000000000E+00  0.24004819242E+04  0.24004819242E+04  0.50400001928E-02 0. -1.
       -1   -1    0    0    0  501  0.00000000000E+00  0.00000000000E+00 -0.14278573873E+04  0.14278573873E+04  0.50400001928E-02 0.  1.
    10030    2    1    2    0    0  0.00000000000E+00  0.00000000000E+00  0.97262453689E+03  0.38283393115E+04  0.37027264812E+04 0.  0.
        3    1    3    3  502    0 -0.61918426349E+03  0.10112006288E+04 -0.98376318156E+03  0.15406835728E+04  0.10100000352E+00 0.  1.
       -3    1    3    3    0  502  0.61918426349E+03 -0.10112006288E+04  0.19563877185E+04  0.22876557387E+04  0.10100000352E+00 0. -1.
</event>
<event>
 5   0  0.1825308E-08  0.3704142E+04  0.7818609E-02  0.8067044E-01
        2   -1    0    0  501    0  0.00000000000E+00  0.00000000000E+00  0.20603641202E+04  0.20603641202E+04  0.25500000920E-02 0. -1.
       -2   -1    0    0    0  501  0.00000000000E+00  0.00000000000E+00 -0.16648357835E+04  0.16648357835E+04  0.25500000920E-02 0.  1.
    10030    2    1    2    0    0  0.00000000000E+00  0.00000000000E+00  0.39552833667E+03  0.37251999037E+04  0.37041424996E+04 0.  0.
        4    1    3    3  502    0 -0.16120689769E+04 -0.65966649158E+03 -0.43529029327E+03  0.17953845044E+04  0.12699999809E+01 0.  1.
       -4    1    3    3    0  502  0.16120689769E+04  0.65966649158E+03  0.83081862994E+03  0.19298153993E+04  0.12699999809E+01 0. -1.
</event>
<event>
 5   0  0.5714125E-09  0.3699699E+04  0.7818609E-02  0.8068028E-01
       -1   -1    0    0    0  501  0.00000000000E+00  0.00000000000E+00  0.15116020222E+04  0.15116020222E+04  0.50400001928E-02 0.  1.
        1   -1    0    0  501    0  0.00000000000E+00  0.00000000000E+00 -0.22637861259E+04  0.22637861259E+04  0.50400001928E-02 0. -1.
    10030    2    1    2    0    0  0.00000000000E+00  0.00000000000E+00 -0.75218410375E+03  0.37753881481E+04  0.36996992774E+04 0.  0.
        2    1    3    3  502    0  0.12638855844E+03 -0.59606870418E+03  0.14062576643E+04  0.15325901560E+04  0.25500000920E-02 0.  1.
       -2    1    3    3    0  502 -0.12638855844E+03  0.59606870418E+03 -0.21584417680E+04  0.22427979922E+04  0.25500000920E-02 0. -1.
</event>
<event>
 5   0  0.5714125E-09  0.3699743E+04  0.7818609E-02  0.8068019E-01
       -1   -1    0    0    0  501  0.00000000000E+00  0.00000000000E+00  0.29123494423E+04  0.29123494423E+04  0.50400001928E-02 0.  1.
        1   -1    0    0  501    0  0.00000000000E+00  0.00000000000E+00 -0.11750044910E+04  0.11750044910E+04  0.50400001928E-02 0. -1.
    10030    2    1    2    0    0  0.00000000000E+00  0.00000000000E+00  0.17373449512E+04  0.40873539333E+04  0.36997425176E+04 0.  0.
        1    1    3    3  502    0  0.10262700161E+04  0.73588055074E+03 -0.62471499971E+03  0.14089070806E+04  0.50400001928E-02 0. -1.
       -1    1    3    3    0  502 -0.10262700161E+04 -0.73588055074E+03  0.23620599509E+04  0.26784468527E+04  0.50400001928E-02 0.  1.
</event>
<event>
 5   0  0.1740290E-08  0.3698182E+04  0.7818609E-02  0.8068365E-01
        2   -1    0    0  501    0  0.00000000000E+00  0.00000000000E+00  0.15664480165E+04  0.15664480165E+04  0.25500000920E-02 0. -1.
       -2   -1    0    0    0  501  0.00000000000E+00  0.00000000000E+00 -0.21827332601E+04  0.21827332601E+04  0.25500000920E-02 0.  1.
    10030    2    1    2    0    0  0.00000000000E+00  0.00000000000E+00 -0.61628524368E+03  0.37491812766E+04  0.36981823567E+04 0.  0.
        5    1    3    3  502    0  0.77529101753E+02 -0.16757448244E+04  0.48039112298E+03  0.17449725496E+04  0.46999998093E+01 0.  1.
       -5    1    3    3    0  502 -0.77529101753E+02  0.16757448244E+04 -0.10966763667E+04  0.20042087269E+04  0.46999998093E+01 0. -1.
</event>
<event>
 5   0  0.5714125E-09  0.3703876E+04  0.7818609E-02  0.8067103E-01
       -1   -1    0    0    0  501  0.00000000000E+00  0.00000000000E+00  0.21039668025E+04  0.21039668025E+04  0.50400001928E-02 0.  1.
        1   -1    0    0  501    0  0.00000000000E+00  0.00000000000E+00 -0.16300988489E+04  0.16300988489E+04  0.50400001928E-02 0. -1.
    10030    2    1    2    0    0  0.00000000000E+00  0.00000000000E+00  0.47386795361E+03  0.37340656514E+04  0.37038757338E+04 0.  0.
        5    1    3    3  502    0  0.16768367523E+03  0.23467660829E+03  0.20811781327E+04  0.21010748286E+04  0.46999998093E+01 0.  1.
       -5    1    3    3    0  502 -0.16768367523E+03 -0.23467660829E+03 -0.16073101791E+04  0.16329908228E+04  0.46999998093E+01 0. -1.
</event>
<event>
 5   0  0.1757996E-08  0.3697871E+04  0.7818609E-02  0.8068434E-01
       -2   -1    0    0    0  501  0.00000000000E+00  0.00000000000E+00  0.23438249945E+04  0.23438249945E+04  0.25500000920E-02 0. -1.
        2   -1    0    0  501    0  0.00000000000E+00  0.00000000000E+00 -0.14585399527E+04  0.14585399527E+04  0.25500000920E-02 0.  1.
    10030    2    1    2    0    0  0.00000000000E+00  0.00000000000E+00  0.88528504179E+03  0.38023649472E+04  0.36978709532E+04 0.  0.
        3    1    3    3  502    0  0.70775385718E+01  0.17876581449E+04  0.92798748600E+03  0.20141828414E+04  0.10100000352E+00 0. -1.
       -3    1    3    3    0  502 -0.70775385718E+01 -0.17876581449E+04 -0.42702444212E+02  0.17881821058E+04  0.10100000352E+00 0.  1.
</event>
<event>
 5   0  0.1725865E-08  0.3702201E+04  0.7818609E-02  0.8067474E-01
        2   -1    0    0  501    0  0.00000000000E+00  0.00000000000E+00  0.25477422139E+04  0.25477422139E+04  0.25500000920E-02 0. -1.
       -2   -1    0    0    0  501  0.00000000000E+00  0.00000000000E+00 -0.13449449428E+04  0.13449449428E+04  0.25500000920E-02 0.  1.
    10030    2    1    2    0    0  0.00000000000E+00  0.00000000000E+00  0.12027972712E+04  0.38926871567E+04  0.37022009703E+04 0.  0.
        1    1    3    3  502    0  0.56692513415E+03 -0.31381010491E+03  0.24245972887E+04  0.25096917942E+04  0.50400001928E-02 0. -1.
       -1    1    3    3    0  502 -0.56692513415E+03  0.31381010491E+03 -0.12218000175E+04  0.13829953625E+04  0.50400001928E-02 0.  1.
</event>
<event>
 5   0  0.5714125E-09  0.3699249E+04  0.7818609E-02  0.8068128E-01
        1   -1    0    0  501    0  0.00000000000E+00  0.00000000000E+00  0.16675076015E+04  0.16675076015E+04  0.50400001928E-02 0.  1.
       -1   -1    0    0    0  501  0.00000000000E+00  0.00000000000E+00 -0.20516308862E+04  0.20516308862E+04  0.50400001928E-02 0. -1.
    10030    2    1    2    0    0  0.00000000000E+00  0.00000000000E+00 -0.38412328467E+03  0.37191384877E+04  0.36992486255E+04 0.  0.
        2    1    3    3  502    0 -0.15135915646E+04 -0.10628996925E+04 -0.21204101848E+03  0.18616327711E+04  0.25500000920E-02 0.  1.
       -2    1    3    3    0  502  0.15135915646E+04  0.10628996925E+04 -0.17208226619E+03  0.18575057166E+04  0.25500000920E-02 0. -1.
</event>
<event>
 5   0  0.5714125E-09  0.3700149E+04  0.7818609E-02  0.8067929E-01
       -1   -1    0    0    0  501  0.00000000000E+00  0.00000000000E+00  0.31483026392E+04  0.31483026392E+04  0.50400001928E-02 0.  1.
        1   -1    0    0  501    0  0.00000000000E+00  0.00000000000E+00 -0.10871811168E+04  0.10871811168E+04  0.50400001928E-02 0. -1.
    10030    2    1    2    0    0  0.00000000000E+00  0.00000000000E+00  0.20611215224E+04  0.42354837561E+04  0.37001487426E+04 0.  0.
        2    1    3    3  502    0  0.10652064642E+04  0.11215752087E+04 -0.13126304884E+03  0.15523613458E+04  0.25500000920E-02 0. -1.
       -2    1    3    3    0  502 -0.10652064642E+04 -0.11215752087E+04  0.21923845713E+04  0.26831224102E+04  0.25500000920E-02 0.  1.
</event>
<event>
 5   0  0.1757996E-08  0.3697951E+04  0.7818609E-02  0.8068416E-01
       -2   -1    0    0    0  501  0.00000000000E+00  0.00000000000E+00  0.13473894818E+04  0.13473894818E+04  0.25500000920E-02 0.  1.
        2   -1    0    0  501    0  0.00000000000E+00  0.00000000000E+00 -0.25372848367E+04  0.25372848367E+04  0.25500000920E-02 0. -1.
    10030    2    1    2    0    0  0.00000000000E+00  0.00000000000E+00 -0.11898953549E+04  0.38846743185E+04  0.36979512713E+04 0.  0.
        3    1    3    3  502    0  0.10352856689E+03  0.18195797288E+04 -0.92232831719E+03  0.20426155019E+04  0.10100000352E+00 0.  1.
       -3    1    3    3    0  502 -0.10352856689E+03 -0.18195797288E+04 -0.26756703776E+03  0.18420588166E+04  0.10100000352E+00 0. -1.
</event>
<event>
 5   0  0.1757996E-08  0.3701563E+04  0.7818609E-02  0.8067615E-01
       -2   -1    0    0    0  501  0.00000000000E+00  0.00000000000E+00  0.14773679749E+04  0.14773679749E+04  0.25500000920E-02 0.  1.
        2   -1    0    0  501    0  0.00000000000E+00  0.00000000000E+00 -0.23185780958E+04  0.23185780958E+04  0.25500000920E-02 0. -1.
    10030    2    1    2    0    0  0.00000000000E+00  0.00000000000E+00 -0.84121012099E+03  0.37959460707E+04  0.37015634675E+04 0.  0.
        3    1    3    3  502    0  0.72474763191E+02 -0.16329915958E+04 -0.13107697708E+04  0.20952402119E+04  0.10100000352E+00 0. -1.
       -3    1    3    3    0  502 -0.72474763191E+02  0.16329915958E+04  0.46955964983E+03  0.17007058588E+04  0.10100000352E+00 0.  1.
</event>
<event>
 5   0  0.5714125E-09  0.3700307E+04  0.7818609E-02  0.8067894E-01
       -1   -1    0    0    0  501  0.00000000000E+00  0.00000000000E+00  0.25418660554E+04  0.25418660554E+04  0.50400001928E-02 0.  1.
        1   -1    0    0  501    0  0.00000000000E+00  0.00000000000E+00 -0.13466750213E+04  0.13466750213E+04  0.50400001928E-02 0. -1.
    10030    2    1    2    0    0  0.00000000000E+00  0.00000000000E+00  0.11951910341E+04  0.38885410767E+04  0.37003067572E+04 0.  0.
        4    1    3    3  502    0  0.34201466801E+03  0.18155437093E+04  0.70211834904E+03  0.19763969192E+04  0.12699999809E+01 0. -1.
       -4    1    3    3    0  502 -0.34201466801E+03 -0.18155437093E+04  0.49307268507E+03  0.19121441575E+04  0.12699999809E+01 0.  1.
</event>
<event>
 5   0  0.5714125E-09  0.3700450E+04  0.7818609E-02  0.8067862E-01
       -1   -1    0    0    0  501  0.00000000000E+00  0.00000000000E+00  0.15634011189E+04  0.15634011189E+04  0.50400001928E-02 0.  1.
        1   -1    0    0  501    0  0.00000000000E+00  0.00000000000E+00 -0.21896698394E+04  0.21896698394E+04  0.50400001928E-02 0. -1.
    10030    2    1    2    0    0  0.00000000000E+00  0.00000000000E+00 -0.62626872053E+03  0.37530709583E+04  0.37004498521E+04 0.  0.
        4    1    3    3  502    0  0.98564647751E+03  0.72917971289E+03 -0.17185261571E+04  0.21110508753E+04  0.12699999809E+01 0. -1.
       -4    1    3    3    0  502 -0.98564647751E+03 -0.72917971289E+03  0.10922574366E+04  0.16420200830E+04  0.12699999809E+01 0.  1.
</event>
<event>
 5   0  0.5714125E-09  0.3700066E+04  0.7818609E-02  0.8067947E-01
       -1   -1    0    0    0  501  0.00000000000E+00  0.00000000000E+00  0.14564854455E+04  0.14564854455E+04  0.50400001928E-02 0. -1.
        1   -1    0    0  501    0  0.00000000000E+00  0.00000000000E+00 -0.23499184448E+04  0.23499184448E+04  0.50400001928E-02 0.  1.
    10030    2    1    2    0    0  0.00000000000E+00  0.00000000000E+00 -0.89343299930E+03  0.38064038903E+04  0.37000659524E+04 0.  0.
        1    1    3    3  502    0  0.17662586080E+03 -0.76231524986E+03  0.12778573843E+04  0.14984127367E+04  0.50400001928E-02 0. -1.
       -1    1    3    3    0  502 -0.17662586080E+03  0.76231524986E+03 -0.21712903836E+04  0.23079911536E+04  0.50400001928E-02 0.  1.
</event>
<event>
 5   0  0.5714125E-09  0.3700425E+04  0.7818609E-02  0.8067868E-01
       -1   -1    0    0    0  501  0.00000000000E+00  0.00000000000E+00  0.16072141940E+04  0.16072141940E+04  0.50400001928E-02 0. -1.
        1   -1    0    0  501    0  0.00000000000E+00  0.00000000000E+00 -0.21299498575E+04  0.21299498575E+04  0.50400001928E-02 0.  1.
    10030    2    1    2    0    0  0.00000000000E+00  0.00000000000E+00 -0.52273566350E+03  0.37371640515E+04  0.37004246478E+04 0.  0.
        1    1    3    3  502    0  0.14046936574E+04  0.66784242824E+03 -0.12733684590E+04  0.20101355706E+04  0.50400001928E-02 0.  1.
       -1    1    3    3    0  502 -0.14046936574E+04 -0.66784242824E+03  0.75063279548E+03  0.17270284809E+04  0.50400001928E-02 0. -1.
</event>
<event>
 5   0  0.5714125E-09  0.3699537E+04  0.7818609E-02  0.8068065E-01
        1   -1    0    0  501    0  0.00000000000E+00  0.00000000000E+00  0.29160221444E+04  0.29160221445E+04  0.50400001928E-02 0.  1.
       -1   -1    0    0    0  501  0.00000000000E+00  0.00000000000E+00 -0.11733939938E+04  0.11733939938E+04  0.50400001928E-02 0. -1.
    10030    2    1    2    0    0  0.00000000000E+00  0.00000000000E+00  0.17426281506E+04  0.40894161383E+04  0.36995366576E+04 0.  0.
        2    1    3    3  502    0  0.91820004701E+03 -0.95646496954E+03 -0.55447378715E+03  0.14371352563E+04  0.25500000920E-02 0. -1.
       -2    1    3    3    0  502 -0.91820004701E+03  0.95646496954E+03  0.22971019378E+04  0.26522808820E+04  0.25500000920E-02 0.  1.
</event>
<event>
 5   0  0.5714125E-09  0.3702992E+04  0.7818609E-02  0.8067299E-01
       -1   -1    0    0    0  501  0.00000000000E+00  0.00000000000E+00  0.16181799500E+04  0.16181799500E+04  0.50400001928E-02 0.  1.
        1   -1    0    0  501    0  0.00000000000E+00  0.00000000000E+00 -0.21184528007E+04  0.21184528007E+04  0.50400001928E-02 0. -1.
    10030    2    1    2    0    0  0.00000000000E+00  0.00000000000E+00 -0.50027285073E+03  0.37366327508E+04  0.37029922210E+04 0.  0.
        5    1    3    3  502    0 -0.79791497112E+02 -0.16306355748E+04 -0.11313838375E+04  0.19863007170E+04  0.46999998093E+01 0. -1.
       -5    1    3    3    0  502  0.79791497112E+02  0.16306355748E+04  0.63111098674E+03  0.17503320337E+04  0.46999998093E+01 0.  1.
</event>
<event>
 5   0  0.5714125E-09  0.3694598E+04  0.7818609E-02  0.8069160E-01
        1   -1    0    0  501    0  0.00000000000E+00  0.00000000000E+00  0.12455409640E+04  0.12455409640E+04  0.50400001928E-02 0.  1.
       -1   -1    0    0    0  501  0.00000000000E+00  0.00000000000E+00 -0.27397839490E+04  0.27397839490E+04  0.50400001928E-02 0. -1.
    10030    2    1    2    0    0  0.00000000000E+00  0.00000000000E+00 -0.14942429850E+04  0.39853249131E+04  0.36945977541E+04 0.  0.
        2    1    3    3  502    0  0.13102847210E+04  0.11414717343E+04 -0.14230989362E+04  0.22461109395E+04  0.25500000920E-02 0. -1.
       -2    1    3    3    0  502 -0.13102847210E+04 -0.11414717343E+04 -0.71144048792E+02  0.17392139736E+04  0.25500000920E-02 0.  1.
</event>
<event>
 5   0  0.1725865E-08  0.3699713E+04  0.7818609E-02  0.8068026E-01
       -2   -1    0    0    0  501  0.00000000000E+00  0.00000000000E+00  0.14597942241E+04  0.14597942241E+04  0.25500000920E-02 0. -1.
        2   -1    0    0  501    0  0.00000000000E+00  0.00000000000E+00 -0.23441443470E+04  0.23441443470E+04  0.25500000920E-02 0.  1.
    10030    2    1    2    0    0  0.00000000000E+00  0.00000000000E+00 -0.88435012297E+03  0.38039385711E+04  0.36997126257E+04 0.  0.
        1    1    3    3  502    0 -0.16461619324E+04 -0.82610163510E+03 -0.26505673776E+03  0.18607923295E+04  0.50400001928E-02 0. -1.
       -1    1    3    3    0  502  0.16461619324E+04  0.82610163510E+03 -0.61929338520E+03  0.19431462416E+04  0.50400001928E-02 0.  1.
</event>
<event>
 5   0  0.1725865E-08  0.3704014E+04  0.7818609E-02  0.8067073E-01
       -2   -1    0    0    0  501  0.00000000000E+00  0.00000000000E+00  0.16636038064E+04  0.16636038064E+04  0.25500000920E-02 0.  1.
        2   -1    0    0  501    0  0.00000000000E+00  0.00000000000E+00 -0.20617465908E+04  0.20617465908E+04  0.25500000920E-02 0. -1.
    10030    2    1    2    0    0  0.00000000000E+00  0.00000000000E+00 -0.39814278444E+03  0.37253503973E+04  0.37040137561E+04 0.  0.
        1    1    3    3  502    0 -0.77483358302E+03  0.49020564812E+03  0.14193158135E+04  0.16897118208E+04  0.50400001928E-02 0.  1.
       -1    1    3    3    0  502  0.77483358302E+03 -0.49020564812E+03 -0.18174585979E+04  0.20356385765E+04  0.50400001928E-02 0. -1.
</event>
<event>
 5   0  0.1856107E-08  0.3698983E+04  0.7818609E-02  0.8068187E-01
        2   -1    0    0  501    0  0.00000000000E+00  0.00000000000E+00  0.20143660038E+04  0.20143660038E+04  0.25500000920E-02 0. -1.
       -2   -1    0    0    0  501  0.00000000000E+00  0.00000000000E+00 -0.16981120663E+04  0.16981120663E+04  0.25500000920E-02 0.  1.
    10030    2    1    2    0    0  0.00000000000E+00  0.00000000000E+00  0.31625393741E+03  0.37124780701E+04  0.36989832208E+04 0.  0.
        2    1    3    3  502    0  0.57238913190E+03 -0.11152605107E+04  0.15229350535E+04  0.19725025988E+04  0.25500000920E-02 0. -1.
       -2    1    3    3    0  502 -0.57238913190E+03  0.11152605107E+04 -0.12066811161E+04  0.17399754713E+04  0.25500000920E-02 0.  1.
</event>
<event>
 5   0  0.5714125E-09  0.3700009E+04  0.7818609E-02  0.8067960E-01
        1   -1    0    0  501    0  0.00000000000E+00  0.00000000000E+00  0.17209745666E+04  0.17209745666E+04  0.50400001928E-02 0. -1.
       -1   -1    0    0    0  501  0.00000000000E+00  0.00000000000E+00 -0.19887080835E+04  0.19887080835E+04  0.50400001928E-02 0.  1.
    10030    2    1    2    0    0  0.00000000000E+00  0.00000000000E+00 -0.26773351691E+03  0.37096826502E+04  0.37000086661E+04 0.  0.
        4    1    3    3  502    0  0.15776379782E+04 -0.78825494816E+03  0.42636693178E+03  0.18144083958E+04  0.12699999809E+01 0. -1.
       -4    1    3    3    0  502 -0.15776379782E+04  0.78825494816E+03 -0.69410044869E+03  0.18952742544E+04  0.12699999809E+01 0.  1.
</event>
<event>
 5   0  0.5714125E-09  0.3700711E+04  0.7818609E-02  0.8067804E-01
       -1   -1    0    0    0  501  0.00000000000E+00  0.00000000000E+00  0.12479375713E+04  0.12479375713E+04  0.50400001928E-02 0.  1.
        1   -1    0    0  501    0  0.00000000000E+00  0.00000000000E+00 -0.27435785840E+04  0.27435785840E+04  0.50400001928E-02 0. -1.
    10030    2    1    2    0    0  0.00000000000E+00  0.00000000000E+00 -0.14956410127E+04  0.39915161553E+04  0.37007106316E+04 0.  0.
        4    1    3    3  502    0 -0.12979566426E+04  0.12659077141E+04 -0.11464570895E+04  0.21451291937E+04  0.12699999809E+01 0. -1.
       -4    1    3    3    0  502  0.12979566426E+04 -0.12659077141E+04 -0.34918392318E+03  0.18463869616E+04  0.12699999809E+01 0.  1.
</event>
<event>
 5   0  0.5714125E-09  0.3700219E+04  0.7818609E-02  0.8067913E-01
       -1   -1    0    0    0  501  0.00000000000E+00  0.00000000000E+00  0.23903047587E+04  0.23903047587E+04  0.50400001928E-02 0.  1.
        1   -1    0    0  501    0  0.00000000000E+00  0.00000000000E+00 -0.14319950779E+04  0.14319950779E+04  0.50400001928E-02 0. -1.
    10030    2    1    2    0    0  0.00000000000E+00  0.00000000000E+00  0.95830968086E+03  0.38222998366E+04  0.37002187228E+04 0.  0.
        1    1    3    3  502    0  0.52944093472E+03  0.12936129554E+04 -0.77292570609E+03  0.15972339619E+04  0.50400001928E-02 0. -1.
       -1    1    3    3    0  502 -0.52944093472E+03 -0.12936129554E+04  0.17312353870E+04  0.22250658747E+04  0.50400001928E-02 0.  1.
</event>
<event>
 5   0  0.5714125E-09  0.3700085E+04  0.7818609E-02  0.8067943E-01
       -1   -1    0    0    0  501  0.00000000000E+00  0.00000000000E+00  0.11773401039E+04  0.11773401039E+04  0.50400001928E-02 0.  1.
        1   -1    0    0  501    0  0.00000000000E+00  0.00000000000E+00 -0.29071100826E+04  0.29071100826E+04  0.50400001928E-02 0. -1.
    10030    2    1    2    0    0  0.00000000000E+00  0.00000000000E+00 -0.17297699787E+04  0.40844501866E+04  0.37000850189E+04 0.  0.
        2    1    3    3  502    0 -0.51776361252E+03 -0.10590894809E+04 -0.24387979814E+04  0.27087792973E+04  0.25500000920E-02 0. -1.
       -2    1    3    3    0  502  0.51776361252E+03  0.10590894809E+04  0.70902800272E+03  0.13756708893E+04  0.25500000920E-02 0.  1.
</event>
<event>
 5   0  0.5714125E-09  0.3699800E+04  0.7818609E-02  0.8068006E-01
        1   -1    0    0  501    0  0.00000000000E+00  0.00000000000E+00  0.27424570341E+04  0.27424570341E+04  0.50400001928E-02 0. -1.
       -1   -1    0    0    0  501  0.00000000000E+00  0.00000000000E+00 -0.12478338493E+04  0.12478338493E+04  0.50400001928E-02 0.  1.
    10030    2    1    2    0    0  0.00000000000E+00  0.00000000000E+00  0.14946231848E+04  0.39902908834E+04  0.36998003824E+04 0.  0.
        2    1    3    3  502    0 -0.70115246230E+03 -0.81146612040E+03 -0.87836488991E+03  0.13862239789E+04  0.25500000920E-02 0.  1.
       -2    1    3    3    0  502  0.70115246230E+03  0.81146612040E+03  0.23729880747E+04  0.26040669044E+04  0.25500000920E-02 0. -1.
</event>
<event>
 5   0  0.1757996E-08  0.3698725E+04  0.7818609E-02  0.8068244E-01
        2   -1    0    0  501    0  0.00000000000E+00  0.00000000000E+00  0.22612131394E+04  0.22612131394E+04  0.25500000920E-02 0.  1.
       -2   -1    0    0    0  501  0.00000000000E+00  0.00000000000E+00 -0.15125254028E+04  0.15125254028E+04  0.25500000920E-02 0. -1.
    10030    2    1    2    0    0  0.00000000000E+00  0.00000000000E+00  0.74868773664E+03  0.37737385422E+04  0.36987253558E+04 0.  0.
        3    1    3    3  502    0  0.17761444353E+04  0.32090822085E+03  0.78559572117E+03  0.19684592423E+04  0.10100000352E+00 0.  1.
       -3    1    3    3    0  502 -0.17761444353E+04 -0.32090822085E+03 -0.36907984536E+02  0.18052792999E+04  0.10100000352E+00 0. -1.
</event>
<event>
 5   0  0.1725865E-08  0.3700471E+04  0.7818609E-02  0.8067857E-01
       -2   -1    0    0    0  501  0.00000000000E+00  0.00000000000E+00  0.20959689155E+04  0.20959689155E+04  0.25500000920E-02 0.  1.
        2   -1    0    0  501    0  0.00000000000E+00  0.00000000000E+00 -0.16333121628E+04  0.16333121628E+04  0.25500000920E-02 0. -1.
    10030    2    1    2    0    0  0.00000000000E+00  0.00000000000E+00  0.46265675273E+03  0.37292810782E+04  0.37004710632E+04 0.  0.
        1    1    3    3  502    0  0.39688289885E+03  0.15129201930E+04  0.12274202077E+04  0.19882162639E+04  0.50400001928E-02 0.  1.
       -1    1    3    3    0  502 -0.39688289885E+03 -0.15129201930E+04 -0.76476345493E+03  0.17410648144E+04  0.50400001928E-02 0. -1.
</event>
<event>
 5   0  0.1757996E-08  0.3699979E+04  0.7818609E-02  0.8067966E-01
        2   -1    0    0  501    0  0.00000000000E+00  0.00000000000E+00  0.12194906797E+04  0.12194906797E+04  0.25500000920E-02 0. -1.
       -2   -1    0    0    0  501  0.00000000000E+00  0.00000000000E+00 -0.28064682111E+04  0.28064682111E+04  0.25500000920E-02 0.  1.
    10030    2    1    2    0    0  0.00000000000E+00  0.00000000000E+00 -0.15869775315E+04  0.40259588908E+04  0.36999793655E+04 0.  0.
        3    1    3    3  502    0  0.10545389603E+04  0.15102498760E+04 -0.98054982189E+03  0.20867163367E+04  0.10100000352E+00 0.  1.
       -3    1    3    3    0  502 -0.10545389603E+04 -0.15102498760E+04 -0.60642770957E+03  0.19392425541E+04  0.10100000352E+00 0. -1.
</event>
<event>
 5   0  0.5714125E-09  0.3702744E+04  0.7818609E-02  0.8067354E-01
       -1   -1    0    0    0  501  0.00000000000E+00  0.00000000000E+00  0.15182214862E+04  0.15182214862E+04  0.50400001928E-02 0.  1.
        1   -1    0    0  501    0  0.00000000000E+00  0.00000000000E+00 -0.22576278403E+04  0.22576278403E+04  0.50400001928E-02 0. -1.
    10030    2    1    2    0    0  0.00000000000E+00  0.00000000000E+00 -0.73940635405E+03  0.37758493265E+04  0.37027444390E+04 0.  0.
        1    1    3    3  502    0  0.17372562432E+04 -0.61637058672E+03 -0.19423872373E+03  0.18535643060E+04  0.50400001928E-02 0. -1.
       -1    1    3    3    0  502 -0.17372562432E+04  0.61637058672E+03 -0.54516763032E+03  0.19222850205E+04  0.50400001928E-02 0.  1.
</event>
<event>
 5   0  0.1856107E-08  0.3700389E+04  0.7818609E-02  0.8067876E-01
        2   -1    0    0  501    0  0.00000000000E+00  0.00000000000E+00  0.25834110690E+04  0.25834110690E+04  0.25500000920E-02 0. -1.
       -2   -1    0    0    0  501  0.00000000000E+00  0.00000000000E+00 -0.13250776015E+04  0.13250776015E+04  0.25500000920E-02 0.  1.
    10030    2    1    2    0    0  0.00000000000E+00  0.00000000000E+00  0.12583334674E+04  0.39084886705E+04  0.37003892460E+04 0.  0.
        2    1    3    3  502    0 -0.21287403314E+03  0.15582516230E+04 -0.40019406037E+03  0.16228428022E+04  0.25500000920E-02 0. -1.
       -2    1    3    3    0  502  0.21287403314E+03 -0.15582516230E+04  0.16585275278E+04  0.22856458683E+04  0.25500000920E-02 0.  1.
</event>
<event>
 5   0  0.1856107E-08  0.3699897E+04  0.7818609E-02  0.8067985E-01
       -2   -1    0    0    0  501  0.00000000000E+00  0.00000000000E+00  0.17133482186E+04  0.17133482186E+04  0.25500000920E-02 0. -1.
        2   -1    0    0  501    0  0.00000000000E+00  0.00000000000E+00 -0.19974396365E+04  0.19974396365E+04  0.25500000920E-02 0.  1.
    10030    2    1    2    0    0  0.00000000000E+00  0.00000000000E+00 -0.28409141788E+03  0.37107878551E+04  0.36998971028E+04 0.  0.
        2    1    3    3  502    0  0.68386465971E+03  0.67177853166E+03 -0.17289015443E+04  0.19768808305E+04  0.25500000920E-02 0.  1.
       -2    1    3    3    0  502 -0.68386465971E+03 -0.67177853166E+03  0.14448101264E+04  0.17339070245E+04  0.25500000920E-02 0. -1.
</event>
<event>
 5   0  0.5714125E-09  0.3700299E+04  0.7818609E-02  0.8067896E-01
       -1   -1    0    0    0  501  0.00000000000E+00  0.00000000000E+00  0.20220235616E+04  0.20220235616E+04  0.50400001928E-02 0.  1.
        1   -1    0    0  501    0  0.00000000000E+00  0.00000000000E+00 -0.16928845881E+04  0.16928845881E+04  0.50400001928E-02 0. -1.
    10030    2    1    2    0    0  0.00000000000E+00  0.00000000000E+00  0.32913897345E+03  0.37149081497E+04  0.37002986497E+04 0.  0.
        1    1    3    3  502    0  0.12973965945E+04  0.55970320828E+03 -0.10345275599E+04  0.17512146861E+04  0.50400001928E-02 0. -1.
       -1    1    3    3    0  502 -0.12973965945E+04 -0.55970320828E+03  0.13636665333E+04  0.19636934636E+04  0.50400001928E-02 0.  1.
</event>
<event>
 5   0  0.5714125E-09  0.3700057E+04  0.7818609E-02  0.8067949E-01
       -1   -1    0    0    0  501  0.00000000000E+00  0.00000000000E+00  0.13537240164E+04  0.13537240165E+04  0.50400001928E-02 0. -1.
        1   -1    0    0  501    0  0.00000000000E+00  0.00000000000E+00 -0.25282883415E+04  0.25282883415E+04  0.50400001928E-02 0.  1.
    10030    2    1    2    0    0  0.00000000000E+00  0.00000000000E+00 -0.11745643251E+04  0.38820123580E+04  0.37000565663E+04 0.  0.
        4    1    3    3  502    0  0.11698721870E+04  0.10897969473E+04  0.38926655786E+03  0.16455358963E+04  0.12699999809E+01 0. -1.
       -4    1    3    3    0  502 -0.11698721870E+04 -0.10897969473E+04 -0.15638308829E+04  0.22364764616E+04  0.12699999809E+01 0.  1.
</event>
<event>
 5   0  0.5714125E-09  0.3700330E+04  0.7818609E-02  0.8067889E-01
       -1   -1    0    0    0  501  0.00000000000E+00  0.00000000000E+00  0.18242197007E+04  0.18242197007E+04  0.50400001928E-02 0.  1.
        1   -1    0    0  501    0  0.00000000000E+00  0.00000000000E+00 -0.18764792619E+04  0.18764792619E+04  0.50400001928E-02 0. -1.
    10030    2    1    2    0    0  0.00000000000E+00  0.00000000000E+00 -0.52259561222E+02  0.37006989626E+04  0.37003299515E+04 0.  0.
        5    1    3    3  502    0 -0.27785486920E+03  0.10745139475E+03  0.18000696270E+04  0.18245607369E+04  0.46999998093E+01 0.  1.
       -5    1    3    3    0  502  0.27785486920E+03 -0.10745139475E+03 -0.18523291882E+04  0.18761382257E+04  0.46999998093E+01 0. -1.
</event>
<event>
 5   0  0.1825308E-08  0.3700475E+04  0.7818609E-02  0.8067857E-01
       -2   -1    0    0    0  501  0.00000000000E+00  0.00000000000E+00  0.17896997220E+04  0.17896997220E+04  0.25500000920E-02 0. -1.
        2   -1    0    0  501    0  0.00000000000E+00  0.00000000000E+00 -0.19128230852E+04  0.19128230852E+04  0.25500000920E-02 0.  1.
    10030    2    1    2    0    0  0.00000000000E+00  0.00000000000E+00 -0.12312336325E+03  0.37025228072E+04  0.37004750743E+04 0.  0.
        4    1    3    3  502    0 -0.13004631377E+04  0.13077364458E+04  0.86838789934E+02  0.18463265076E+04  0.12699999809E+01 0. -1.
       -4    1    3    3    0  502  0.13004631377E+04 -0.13077364458E+04 -0.20996215318E+03  0.18561962997E+04  0.12699999809E+01 0.  1.
</event>
<event>
 5   0  0.5714125E-09  0.3699303E+04  0.7818609E-02  0.8068116E-01
       -1   -1    0    0    0  501  0.00000000000E+00  0.00000000000E+00  0.10856138464E+04  0.10856138464E+04  0.50400001928E-02 0. -1.
        1   -1    0    0  501    0  0.00000000000E+00  0.00000000000E+00 -0.31514065295E+04  0.31514065295E+04  0.50400001928E-02 0.  1.
    10030    2    1    2    0    0  0.00000000000E+00  0.00000000000E+00 -0.20657926831E+04  0.42370203759E+04  0.36993029419E+04 0.  0.
        5    1    3    3  502    0 -0.38609642337E+03 -0.51029261144E+03  0.95479027453E+03  0.11493979101E+04  0.46999998093E+01 0. -1.
       -5    1    3    3    0  502  0.38609642337E+03  0.51029261144E+03 -0.30205829576E+04  0.30876224658E+04  0.46999998093E+01 0.  1.
</event>
<event>
 5   0  0.1725865E-08  0.3700093E+04  0.7818609E-02  0.8067941E-01
        2   -1    0    0  501    0  0.00000000000E+00  0.00000000000E+00  0.20584343279E+04  0.20584343279E+04  0.25500000920E-02 0. -1.
       -2   -1    0    0    0  501  0.00000000000E+00  0.00000000000E+00 -0.16627552891E+04  0.16627552891E+04  0.25500000920E-02 0.  1.
    10030    2    1    2    0    0  0.00000000000E+00  0.00000000000E+00  0.39567903877E+03  0.37211896170E+04  0.37000932777E+04 0.  0.
        1    1    3    3  502    0  0.14271321562E+03  0.13808719463E+04  0.14277176277E+04  0.19913693827E+04  0.50400001928E-02 0. -1.
       -1    1    3    3    0  502 -0.14271321562E+03 -0.13808719463E+04 -0.10320385889E+04  0.17298202343E+04  0.50400001928E-02 0.  1.
</event>
<event>
 5   0  0.5714125E-09  0.3701005E+04  0.7818609E-02  0.8067739E-01
       -1   -1    0    0    0  501  0.00000000000E+00  0.00000000000E+00  0.21355861446E+04  0.21355861446E+04  0.50400001928E-02 0. -1.
        1   -1    0    0  501    0  0.00000000000E+00  0.00000000000E+00 -0.16034755928E+04  0.16034755929E+04  0.50400001928E-02 0.  1.
    10030    2    1    2    0    0  0.00000000000E+00  0.00000000000E+00  0.53211055175E+03  0.37390617375E+04  0.37010054090E+04 0.  0.
        5    1    3    3  502    0  0.11356087282E+04 -0.11803115839E+04  0.11360697423E+04  0.19933437154E+04  0.46999998093E+01 0. -1.
       -5    1    3    3    0  502 -0.11356087282E+04  0.11803115839E+04 -0.60395919052E+03  0.17457180220E+04  0.46999998093E+01 0.  1.
</event>
<event>
 5   0  0.5714125E-09  0.3695658E+04  0.7818609E-02  0.8068925E-01
       -1   -1    0    0    0  501  0.00000000000E+00  0.00000000000E+00  0.22713627562E+04  0.22713627562E+04  0.50400001928E-02 0. -1.
        1   -1    0    0  501    0  0.00000000000E+00  0.00000000000E+00 -0.15032701071E+04  0.15032701071E+04  0.50400001928E-02 0.  1.
    10030    2    1    2    0    0  0.00000000000E+00  0.00000000000E+00  0.76809264909E+03  0.37746328633E+04  0.36956578487E+04 0.  0.
        3    1    3    3  502    0 -0.13733963349E+04  0.11744248849E+04  0.77827440747E+03  0.19675371322E+04  0.10100000352E+00 0. -1.
       -3    1    3    3    0  502  0.13733963349E+04 -0.11744248849E+04 -0.10181758375E+02  0.18070957311E+04  0.10100000352E+00 0.  1.
</event>
<event>
 5   0  0.5714125E-09  0.3701170E+04  0.7818609E-02  0.8067703E-01
       -1   -1    0    0    0  501  0.00000000000E+00  0.00000000000E+00  0.26786972312E+04  0.26786972312E+04  0.50400001928E-02 0.  1.
        1   -1    0    0  501    0  0.00000000000E+00  0.00000000000E+00 -0.12784811757E+04  0.12784811757E+04  0.50400001928E-02 0. -1.
    10030    2    1    2    0    0  0.00000000000E+00  0.00000000000E+00  0.14002160556E+04  0.39571784069E+04  0.37011695370E+04 0.  0.
        3    1    3    3  502    0 -0.14300181018E+04  0.66800919244E+03  0.17331030099E+04  0.23441062488E+04  0.10100000352E+00 0.  1.
       -3    1    3    3    0  502  0.14300181018E+04 -0.66800919244E+03 -0.33288695437E+03  0.16130721581E+04  0.10100000352E+00 0. -1.
</event>
<event>
 5   0  0.5714125E-09  0.3701273E+04  0.7818609E-02  0.8067680E-01
       -1   -1    0    0    0  501  0.00000000000E+00  0.00000000000E+00  0.23444966933E+04  0.23444966933E+04  0.50400001928E-02 0.  1.
        1   -1    0    0  501    0  0.00000000000E+00  0.00000000000E+00 -0.14608063646E+04  0.14608063646E+04  0.50400001928E-02 0. -1.
    10030    2    1    2    0    0  0.00000000000E+00  0.00000000000E+00  0.88369032872E+03  0.38053030579E+04  0.37012731276E+04 0.  0.
        5    1    3    3  502    0  0.11907843411E+04 -0.30025699794E+03  0.18652110271E+04  0.22331940976E+04  0.46999998093E+01 0.  1.
       -5    1    3    3    0  502 -0.11907843411E+04  0.30025699794E+03 -0.98152069837E+03  0.15721089603E+04  0.46999998093E+01 0. -1.
</event>
<event>
 5   0  0.1825308E-08  0.3703840E+04  0.7818609E-02  0.8067111E-01
        2   -1    0    0  501    0  0.00000000000E+00  0.00000000000E+00  0.17654034938E+04  0.17654034938E+04  0.25500000920E-02 0. -1.
       -2   -1    0    0    0  501  0.00000000000E+00  0.00000000000E+00 -0.19426768661E+04  0.19426768661E+04  0.25500000920E-02 0.  1.
    10030    2    1    2    0    0  0.00000000000E+00  0.00000000000E+00 -0.17727337229E+03  0.37080803600E+04  0.37038404538E+04 0.  0.
        4    1    3    3  502    0 -0.12116291832E+04 -0.51476641642E+03  0.12153815843E+04  0.17916985655E+04  0.12699999809E+01 0. -1.
       -4    1    3    3    0  502  0.12116291832E+04  0.51476641642E+03 -0.13926549566E+04  0.19163817945E+04  0.12699999809E+01 0.  1.
</event>
<event>
 5   0  0.1757996E-08  0.3699032E+04  0.7818609E-02  0.8068176E-01
       -2   -1    0    0    0  501  0.00000000000E+00  0.00000000000E+00  0.15443580812E+04  0.15443580812E+04  0.25500000920E-02 0. -1.
        2   -1    0    0  501    0  0.00000000000E+00  0.00000000000E+00 -0.22149719781E+04  0.22149719781E+04  0.25500000920E-02 0.  1.
    10030    2    1    2    0    0  0.00000000000E+00  0.00000000000E+00 -0.67061389683E+03  0.37593300593E+04  0.36990322378E+04 0.  0.
        3    1    3    3  502    0 -0.45873533130E+03 -0.17841503440E+04 -0.16806657294E+03  0.18498315971E+04  0.10100000352E+00 0. -1.
       -3    1    3    3    0  502  0.45873533130E+03  0.17841503440E+04 -0.50254732389E+03  0.19094984622E+04  0.10100000352E+00 0.  1.
</event>
<event>
 5   0  0.1856107E-08  0.3705864E+04  0.7818609E-02  0.8066664E-01
        2   -1    0    0  501    0  0.00000000000E+00  0.00000000000E+00  0.15399469733E+04  0.15399469733E+04  0.25500000920E-02 0. -1.
       -2   -1    0    0    0  501  0.00000000000E+00  0.00000000000E+00 -0.22295293935E+04  0.22295293935E+04  0.25500000920E-02 0.  1.
    10030    2    1    2    0    0  0.00000000000E+00  0.00000000000E+00 -0.68958242013E+03  0.37694763668E+04  0.37058640242E+04 0.  0.
        2    1    3    3  502    0  0.10954079877E+04  0.62997833880E+03  0.10336707194E+04  0.16325644009E+04  0.25500000920E-02 0. -1.
       -2    1    3    3    0  502 -0.10954079877E+04 -0.62997833880E+03 -0.17232531396E+04  0.21369119659E+04  0.25500000920E-02 0.  1.
</event>
<event>
 5   0  0.1725865E-08  0.3696313E+04  0.7818609E-02  0.8068779E-01
       -2   -1    0    0    0  501  0.00000000000E+00  0.00000000000E+00  0.19814149612E+04  0.19814149612E+04  0.25500000920E-02 0. -1.
        2   -1    0    0  501    0  0.00000000000E+00  0.00000000000E+00 -0.17238602964E+04  0.17238602964E+04  0.25500000920E-02 0.  1.
    10030    2    1    2    0    0  0.00000000000E+00  0.00000000000E+00  0.25755466478E+03  0.37052752576E+04  0.36963130724E+04 0.  0.
        1    1    3    3  502    0 -0.13196319393E+04  0.26347635391E+03 -0.11411147992E+04  0.17643670903E+04  0.50400001928E-02 0.  1.
       -1    1    3    3    0  502  0.13196319393E+04 -0.26347635391E+03  0.13986694640E+04  0.19409081673E+04  0.50400001928E-02 0. -1.
</event>
<event>
 5   0  0.1740290E-08  0.3701763E+04  0.7818609E-02  0.8067571E-01
       -2   -1    0    0    0  501  0.00000000000E+00  0.00000000000E+00  0.17651372656E+04  0.17651372656E+04  0.25500000920E-02 0. -1.
        2   -1    0    0  501    0  0.00000000000E+00  0.00000000000E+00 -0.19407909348E+04  0.19407909348E+04  0.25500000920E-02 0.  1.
    10030    2    1    2    0    0  0.00000000000E+00  0.00000000000E+00 -0.17565366924E+03  0.37059282004E+04  0.37017630415E+04 0.  0.
        5    1    3    3  502    0 -0.76165164098E+03 -0.45675252758E+03 -0.17135395339E+04  0.19300196678E+04  0.46999998093E+01 0.  1.
       -5    1    3    3    0  502  0.76165164098E+03  0.45675252758E+03  0.15378858647E+04  0.17759085327E+04  0.46999998093E+01 0. -1.
</event>
<event>
 5   0  0.1757996E-08  0.3700539E+04  0.7818609E-02  0.8067842E-01
        2   -1    0    0  501    0  0.00000000000E+00  0.00000000000E+00  0.23529054956E+04  0.23529054956E+04  0.25500000920E-02 0.  1.
       -2   -1    0    0    0  501  0.00000000000E+00  0.00000000000E+00 -0.14550083541E+04  0.14550083541E+04  0.25500000920E-02 0. -1.
    10030    2    1    2    0    0  0.00000000000E+00  0.00000000000E+00  0.89789714155E+03  0.38079138497E+04  0.37005389621E+04 0.  0.
        3    1    3    3  502    0  0.15641601689E+04 -0.97205627291E+03  0.63304385116E+03  0.19473661596E+04  0.10100000352E+00 0.  1.
       -3    1    3    3    0  502 -0.15641601689E+04  0.97205627291E+03  0.26485329040E+03  0.18605476902E+04  0.10100000352E+00 0. -1.
</event>
<event>
 5   0  0.5714125E-09  0.3713063E+04  0.7818609E-02  0.8065073E-01
       -1   -1    0    0    0  501  0.00000000000E+00  0.00000000000E+00  0.14004716131E+04  0.14004716131E+04  0.50400001928E-02 0.  1.
        1   -1    0    0  501    0  0.00000000000E+00  0.00000000000E+00 -0.24611060988E+04  0.24611060988E+04  0.50400001928E-02 0. -1.
    10030    2    1    2    0    0  0.00000000000E+00  0.00000000000E+00 -0.10606344857E+04  0.38615777119E+04  0.37130630095E+04 0.  0.
        1    1    3    3  502    0  0.39634207388E+03 -0.48543841836E+03 -0.23477776823E+04  0.24299789182E+04  0.50400001928E-02 0. -1.
       -1    1    3    3    0  502 -0.39634207388E+03  0.48543841836E+03  0.12871431965E+04  0.14315987936E+04  0.50400001928E-02 0.  1.
</event>
<event>
 5   0  0.5714125E-09  0.3695852E+04  0.7818609E-02  0.8068882E-01
        1   -1    0    0  501    0  0.00000000000E+00  0.00000000000E+00  0.20833339231E+04  0.20833339231E+04  0.50400001928E-02 0.  1.
       -1   -1    0    0    0  501  0.00000000000E+00  0.00000000000E+00 -0.16391179222E+04  0.16391179222E+04  0.50400001928E-02 0. -1.
    10030    2    1    2    0    0  0.00000000000E+00  0.00000000000E+00  0.44421600094E+03  0.37224518453E+04  0.36958517130E+04 0.  0.
        3    1    3    3  502    0  0.23343093866E+03  0.12712014213E+04  0.15523662450E+04  0.20199712932E+04  0.10100000352E+00 0.  1.
       -3    1    3    3    0  502 -0.23343093866E+03 -0.12712014213E+04 -0.11081502440E+04  0.17024805521E+04  0.10100000352E+00 0. -1.
</event>
<event>
 5   0  0.5714125E-09  0.3700476E+04  0.7818609E-02  0.8067856E-01
        1   -1    0    0  501    0  0.00000000000E+00  0.00000000000E+00  0.22807930993E+04  0.22807930993E+04  0.50400001928E-02 0. -1.
       -1   -1    0    0    0  501  0.00000000000E+00  0.00000000000E+00 -0.15009609821E+04  0.15009609821E+04  0.50400001928E-02 0.  1.
    10030    2    1    2    0    0  0.00000000000E+00  0.00000000000E+00  0.77983211724E+03  0.37817540814E+04  0.37004764290E+04 0.  0.
        5    1    3    3  502    0 -0.12016509824E+04 -0.34136394484E+03  0.17847622661E+04  0.21785070261E+04  0.46999998093E+01 0. -1.
       -5    1    3    3    0  502  0.12016509824E+04  0.34136394484E+03 -0.10049301489E+04  0.16032470553E+04  0.46999998093E+01 0.  1.
</event>
<event>
 5   0  0.5714125E-09  0.3699624E+04  0.7818609E-02  0.8068045E-01
        1   -1    0    0  501    0  0.00000000000E+00  0.00000000000E+00  0.20237200259E+04  0.20237200259E+04  0.50400001928E-02 0. -1.
       -1   -1    0    0    0  501  0.00000000000E+00  0.00000000000E+00 -0.16908486949E+04  0.16908486949E+04  0.50400001928E-02 0.  1.
    10030    2    1    2    0    0  0.00000000000E+00  0.00000000000E+00  0.33287133106E+03  0.37145687208E+04  0.36996239618E+04 0.  0.
        3    1    3    3  502    0  0.15391954260E+04  0.15866377252E+01 -0.86371050069E+03  0.17649705142E+04  0.10100000352E+00 0.  1.
       -3    1    3    3    0  502 -0.15391954260E+04 -0.15866377252E+01  0.11965818318E+04  0.19495982066E+04  0.10100000352E+00 0. -1.
</event>
<event>
 5   0  0.1856107E-08  0.3697502E+04  0.7818609E-02  0.8068516E-01
        2   -1    0    0  501    0  0.00000000000E+00  0.00000000000E+00  0.22786155778E+04  0.22786155778E+04  0.25500000920E-02 0.  1.
       -2   -1    0    0    0  501  0.00000000000E+00  0.00000000000E+00 -0.14999807772E+04  0.14999807772E+04  0.25500000920E-02 0. -1.
    10030    2    1    2    0    0  0.00000000000E+00  0.00000000000E+00  0.77863480058E+03  0.37785963549E+04  0.36975016242E+04 0.  0.
        2    1    3    3  502    0  0.27270586088E+03 -0.79376402912E+03  0.20727007183E+04  0.22361838226E+04  0.25500000920E-02 0.  1.
       -2    1    3    3    0  502 -0.27270586088E+03  0.79376402912E+03 -0.12940659178E+04  0.15424125324E+04  0.25500000920E-02 0. -1.
</event>
<event>
 5   0  0.1757996E-08  0.3697769E+04  0.7818609E-02  0.8068456E-01
       -2   -1    0    0    0  501  0.00000000000E+00  0.00000000000E+00  0.15805570600E+04  0.15805570600E+04  0.25500000920E-02 0. -1.
        2   -1    0    0  501    0  0.00000000000E+00  0.00000000000E+00 -0.21627650712E+04  0.21627650712E+04  0.25500000920E-02 0.  1.
    10030    2    1    2    0    0  0.00000000000E+00  0.00000000000E+00 -0.58220801122E+03  0.37433221312E+04  0.36977688421E+04 0.  0.
        3    1    3    3  502    0  0.16108936998E+04  0.90736621088E+03 -0.28195722894E+03  0.18702384452E+04  0.10100000352E+00 0.  1.
       -3    1    3    3    0  502 -0.16108936998E+04 -0.90736621088E+03 -0.30025078228E+03  0.18730836861E+04  0.10100000352E+00 0. -1.
</event>
<event>
 5   0  0.5714125E-09  0.3700241E+04  0.7818609E-02  0.8067908E-01
       -1   -1    0    0    0  501  0.00000000000E+00  0.00000000000E+00  0.27774217036E+04  0.27774217036E+04  0.50400001928E-02 0. -1.
        1   -1    0    0  501    0  0.00000000000E+00  0.00000000000E+00 -0.12324185268E+04  0.12324185268E+04  0.50400001928E-02 0.  1.
    10030    2    1    2    0    0  0.00000000000E+00  0.00000000000E+00  0.15450031768E+04  0.40098402305E+04  0.37002410540E+04 0.  0.
        3    1    3    3  502    0  0.13494225647E+04  0.12294850747E+04  0.44673094272E+03  0.18793997320E+04  0.10100000352E+00 0. -1.
       -3    1    3    3    0  502 -0.13494225647E+04 -0.12294850747E+04  0.10982722341E+04  0.21304404985E+04  0.10100000352E+00 0.  1.
</event>
<event>
 5   0  0.5714125E-09  0.3695287E+04  0.7818609E-02  0.8069007E-01
       -1   -1    0    0    0  501  0.00000000000E+00  0.00000000000E+00  0.17031046039E+04  0.17031046039E+04  0.50400001928E-02 0. -1.
        1   -1    0    0  501    0  0.00000000000E+00  0.00000000000E+00 -0.20044487216E+04  0.20044487216E+04  0.50400001928E-02 0.  1.
    10030    2    1    2    0    0  0.00000000000E+00  0.00000000000E+00 -0.30134411768E+03  0.37075533255E+04  0.36952866444E+04 0.  0.
        2    1    3    3  502    0  0.81725873221E+03 -0.30258465675E+03 -0.17852876243E+04  0.19866356514E+04  0.25500000920E-02 0.  1.
       -2    1    3    3    0  502 -0.81725873221E+03  0.30258465675E+03  0.14839435067E+04  0.17209176741E+04  0.25500000920E-02 0. -1.
</event>
<event>
 5   0  0.1856107E-08  0.3697415E+04  0.7818609E-02  0.8068535E-01
        2   -1    0    0  501    0  0.00000000000E+00  0.00000000000E+00  0.21763971050E+04  0.21763971050E+04  0.25500000920E-02 0.  1.
       -2   -1    0    0    0  501  0.00000000000E+00  0.00000000000E+00 -0.15703567999E+04  0.15703567999E+04  0.25500000920E-02 0. -1.
    10030    2    1    2    0    0  0.00000000000E+00  0.00000000000E+00  0.60604030508E+03  0.37467539049E+04  0.36974153097E+04 0.  0.
        2    1    3    3  502    0  0.12058933329E+03  0.70717132998E+03 -0.14235608285E+04  0.15941011604E+04  0.25500000920E-02 0. -1.
       -2    1    3    3    0  502 -0.12058933329E+03 -0.70717132998E+03  0.20296011335E+04  0.21526527445E+04  0.25500000920E-02 0.  1.
</event>
<event>
 5   0  0.5714125E-09  0.3678423E+04  0.7818609E-02  0.8072761E-01
       -1   -1    0    0    0  501  0.00000000000E+00  0.00000000000E+00  0.14335218175E+04  0.14335218175E+04  0.50400001928E-02 0. -1.
        1   -1    0    0  501    0  0.00000000000E+00  0.00000000000E+00 -0.23597118037E+04  0.23597118037E+04  0.50400001928E-02 0.  1.
    10030    2    1    2    0    0  0.00000000000E+00  0.00000000000E+00 -0.92618998614E+03  0.37932336212E+04  0.36784226803E+04 0.  0.
        4    1    3    3  502    0 -0.10952433959E+04  0.10621389326E+04 -0.15222855328E+04  0.21552382848E+04  0.12699999809E+01 0.  1.
       -4    1    3    3    0  502  0.10952433959E+04 -0.10621389326E+04  0.59609554663E+03  0.16379953364E+04  0.12699999809E+01 0. -1.
</event>
<event>
 5   0  0.1725865E-08  0.3717910E+04  0.7818609E-02  0.8064004E-01
       -2   -1    0    0    0  501  0.00000000000E+00  0.00000000000E+00  0.18561565285E+04  0.18561565285E+04  0.25500000920E-02 0. -1.
        2   -1    0    0  501    0  0.00000000000E+00  0.00000000000E+00 -0.18617576108E+04  0.18617576108E+04  0.25500000920E-02 0.  1.
    10030    2    1    2    0    0  0.00000000000E+00  0.00000000000E+00 -0.56010823204E+01  0.37179141394E+04  0.37179099203E+04 0.  0.
        1    1    3    3  502    0  0.13935553857E+03 -0.39614097322E+03  0.18081034734E+04  0.18562289210E+04  0.50400001928E-02 0. -1.
       -1    1    3    3    0  502 -0.13935553857E+03  0.39614097322E+03 -0.18137045557E+04  0.18616852183E+04  0.50400001928E-02 0.  1.
</event>
<event>
 5   0  0.5714125E-09  0.3699685E+04  0.7818609E-02  0.8068032E-01
       -1   -1    0    0    0  501  0.00000000000E+00  0.00000000000E+00  0.14361296777E+04  0.14361296777E+04  0.50400001928E-02 0.  1.
        1   -1    0    0  501    0  0.00000000000E+00  0.00000000000E+00 -0.23827360001E+04  0.23827360001E+04  0.50400001928E-02 0. -1.
    10030    2    1    2    0    0  0.00000000000E+00  0.00000000000E+00 -0.94660632243E+03  0.38188656779E+04  0.36996853293E+04 0.  0.
        4    1    3    3  502    0 -0.32073702140E+03  0.36176504303E+03 -0.23163668250E+04  0.23662846541E+04  0.12699999809E+01 0. -1.
       -4    1    3    3    0  502  0.32073702140E+03 -0.36176504303E+03  0.13697605026E+04  0.14525810238E+04  0.12699999809E+01 0.  1.
</event>
<event>
 5   0  0.5714125E-09  0.3700550E+04  0.7818609E-02  0.8067840E-01
        1   -1    0    0  501    0  0.00000000000E+00  0.00000000000E+00  0.22475429327E+04  0.22475429327E+04  0.50400001928E-02 0. -1.
       -1   -1    0    0    0  501  0.00000000000E+00  0.00000000000E+00 -0.15232271487E+04  0.15232271487E+04  0.50400001928E-02 0.  1.
    10030    2    1    2    0    0  0.00000000000E+00  0.00000000000E+00  0.72431578402E+03  0.37707700815E+04  0.37005504526E+04 0.  0.
        3    1    3    3  502    0 -0.14896996790E+04 -0.50669067656E+03 -0.62974959402E+03  0.16948525413E+04  0.10100000352E+00 0.  1.
       -3    1    3    3    0  502  0.14896996790E+04  0.50669067656E+03  0.13540653780E+04  0.20759175402E+04  0.10100000352E+00 0. -1.
</event>
<event>
 5   0  0.5714125E-09  0.3693331E+04  0.7818609E-02  0.8069441E-01
       -1   -1    0    0    0  501  0.00000000000E+00  0.00000000000E+00  0.30602675710E+04  0.30602675710E+04  0.50400001928E-02 0.  1.
        1   -1    0    0  501    0  0.00000000000E+00  0.00000000000E+00 -0.11143385002E+04  0.11143385002E+04  0.50400001928E-02 0. -1.
    10030    2    1    2    0    0  0.00000000000E+00  0.00000000000E+00  0.19459290708E+04  0.41746060712E+04  0.36933312742E+04 0.  0.
        2    1    3    3  502    0  0.10085449728E+04  0.11500805117E+04  0.21423433994E+04  0.26323911918E+04  0.25500000920E-02 0.  1.
       -2    1    3    3    0  502 -0.10085449728E+04 -0.11500805117E+04 -0.19641432865E+03  0.15422148794E+04  0.25500000920E-02 0. -1.
</event>
<event>
 5   0  0.1725865E-08  0.3700104E+04  0.7818609E-02  0.8067939E-01
       -2   -1    0    0    0  501  0.00000000000E+00  0.00000000000E+00  0.16144236325E+04  0.16144236325E+04  0.25500000920E-02 0.  1.
        2   -1    0    0  501    0  0.00000000000E+00  0.00000000000E+00 -0.21200708667E+04  0.21200708667E+04  0.25500000920E-02 0. -1.
    10030    2    1    2    0    0  0.00000000000E+00  0.00000000000E+00 -0.50564723426E+03  0.37344944992E+04  0.37001040579E+04 0.  0.
        1    1    3    3  502    0 -0.84873297260E+03 -0.85769802215E+03 -0.16682485111E+04  0.20588945216E+04  0.50400001928E-02 0. -1.
       -1    1    3    3    0  502  0.84873297260E+03  0.85769802215E+03  0.11626012769E+04  0.16755999776E+04  0.50400001928E-02 0.  1.
</event>
<event>
 5   0  0.1740290E-08  0.3699929E+04  0.7818609E-02  0.8067978E-01
       -2   -1    0    0    0  501  0.00000000000E+00  0.00000000000E+00  0.14878112249E+04  0.14878112249E+04  0.25500000920E-02 0. -1.
        2   -1    0    0  501    0  0.00000000000E+00  0.00000000000E+00 -0.23002702320E+04  0.23002702320E+04  0.25500000920E-02 0.  1.
    10030    2    1    2    0    0  0.00000000000E+00  0.00000000000E+00 -0.81245900713E+03  0.37880814569E+04  0.36999285785E+04 0.  0.
        5    1    3    3  502    0  0.60095209562E+02  0.39837151657E+03  0.14423454539E+04  0.14975626190E+04  0.46999998093E+01 0. -1.
       -5    1    3    3    0  502 -0.60095209562E+02 -0.39837151657E+03 -0.22548044610E+04  0.22905188379E+04  0.46999998093E+01 0.  1.
</event>
<event>
 5   0  0.5714125E-09  0.3701662E+04  0.7818609E-02  0.8067594E-01
       -1   -1    0    0    0  501  0.00000000000E+00  0.00000000000E+00  0.13853712072E+04  0.13853712073E+04  0.50400001928E-02 0.  1.
        1   -1    0    0  501    0  0.00000000000E+00  0.00000000000E+00 -0.24726775119E+04  0.24726775119E+04  0.50400001928E-02 0. -1.
    10030    2    1    2    0    0  0.00000000000E+00  0.00000000000E+00 -0.10873063046E+04  0.38580487191E+04  0.37016624534E+04 0.  0.
        5    1    3    3  502    0 -0.12215479590E+04  0.11272954789E+04  0.30472589248E+03  0.16899273571E+04  0.46999998093E+01 0.  1.
       -5    1    3    3    0  502  0.12215479590E+04 -0.11272954789E+04 -0.13920321971E+04  0.21681213620E+04  0.46999998093E+01 0. -1.
</event>
<event>
 5   0  0.1825308E-08  0.3700550E+04  0.7818609E-02  0.8067840E-01
        2   -1    0    0  501    0  0.00000000000E+00  0.00000000000E+00  0.20812105837E+04  0.20812105837E+04  0.25500000920E-02 0.  1.
       -2   -1    0    0    0  501  0.00000000000E+00  0.00000000000E+00 -0.16449646127E+04  0.16449646127E+04  0.25500000920E-02 0. -1.
    10030    2    1    2    0    0  0.00000000000E+00  0.00000000000E+00  0.43624597100E+03  0.37261751965E+04  0.37005501007E+04 0.  0.
        4    1    3    3  502    0 -0.70285410809E+03  0.13482791274E+04  0.12797748367E+04  0.19873816312E+04  0.12699999809E+01 0.  1.
       -4    1    3    3    0  502  0.70285410809E+03 -0.13482791274E+04 -0.84352886567E+03  0.17387935653E+04  0.12699999809E+01 0. -1.
</event>
<event>
 5   0  0.5714125E-09  0.3700606E+04  0.7818609E-02  0.8067828E-01
       -1   -1    0    0    0  501  0.00000000000E+00  0.00000000000E+00  0.17264247284E+04  0.17264247284E+04  0.50400001928E-02 0.  1.
        1   -1    0    0  501    0  0.00000000000E+00  0.00000000000E+00 -0.19830697505E+04  0.19830697505E+04  0.50400001928E-02 0. -1.
    10030    2    1    2    0    0  0.00000000000E+00  0.00000000000E+00 -0.25664502205E+03  0.37094944789E+04  0.37006057101E+04 0.  0.
        1    1    3    3  502    0 -0.81527534595E+01 -0.36303714261E+03  0.16903557635E+04  0.17289201952E+04  0.50400001928E-02 0.  1.
       -1    1    3    3    0  502  0.81527534595E+01  0.36303714261E+03 -0.19470007855E+04  0.19805742837E+04  0.50400001928E-02 0. -1.
</event>
<event>
 5   0  0.5714125E-09  0.3695579E+04  0.7818609E-02  0.8068942E-01
       -1   -1    0    0    0  501  0.00000000000E+00  0.00000000000E+00  0.25776004988E+04  0.25776004988E+04  0.50400001928E-02 0. -1.
        1   -1    0    0  501    0  0.00000000000E+00  0.00000000000E+00 -0.13246140273E+04  0.13246140273E+04  0.50400001928E-02 0.  1.
    10030    2    1    2    0    0  0.00000000000E+00  0.00000000000E+00  0.12529864715E+04  0.39022145261E+04  0.36955788600E+04 0.  0.
        5    1    3    3  502    0  0.34541459673E+03  0.17049902224E+04  0.12842191745E+04  0.21623005990E+04  0.46999998093E+01 0. -1.
       -5    1    3    3    0  502 -0.34541459673E+03 -0.17049902224E+04 -0.31232702991E+02  0.17399139272E+04  0.46999998093E+01 0.  1.
</event>
<event>
 5   0  0.5714125E-09  0.3698369E+04  0.7818609E-02  0.8068323E-01
        1   -1    0    0  501    0  0.00000000000E+00  0.00000000000E+00  0.29193420670E+04  0.29193420671E+04  0.50400001928E-02 0. -1.
       -1   -1    0    0    0  501  0.00000000000E+00  0.00000000000E+00 -0.11713196316E+04  0.11713196317E+04  0.50400001928E-02 0.  1.
    10030    2    1    2    0    0  0.00000000000E+00  0.00000000000E+00  0.17480224354E+04  0.40906616987E+04  0.36983686537E+04 0.  0.
        2    1    3    3  502    0  0.15310489035E+04  0.24808645778E+03  0.19877026318E+04  0.25212337035E+04  0.25500000920E-02 0. -1.
       -2    1    3    3    0  502 -0.15310489035E+04 -0.24808645778E+03 -0.23968019640E+03  0.15694279952E+04  0.25500000920E-02 0.  1.
</event>
<event>
 5   0  0.5714125E-09  0.3700721E+04  0.7818609E-02  0.8067802E-01
        1   -1    0    0  501    0  0.00000000000E+00  0.00000000000E+00  0.17421518852E+04  0.17421518852E+04  0.50400001928E-02 0. -1.
       -1   -1    0    0    0  501  0.00000000000E+00  0.00000000000E+00 -0.19652901109E+04  0.19652901109E+04  0.50400001928E-02 0.  1.
    10030    2    1    2    0    0  0.00000000000E+00  0.00000000000E+00 -0.22313822570E+03  0.37074419961E+04  0.37007209415E+04 0.  0.
        2    1    3    3  502    0  0.17552706499E+04 -0.58507987033E+03 -0.13485703408E+03  0.18551226182E+04  0.25500000920E-02 0. -1.
       -2    1    3    3    0  502 -0.17552706499E+04  0.58507987033E+03 -0.88281191617E+02  0.18523193779E+04  0.25500000920E-02 0.  1.
</event>
<event>
 5   0  0.5714125E-09  0.3699826E+04  0.7818609E-02  0.8068000E-01
        1   -1    0    0  501    0  0.00000000000E+00  0.00000000000E+00  0.18771242686E+04  0.18771242686E+04  0.50400001928E-02 0.  1.
       -1   -1    0    0    0  501  0.00000000000E+00  0.00000000000E+00 -0.18230965991E+04  0.18230965991E+04  0.50400001928E-02 0. -1.
    10030    2    1    2    0    0  0.00000000000E+00  0.00000000000E+00  0.54027669513E+02  0.37002208677E+04  0.36998264122E+04 0.  0.
        5    1    3    3  502    0 -0.67133958242E+03  0.25559837180E+03 -0.16779052607E+04  0.18252165670E+04  0.46999998093E+01 0. -1.
       -5    1    3    3    0  502  0.67133958242E+03 -0.25559837180E+03  0.17319329302E+04  0.18750043006E+04  0.46999998093E+01 0.  1.
</event>
<event>
 5   0  0.5714125E-09  0.3699702E+04  0.7818609E-02  0.8068028E-01
        1   -1    0    0  501    0  0.00000000000E+00  0.00000000000E+00  0.24773917085E+04  0.24773917085E+04  0.50400001928E-02 0. -1.
       -1   -1    0    0    0  501  0.00000000000E+00  0.00000000000E+00 -0.13812706712E+04  0.13812706712E+04  0.50400001928E-02 0.  1.
    10030    2    1    2    0    0  0.00000000000E+00  0.00000000000E+00  0.10961210374E+04  0.38586623797E+04  0.36997018842E+04 0.  0.
        5    1    3    3  502    0  0.43543202667E+03 -0.18472286317E+02 -0.13269541117E+04  0.13967002469E+04  0.46999998093E+01 0.  1.
       -5    1    3    3    0  502 -0.43543202667E+03  0.18472286317E+02  0.24230751491E+04  0.24619621328E+04  0.46999998093E+01 0. -1.
</event>
<event>
 5   0  0.5714125E-09  0.3695670E+04  0.7818609E-02  0.8068922E-01
       -1   -1    0    0    0  501  0.00000000000E+00  0.00000000000E+00  0.15411890184E+04  0.15411890184E+04  0.50400001928E-02 0.  1.
        1   -1    0    0  501    0  0.00000000000E+00  0.00000000000E+00 -0.22154931187E+04  0.22154931187E+04  0.50400001928E-02 0. -1.
    10030    2    1    2    0    0  0.00000000000E+00  0.00000000000E+00 -0.67430410036E+03  0.37566821371E+04  0.36956697173E+04 0.  0.
        2    1    3    3  502    0  0.14322845138E+04  0.11105479299E+04  0.28986073234E+02  0.18126212581E+04  0.25500000920E-02 0. -1.
       -2    1    3    3    0  502 -0.14322845138E+04 -0.11105479299E+04 -0.70329017360E+03  0.19440608790E+04  0.25500000920E-02 0.  1.
</event>
<event>
 5   0  0.5714125E-09  0.3699156E+04  0.7818609E-02  0.8068149E-01
        1   -1    0    0  501    0  0.00000000000E+00  0.00000000000E+00  0.19176720613E+04  0.19176720613E+04  0.50400001928E-02 0.  1.
       -1   -1    0    0    0  501  0.00000000000E+00  0.00000000000E+00 -0.17839015146E+04  0.17839015146E+04  0.50400001928E-02 0. -1.
    10030    2    1    2    0    0  0.00000000000E+00  0.00000000000E+00  0.13377054668E+03  0.37015735759E+04  0.36991556305E+04 0.  0.
        2    1    3    3  502    0 -0.31891120297E+03  0.15769949605E+04 -0.84602714234E+03  0.18177951993E+04  0.25500000920E-02 0. -1.
       -2    1    3    3    0  502  0.31891120297E+03 -0.15769949605E+04  0.97979768902E+03  0.18837783766E+04  0.25500000920E-02 0.  1.
</event>
<event>
 5   0  0.1740290E-08  0.3717208E+04  0.7818609E-02  0.8064159E-01
       -2   -1    0    0    0  501  0.00000000000E+00  0.00000000000E+00  0.27205600583E+04  0.27205600583E+04  0.25500000920E-02 0.  1.
        2   -1    0    0  501    0  0.00000000000E+00  0.00000000000E+00 -0.12697417455E+04  0.12697417455E+04  0.25500000920E-02 0. -1.
    10030    2    1    2    0    0  0.00000000000E+00  0.00000000000E+00  0.14508183128E+04  0.39903018039E+04  0.37172079185E+04 0.  0.
        5    1    3    3  502    0 -0.92459975312E+00  0.92117746831E+03  0.24582589320E+04  0.26251910120E+04  0.46999998093E+01 0.  1.
       -5    1    3    3    0  502  0.92459975312E+00 -0.92117746831E+03 -0.10074406192E+04  0.13651107919E+04  0.46999998093E+01 0. -1.
</event>
<event>
 5   0  0.1725865E-08  0.3698615E+04  0.7818609E-02  0.8068269E-01
       -2   -1    0    0    0  501  0.00000000000E+00  0.00000000000E+00  0.15337725045E+04  0.15337725045E+04  0.25500000920E-02 0.  1.
        2   -1    0    0  501    0  0.00000000000E+00  0.00000000000E+00 -0.22297556016E+04  0.22297556016E+04  0.25500000920E-02 0. -1.
    10030    2    1    2    0    0  0.00000000000E+00  0.00000000000E+00 -0.69598309712E+03  0.37635281062E+04  0.36986147859E+04 0.  0.
        1    1    3    3  502    0 -0.10140333912E+04  0.11699679411E+04 -0.13771016774E+04  0.20720757060E+04  0.50400001928E-02 0. -1.
       -1    1    3    3    0  502  0.10140333912E+04 -0.11699679411E+04  0.68111858024E+03  0.16914524002E+04  0.50400001928E-02 0.  1.
</event>
<event>
 5   0  0.5714125E-09  0.3699924E+04  0.7818609E-02  0.8067979E-01
        1   -1    0    0  501    0  0.00000000000E+00  0.00000000000E+00  0.18533770000E+04  0.18533770000E+04  0.50400001928E-02 0.  1.
       -1   -1    0    0    0  501  0.00000000000E+00  0.00000000000E+00 -0.18465533659E+04  0.18465533659E+04  0.50400001928E-02 0. -1.
    10030    2    1    2    0    0  0.00000000000E+00  0.00000000000E+00  0.68236340341E+01  0.36999303659E+04  0.36999240736E+04 0.  0.
        5    1    3    3  502    0 -0.37182374205E+03  0.57545583295E+03 -0.17150017481E+04  0.18467959814E+04  0.46999998093E+01 0. -1.
       -5    1    3    3    0  502  0.37182374205E+03 -0.57545583295E+03  0.17218253821E+04  0.18531343846E+04  0.46999998093E+01 0.  1.
</event>
<event>
 5   0  0.5714125E-09  0.3697615E+04  0.7818609E-02  0.8068490E-01
       -1   -1    0    0    0  501  0.00000000000E+00  0.00000000000E+00  0.27019824959E+04  0.27019824959E+04  0.50400001928E-02 0. -1.
        1   -1    0    0  501    0  0.00000000000E+00  0.00000000000E+00 -0.12650304141E+04  0.12650304141E+04  0.50400001928E-02 0.  1.
    10030    2    1    2    0    0  0.00000000000E+00  0.00000000000E+00  0.14369520818E+04  0.39670129100E+04  0.36976154671E+04 0.  0.
        2    1    3    3  502    0  0.69689503851E+03 -0.17063288509E+04  0.56348924389E+03  0.19273663300E+04  0.25500000920E-02 0. -1.
       -2    1    3    3    0  502 -0.69689503851E+03  0.17063288509E+04  0.87346283795E+03  0.20396465800E+04  0.25500000920E-02 0.  1.
</event>
<event>
 5   0  0.5714125E-09  0.3700087E+04  0.7818609E-02  0.8067943E-01
       -1   -1    0    0    0  501  0.00000000000E+00  0.00000000000E+00  0.18915040029E+04  0.18915040029E+04  0.50400001928E-02 0. -1.
        1   -1    0    0  501    0  0.00000000000E+00  0.00000000000E+00 -0.18094916514E+04  0.18094916514E+04  0.50400001928E-02 0.  1.
    10030    2    1    2    0    0  0.00000000000E+00  0.00000000000E+00  0.82012351586E+02  0.37009956543E+04  0.37000868648E+04 0.  0.
        1    1    3    3  502    0  0.64380454147E+03 -0.80641733901E+03  0.15769182428E+04  0.18845329280E+04  0.50400001928E-02 0. -1.
       -1    1    3    3    0  502 -0.64380454147E+03  0.80641733901E+03 -0.14949058912E+04  0.18164627263E+04  0.50400001928E-02 0.  1.
</event>
<event>
 5   0  0.1740290E-08  0.3696854E+04  0.7818609E-02  0.8068659E-01
        2   -1    0    0  501    0  0.00000000000E+00  0.00000000000E+00  0.23930364384E+04  0.23930364384E+04  0.25500000920E-02 0. -1.
       -2   -1    0    0    0  501  0.00000000000E+00  0.00000000000E+00 -0.14277602310E+04  0.14277602310E+04  0.25500000920E-02 0.  1.
    10030    2    1    2    0    0  0.00000000000E+00  0.00000000000E+00  0.96527620740E+03  0.38207966694E+04  0.36968539371E+04 0.  0.
        5    1    3    3  502    0 -0.52870264112E+03  0.29143649215E+03  0.22882650146E+04  0.23665672564E+04  0.46999998093E+01 0. -1.
       -5    1    3    3    0  502  0.52870264112E+03 -0.29143649215E+03 -0.13229888072E+04  0.14542294131E+04  0.46999998093E+01 0.  1.
</event>
<event>
 5   0  0.1740290E-08  0.3701087E+04  0.7818609E-02  0.8067721E-01
       -2   -1    0    0    0  501  0.00000000000E+00  0.00000000000E+00  0.24189165789E+04  0.24189165789E+04  0.25500000920E-02 0.  1.
        2   -1    0    0  501    0  0.00000000000E+00  0.00000000000E+00 -0.14157207324E+04  0.14157207324E+04  0.25500000920E-02 0. -1.
    10030    2    1    2    0    0  0.00000000000E+00  0.00000000000E+00  0.10031958465E+04  0.38346373113E+04  0.37010865165E+04 0.  0.
        5    1    3    3  502    0  0.10621565641E+03 -0.17021621846E+04  0.12457418455E+04  0.21119973258E+04  0.46999998093E+01 0. -1.
       -5    1    3    3    0  502 -0.10621565641E+03  0.17021621846E+04 -0.24254599900E+03  0.17226399856E+04  0.46999998093E+01 0.  1.
</event>
<event>
 5   0  0.1825308E-08  0.3699459E+04  0.7818609E-02  0.8068082E-01
       -2   -1    0    0    0  501  0.00000000000E+00  0.00000000000E+00  0.18750387758E+04  0.18750387758E+04  0.25500000920E-02 0.  1.
        2   -1    0    0  501    0  0.00000000000E+00  0.00000000000E+00 -0.18247620792E+04  0.18247620792E+04  0.25500000920E-02 0. -1.
    10030    2    1    2    0    0  0.00000000000E+00  0.00000000000E+00  0.50276696558E+02  0.36998008550E+04  0.36994592335E+04 0.  0.
        4    1    3    3  502    0 -0.10751339845E+04  0.12561229075E+04  0.85451595928E+03  0.18611708629E+04  0.12699999809E+01 0.  1.
       -4    1    3    3    0  502  0.10751339845E+04 -0.12561229075E+04 -0.80423926272E+03  0.18386299921E+04  0.12699999809E+01 0. -1.
</event>
<event>
 5   0  0.5714125E-09  0.3700961E+04  0.7818609E-02  0.8067749E-01
       -1   -1    0    0    0  501  0.00000000000E+00  0.00000000000E+00  0.21682637047E+04  0.21682637047E+04  0.50400001928E-02 0. -1.
        1   -1    0    0  501    0  0.00000000000E+00  0.00000000000E+00 -0.15792719586E+04  0.15792719586E+04  0.50400001928E-02 0.  1.
    10030    2    1    2    0    0  0.00000000000E+00  0.00000000000E+00  0.58899174614E+03  0.37475356634E+04  0.37009609929E+04 0.  0.
        5    1    3    3  502    0  0.14466596762E+04  0.81622757680E+03  0.11203603599E+04  0.20035670944E+04  0.46999998093E+01 0. -1.
       -5    1    3    3    0  502 -0.14466596762E+04 -0.81622757680E+03 -0.53136861379E+03  0.17439685689E+04  0.46999998093E+01 0.  1.
</event>
<event>
 5   0  0.1856107E-08  0.3699674E+04  0.7818609E-02  0.8068034E-01
        2   -1    0    0  501    0  0.00000000000E+00  0.00000000000E+00  0.22390439397E+04  0.22390439397E+04  0.25500000920E-02 0. -1.
       -2   -1    0    0    0  501  0.00000000000E+00  0.00000000000E+00 -0.15282849102E+04  0.15282849102E+04  0.25500000920E-02 0.  1.
    10030    2    1    2    0    0  0.00000000000E+00  0.00000000000E+00  0.71075902946E+03  0.37673288499E+04  0.36996740755E+04 0.  0.
        2    1    3    3  502    0 -0.11629834901E+04  0.38675577572E+03 -0.10555214313E+04  0.16174783214E+04  0.25500000920E-02 0.  1.
       -2    1    3    3    0  502  0.11629834901E+04 -0.38675577572E+03  0.17662804608E+04  0.21498505284E+04  0.25500000920E-02 0. -1.
</event>
<event>
 5   0  0.5714125E-09  0.3700412E+04  0.7818609E-02  0.8067871E-01
        1   -1    0    0  501    0  0.00000000000E+00  0.00000000000E+00  0.18019706006E+04  0.18019706006E+04  0.50400001928E-02 0.  1.
       -1   -1    0    0    0  501  0.00000000000E+00  0.00000000000E+00 -0.18997321611E+04  0.18997321611E+04  0.50400001928E-02 0. -1.
    10030    2    1    2    0    0  0.00000000000E+00  0.00000000000E+00 -0.97761560444E+02  0.37017027617E+04  0.37004116005E+04 0.  0.
        2    1    3    3  502    0 -0.92284153073E+03  0.44957816999E+03 -0.15887373717E+04  0.18915188231E+04  0.25500000920E-02 0. -1.
       -2    1    3    3    0  502  0.92284153073E+03 -0.44957816999E+03  0.14909758113E+04  0.18101839386E+04  0.25500000920E-02 0.  1.
</event>
<event>
 5   0  0.1856107E-08  0.3714321E+04  0.7818609E-02  0.8064796E-01
       -2   -1    0    0    0  501  0.00000000000E+00  0.00000000000E+00  0.18561074427E+04  0.18561074427E+04  0.25500000920E-02 0.  1.
        2   -1    0    0  501    0  0.00000000000E+00  0.00000000000E+00 -0.18582138767E+04  0.18582138767E+04  0.25500000920E-02 0. -1.
    10030    2    1    2    0    0  0.00000000000E+00  0.00000000000E+00 -0.21064339665E+01  0.37143213194E+04  0.37143207221E+04 0.  0.
        2    1    3    3  502    0  0.12588995287E+04  0.93523612929E+03  0.99370820369E+03  0.18565965192E+04  0.25500000920E-02 0.  1.
       -2    1    3    3    0  502 -0.12588995287E+04 -0.93523612929E+03 -0.99581463766E+03  0.18577248002E+04  0.25500000920E-02 0. -1.
</event>
<event>
 5   0  0.5714125E-09  0.3701229E+04  0.7818609E-02  0.8067690E-01
       -1   -1    0    0    0  501  0.00000000000E+00  0.00000000000E+00  0.94230904615E+03  0.94230904617E+03  0.50400001928E-02 0. -1.
        1   -1    0    0  501    0  0.00000000000E+00  0.00000000000E+00 -0.36344487078E+04  0.36344487078E+04  0.50400001928E-02 0.  1.
    10030    2    1    2    0    0  0.00000000000E+00  0.00000000000E+00 -0.26921396616E+04  0.45767577539E+04  0.37012289284E+04 0.  0.
        5    1    3    3  502    0 -0.18359181249E+04 -0.22676634596E+03 -0.12814197617E+04  0.22503504244E+04  0.46999998093E+01 0. -1.
       -5    1    3    3    0  502  0.18359181249E+04  0.22676634596E+03 -0.14107198999E+04  0.23264073295E+04  0.46999998093E+01 0.  1.
</event>
<event>
 5   0  0.1825308E-08  0.3706459E+04  0.7818609E-02  0.8066532E-01
        2   -1    0    0  501    0  0.00000000000E+00  0.00000000000E+00  0.18239629540E+04  0.18239629540E+04  0.25500000920E-02 0.  1.
       -2   -1    0    0    0  501  0.00000000000E+00  0.00000000000E+00 -0.18829655773E+04  0.18829655773E+04  0.25500000920E-02 0. -1.
    10030    2    1    2    0    0  0.00000000000E+00  0.00000000000E+00 -0.59002623372E+02  0.37069285313E+04  0.37064589336E+04 0.  0.
        4    1    3    3  502    0 -0.11820037438E+04  0.14260825679E+04 -0.89621345758E+02  0.18544211872E+04  0.12699999809E+01 0. -1.
       -4    1    3    3    0  502  0.11820037438E+04 -0.14260825679E+04  0.30618722386E+02  0.18525073441E+04  0.12699999809E+01 0.  1.
</event>
<event>
 5   0  0.5714125E-09  0.3698800E+04  0.7818609E-02  0.8068228E-01
        1   -1    0    0  501    0  0.00000000000E+00  0.00000000000E+00  0.23840724346E+04  0.23840724346E+04  0.50400001928E-02 0.  1.
       -1   -1    0    0    0  501  0.00000000000E+00  0.00000000000E+00 -0.14346381273E+04  0.14346381273E+04  0.50400001928E-02 0. -1.
    10030    2    1    2    0    0  0.00000000000E+00  0.00000000000E+00  0.94943430730E+03  0.38187105619E+04  0.36988004611E+04 0.  0.
        1    1    3    3  502    0  0.64814540424E+03 -0.70360886658E+03  0.21087861624E+04  0.23156288521E+04  0.50400001928E-02 0.  1.
       -1    1    3    3    0  502 -0.64814540424E+03  0.70360886658E+03 -0.11593518551E+04  0.15030817097E+04  0.50400001928E-02 0. -1.
</event>
<event>
 5   0  0.5714125E-09  0.3701250E+04  0.7818609E-02  0.8067685E-01
       -1   -1    0    0    0  501  0.00000000000E+00  0.00000000000E+00  0.13606261489E+04  0.13606261489E+04  0.50400001928E-02 0.  1.
        1   -1    0    0  501    0  0.00000000000E+00  0.00000000000E+00 -0.25170860706E+04  0.25170860706E+04  0.50400001928E-02 0. -1.
    10030    2    1    2    0    0  0.00000000000E+00  0.00000000000E+00 -0.11564599217E+04  0.38777122195E+04  0.37012501276E+04 0.  0.
        5    1    3    3  502    0 -0.22264771831E+03  0.86639299093E+03 -0.22755245654E+04  0.24450445720E+04  0.46999998093E+01 0. -1.
       -5    1    3    3    0  502  0.22264771831E+03 -0.86639299093E+03  0.11190646438E+04  0.14326676475E+04  0.46999998093E+01 0.  1.
</event>
<event>
 5   0  0.5714125E-09  0.3700990E+04  0.7818609E-02  0.8067743E-01
        1   -1    0    0  501    0  0.00000000000E+00  0.00000000000E+00  0.19768179610E+04  0.19768179610E+04  0.50400001928E-02 0.  1.
       -1   -1    0    0    0  501  0.00000000000E+00  0.00000000000E+00 -0.17322440606E+04  0.17322440606E+04  0.50400001928E-02 0. -1.
    10030    2    1    2    0    0  0.00000000000E+00  0.00000000000E+00  0.24457390038E+03  0.37090620216E+04  0.37009896902E+04 0.  0.
        1    1    3    3  502    0 -0.16808522105E+04 -0.54992585193E+03 -0.42355555794E+03  0.18185383985E+04  0.50400001928E-02 0. -1.
       -1    1    3    3    0  502  0.16808522105E+04  0.54992585193E+03  0.66812945832E+03  0.18905236230E+04  0.50400001928E-02 0.  1.
</event>
<event>
 5   0  0.1856107E-08  0.3700631E+04  0.7818609E-02  0.8067822E-01
        2   -1    0    0  501    0  0.00000000000E+00  0.00000000000E+00  0.22130103977E+04  0.22130103977E+04  0.25500000920E-02 0.  1.
       -2   -1    0    0    0  501  0.00000000000E+00  0.00000000000E+00 -0.15470633571E+04  0.15470633571E+04  0.25500000920E-02 0. -1.
    10030    2    1    2    0    0  0.00000000000E+00  0.00000000000E+00  0.66594704065E+03  0.37600737548E+04  0.37006309165E+04 0.  0.
        2    1    3    3  502    0 -0.16868377429E+04 -0.64001235815E+03 -0.84268355969E+02  0.18061391267E+04  0.25500000920E-02 0. -1.
       -2    1    3    3    0  502  0.16868377429E+04  0.64001235815E+03  0.75021539662E+03  0.19539346280E+04  0.25500000920E-02 0.  1.
</event>
<event>
 5   0  0.1757996E-08  0.3698356E+04  0.7818609E-02  0.8068326E-01
       -2   -1    0    0    0  501  0.00000000000E+00  0.00000000000E+00  0.13231025888E+04  0.13231025888E+04  0.25500000920E-02 0. -1.
        2   -1    0    0  501    0  0.00000000000E+00  0.00000000000E+00 -0.25844255463E+04  0.25844255463E+04  0.25500000920E-02 0.  1.
    10030    2    1    2    0    0  0.00000000000E+00  0.00000000000E+00 -0.12613229575E+04  0.39075281351E+04  0.36983564625E+04 0.  0.
        3    1    3    3  502    0  0.38285473780E+03 -0.79052953431E+03 -0.23499464261E+04  0.25087373140E+04  0.10100000352E+00 0.  1.
       -3    1    3    3    0  502 -0.38285473780E+03  0.79052953431E+03  0.10886234685E+04  0.13987908211E+04  0.10100000352E+00 0. -1.
</event>
<event>
 5   0  0.5714125E-09  0.3699694E+04  0.7818609E-02  0.8068030E-01
       -1   -1    0    0    0  501  0.00000000000E+00  0.00000000000E+00  0.11101859829E+04  0.11101859829E+04  0.50400001928E-02 0. -1.
        1   -1    0    0  501    0  0.00000000000E+00  0.00000000000E+00 -0.30823075564E+04  0.30823075564E+04  0.50400001928E-02 0.  1.
    10030    2    1    2    0    0  0.00000000000E+00  0.00000000000E+00 -0.19721215735E+04  0.41924935394E+04  0.36996943896E+04 0.  0.
        5    1    3    3  502    0 -0.18079771654E+04 -0.35767607915E+03 -0.80617463198E+03  0.20116294976E+04  0.46999998093E+01 0.  1.
       -5    1    3    3    0  502  0.18079771654E+04  0.35767607915E+03 -0.11659469416E+04  0.21808640418E+04  0.46999998093E+01 0. -1.
</event>
<event>
 5   0  0.1740290E-08  0.3703024E+04  0.7818609E-02  0.8067292E-01
        2   -1    0    0  501    0  0.00000000000E+00  0.00000000000E+00  0.27876524483E+04  0.27876524483E+04  0.25500000920E-02 0.  1.
       -2   -1    0    0    0  501  0.00000000000E+00  0.00000000000E+00 -0.12297432692E+04  0.12297432692E+04  0.25500000920E-02 0. -1.
    10030    2    1    2    0    0  0.00000000000E+00  0.00000000000E+00  0.15579091790E+04  0.40173957175E+04  0.37030240805E+04 0.  0.
        5    1    3    3  502    0 -0.41716105871E+03  0.15479280125E+04 -0.22594852945E+03  0.16190056544E+04  0.46999998093E+01 0. -1.
       -5    1    3    3    0  502  0.41716105871E+03 -0.15479280125E+04  0.17838577085E+04  0.23983900632E+04  0.46999998093E+01 0.  1.
</event>
<event>
 5   0  0.1740290E-08  0.3700123E+04  0.7818609E-02  0.8067935E-01
        2   -1    0    0  501    0  0.00000000000E+00  0.00000000000E+00  0.12942409415E+04  0.12942409415E+04  0.25500000920E-02 0. -1.
       -2   -1    0    0    0  501  0.00000000000E+00  0.00000000000E+00 -0.26445827681E+04  0.26445827681E+04  0.25500000920E-02 0.  1.
    10030    2    1    2    0    0  0.00000000000E+00  0.00000000000E+00 -0.13503418265E+04  0.39388237096E+04  0.37001228583E+04 0.  0.
        5    1    3    3  502    0 -0.15855798154E+04  0.26967187673E+03  0.29809716398E+03  0.16357476215E+04  0.46999998093E+01 0. -1.
       -5    1    3    3    0  502  0.15855798154E+04 -0.26967187673E+03 -0.16484389905E+04  0.23030760881E+04  0.46999998093E+01 0.  1.
</event>
<event>
 5   0  0.1740290E-08  0.3700918E+04  0.7818609E-02  0.8067758E-01
        2   -1    0    0  501    0  0.00000000000E+00  0.00000000000E+00  0.15148099680E+04  0.15148099680E+04  0.25500000920E-02 0. -1.
       -2   -1    0    0    0  501  0.00000000000E+00  0.00000000000E+00 -0.22604808050E+04  0.22604808050E+04  0.25500000920E-02 0.  1.
    10030    2    1    2    0    0  0.00000000000E+00  0.00000000000E+00 -0.74567083702E+03  0.37752907729E+04  0.37009181865E+04 0.  0.
        5    1    3    3  502    0  0.17966061189E+04 -0.40772590896E+03 -0.54994119850E+03  0.19226261663E+04  0.46999998093E+01 0.  1.
       -5    1    3    3    0  502 -0.17966061189E+04  0.40772590896E+03 -0.19572963852E+03  0.18526646067E+04  0.46999998093E+01 0. -1.
</event>
<event>
 5   0  0.5714125E-09  0.3705512E+04  0.7818609E-02  0.8066741E-01
        1   -1    0    0  501    0  0.00000000000E+00  0.00000000000E+00  0.24687259926E+04  0.24687259926E+04  0.50400001928E-02 0.  1.
       -1   -1    0    0    0  501  0.00000000000E+00  0.00000000000E+00 -0.13904760292E+04  0.13904760292E+04  0.50400001928E-02 0. -1.
    10030    2    1    2    0    0  0.00000000000E+00  0.00000000000E+00  0.10782499634E+04  0.38592020218E+04  0.37055117409E+04 0.  0.
        1    1    3    3  502    0 -0.75727344831E+02 -0.13689811967E+04 -0.75869810363E+03  0.15669929675E+04  0.50400001928E-02 0. -1.
       -1    1    3    3    0  502  0.75727344831E+02  0.13689811967E+04  0.18369480670E+04  0.22922090543E+04  0.50400001928E-02 0.  1.
</event>
<event>
 5   0  0.1825308E-08  0.3714794E+04  0.7818609E-02  0.8064691E-01
       -2   -1    0    0    0  501  0.00000000000E+00  0.00000000000E+00  0.18018790471E+04  0.18018790471E+04  0.25500000920E-02 0. -1.
        2   -1    0    0  501    0  0.00000000000E+00  0.00000000000E+00 -0.19146259488E+04  0.19146259488E+04  0.25500000920E-02 0.  1.
    10030    2    1    2    0    0  0.00000000000E+00  0.00000000000E+00 -0.11274690179E+03  0.37165049959E+04  0.37147944116E+04 0.  0.
        4    1    3    3  502    0  0.58154234867E+03 -0.80555878502E+03  0.15136822712E+04  0.18106220176E+04  0.12699999809E+01 0. -1.
       -4    1    3    3    0  502 -0.58154234867E+03  0.80555878502E+03 -0.16264291730E+04  0.19058829783E+04  0.12699999809E+01 0.  1.
</event>
<event>
 5   0  0.5714125E-09  0.3699745E+04  0.7818609E-02  0.8068018E-01
        1   -1    0    0  501    0  0.00000000000E+00  0.00000000000E+00  0.23419363370E+04  0.23419363370E+04  0.50400001928E-02 0.  1.
       -1   -1    0    0    0  501  0.00000000000E+00  0.00000000000E+00 -0.14611957694E+04  0.14611957694E+04  0.50400001928E-02 0. -1.
    10030    2    1    2    0    0  0.00000000000E+00  0.00000000000E+00  0.88074056756E+03  0.38031321064E+04  0.36997445684E+04 0.  0.
        1    1    3    3  502    0 -0.62937533719E+03 -0.15818058922E+04 -0.30359760057E+03  0.17292757729E+04  0.50400001928E-02 0.  1.
       -1    1    3    3    0  502  0.62937533719E+03  0.15818058922E+04  0.11843381681E+04  0.20738563335E+04  0.50400001928E-02 0. -1.
</event>
<event>
 5   0  0.5714125E-09  0.3707987E+04  0.7818609E-02  0.8066194E-01
        1   -1    0    0  501    0  0.00000000000E+00  0.00000000000E+00  0.20620182920E+04  0.20620182920E+04  0.50400001928E-02 0.  1.
       -1   -1    0    0    0  501  0.00000000000E+00  0.00000000000E+00 -0.16669548025E+04  0.16669548025E+04  0.50400001928E-02 0. -1.
    10030    2    1    2    0    0  0.00000000000E+00  0.00000000000E+00  0.39506348954E+03  0.37289730945E+04  0.37079866746E+04 0.  0.
        3    1    3    3  502    0 -0.33791484318E+03 -0.12317364718E+04  0.15489866355E+04  0.20076655061E+04  0.10100000352E+00 0.  1.
       -3    1    3    3    0  502  0.33791484318E+03  0.12317364718E+04 -0.11539231459E+04  0.17213075885E+04  0.10100000352E+00 0. -1.
</event>
<event>
 5   0  0.5714125E-09  0.3704937E+04  0.7818609E-02  0.8066869E-01
       -1   -1    0    0    0  501  0.00000000000E+00  0.00000000000E+00  0.32690446714E+04  0.32690446714E+04  0.50400001928E-02 0. -1.
        1   -1    0    0  501    0  0.00000000000E+00  0.00000000000E+00 -0.10497377476E+04  0.10497377476E+04  0.50400001928E-02 0.  1.
    10030    2    1    2    0    0  0.00000000000E+00  0.00000000000E+00  0.22193069238E+04  0.43187824190E+04  0.37049370252E+04 0.  0.
        2    1    3    3  502    0 -0.13215745958E+03 -0.59711284766E+03 -0.92866940675E+03  0.11119515340E+04  0.25500000920E-02 0.  1.
       -2    1    3    3    0  502  0.13215745958E+03  0.59711284766E+03  0.31479763306E+04  0.32068308850E+04  0.25500000920E-02 0. -1.
</event>
<event>
 5   0  0.1825308E-08  0.3700049E+04  0.7818609E-02  0.8067951E-01
        2   -1    0    0  501    0  0.00000000000E+00  0.00000000000E+00  0.24467676275E+04  0.24467676275E+04  0.25500000920E-02 0.  1.
       -2   -1    0    0    0  501  0.00000000000E+00  0.00000000000E+00 -0.13988213997E+04  0.13988213997E+04  0.25500000920E-02 0. -1.
    10030    2    1    2    0    0  0.00000000000E+00  0.00000000000E+00  0.10479462279E+04  0.38455890272E+04  0.37000491442E+04 0.  0.
        4    1    3    3  502    0 -0.12376481168E+04 -0.60398986832E+03 -0.75993649447E+03  0.15729213936E+04  0.12699999809E+01 0. -1.
       -4    1    3    3    0  502  0.12376481168E+04  0.60398986832E+03  0.18078827223E+04  0.22726676336E+04  0.12699999809E+01 0.  1.
</event>
<event>
 5   0  0.5714125E-09  0.3702240E+04  0.7818609E-02  0.8067466E-01
        1   -1    0    0  501    0  0.00000000000E+00  0.00000000000E+00  0.14786030082E+04  0.14786030082E+04  0.50400001928E-02 0. -1.
       -1   -1    0    0    0  501  0.00000000000E+00  0.00000000000E+00 -0.23174887986E+04  0.23174887986E+04  0.50400001928E-02 0.  1.
    10030    2    1    2    0    0  0.00000000000E+00  0.00000000000E+00 -0.83888579038E+03  0.37960918069E+04  0.37022403537E+04 0.  0.
        4    1    3    3  502    0 -0.45257242626E+03 -0.14745132324E+03  0.14147818813E+04  0.14927066283E+04  0.12699999809E+01 0. -1.
       -4    1    3    3    0  502  0.45257242626E+03  0.14745132324E+03 -0.22536676716E+04  0.23033851786E+04  0.12699999809E+01 0.  1.
</event>
<event>
 5   0  0.5714125E-09  0.3700942E+04  0.7818609E-02  0.8067753E-01
        1   -1    0    0  501    0  0.00000000000E+00  0.00000000000E+00  0.23344057264E+04  0.23344057264E+04  0.50400001928E-02 0.  1.
       -1   -1    0    0    0  501  0.00000000000E+00  0.00000000000E+00 -0.14668583025E+04  0.14668583025E+04  0.50400001928E-02 0. -1.
    10030    2    1    2    0    0  0.00000000000E+00  0.00000000000E+00  0.86754742394E+03  0.38012640290E+04  0.37009417295E+04 0.  0.
        3    1    3    3  502    0 -0.11189023115E+04 -0.14681788127E+04  0.30083967611E+03  0.18702930063E+04  0.10100000352E+00 0. -1.
       -3    1    3    3    0  502  0.11189023115E+04  0.14681788127E+04  0.56670774782E+03  0.19309710226E+04  0.10100000352E+00 0.  1.
</event>
<event>
 5   0  0.1725865E-08  0.3699197E+04  0.7818609E-02  0.8068140E-01
        2   -1    0    0  501    0  0.00000000000E+00  0.00000000000E+00  0.20623418990E+04  0.20623418990E+04  0.25500000920E-02 0.  1.
       -2   -1    0    0    0  501  0.00000000000E+00  0.00000000000E+00 -0.16588010105E+04  0.16588010105E+04  0.25500000920E-02 0. -1.
    10030    2    1    2    0    0  0.00000000000E+00  0.00000000000E+00  0.40354088846E+03  0.37211429095E+04  0.36991971162E+04 0.  0.
        1    1    3    3  502    0 -0.33125501491E+03  0.53735444854E+03  0.19506284710E+04  0.20502270899E+04  0.50400001928E-02 0.  1.
       -1    1    3    3    0  502  0.33125501491E+03 -0.53735444854E+03 -0.15470875825E+04  0.16709158196E+04  0.50400001928E-02 0. -1.
</event>
<event>
 5   0  0.1740290E-08  0.3700957E+04  0.7818609E-02  0.8067750E-01
        2   -1    0    0  501    0  0.00000000000E+00  0.00000000000E+00  0.22900035903E+04  0.22900035903E+04  0.25500000920E-02 0.  1.
       -2   -1    0    0    0  501  0.00000000000E+00  0.00000000000E+00 -0.14953124575E+04  0.14953124575E+04  0.25500000920E-02 0. -1.
    10030    2    1    2    0    0  0.00000000000E+00  0.00000000000E+00  0.79469113285E+03  0.37853160478E+04  0.37009571174E+04 0.  0.
        5    1    3    3  502    0  0.24091132799E+03 -0.18326000026E+04  0.30708571413E+03  0.18737088256E+04  0.46999998093E+01 0. -1.
       -5    1    3    3    0  502 -0.24091132799E+03  0.18326000026E+04  0.48760541872E+03  0.19116072222E+04  0.46999998093E+01 0.  1.
</event>
<event>
 5   0  0.5714125E-09  0.3699112E+04  0.7818609E-02  0.8068159E-01
        1   -1    0    0  501    0  0.00000000000E+00  0.00000000000E+00  0.19935059341E+04  0.19935059341E+04  0.50400001928E-02 0.  1.
       -1   -1    0    0    0  501  0.00000000000E+00  0.00000000000E+00 -0.17160002420E+04  0.17160002420E+04  0.50400001928E-02 0. -1.
    10030    2    1    2    0    0  0.00000000000E+00  0.00000000000E+00  0.27750569212E+03  0.37095061761E+04  0.36991116044E+04 0.  0.
        4    1    3    3  502    0 -0.25603221356E+03  0.54427008853E+03  0.18926881028E+04  0.19859638192E+04  0.12699999809E+01 0.  1.
       -4    1    3    3    0  502  0.25603221356E+03 -0.54427008853E+03 -0.16151824107E+04  0.17235423570E+04  0.12699999809E+01 0. -1.
</event>
<event>
 5   0  0.1825308E-08  0.3700128E+04  0.7818609E-02  0.8067933E-01
       -2   -1    0    0    0  501  0.00000000000E+00  0.00000000000E+00  0.18347257731E+04  0.18347257731E+04  0.25500000920E-02 0. -1.
        2   -1    0    0  501    0  0.00000000000E+00  0.00000000000E+00 -0.18655307615E+04  0.18655307615E+04  0.25500000920E-02 0.  1.
    10030    2    1    2    0    0  0.00000000000E+00  0.00000000000E+00 -0.30804988439E+02  0.37002565346E+04  0.37001283051E+04 0.  0.
        4    1    3    3  502    0  0.46025902144E+03  0.36856317409E+03 -0.17690477588E+04  0.18647275313E+04  0.12699999809E+01 0.  1.
       -4    1    3    3    0  502 -0.46025902144E+03 -0.36856317409E+03  0.17382427704E+04  0.18355290033E+04  0.12699999809E+01 0. -1.
</event>
<event>
 5   0  0.1856107E-08  0.3700389E+04  0.7818609E-02  0.8067876E-01
       -2   -1    0    0    0  501  0.00000000000E+00  0.00000000000E+00  0.20829889791E+04  0.20829889791E+04  0.25500000920E-02 0.  1.
        2   -1    0    0  501    0  0.00000000000E+00  0.00000000000E+00 -0.16434168697E+04  0.16434168697E+04  0.25500000920E-02 0. -1.
    10030    2    1    2    0    0  0.00000000000E+00  0.00000000000E+00  0.43957210936E+03  0.37264058488E+04  0.37003887513E+04 0.  0.
        2    1    3    3  502    0 -0.12346594346E+04 -0.11678959854E+04 -0.51669323156E+03  0.17763267852E+04  0.25500000920E-02 0. -1.
       -2    1    3    3    0  502  0.12346594346E+04  0.11678959854E+04  0.95626534093E+03  0.19500790636E+04  0.25500000920E-02 0.  1.
</event>
<event>
 5   0  0.5714125E-09  0.3698748E+04  0.7818609E-02  0.8068239E-01
        1   -1    0    0  501    0  0.00000000000E+00  0.00000000000E+00  0.12274359075E+04  0.12274359075E+04  0.50400001928E-02 0. -1.
       -1   -1    0    0    0  501  0.00000000000E+00  0.00000000000E+00 -0.27864460431E+04  0.27864460431E+04  0.50400001928E-02 0.  1.
    10030    2    1    2    0    0  0.00000000000E+00  0.00000000000E+00 -0.15590101356E+04  0.40138819506E+04  0.36987478571E+04 0.  0.
        1    1    3    3  502    0 -0.75177584406E+02  0.12186946379E+03  0.12214111078E+04  0.12297759673E+04  0.50400001928E-02 0. -1.
       -1    1    3    3    0  502  0.75177584406E+02 -0.12186946379E+03 -0.27804212435E+04  0.27841059833E+04  0.50400001928E-02 0.  1.
</event>
<event>
 5   0  0.1856107E-08  0.3695815E+04  0.7818609E-02  0.8068890E-01
        2   -1    0    0  501    0  0.00000000000E+00  0.00000000000E+00  0.23152869961E+04  0.23152869961E+04  0.25500000920E-02 0.  1.
       -2   -1    0    0    0  501  0.00000000000E+00  0.00000000000E+00 -0.14748761639E+04  0.14748761639E+04  0.25500000920E-02 0. -1.
    10030    2    1    2    0    0  0.00000000000E+00  0.00000000000E+00  0.84041083215E+03  0.37901631600E+04  0.36958147157E+04 0.  0.
        2    1    3    3  502    0  0.18271877956E+04 -0.20220191322E+03  0.22763326467E+03  0.18523816446E+04  0.25500000920E-02 0.  1.
       -2    1    3    3    0  502 -0.18271877956E+04  0.20220191322E+03  0.61277756748E+03  0.19377815154E+04  0.25500000920E-02 0. -1.
</event>
<event>
 5   0  0.5714125E-09  0.3695000E+04  0.7818609E-02  0.8069071E-01
       -1   -1    0    0    0  501  0.00000000000E+00  0.00000000000E+00  0.14940236098E+04  0.14940236098E+04  0.50400001928E-02 0.  1.
        1   -1    0    0  501    0  0.00000000000E+00  0.00000000000E+00 -0.22846062174E+04  0.22846062174E+04  0.50400001928E-02 0. -1.
    10030    2    1    2    0    0  0.00000000000E+00  0.00000000000E+00 -0.79058260762E+03  0.37786298272E+04  0.36949996632E+04 0.  0.
        2    1    3    3  502    0  0.46383568388E+03  0.17428803400E+04 -0.80495802192E+03  0.19750273006E+04  0.25500000920E-02 0. -1.
       -2    1    3    3    0  502 -0.46383568388E+03 -0.17428803400E+04  0.14375414294E+02  0.18036025265E+04  0.25500000920E-02 0.  1.
</event>
<event>
 5   0  0.5714125E-09  0.3701301E+04  0.7818609E-02  0.8067674E-01
        1   -1    0    0  501    0  0.00000000000E+00  0.00000000000E+00  0.22411720567E+04  0.22411720567E+04  0.50400001928E-02 0. -1.
       -1   -1    0    0    0  501  0.00000000000E+00  0.00000000000E+00 -0.15281765116E+04  0.15281765116E+04  0.50400001928E-02 0.  1.
    10030    2    1    2    0    0  0.00000000000E+00  0.00000000000E+00  0.71299554516E+03  0.37693485683E+04  0.37013005798E+04 0.  0.
        4    1    3    3  502    0 -0.42214740743E+02 -0.42815805036E+03  0.21895349743E+04  0.22314045839E+04  0.12699999809E+01 0. -1.
       -4    1    3    3    0  502  0.42214740743E+02  0.42815805036E+03 -0.14765394291E+04  0.15379439844E+04  0.12699999809E+01 0.  1.
</event>
<event>
 5   0  0.1725865E-08  0.3699802E+04  0.7818609E-02  0.8068006E-01
       -2   -1    0    0    0  501  0.00000000000E+00  0.00000000000E+00  0.14894969650E+04  0.14894969650E+04  0.25500000920E-02 0. -1.
        2   -1    0    0  501    0  0.00000000000E+00  0.00000000000E+00 -0.22975100039E+04  0.22975100039E+04  0.25500000920E-02 0.  1.
    10030    2    1    2    0    0  0.00000000000E+00  0.00000000000E+00 -0.80801303883E+03  0.37870069689E+04  0.36998022530E+04 0.  0.
        1    1    3    3  502    0 -0.13767365623E+04  0.22605555378E+03 -0.16473933311E+04  0.21587981523E+04  0.50400001928E-02 0.  1.
       -1    1    3    3    0  502  0.13767365623E+04 -0.22605555378E+03  0.83938029224E+03  0.16282088166E+04  0.50400001928E-02 0. -1.
</event>
<event>
 5   0  0.1856107E-08  0.3711913E+04  0.7818609E-02  0.8065327E-01
        2   -1    0    0  501    0  0.00000000000E+00  0.00000000000E+00  0.18721158623E+04  0.18721158623E+04  0.25500000920E-02 0.  1.
       -2   -1    0    0    0  501  0.00000000000E+00  0.00000000000E+00 -0.18399369019E+04  0.18399369019E+04  0.25500000920E-02 0. -1.
    10030    2    1    2    0    0  0.00000000000E+00  0.00000000000E+00  0.32178960348E+02  0.37120527642E+04  0.37119132854E+04 0.  0.
        2    1    3    3  502    0  0.14833922112E+04 -0.60430627405E+03  0.95364085981E+03  0.18641538066E+04  0.25500000920E-02 0.  1.
       -2    1    3    3    0  502 -0.14833922112E+04  0.60430627405E+03 -0.92146189946E+03  0.18478989576E+04  0.25500000920E-02 0. -1.
</event>
<event>
 5   0  0.5714125E-09  0.3701990E+04  0.7818609E-02  0.8067521E-01
        1   -1    0    0  501    0  0.00000000000E+00  0.00000000000E+00  0.28085427213E+04  0.28085427213E+04  0.50400001928E-02 0.  1.
       -1   -1    0    0    0  501  0.00000000000E+00  0.00000000000E+00 -0.12199149933E+04  0.12199149933E+04  0.50400001928E-02 0. -1.
    10030    2    1    2    0    0  0.00000000000E+00  0.00000000000E+00  0.15886277281E+04  0.40284577146E+04  0.37019904781E+04 0.  0.
        1    1    3    3  502    0 -0.29568175261E+03 -0.13495060169E+04  0.21348564765E+04  0.25428736429E+04  0.50400001928E-02 0.  1.
       -1    1    3    3    0  502  0.29568175261E+03  0.13495060169E+04 -0.54622874841E+03  0.14855840717E+04  0.50400001928E-02 0. -1.
</event>
<event>
 5   0  0.5714125E-09  0.3700377E+04  0.7818609E-02  0.8067878E-01
        1   -1    0    0  501    0  0.00000000000E+00  0.00000000000E+00  0.20948747592E+04  0.20948747592E+04  0.50400001928E-02 0. -1.
       -1   -1    0    0    0  501  0.00000000000E+00  0.00000000000E+00 -0.16340821005E+04  0.16340821005E+04  0.50400001928E-02 0.  1.
    10030    2    1    2    0    0  0.00000000000E+00  0.00000000000E+00  0.46079265873E+03  0.37289568598E+04  0.37003769251E+04 0.  0.
        2    1    3    3  502    0  0.18406446548E+04  0.11023341010E+03  0.38346816215E+03  0.18833937404E+04  0.25500000920E-02 0. -1.
       -2    1    3    3    0  502 -0.18406446548E+04 -0.11023341010E+03  0.77324496580E+02  0.18455631194E+04  0.25500000920E-02 0.  1.
</event>
<event>
 5   0  0.1725865E-08  0.3699931E+04  0.7818609E-02  0.8067977E-01
        2   -1    0    0  501    0  0.00000000000E+00  0.00000000000E+00  0.23141453662E+04  0.23141453662E+04  0.25500000920E-02 0. -1.
       -2   -1    0    0    0  501  0.00000000000E+00  0.00000000000E+00 -0.14788928028E+04  0.14788928028E+04  0.25500000920E-02 0.  1.
    10030    2    1    2    0    0  0.00000000000E+00  0.00000000000E+00  0.83525256346E+03  0.37930381690E+04  0.36999313111E+04 0.  0.
        1    1    3    3  502    0  0.13950443569E+04  0.84232711607E+03 -0.48002754855E+03  0.16988496624E+04  0.50400001928E-02 0. -1.
       -1    1    3    3    0  502 -0.13950443569E+04 -0.84232711607E+03  0.13152801120E+04  0.20941885066E+04  0.50400001928E-02 0.  1.
</event>
<event>
 5   0  0.5714125E-09  0.3702530E+04  0.7818609E-02  0.8067401E-01
        1   -1    0    0  501    0  0.00000000000E+00  0.00000000000E+00  0.24778782742E+04  0.24778782742E+04  0.50400001928E-02 0.  1.
       -1   -1    0    0    0  501  0.00000000000E+00  0.00000000000E+00 -0.13831113983E+04  0.13831113983E+04  0.50400001928E-02 0. -1.
    10030    2    1    2    0    0  0.00000000000E+00  0.00000000000E+00  0.10947668759E+04  0.38609896725E+04  0.37025297755E+04 0.  0.
        2    1    3    3  502    0  0.11456311718E+04 -0.12103329473E+04  0.13879877712E+04  0.21688445491E+04  0.25500000920E-02 0.  1.
       -2    1    3    3    0  502 -0.11456311718E+04  0.12103329473E+04 -0.29322089527E+03  0.16921451234E+04  0.25500000920E-02 0. -1.
</event>
<event>
 5   0  0.5714125E-09  0.3699709E+04  0.7818609E-02  0.8068026E-01
       -1   -1    0    0    0  501  0.00000000000E+00  0.00000000000E+00  0.30721723073E+04  0.30721723073E+04  0.50400001928E-02 0.  1.
        1   -1    0    0  501    0  0.00000000000E+00  0.00000000000E+00 -0.11138572630E+04  0.11138572630E+04  0.50400001928E-02 0. -1.
    10030    2    1    2    0    0  0.00000000000E+00  0.00000000000E+00  0.19583150443E+04  0.41860295703E+04  0.36997088738E+04 0.  0.
        3    1    3    3  502    0 -0.73481151557E+03 -0.21027270635E+03 -0.92685410265E+03  0.12013413804E+04  0.10100000352E+00 0. -1.
       -3    1    3    3    0  502  0.73481151557E+03  0.21027270635E+03  0.28851691470E+04  0.29846881899E+04  0.10100000352E+00 0.  1.
</event>
<event>
 5   0  0.1725865E-08  0.3701127E+04  0.7818609E-02  0.8067712E-01
       -2   -1    0    0    0  501  0.00000000000E+00  0.00000000000E+00  0.11156684050E+04  0.11156684050E+04  0.25500000920E-02 0.  1.
        2   -1    0    0  501    0  0.00000000000E+00  0.00000000000E+00 -0.30695373673E+04  0.30695373673E+04  0.25500000920E-02 0. -1.
    10030    2    1    2    0    0  0.00000000000E+00  0.00000000000E+00 -0.19538689623E+04  0.41852057723E+04  0.37011273194E+04 0.  0.
        1    1    3    3  502    0 -0.10829050401E+04  0.94443671016E+03  0.34175626071E+03  0.14769703339E+04  0.50400001928E-02 0.  1.
       -1    1    3    3    0  502  0.10829050401E+04 -0.94443671016E+03 -0.22956252230E+04  0.27082354384E+04  0.50400001928E-02 0. -1.
</event>
<event>
 5   0  0.1825308E-08  0.3699181E+04  0.7818609E-02  0.8068143E-01
        2   -1    0    0  501    0  0.00000000000E+00  0.00000000000E+00  0.22725133448E+04  0.22725133448E+04  0.25500000920E-02 0.  1.
       -2   -1    0    0    0  501  0.00000000000E+00  0.00000000000E+00 -0.15053753857E+04  0.15053753857E+04  0.25500000920E-02 0. -1.
    10030    2    1    2    0    0  0.00000000000E+00  0.00000000000E+00  0.76713795916E+03  0.37778887305E+04  0.36991813434E+04 0.  0.
        4    1    3    3  502    0 -0.17643219430E+03  0.99389212840E+03 -0.11992568545E+04  0.15675358044E+04  0.12699999809E+01 0. -1.
       -4    1    3    3    0  502  0.17643219430E+03 -0.99389212840E+03  0.19663948136E+04  0.22103529261E+04  0.12699999809E+01 0.  1.
</event>
<event>
 5   0  0.1825308E-08  0.3698237E+04  0.7818609E-02  0.8068353E-01
        2   -1    0    0  501    0  0.00000000000E+00  0.00000000000E+00  0.14062582426E+04  0.14062582426E+04  0.25500000920E-02 0.  1.
       -2   -1    0    0    0  501  0.00000000000E+00  0.00000000000E+00 -0.24314447437E+04  0.24314447437E+04  0.25500000920E-02 0. -1.
    10030    2    1    2    0    0  0.00000000000E+00  0.00000000000E+00 -0.10251865011E+04  0.38377029863E+04  0.36982369920E+04 0.  0.
        4    1    3    3  502    0 -0.11297866381E+04 -0.13942014591E+04 -0.97553592046E+03  0.20425198900E+04  0.12699999809E+01 0. -1.
       -4    1    3    3    0  502  0.11297866381E+04  0.13942014591E+04 -0.49650580598E+02  0.17951830963E+04  0.12699999809E+01 0.  1.
</event>
<event>
 5   0  0.1757996E-08  0.3698423E+04  0.7818609E-02  0.8068311E-01
        2   -1    0    0  501    0  0.00000000000E+00  0.00000000000E+00  0.22608520497E+04  0.22608520497E+04  0.25500000920E-02 0.  1.
       -2   -1    0    0    0  501  0.00000000000E+00  0.00000000000E+00 -0.15125192869E+04  0.15125192869E+04  0.25500000920E-02 0. -1.
    10030    2    1    2    0    0  0.00000000000E+00  0.00000000000E+00  0.74833276276E+03  0.37733713366E+04  0.36984225448E+04 0.  0.
        3    1    3    3  502    0 -0.57683938003E+03  0.16332866581E+04  0.10347542083E+04  0.20176930539E+04  0.10100000352E+00 0.  1.
       -3    1    3    3    0  502  0.57683938003E+03 -0.16332866581E+04 -0.28642144550E+03  0.17556782828E+04  0.10100000352E+00 0. -1.
</event>
<event>
 5   0  0.5714125E-09  0.3699806E+04  0.7818609E-02  0.8068005E-01
       -1   -1    0    0    0  501  0.00000000000E+00  0.00000000000E+00  0.18913979690E+04  0.18913979690E+04  0.50400001928E-02 0. -1.
        1   -1    0    0  501    0  0.00000000000E+00  0.00000000000E+00 -0.18093179455E+04  0.18093179455E+04  0.50400001928E-02 0.  1.
    10030    2    1    2    0    0  0.00000000000E+00  0.00000000000E+00  0.82080023502E+02  0.37007159144E+04  0.36998055556E+04 0.  0.
        1    1    3    3  502    0 -0.12957142681E+04  0.10553759529E+04 -0.75253179775E+03  0.18327569324E+04  0.50400001928E-02 0.  1.
       -1    1    3    3    0  502  0.12957142681E+04 -0.10553759529E+04  0.83461182125E+03  0.18679589821E+04  0.50400001928E-02 0. -1.
</event>
<event>
 5   0  0.1856107E-08  0.3699056E+04  0.7818609E-02  0.8068171E-01
        2   -1    0    0  501    0  0.00000000000E+00  0.00000000000E+00  0.11872198875E+04  0.11872198875E+04  0.25500000920E-02 0.  1.
       -2   -1    0    0    0  501  0.00000000000E+00  0.00000000000E+00 -0.28813141959E+04  0.28813141959E+04  0.25500000920E-02 0. -1.
    10030    2    1    2    0    0  0.00000000000E+00  0.00000000000E+00 -0.16940943084E+04  0.40685340834E+04  0.36990558338E+04 0.  0.
        2    1    3    3  502    0 -0.10707917583E+03 -0.18163498950E+04 -0.12121038065E+04  0.21862727480E+04  0.25500000920E-02 0. -1.
       -2    1    3    3    0  502  0.10707917583E+03  0.18163498950E+04 -0.48199050194E+03  0.18822613354E+04  0.25500000920E-02 0.  1.
</event>
<event>
 5   0  0.1725865E-08  0.3701942E+04  0.7818609E-02  0.8067532E-01
       -2   -1    0    0    0  501  0.00000000000E+00  0.00000000000E+00  0.30598012128E+04  0.30598012128E+04  0.25500000920E-02 0.  1.
        2   -1    0    0  501    0  0.00000000000E+00  0.00000000000E+00 -0.11197113949E+04  0.11197113949E+04  0.25500000920E-02 0. -1.
    10030    2    1    2    0    0  0.00000000000E+00  0.00000000000E+00  0.19400898179E+04  0.41795126077E+04  0.37019423465E+04 0.  0.
        1    1    3    3  502    0 -0.97276650746E+03  0.36579332607E+03 -0.75921935670E+03  0.12870483546E+04  0.50400001928E-02 0. -1.
       -1    1    3    3    0  502  0.97276650746E+03 -0.36579332607E+03  0.26993091746E+04  0.28924642531E+04  0.50400001928E-02 0.  1.
</event>
<event>
 5   0  0.5714125E-09  0.3698783E+04  0.7818609E-02  0.8068232E-01
       -1   -1    0    0    0  501  0.00000000000E+00  0.00000000000E+00  0.22031960902E+04  0.22031960902E+04  0.50400001928E-02 0.  1.
        1   -1    0    0  501    0  0.00000000000E+00  0.00000000000E+00 -0.15524034927E+04  0.15524034928E+04  0.50400001928E-02 0. -1.
    10030    2    1    2    0    0  0.00000000000E+00  0.00000000000E+00  0.65079259750E+03  0.37555995830E+04  0.36987832084E+04 0.  0.
        2    1    3    3  502    0  0.18152051269E+04 -0.15342213228E+03  0.64926505329E+03  0.19339216925E+04  0.25500000920E-02 0.  1.
       -2    1    3    3    0  502 -0.18152051269E+04  0.15342213228E+03  0.15275442042E+01  0.18216778905E+04  0.25500000920E-02 0. -1.
</event>
<event>
 5   0  0.5714125E-09  0.3698368E+04  0.7818609E-02  0.8068324E-01
       -1   -1    0    0    0  501  0.00000000000E+00  0.00000000000E+00  0.14885985086E+04  0.14885985086E+04  0.50400001928E-02 0.  1.
        1   -1    0    0  501    0  0.00000000000E+00  0.00000000000E+00 -0.22971145316E+04  0.22971145316E+04  0.50400001928E-02 0. -1.
    10030    2    1    2    0    0  0.00000000000E+00  0.00000000000E+00 -0.80851602302E+03  0.37857130402E+04  0.36983678918E+04 0.  0.
        2    1    3    3  502    0 -0.63593588967E+03  0.87342295422E+03  0.11319179909E+04  0.15647748882E+04  0.25500000920E-02 0.  1.
       -2    1    3    3    0  502  0.63593588967E+03 -0.87342295422E+03 -0.19404340139E+04  0.22209381520E+04  0.25500000920E-02 0. -1.
</event>
<event>
 5   0  0.1725865E-08  0.3699448E+04  0.7818609E-02  0.8068084E-01
        2   -1    0    0  501    0  0.00000000000E+00  0.00000000000E+00  0.21043406609E+04  0.21043406609E+04  0.25500000920E-02 0. -1.
       -2   -1    0    0    0  501  0.00000000000E+00  0.00000000000E+00 -0.16259147021E+04  0.16259147021E+04  0.25500000920E-02 0.  1.
    10030    2    1    2    0    0  0.00000000000E+00  0.00000000000E+00  0.47842595885E+03  0.37302553630E+04  0.36994477527E+04 0.  0.
        1    1    3    3  502    0  0.14839127176E+04  0.10428679382E+04 -0.12700285313E+03  0.18181584679E+04  0.50400001928E-02 0. -1.
       -1    1    3    3    0  502 -0.14839127176E+04 -0.10428679382E+04  0.60542881197E+03  0.19120968951E+04  0.50400001928E-02 0.  1.
</event>
<event>
 5   0  0.1825308E-08  0.3700932E+04  0.7818609E-02  0.8067755E-01
        2   -1    0    0  501    0  0.00000000000E+00  0.00000000000E+00  0.23786419392E+04  0.23786419392E+04  0.25500000920E-02 0.  1.
       -2   -1    0    0    0  501  0.00000000000E+00  0.00000000000E+00 -0.14395714858E+04  0.14395714858E+04  0.25500000920E-02 0. -1.
    10030    2    1    2    0    0  0.00000000000E+00  0.00000000000E+00  0.93907045338E+03  0.38182134251E+04  0.37009323748E+04 0.  0.
        4    1    3    3  502    0  0.96280293374E+03 -0.13898909323E+03 -0.11544884042E+04  0.15096862408E+04  0.12699999809E+01 0. -1.
       -4    1    3    3    0  502 -0.96280293374E+03  0.13898909323E+03  0.20935588576E+04  0.23085271843E+04  0.12699999809E+01 0.  1.
</event>
<event>
 5   0  0.1825308E-08  0.3700005E+04  0.7818609E-02  0.8067961E-01
        2   -1    0    0  501    0  0.00000000000E+00  0.00000000000E+00  0.24587592154E+04  0.24587592154E+04  0.25500000920E-02 0. -1.
       -2   -1    0    0    0  501  0.00000000000E+00  0.00000000000E+00 -0.13919663298E+04  0.13919663298E+04  0.25500000920E-02 0.  1.
    10030    2    1    2    0    0  0.00000000000E+00  0.00000000000E+00  0.10667928857E+04  0.38507255452E+04  0.37000054275E+04 0.  0.
        4    1    3    3  502    0  0.71238788644E+03 -0.17002688561E+04  0.37183846839E+03  0.18806052598E+04  0.12699999809E+01 0. -1.
       -4    1    3    3    0  502 -0.71238788644E+03  0.17002688561E+04  0.69495441728E+03  0.19701202854E+04  0.12699999809E+01 0.  1.
</event>
<event>
 5   0  0.5714125E-09  0.3700702E+04  0.7818609E-02  0.8067806E-01
        1   -1    0    0  501    0  0.00000000000E+00  0.00000000000E+00  0.16540555507E+04  0.16540555508E+04  0.50400001928E-02 0.  1.
       -1   -1    0    0    0  501  0.00000000000E+00  0.00000000000E+00 -0.20699424144E+04  0.20699424144E+04  0.50400001928E-02 0. -1.
    10030    2    1    2    0    0  0.00000000000E+00  0.00000000000E+00 -0.41588686369E+03  0.37239979652E+04  0.37007024957E+04 0.  0.
        3    1    3    3  502    0 -0.13178988279E+04  0.34117085482E+03 -0.14690460710E+04  0.20028358000E+04  0.10100000352E+00 0. -1.
       -3    1    3    3    0  502  0.13178988279E+04 -0.34117085482E+03  0.10531592073E+04  0.17211621652E+04  0.10100000352E+00 0.  1.
</event>
<event>
 5   0  0.5714125E-09  0.3697490E+04  0.7818609E-02  0.8068518E-01
       -1   -1    0    0    0  501  0.00000000000E+00  0.00000000000E+00  0.19142965234E+04  0.19142965234E+04  0.50400001928E-02 0. -1.
        1   -1    0    0  501    0  0.00000000000E+00  0.00000000000E+00 -0.17854386456E+04  0.17854386456E+04  0.50400001928E-02 0.  1.
    10030    2    1    2    0    0  0.00000000000E+00  0.00000000000E+00  0.12885787776E+03  0.36997351690E+04  0.36974904960E+04 0.  0.
        5    1    3    3  502    0 -0.57675552455E+03 -0.47990907014E+03  0.17550928860E+04  0.19087516284E+04  0.46999998093E+01 0. -1.
       -5    1    3    3    0  502  0.57675552455E+03  0.47990907014E+03 -0.16262350082E+04  0.17909835406E+04  0.46999998093E+01 0.  1.
</event>
<event>
 5   0  0.1856107E-08  0.3699981E+04  0.7818609E-02  0.8067966E-01
       -2   -1    0    0    0  501  0.00000000000E+00  0.00000000000E+00  0.27912532151E+04  0.27912532151E+04  0.25500000920E-02 0.  1.
        2   -1    0    0  501    0  0.00000000000E+00  0.00000000000E+00 -0.12261392394E+04  0.12261392394E+04  0.25500000920E-02 0. -1.
    10030    2    1    2    0    0  0.00000000000E+00  0.00000000000E+00  0.15651139757E+04  0.40173924545E+04  0.36999811319E+04 0.  0.
        2    1    3    3  502    0 -0.56827961826E+03  0.74346239262E+03 -0.95021359267E+03  0.13336356045E+04  0.25500000920E-02 0. -1.
       -2    1    3    3    0  502  0.56827961826E+03 -0.74346239262E+03  0.25153275684E+04  0.26837568500E+04  0.25500000920E-02 0.  1.
</event>
<event>
 5   0  0.5714125E-09  0.3699934E+04  0.7818609E-02  0.8067976E-01
       -1   -1    0    0    0  501  0.00000000000E+00  0.00000000000E+00  0.10786871613E+04  0.10786871613E+04  0.50400001928E-02 0.  1.
        1   -1    0    0  501    0  0.00000000000E+00  0.00000000000E+00 -0.31727258665E+04  0.31727258665E+04  0.50400001928E-02 0. -1.
    10030    2    1    2    0    0  0.00000000000E+00  0.00000000000E+00 -0.20940387051E+04  0.42514130278E+04  0.36999344095E+04 0.  0.
        2    1    3    3  502    0  0.39207528791E+03  0.22087059154E+03  0.10148377575E+04  0.11101362636E+04  0.25500000920E-02 0.  1.
       -2    1    3    3    0  502 -0.39207528791E+03 -0.22087059154E+03 -0.31088764626E+04  0.31412767642E+04  0.25500000920E-02 0. -1.
</event>
<event>
 5   0  0.5714125E-09  0.3699993E+04  0.7818609E-02  0.8067963E-01
        1   -1    0    0  501    0  0.00000000000E+00  0.00000000000E+00  0.12484210593E+04  0.12484210593E+04  0.50400001928E-02 0. -1.
       -1   -1    0    0    0  501  0.00000000000E+00  0.00000000000E+00 -0.27414524990E+04  0.27414524990E+04  0.50400001928E-02 0.  1.
    10030    2    1    2    0    0  0.00000000000E+00  0.00000000000E+00 -0.14930314397E+04  0.39898735584E+04  0.36999929908E+04 0.  0.
        2    1    3    3  502    0 -0.33787545954E+03  0.78615009748E+03 -0.25152321184E+04  0.26567996559E+04  0.25500000920E-02 0.  1.
       -2    1    3    3    0  502  0.33787545954E+03 -0.78615009748E+03  0.10222006787E+04  0.13330739025E+04  0.25500000920E-02 0. -1.
</event>
<event>
 5   0  0.5714125E-09  0.3699407E+04  0.7818609E-02  0.8068093E-01
        1   -1    0    0  501    0  0.00000000000E+00  0.00000000000E+00  0.30227523471E+04  0.30227523472E+04  0.50400001928E-02 0. -1.
       -1   -1    0    0    0  501  0.00000000000E+00  0.00000000000E+00 -0.11318830407E+04  0.11318830407E+04  0.50400001928E-02 0.  1.
    10030    2    1    2    0    0  0.00000000000E+00  0.00000000000E+00  0.18908693064E+04  0.41546353879E+04  0.36994065027E+04 0.  0.
        1    1    3    3  502    0  0.98728359248E+03 -0.37220806331E+03 -0.76077111425E+03  0.13007845412E+04  0.50400001928E-02 0.  1.
       -1    1    3    3    0  502 -0.98728359248E+03  0.37220806331E+03  0.26516404207E+04  0.28538508467E+04  0.50400001928E-02 0. -1.
</event>
<event>
 5   0  0.1856107E-08  0.3695738E+04  0.7818609E-02  0.8068907E-01
        2   -1    0    0  501    0  0.00000000000E+00  0.00000000000E+00  0.10176024324E+04  0.10176024324E+04  0.25500000920E-02 0.  1.
       -2   -1    0    0    0  501  0.00000000000E+00  0.00000000000E+00 -0.33555532365E+04  0.33555532365E+04  0.25500000920E-02 0. -1.
    10030    2    1    2    0    0  0.00000000000E+00  0.00000000000E+00 -0.23379508041E+04  0.43731556689E+04  0.36957376181E+04 0.  0.
        2    1    3    3  502    0  0.14822925008E+04 -0.59433803602E+03 -0.22689901791E+04  0.27746612751E+04  0.25500000920E-02 0. -1.
       -2    1    3    3    0  502 -0.14822925008E+04  0.59433803602E+03 -0.68960625050E+02  0.15984943937E+04  0.25500000920E-02 0.  1.
</event>
<event>
 5   0  0.1825308E-08  0.3702576E+04  0.7818609E-02  0.8067391E-01
       -2   -1    0    0    0  501  0.00000000000E+00  0.00000000000E+00  0.28857209139E+04  0.28857209139E+04  0.25500000920E-02 0.  1.
        2   -1    0    0  501    0  0.00000000000E+00  0.00000000000E+00 -0.11876644298E+04  0.11876644298E+04  0.25500000920E-02 0. -1.
    10030    2    1    2    0    0  0.00000000000E+00  0.00000000000E+00  0.16980564841E+04  0.40733853437E+04  0.37025764456E+04 0.  0.
        4    1    3    3  502    0  0.94966825018E+03 -0.10854913471E+04  0.21259145266E+04  0.25689833471E+04  0.12699999809E+01 0.  1.
       -4    1    3    3    0  502 -0.94966825018E+03  0.10854913471E+04 -0.42785804250E+03  0.15044019967E+04  0.12699999809E+01 0. -1.
</event>
<event>
 5   0  0.5714125E-09  0.3699568E+04  0.7818609E-02  0.8068058E-01
        1   -1    0    0  501    0  0.00000000000E+00  0.00000000000E+00  0.23626323148E+04  0.23626323148E+04  0.50400001928E-02 0.  1.
       -1   -1    0    0    0  501  0.00000000000E+00  0.00000000000E+00 -0.14482578783E+04  0.14482578783E+04  0.50400001928E-02 0. -1.
    10030    2    1    2    0    0  0.00000000000E+00  0.00000000000E+00  0.91437443646E+03  0.38108901931E+04  0.36995680091E+04 0.  0.
        1    1    3    3  502    0 -0.56973774564E+02 -0.29449128108E+03 -0.14230398580E+04  0.14543086203E+04  0.50400001928E-02 0. -1.
       -1    1    3    3    0  502  0.56973774564E+02  0.29449128108E+03  0.23374142944E+04  0.23565815728E+04  0.50400001928E-02 0.  1.
</event>
<event>
 5   0  0.1725865E-08  0.3700330E+04  0.7818609E-02  0.8067889E-01
       -2   -1    0    0    0  501  0.00000000000E+00  0.00000000000E+00  0.18680461408E+04  0.18680461408E+04  0.25500000920E-02 0. -1.
        2   -1    0    0  501    0  0.00000000000E+00  0.00000000000E+00 -0.18324549636E+04  0.18324549636E+04  0.25500000920E-02 0.  1.
    10030    2    1    2    0    0  0.00000000000E+00  0.00000000000E+00  0.35591177164E+02  0.37005011044E+04  0.37003299437E+04 0.  0.
        1    1    3    3  502    0 -0.93467727603E+03 -0.15876654054E+04  0.18753078877E+03  0.18518830542E+04  0.50400001928E-02 0. -1.
       -1    1    3    3    0  502  0.93467727603E+03  0.15876654054E+04 -0.15193961161E+03  0.18486180502E+04  0.50400001928E-02 0.  1.
</event>
<event>
 5   0  0.5714125E-09  0.3699517E+04  0.7818609E-02  0.8068069E-01
        1   -1    0    0  501    0  0.00000000000E+00  0.00000000000E+00  0.27951527696E+04  0.27951527697E+04  0.50400001928E-02 0. -1.
       -1   -1    0    0    0  501  0.00000000000E+00  0.00000000000E+00 -0.12241213136E+04  0.12241213136E+04  0.50400001928E-02 0.  1.
    10030    2    1    2    0    0  0.00000000000E+00  0.00000000000E+00  0.15710314560E+04  0.40192740833E+04  0.36995167685E+04 0.  0.
        2    1    3    3  502    0  0.13586404369E+04 -0.42784990161E+03  0.20676192716E+04  0.25107785302E+04  0.25500000920E-02 0. -1.
       -2    1    3    3    0  502 -0.13586404369E+04  0.42784990161E+03 -0.49658781561E+03  0.15084955531E+04  0.25500000920E-02 0.  1.
</event>
<event>
 5   0  0.5714125E-09  0.3697260E+04  0.7818609E-02  0.8068569E-01
       -1   -1    0    0    0  501  0.00000000000E+00  0.00000000000E+00  0.14332507957E+04  0.14332507957E+04  0.50400001928E-02 0.  1.
        1   -1    0    0  501    0  0.00000000000E+00  0.00000000000E+00 -0.23843933979E+04  0.23843933979E+04  0.50400001928E-02 0. -1.
    10030    2    1    2    0    0  0.00000000000E+00  0.00000000000E+00 -0.95114260221E+03  0.38176441936E+04  0.36972604641E+04 0.  0.
        1    1    3    3  502    0  0.57490146385E+02  0.28001023699E+03 -0.23614353653E+04  0.23786735451E+04  0.50400001928E-02 0. -1.
       -1    1    3    3    0  502 -0.57490146385E+02 -0.28001023699E+03  0.14102927631E+04  0.14389706485E+04  0.50400001928E-02 0.  1.
</event>
<event>
 5   0  0.5714125E-09  0.3699158E+04  0.7818609E-02  0.8068148E-01
        1   -1    0    0  501    0  0.00000000000E+00  0.00000000000E+00  0.14556310350E+04  0.14556310350E+04  0.50400001928E-02 0.  1.
       -1   -1    0    0    0  501  0.00000000000E+00  0.00000000000E+00 -0.23501444661E+04  0.23501444661E+04  0.50400001928E-02 0. -1.
    10030    2    1    2    0    0  0.00000000000E+00  0.00000000000E+00 -0.89451343111E+03  0.38057755012E+04  0.36991584025E+04 0.  0.
        3    1    3    3  502    0  0.68947641907E+03 -0.53858129063E+03  0.12292798750E+04  0.15088328471E+04  0.10100000352E+00 0.  1.
       -3    1    3    3    0  502 -0.68947641907E+03  0.53858129063E+03 -0.21237933061E+04  0.22969426541E+04  0.10100000352E+00 0. -1.
</event>
<event>
 5   0  0.5714125E-09  0.3710306E+04  0.7818609E-02  0.8065682E-01
       -1   -1    0    0    0  501  0.00000000000E+00  0.00000000000E+00  0.17667564413E+04  0.17667564413E+04  0.50400001928E-02 0.  1.
        1   -1    0    0  501    0  0.00000000000E+00  0.00000000000E+00 -0.19479719462E+04  0.19479719462E+04  0.50400001928E-02 0. -1.
    10030    2    1    2    0    0  0.00000000000E+00  0.00000000000E+00 -0.18121550498E+03  0.37147283875E+04  0.37103056389E+04 0.  0.
        1    1    3    3  502    0 -0.15051654464E+04  0.31862238562E+03  0.94723232481E+03  0.18067352664E+04  0.50400001928E-02 0.  1.
       -1    1    3    3    0  502  0.15051654464E+04 -0.31862238562E+03 -0.11284478298E+04  0.19079931211E+04  0.50400001928E-02 0. -1.
</event>
<event>
 5   0  0.5714125E-09  0.3697710E+04  0.7818609E-02  0.8068470E-01
       -1   -1    0    0    0  501  0.00000000000E+00  0.00000000000E+00  0.21402157056E+04  0.21402157056E+04  0.50400001928E-02 0.  1.
        1   -1    0    0  501    0  0.00000000000E+00  0.00000000000E+00 -0.15971586184E+04  0.15971586184E+04  0.50400001928E-02 0. -1.
    10030    2    1    2    0    0  0.00000000000E+00  0.00000000000E+00  0.54305708723E+03  0.37373743240E+04  0.36977095393E+04 0.  0.
        1    1    3    3  502    0  0.11050284319E+04  0.85723494665E+03 -0.95070912095E+03  0.16910906013E+04  0.50400001928E-02 0. -1.
       -1    1    3    3    0  502 -0.11050284319E+04 -0.85723494665E+03  0.14937662082E+04  0.20462837227E+04  0.50400001928E-02 0.  1.
</event>
<event>
 5   0  0.5714125E-09  0.3700296E+04  0.7818609E-02  0.8067896E-01
       -1   -1    0    0    0  501  0.00000000000E+00  0.00000000000E+00  0.19896278523E+04  0.19896278523E+04  0.50400001928E-02 0. -1.
        1   -1    0    0  501    0  0.00000000000E+00  0.00000000000E+00 -0.17204465056E+04  0.17204465056E+04  0.50400001928E-02 0.  1.
    10030    2    1    2    0    0  0.00000000000E+00  0.00000000000E+00  0.26918134668E+03  0.37100743580E+04  0.37002963590E+04 0.  0.
        2    1    3    3  502    0  0.39767964298E+03  0.45795550371E+03  0.18871156593E+04  0.19821901658E+04  0.25500000920E-02 0. -1.
       -2    1    3    3    0  502 -0.39767964298E+03 -0.45795550371E+03 -0.16179343126E+04  0.17278841922E+04  0.25500000920E-02 0.  1.
</event>
<event>
 5   0  0.5714125E-09  0.3672107E+04  0.7818609E-02  0.8074171E-01
        1   -1    0    0  501    0  0.00000000000E+00  0.00000000000E+00  0.16536436081E+04  0.16536436081E+04  0.50400001928E-02 0. -1.
       -1   -1    0    0    0  501  0.00000000000E+00  0.00000000000E+00 -0.20385847539E+04  0.20385847539E+04  0.50400001928E-02 0.  1.
    10030    2    1    2    0    0  0.00000000000E+00  0.00000000000E+00 -0.38494114581E+03  0.36922283620E+04  0.36721071051E+04 0.  0.
        1    1    3    3  502    0 -0.14096656849E+04 -0.43835050045E+03  0.90519998506E+03  0.17316741949E+04  0.50400001928E-02 0. -1.
       -1    1    3    3    0  502  0.14096656849E+04  0.43835050045E+03 -0.12901411309E+04  0.19605541671E+04  0.50400001928E-02 0.  1.
</event>
<event>
 5   0  0.1856107E-08  0.3700140E+04  0.7818609E-02  0.8067931E-01
       -2   -1    0    0    0  501  0.00000000000E+00  0.00000000000E+00  0.21827349415E+04  0.21827349415E+04  0.25500000920E-02 0.  1.
        2   -1    0    0  501    0  0.00000000000E+00  0.00000000000E+00 -0.15681056826E+04  0.15681056826E+04  0.25500000920E-02 0. -1.
    10030    2    1    2    0    0  0.00000000000E+00  0.00000000000E+00  0.61462925891E+03  0.37508406241E+04  0.37001400326E+04 0.  0.
        2    1    3    3  502    0  0.28381789170E+03  0.18111911111E+04  0.55930323015E+03  0.19167122736E+04  0.25500000920E-02 0. -1.
       -2    1    3    3    0  502 -0.28381789170E+03 -0.18111911111E+04  0.55326028762E+02  0.18341283505E+04  0.25500000920E-02 0.  1.
</event>
<event>
 5   0  0.5714125E-09  0.3711081E+04  0.7818609E-02  0.8065511E-01
        1   -1    0    0  501    0  0.00000000000E+00  0.00000000000E+00  0.18834478609E+04  0.18834478609E+04  0.50400001928E-02 0.  1.
       -1   -1    0    0    0  501  0.00000000000E+00  0.00000000000E+00 -0.18280468197E+04  0.18280468197E+04  0.50400001928E-02 0. -1.
    10030    2    1    2    0    0  0.00000000000E+00  0.00000000000E+00  0.55401041287E+02  0.37114946806E+04  0.37110811752E+04 0.  0.
        2    1    3    3  502    0 -0.63547116878E+03 -0.12824215917E+04  0.12087648415E+04  0.18733769475E+04  0.25500000920E-02 0.  1.
       -2    1    3    3    0  502  0.63547116878E+03  0.12824215917E+04 -0.11533638002E+04  0.18381177331E+04  0.25500000920E-02 0. -1.
</event>
<event>
 5   0  0.5714125E-09  0.3700640E+04  0.7818609E-02  0.8067820E-01
       -1   -1    0    0    0  501  0.00000000000E+00  0.00000000000E+00  0.20868680416E+04  0.20868680416E+04  0.50400001928E-02 0. -1.
        1   -1    0    0  501    0  0.00000000000E+00  0.00000000000E+00 -0.16405848699E+04  0.16405848699E+04  0.50400001928E-02 0.  1.
    10030    2    1    2    0    0  0.00000000000E+00  0.00000000000E+00  0.44628317163E+03  0.37274529115E+04  0.37006400174E+04 0.  0.
        5    1    3    3  502    0 -0.90008301656E+03 -0.22720852189E+03 -0.13890456210E+04  0.16707013426E+04  0.46999998093E+01 0.  1.
       -5    1    3    3    0  502  0.90008301656E+03  0.22720852189E+03  0.18353287926E+04  0.20567515689E+04  0.46999998093E+01 0. -1.
</event>
<event>
 5   0  0.1725865E-08  0.3701127E+04  0.7818609E-02  0.8067712E-01
       -2   -1    0    0    0  501  0.00000000000E+00  0.00000000000E+00  0.28714573131E+04  0.28714573131E+04  0.25500000920E-02 0. -1.
        2   -1    0    0  501    0  0.00000000000E+00  0.00000000000E+00 -0.11926299814E+04  0.11926299814E+04  0.25500000920E-02 0.  1.
    10030    2    1    2    0    0  0.00000000000E+00  0.00000000000E+00  0.16788273317E+04  0.40640872945E+04  0.37011274400E+04 0.  0.
        1    1    3    3  502    0  0.55293839147E+03 -0.26507338259E+03 -0.10778325113E+04  0.12400514850E+04  0.50400001928E-02 0.  1.
       -1    1    3    3    0  502 -0.55293839147E+03  0.26507338259E+03  0.27566598430E+04  0.28240358095E+04  0.50400001928E-02 0. -1.
</event>
<event>
 5   0  0.1725865E-08  0.3694610E+04  0.7818609E-02  0.8069157E-01
       -2   -1    0    0    0  501  0.00000000000E+00  0.00000000000E+00  0.13340892291E+04  0.13340892291E+04  0.25500000920E-02 0. -1.
        2   -1    0    0  501    0  0.00000000000E+00  0.00000000000E+00 -0.25579522545E+04  0.25579522545E+04  0.25500000920E-02 0.  1.
    10030    2    1    2    0    0  0.00000000000E+00  0.00000000000E+00 -0.12238630254E+04  0.38920414836E+04  0.36946104267E+04 0.  0.
        1    1    3    3  502    0 -0.36423831755E+03 -0.14702944123E+03  0.12895887919E+04  0.13480825126E+04  0.50400001928E-02 0. -1.
       -1    1    3    3    0  502  0.36423831755E+03  0.14702944123E+03 -0.25134518173E+04  0.25439589711E+04  0.50400001928E-02 0.  1.
</event>
<event>
 5   0  0.1856107E-08  0.3694523E+04  0.7818609E-02  0.8069177E-01
       -2   -1    0    0    0  501  0.00000000000E+00  0.00000000000E+00  0.18550524718E+04  0.18550524718E+04  0.25500000920E-02 0. -1.
        2   -1    0    0  501    0  0.00000000000E+00  0.00000000000E+00 -0.18395036831E+04  0.18395036831E+04  0.25500000920E-02 0.  1.
    10030    2    1    2    0    0  0.00000000000E+00  0.00000000000E+00  0.15548788632E+02  0.36945561549E+04  0.36945234357E+04 0.  0.
        2    1    3    3  502    0  0.11990959816E+03  0.13698349324E+04 -0.12257476974E+04  0.18420867166E+04  0.25500000920E-02 0.  1.
       -2    1    3    3    0  502 -0.11990959816E+03 -0.13698349324E+04  0.12412964860E+04  0.18524694383E+04  0.25500000920E-02 0. -1.
</event>
<event>
 5   0  0.1740290E-08  0.3700099E+04  0.7818609E-02  0.8067940E-01
       -2   -1    0    0    0  501  0.00000000000E+00  0.00000000000E+00  0.20425849556E+04  0.20425849556E+04  0.25500000920E-02 0. -1.
        2   -1    0    0  501    0  0.00000000000E+00  0.00000000000E+00 -0.16756628919E+04  0.16756628919E+04  0.25500000920E-02 0.  1.
    10030    2    1    2    0    0  0.00000000000E+00  0.00000000000E+00  0.36692206375E+03  0.37182478475E+04  0.37000993574E+04 0.  0.
        5    1    3    3  502    0 -0.68408283597E+02  0.14860402187E+04  0.12887040386E+04  0.19681908987E+04  0.46999998093E+01 0. -1.
       -5    1    3    3    0  502  0.68408283597E+02 -0.14860402187E+04 -0.92178197481E+03  0.17500569488E+04  0.46999998093E+01 0.  1.
</event>
<event>
 5   0  0.5714125E-09  0.3700555E+04  0.7818609E-02  0.8067839E-01
       -1   -1    0    0    0  501  0.00000000000E+00  0.00000000000E+00  0.32194746025E+04  0.32194746025E+04  0.50400001928E-02 0. -1.
        1   -1    0    0  501    0  0.00000000000E+00  0.00000000000E+00 -0.10633807773E+04  0.10633807773E+04  0.50400001928E-02 0.  1.
    10030    2    1    2    0    0  0.00000000000E+00  0.00000000000E+00  0.21560938253E+04  0.42828553798E+04  0.37005553125E+04 0.  0.
        4    1    3    3  502    0  0.27017344607E+03 -0.13721823368E+03 -0.10344674311E+04  0.10779364608E+04  0.12699999809E+01 0.  1.
       -4    1    3    3    0  502 -0.27017344607E+03  0.13721823368E+03  0.31905612563E+04  0.32049189191E+04  0.12699999809E+01 0. -1.
</event>
<event>
 5   0  0.1725865E-08  0.3694520E+04  0.7818609E-02  0.8069177E-01
        2   -1    0    0  501    0  0.00000000000E+00  0.00000000000E+00  0.26363306601E+04  0.26363306601E+04  0.25500000920E-02 0. -1.
       -2   -1    0    0    0  501  0.00000000000E+00  0.00000000000E+00 -0.12943635886E+04  0.12943635886E+04  0.25500000920E-02 0.  1.
    10030    2    1    2    0    0  0.00000000000E+00  0.00000000000E+00  0.13419670715E+04  0.39306942487E+04  0.36945204907E+04 0.  0.
        1    1    3    3  502    0  0.43166163356E+03  0.15973090468E+04  0.15448559261E+04  0.22636933956E+04  0.50400001928E-02 0.  1.
       -1    1    3    3    0  502 -0.43166163356E+03 -0.15973090468E+04 -0.20288885463E+03  0.16670008531E+04  0.50400001928E-02 0. -1.
</event>
<event>
 5   0  0.5714125E-09  0.3700677E+04  0.7818609E-02  0.8067812E-01
       -1   -1    0    0    0  501  0.00000000000E+00  0.00000000000E+00  0.17528937706E+04  0.17528937706E+04  0.50400001928E-02 0. -1.
        1   -1    0    0  501    0  0.00000000000E+00  0.00000000000E+00 -0.19532002083E+04  0.19532002083E+04  0.50400001928E-02 0.  1.
    10030    2    1    2    0    0  0.00000000000E+00  0.00000000000E+00 -0.20030643766E+03  0.37060939789E+04  0.37006769531E+04 0.  0.
        1    1    3    3  502    0  0.87817143140E+03  0.77359812146E+03  0.13351625503E+04  0.17754712479E+04  0.50400001928E-02 0. -1.
       -1    1    3    3    0  502 -0.87817143140E+03 -0.77359812146E+03 -0.15354689879E+04  0.19306227310E+04  0.50400001928E-02 0.  1.
</event>
<event>
 5   0  0.5714125E-09  0.3703144E+04  0.7818609E-02  0.8067265E-01
       -1   -1    0    0    0  501  0.00000000000E+00  0.00000000000E+00  0.19128138814E+04  0.19128138814E+04  0.50400001928E-02 0. -1.
        1   -1    0    0  501    0  0.00000000000E+00  0.00000000000E+00 -0.17922906529E+04  0.17922906529E+04  0.50400001928E-02 0.  1.
    10030    2    1    2    0    0  0.00000000000E+00  0.00000000000E+00  0.12052322849E+03  0.37051045343E+04  0.37031437673E+04 0.  0.
        2    1    3    3  502    0 -0.15077214083E+04  0.63099697207E+03 -0.81022055439E+03  0.18242363802E+04  0.25500000920E-02 0. -1.
       -2    1    3    3    0  502  0.15077214083E+04 -0.63099697207E+03  0.93074378288E+03  0.18808681542E+04  0.25500000920E-02 0.  1.
</event>
<event>
 5   0  0.5714125E-09  0.3700977E+04  0.7818609E-02  0.8067745E-01
       -1   -1    0    0    0  501  0.00000000000E+00  0.00000000000E+00  0.14441738112E+04  0.14441738112E+04  0.50400001928E-02 0. -1.
        1   -1    0    0  501    0  0.00000000000E+00  0.00000000000E+00 -0.23711188139E+04  0.23711188140E+04  0.50400001928E-02 0.  1.
    10030    2    1    2    0    0  0.00000000000E+00  0.00000000000E+00 -0.92694500272E+03  0.38152926252E+04  0.37009770031E+04 0.  0.
        1    1    3    3  502    0 -0.84891267543E+03  0.48094160589E+03  0.11574656883E+04  0.15138310271E+04  0.50400001928E-02 0. -1.
       -1    1    3    3    0  502  0.84891267543E+03 -0.48094160589E+03 -0.20844106910E+04  0.23014615981E+04  0.50400001928E-02 0.  1.
</event>
<event>
 5   0  0.5714125E-09  0.3701160E+04  0.7818609E-02  0.8067705E-01
       -1   -1    0    0    0  501  0.00000000000E+00  0.00000000000E+00  0.14482041134E+04  0.14482041134E+04  0.50400001928E-02 0.  1.
        1   -1    0    0  501    0  0.00000000000E+00  0.00000000000E+00 -0.23647532947E+04  0.23647532947E+04  0.50400001928E-02 0. -1.
    10030    2    1    2    0    0  0.00000000000E+00  0.00000000000E+00 -0.91654918122E+03  0.38129574081E+04  0.37011595203E+04 0.  0.
        5    1    3    3  502    0  0.13446878740E+04  0.70450678213E+03 -0.15485949317E+04  0.21685671852E+04  0.46999998093E+01 0. -1.
       -5    1    3    3    0  502 -0.13446878740E+04 -0.70450678213E+03  0.63204575047E+03  0.16443902229E+04  0.46999998093E+01 0.  1.
</event>
<event>
 5   0  0.5714125E-09  0.3699296E+04  0.7818609E-02  0.8068118E-01
        1   -1    0    0  501    0  0.00000000000E+00  0.00000000000E+00  0.19327135966E+04  0.19327135966E+04  0.50400001928E-02 0. -1.
       -1   -1    0    0    0  501  0.00000000000E+00  0.00000000000E+00 -0.17701520813E+04  0.17701520813E+04  0.50400001928E-02 0.  1.
    10030    2    1    2    0    0  0.00000000000E+00  0.00000000000E+00  0.16256151533E+03  0.37028656779E+04  0.36992956063E+04 0.  0.
        2    1    3    3  502    0 -0.11676171777E+04  0.14600511733E+03 -0.13471737716E+04  0.17887214816E+04  0.25500000920E-02 0.  1.
       -2    1    3    3    0  502  0.11676171777E+04 -0.14600511733E+03  0.15097352869E+04  0.19141441963E+04  0.25500000920E-02 0. -1.
</event>
<event>
 5   0  0.1725865E-08  0.3699706E+04  0.7818609E-02  0.8068027E-01
        2   -1    0    0  501    0  0.00000000000E+00  0.00000000000E+00  0.12865380821E+04  0.12865380821E+04  0.25500000920E-02 0. -1.
       -2   -1    0    0    0  501  0.00000000000E+00  0.00000000000E+00 -0.26598171411E+04  0.26598171411E+04  0.25500000920E-02 0.  1.
    10030    2    1    2    0    0  0.00000000000E+00  0.00000000000E+00 -0.13732790590E+04  0.39463552232E+04  0.36997059577E+04 0.  0.
        1    1    3    3  502    0 -0.37917706221E+03  0.10627157377E+04 -0.22502500594E+04  0.25172932514E+04  0.50400001928E-02 0.  1.
       -1    1    3    3    0  502  0.37917706221E+03 -0.10627157377E+04  0.87697100040E+03  0.14290619718E+04  0.50400001928E-02 0. -1.
</event>
<event>
 5   0  0.1757996E-08  0.3700608E+04  0.7818609E-02  0.8067827E-01
        2   -1    0    0  501    0  0.00000000000E+00  0.00000000000E+00  0.17552793729E+04  0.17552793729E+04  0.25500000920E-02 0. -1.
       -2   -1    0    0    0  501  0.00000000000E+00  0.00000000000E+00 -0.19504730015E+04  0.19504730015E+04  0.25500000920E-02 0.  1.
    10030    2    1    2    0    0  0.00000000000E+00  0.00000000000E+00 -0.19519362863E+03  0.37057523744E+04  0.37006080727E+04 0.  0.
        3    1    3    3  502    0  0.39666190335E+03 -0.10754755704E+04  0.13568811112E+04  0.17762642619E+04  0.10100000352E+00 0. -1.
       -3    1    3    3    0  502 -0.39666190335E+03  0.10754755704E+04 -0.15520747398E+04  0.19294881125E+04  0.10100000352E+00 0.  1.
</event>
<event>
 5   0  0.5714125E-09  0.3699690E+04  0.7818609E-02  0.8068031E-01
       -1   -1    0    0    0  501  0.00000000000E+00  0.00000000000E+00  0.19317405019E+04  0.19317405019E+04  0.50400001928E-02 0.  1.
        1   -1    0    0  501    0  0.00000000000E+00  0.00000000000E+00 -0.17714212060E+04  0.17714212060E+04  0.50400001928E-02 0. -1.
    10030    2    1    2    0    0  0.00000000000E+00  0.00000000000E+00  0.16031929593E+03  0.37031617079E+04  0.36996897651E+04 0.  0.
        1    1    3    3  502    0 -0.26786556392E+02 -0.13669756189E+04  0.13273571534E+04  0.19055752084E+04  0.50400001928E-02 0.  1.
       -1    1    3    3    0  502  0.26786556392E+02  0.13669756189E+04 -0.11670378575E+04  0.17975864995E+04  0.50400001928E-02 0. -1.
</event>
<event>
 5   0  0.5714125E-09  0.3699978E+04  0.7818609E-02  0.8067967E-01
        1   -1    0    0  501    0  0.00000000000E+00  0.00000000000E+00  0.11892358904E+04  0.11892358904E+04  0.50400001928E-02 0. -1.
       -1   -1    0    0    0  501  0.00000000000E+00  0.00000000000E+00 -0.28778642985E+04  0.28778642985E+04  0.50400001928E-02 0.  1.
    10030    2    1    2    0    0  0.00000000000E+00  0.00000000000E+00 -0.16886284081E+04  0.40671001888E+04  0.36999781142E+04 0.  0.
        2    1    3    3  502    0 -0.12837827920E+04  0.13044087826E+04 -0.54756684326E+03  0.19103428951E+04  0.25500000920E-02 0.  1.
       -2    1    3    3    0  502  0.12837827920E+04 -0.13044087826E+04 -0.11410615649E+04  0.21567572937E+04  0.25500000920E-02 0. -1.
</event>
<event>
 5   0  0.5714125E-09  0.3699741E+04  0.7818609E-02  0.8068019E-01
        1   -1    0    0  501    0  0.00000000000E+00  0.00000000000E+00  0.15486588659E+04  0.15486588659E+04  0.50400001928E-02 0.  1.
       -1   -1    0    0    0  501  0.00000000000E+00  0.00000000000E+00 -0.22096671056E+04  0.22096671056E+04  0.50400001928E-02 0. -1.
    10030    2    1    2    0    0  0.00000000000E+00  0.00000000000E+00 -0.66100823975E+03  0.37583259715E+04  0.36997408308E+04 0.  0.
        1    1    3    3  502    0 -0.15891470251E+04 -0.66770092720E+03 -0.10125582346E+04  0.19991215506E+04  0.50400001928E-02 0. -1.
       -1    1    3    3    0  502  0.15891470251E+04  0.66770092720E+03  0.35154999487E+03  0.17592044209E+04  0.50400001928E-02 0.  1.
</event>
<event>
 5   0  0.5714125E-09  0.3699095E+04  0.7818609E-02  0.8068162E-01
        1   -1    0    0  501    0  0.00000000000E+00  0.00000000000E+00  0.26676560162E+04  0.26676560162E+04  0.50400001928E-02 0.  1.
       -1   -1    0    0    0  501  0.00000000000E+00  0.00000000000E+00 -0.12823339269E+04  0.12823339269E+04  0.50400001928E-02 0. -1.
    10030    2    1    2    0    0  0.00000000000E+00  0.00000000000E+00  0.13853220893E+04  0.39499899431E+04  0.36990949244E+04 0.  0.
        2    1    3    3  502    0 -0.46721845680E+03 -0.15604992302E+04 -0.24275389818E+03  0.16469305963E+04  0.25500000920E-02 0. -1.
       -2    1    3    3    0  502  0.46721845680E+03  0.15604992302E+04  0.16280759875E+04  0.23030593468E+04  0.25500000920E-02 0.  1.
</event>
<event>
 5   0  0.5714125E-09  0.3700057E+04  0.7818609E-02  0.8067949E-01
       -1   -1    0    0    0  501  0.00000000000E+00  0.00000000000E+00  0.16770108829E+04  0.16770108829E+04  0.50400001928E-02 0. -1.
        1   -1    0    0  501    0  0.00000000000E+00  0.00000000000E+00 -0.20408965740E+04  0.20408965740E+04  0.50400001928E-02 0.  1.
    10030    2    1    2    0    0  0.00000000000E+00  0.00000000000E+00 -0.36388569112E+03  0.37179074568E+04  0.37000571700E+04 0.  0.
        3    1    3    3  502    0  0.87406381859E+03 -0.13392683739E+04  0.75258614201E+03  0.17674878352E+04  0.10100000352E+00 0. -1.
       -3    1    3    3    0  502 -0.87406381859E+03  0.13392683739E+04 -0.11164718331E+04  0.19504196217E+04  0.10100000352E+00 0.  1.
</event>
<event>
 5   0  0.1725865E-08  0.3695377E+04  0.7818609E-02  0.8068987E-01
        2   -1    0    0  501    0  0.00000000000E+00  0.00000000000E+00  0.24240257475E+04  0.24240257475E+04  0.25500000920E-02 0. -1.
       -2   -1    0    0    0  501  0.00000000000E+00  0.00000000000E+00 -0.14083810429E+04  0.14083810429E+04  0.25500000920E-02 0.  1.
    10030    2    1    2    0    0  0.00000000000E+00  0.00000000000E+00  0.10156447046E+04  0.38324067904E+04  0.36953765223E+04 0.  0.
        1    1    3    3  502    0 -0.98029859016E+03  0.13526592349E+04  0.13265780864E+04  0.21331858220E+04  0.50400001928E-02 0. -1.
       -1    1    3    3    0  502  0.98029859016E+03 -0.13526592349E+04 -0.31093338184E+03  0.16992209685E+04  0.50400001928E-02 0.  1.
</event>
<event>
 5   0  0.5714125E-09  0.3699470E+04  0.7818609E-02  0.8068079E-01
        1   -1    0    0  501    0  0.00000000000E+00  0.00000000000E+00  0.20046512754E+04  0.20046512754E+04  0.50400001928E-02 0.  1.
       -1   -1    0    0    0  501  0.00000000000E+00  0.00000000000E+00 -0.17067903640E+04  0.17067903640E+04  0.50400001928E-02 0. -1.
    10030    2    1    2    0    0  0.00000000000E+00  0.00000000000E+00  0.29786091138E+03  0.37114416394E+04  0.36994699513E+04 0.  0.
        5    1    3    3  502    0 -0.36605646501E+03  0.17590439705E+04  0.58997151528E+03  0.18911164704E+04  0.46999998093E+01 0.  1.
       -5    1    3    3    0  502  0.36605646501E+03 -0.17590439705E+04 -0.29211060391E+03  0.18203251690E+04  0.46999998093E+01 0. -1.
</event>
<event>
 5   0  0.1856107E-08  0.3697056E+04  0.7818609E-02  0.8068615E-01
        2   -1    0    0  501    0  0.00000000000E+00  0.00000000000E+00  0.29423099584E+04  0.29423099584E+04  0.25500000920E-02 0. -1.
       -2   -1    0    0    0  501  0.00000000000E+00  0.00000000000E+00 -0.11613512068E+04  0.11613512068E+04  0.25500000920E-02 0.  1.
    10030    2    1    2    0    0  0.00000000000E+00  0.00000000000E+00  0.17809587517E+04  0.41036611652E+04  0.36970557047E+04 0.  0.
        2    1    3    3  502    0  0.32847508401E+03  0.15904244163E+04  0.18706053926E+04  0.24771980623E+04  0.25500000920E-02 0. -1.
       -2    1    3    3    0  502 -0.32847508401E+03 -0.15904244163E+04 -0.89646640916E+02  0.16264631029E+04  0.25500000920E-02 0.  1.
</event>
<event>
 5   0  0.5714125E-09  0.3700600E+04  0.7818609E-02  0.8067829E-01
       -1   -1    0    0    0  501  0.00000000000E+00  0.00000000000E+00  0.12973351060E+04  0.12973351060E+04  0.50400001928E-02 0.  1.
        1   -1    0    0  501    0  0.00000000000E+00  0.00000000000E+00 -0.26389559122E+04  0.26389559122E+04  0.50400001928E-02 0. -1.
    10030    2    1    2    0    0  0.00000000000E+00  0.00000000000E+00 -0.13416208062E+04  0.39362910182E+04  0.37006000314E+04 0.  0.
        2    1    3    3  502    0  0.33596673163E+03  0.64788325047E+03 -0.24793910525E+04  0.25845708236E+04  0.25500000920E-02 0. -1.
       -2    1    3    3    0  502 -0.33596673163E+03 -0.64788325047E+03  0.11377702463E+04  0.13517201946E+04  0.25500000920E-02 0.  1.
</event>
<event>
 5   0  0.1757996E-08  0.3699780E+04  0.7818609E-02  0.8068011E-01
        2   -1    0    0  501    0  0.00000000000E+00  0.00000000000E+00  0.19766455731E+04  0.19766455731E+04  0.25500000920E-02 0.  1.
       -2   -1    0    0    0  501  0.00000000000E+00  0.00000000000E+00 -0.17312626151E+04  0.17312626151E+04  0.25500000920E-02 0. -1.
    10030    2    1    2    0    0  0.00000000000E+00  0.00000000000E+00  0.24538295803E+03  0.37079081882E+04  0.36997797686E+04 0.  0.
        3    1    3    3  502    0  0.86635558100E+03  0.11051578673E+04  0.13295575097E+04  0.19338224030E+04  0.10100000352E+00 0.  1.
       -3    1    3    3    0  502 -0.86635558100E+03 -0.11051578673E+04 -0.10841745517E+04  0.17740857852E+04  0.10100000352E+00 0. -1.
</event>
<event>
 5   0  0.5714125E-09  0.3698707E+04  0.7818609E-02  0.8068248E-01
        1   -1    0    0  501    0  0.00000000000E+00  0.00000000000E+00  0.17364803180E+04  0.17364803180E+04  0.50400001928E-02 0.  1.
       -1   -1    0    0    0  501  0.00000000000E+00  0.00000000000E+00 -0.19695635183E+04  0.19695635183E+04  0.50400001928E-02 0. -1.
    10030    2    1    2    0    0  0.00000000000E+00  0.00000000000E+00 -0.23308320027E+03  0.37060438363E+04  0.36987069549E+04 0.  0.
        1    1    3    3  502    0  0.11603691441E+04  0.39938266881E+03  0.12697291805E+04  0.17658355695E+04  0.50400001928E-02 0.  1.
       -1    1    3    3    0  502 -0.11603691441E+04 -0.39938266881E+03 -0.15028123808E+04  0.19402082668E+04  0.50400001928E-02 0. -1.
</event>
<event>
 5   0  0.1757996E-08  0.3699390E+04  0.7818609E-02  0.8068097E-01
       -2   -1    0    0    0  501  0.00000000000E+00  0.00000000000E+00  0.17855437313E+04  0.17855437313E+04  0.25500000920E-02 0. -1.
        2   -1    0    0  501    0  0.00000000000E+00  0.00000000000E+00 -0.19161515668E+04  0.19161515668E+04  0.25500000920E-02 0.  1.
    10030    2    1    2    0    0  0.00000000000E+00  0.00000000000E+00 -0.13060783546E+03  0.37016952981E+04  0.36993904462E+04 0.  0.
        3    1    3    3  502    0  0.47870721933E+03 -0.90616305258E+02 -0.18507924275E+04  0.19138454840E+04  0.10100000352E+00 0.  1.
       -3    1    3    3    0  502 -0.47870721933E+03  0.90616305258E+02  0.17201845921E+04  0.17878498141E+04  0.10100000352E+00 0. -1.
</event>
<event>
 5   0  0.5714125E-09  0.3701043E+04  0.7818609E-02  0.8067731E-01
       -1   -1    0    0    0  501  0.00000000000E+00  0.00000000000E+00  0.24482051049E+04  0.24482051050E+04  0.50400001928E-02 0.  1.
        1   -1    0    0  501    0  0.00000000000E+00  0.00000000000E+00 -0.13987512303E+04  0.13987512303E+04  0.50400001928E-02 0. -1.
    10030    2    1    2    0    0  0.00000000000E+00  0.00000000000E+00  0.10494538746E+04  0.38469563353E+04  0.37010430436E+04 0.  0.
        3    1    3    3  502    0 -0.47401573669E+03  0.14926972355E+04 -0.49982863306E+03  0.16439782931E+04  0.10100000352E+00 0. -1.
       -3    1    3    3    0  502  0.47401573669E+03 -0.14926972355E+04  0.15492825077E+04  0.22029780422E+04  0.10100000352E+00 0.  1.
</event>
<event>
 5   0  0.5714125E-09  0.3702534E+04  0.7818609E-02  0.8067400E-01
        1   -1    0    0  501    0  0.00000000000E+00  0.00000000000E+00  0.29885246785E+04  0.29885246785E+04  0.50400001928E-02 0. -1.
       -1   -1    0    0    0  501  0.00000000000E+00  0.00000000000E+00 -0.11467831890E+04  0.11467831890E+04  0.50400001928E-02 0.  1.
    10030    2    1    2    0    0  0.00000000000E+00  0.00000000000E+00  0.18417414895E+04  0.41353078675E+04  0.37025341923E+04 0.  0.
        5    1    3    3  502    0 -0.91797465173E+03  0.74139545601E+03 -0.67233586004E+03  0.13580877299E+04  0.46999998093E+01 0.  1.
       -5    1    3    3    0  502  0.91797465173E+03 -0.74139545601E+03  0.25140773495E+04  0.27772201376E+04  0.46999998093E+01 0. -1.
</event>
<event>
 5   0  0.5714125E-09  0.3699378E+04  0.7818609E-02  0.8068100E-01
        1   -1    0    0  501    0  0.00000000000E+00  0.00000000000E+00  0.11404400402E+04  0.11404400402E+04  0.50400001928E-02 0. -1.
       -1   -1    0    0    0  501  0.00000000000E+00  0.00000000000E+00 -0.30000253062E+04  0.30000253062E+04  0.50400001928E-02 0.  1.
    10030    2    1    2    0    0  0.00000000000E+00  0.00000000000E+00 -0.18595852660E+04  0.41404653463E+04  0.36993777751E+04 0.  0.
        3    1    3    3  502    0 -0.96299528495E+03 -0.82116608985E+03  0.58000041622E+03  0.13921473194E+04  0.10100000352E+00 0. -1.
       -3    1    3    3    0  502  0.96299528495E+03  0.82116608985E+03 -0.24395856822E+04  0.27483180269E+04  0.10100000352E+00 0.  1.
</event>
<event>
 5   0  0.1740290E-08  0.3700357E+04  0.7818609E-02  0.8067883E-01
        2   -1    0    0  501    0  0.00000000000E+00  0.00000000000E+00  0.18817950706E+04  0.18817950706E+04  0.25500000920E-02 0. -1.
       -2   -1    0    0    0  501  0.00000000000E+00  0.00000000000E+00 -0.18190931350E+04  0.18190931350E+04  0.25500000920E-02 0.  1.
    10030    2    1    2    0    0  0.00000000000E+00  0.00000000000E+00  0.62701935638E+02  0.37008882057E+04  0.37003570068E+04 0.  0.
        5    1    3    3  502    0 -0.14440779007E+04  0.91012826130E+03  0.74520686677E+03  0.18625385364E+04  0.46999998093E+01 0.  1.
       -5    1    3    3    0  502  0.14440779007E+04 -0.91012826130E+03 -0.68250493113E+03  0.18383496692E+04  0.46999998093E+01 0. -1.
</event>
<event>
 5   0  0.1725865E-08  0.3698339E+04  0.7818609E-02  0.8068330E-01
        2   -1    0    0  501    0  0.00000000000E+00  0.00000000000E+00  0.27440348676E+04  0.27440348676E+04  0.25500000920E-02 0.  1.
       -2   -1    0    0    0  501  0.00000000000E+00  0.00000000000E+00 -0.12461314122E+04  0.12461314123E+04  0.25500000920E-02 0. -1.
    10030    2    1    2    0    0  0.00000000000E+00  0.00000000000E+00  0.14979034554E+04  0.39901662799E+04  0.36983391109E+04 0.  0.
        1    1    3    3  502    0  0.71341260533E+03 -0.16016235867E+04  0.13829165889E+04  0.22330727598E+04  0.50400001928E-02 0.  1.
       -1    1    3    3    0  502 -0.71341260533E+03  0.16016235867E+04  0.11498686651E+03  0.17570935201E+04  0.50400001928E-02 0. -1.
</event>
<event>
 5   0  0.1725865E-08  0.3698786E+04  0.7818609E-02  0.8068231E-01
        2   -1    0    0  501    0  0.00000000000E+00  0.00000000000E+00  0.22674204602E+04  0.22674204602E+04  0.25500000920E-02 0.  1.
       -2   -1    0    0    0  501  0.00000000000E+00  0.00000000000E+00 -0.15084343874E+04  0.15084343874E+04  0.25500000920E-02 0. -1.
    10030    2    1    2    0    0  0.00000000000E+00  0.00000000000E+00  0.75898607279E+03  0.37758548477E+04  0.36987862836E+04 0.  0.
        1    1    3    3  502    0  0.14196919350E+03  0.44499538356E+02 -0.15023152562E+04  0.15096643964E+04  0.50400001928E-02 0. -1.
       -1    1    3    3    0  502 -0.14196919350E+03 -0.44499538356E+02  0.22613013290E+04  0.22661904512E+04  0.50400001928E-02 0.  1.
</event>
<event>
 5   0  0.5714125E-09  0.3702586E+04  0.7818609E-02  0.8067389E-01
       -1   -1    0    0    0  501  0.00000000000E+00  0.00000000000E+00  0.16324828048E+04  0.16324828048E+04  0.50400001928E-02 0.  1.
        1   -1    0    0  501    0  0.00000000000E+00  0.00000000000E+00 -0.20994311216E+04  0.20994311216E+04  0.50400001928E-02 0. -1.
    10030    2    1    2    0    0  0.00000000000E+00  0.00000000000E+00 -0.46694831683E+03  0.37319139264E+04  0.37025856943E+04 0.  0.
        2    1    3    3  502    0 -0.10731354453E+04  0.10686341672E+04 -0.13066552065E+04  0.20002366100E+04  0.25500000920E-02 0. -1.
       -2    1    3    3    0  502  0.10731354453E+04 -0.10686341672E+04  0.83970688968E+03  0.17316773163E+04  0.25500000920E-02 0.  1.
</event>
<event>
 5   0  0.1740290E-08  0.3697998E+04  0.7818609E-02  0.8068406E-01
       -2   -1    0    0    0  501  0.00000000000E+00  0.00000000000E+00  0.26623842777E+04  0.26623842777E+04  0.25500000920E-02 0. -1.
        2   -1    0    0  501    0  0.00000000000E+00  0.00000000000E+00 -0.12841111811E+04  0.12841111811E+04  0.25500000920E-02 0.  1.
    10030    2    1    2    0    0  0.00000000000E+00  0.00000000000E+00  0.13782730966E+04  0.39464954587E+04  0.36979980634E+04 0.  0.
        5    1    3    3  502    0  0.16066802939E+04 -0.56023090953E+03 -0.83012667040E+02  0.17035825286E+04  0.46999998093E+01 0.  1.
       -5    1    3    3    0  502 -0.16066802939E+04  0.56023090953E+03  0.14612857637E+04  0.22429129301E+04  0.46999998093E+01 0. -1.
</event>
<event>
 5   0  0.1856107E-08  0.3699777E+04  0.7818609E-02  0.8068011E-01
       -2   -1    0    0    0  501  0.00000000000E+00  0.00000000000E+00  0.10058380929E+04  0.10058380929E+04  0.25500000920E-02 0. -1.
        2   -1    0    0  501    0  0.00000000000E+00  0.00000000000E+00 -0.34022249766E+04  0.34022249766E+04  0.25500000920E-02 0.  1.
    10030    2    1    2    0    0  0.00000000000E+00  0.00000000000E+00 -0.23963868837E+04  0.44080630696E+04  0.36997770107E+04 0.  0.
        2    1    3    3  502    0  0.19132095985E+03 -0.14362753602E+04 -0.25683998497E+04  0.29489266536E+04  0.25500000920E-02 0.  1.
       -2    1    3    3    0  502 -0.19132095985E+03  0.14362753602E+04  0.17201296600E+03  0.14591364160E+04  0.25500000920E-02 0. -1.
</event>
<event>
 5   0  0.5714125E-09  0.3702474E+04  0.7818609E-02  0.8067414E-01
       -1   -1    0    0    0  501  0.00000000000E+00  0.00000000000E+00  0.12594236297E+04  0.12594236297E+04  0.50400001928E-02 0.  1.
        1   -1    0    0  501    0  0.00000000000E+00  0.00000000000E+00 -0.27211483059E+04  0.27211483059E+04  0.50400001928E-02 0. -1.
    10030    2    1    2    0    0  0.00000000000E+00  0.00000000000E+00 -0.14617246762E+04  0.39805719356E+04  0.37024740249E+04 0.  0.
        5    1    3    3  502    0  0.16403682476E+04  0.40643439393E+03 -0.15433076368E+04  0.22886278544E+04  0.46999998093E+01 0. -1.
       -5    1    3    3    0  502 -0.16403682476E+04 -0.40643439393E+03  0.81582960640E+02  0.16919440811E+04  0.46999998093E+01 0.  1.
</event>
<event>
 5   0  0.5714125E-09  0.3696128E+04  0.7818609E-02  0.8068820E-01
        1   -1    0    0  501    0  0.00000000000E+00  0.00000000000E+00  0.19362114828E+04  0.19362114828E+04  0.50400001928E-02 0.  1.
       -1   -1    0    0    0  501  0.00000000000E+00  0.00000000000E+00 -0.17639297604E+04  0.17639297604E+04  0.50400001928E-02 0. -1.
    10030    2    1    2    0    0  0.00000000000E+00  0.00000000000E+00  0.17228172240E+03  0.37001412432E+04  0.36961282753E+04 0.  0.
        4    1    3    3  502    0  0.14538484571E+04 -0.31806610555E+03 -0.10107211583E+04  0.17989997933E+04  0.12699999809E+01 0. -1.
       -4    1    3    3    0  502 -0.14538484571E+04  0.31806610555E+03  0.11830028807E+04  0.19011414499E+04  0.12699999809E+01 0.  1.
</event>
<event>
 5   0  0.5714125E-09  0.3700420E+04  0.7818609E-02  0.8067869E-01
       -1   -1    0    0    0  501  0.00000000000E+00  0.00000000000E+00  0.17096414437E+04  0.17096414437E+04  0.50400001928E-02 0.  1.
        1   -1    0    0  501    0  0.00000000000E+00  0.00000000000E+00 -0.20023361348E+04  0.20023361348E+04  0.50400001928E-02 0. -1.
    10030    2    1    2    0    0  0.00000000000E+00  0.00000000000E+00 -0.29269469109E+03  0.37119775785E+04  0.37004198898E+04 0.  0.
        3    1    3    3  502    0 -0.11409863400E+04  0.14503035426E+04 -0.11589992631E+02  0.18453629811E+04  0.10100000352E+00 0.  1.
       -3    1    3    3    0  502  0.11409863400E+04 -0.14503035426E+04 -0.28110469846E+03  0.18666145974E+04  0.10100000352E+00 0. -1.
</event>
<event>
 5   0  0.5714125E-09  0.3699705E+04  0.7818609E-02  0.8068027E-01
        1   -1    0    0  501    0  0.00000000000E+00  0.00000000000E+00  0.27344229856E+04  0.27344229856E+04  0.50400001928E-02 0. -1.
       -1   -1    0    0    0  501  0.00000000000E+00  0.00000000000E+00 -0.12514358034E+04  0.12514358034E+04  0.50400001928E-02 0.  1.
    10030    2    1    2    0    0  0.00000000000E+00  0.00000000000E+00  0.14829871822E+04  0.39858587890E+04  0.36997052995E+04 0.  0.
        5    1    3    3  502    0  0.78151589585E+03  0.72685959601E+03 -0.88627470939E+03  0.13872984244E+04  0.46999998093E+01 0.  1.
       -5    1    3    3    0  502 -0.78151589585E+03 -0.72685959601E+03  0.23692618916E+04  0.25985603646E+04  0.46999998093E+01 0. -1.
</event>
<event>
 5   0  0.1856107E-08  0.3702076E+04  0.7818609E-02  0.8067502E-01
       -2   -1    0    0    0  501  0.00000000000E+00  0.00000000000E+00  0.31912746494E+04  0.31912746494E+04  0.25500000920E-02 0. -1.
        2   -1    0    0  501    0  0.00000000000E+00  0.00000000000E+00 -0.10736592796E+04  0.10736592796E+04  0.25500000920E-02 0.  1.
    10030    2    1    2    0    0  0.00000000000E+00  0.00000000000E+00  0.21176153699E+04  0.42649339290E+04  0.37020759803E+04 0.  0.
        2    1    3    3  502    0 -0.10681702888E+04 -0.11646867998E+04 -0.51495964800E+02  0.15811815019E+04  0.25500000920E-02 0.  1.
       -2    1    3    3    0  502  0.10681702888E+04  0.11646867998E+04  0.21691113347E+04  0.26837524271E+04  0.25500000920E-02 0. -1.
</event>
<event>
 5   0  0.1856107E-08  0.3699372E+04  0.7818609E-02  0.8068101E-01
       -2   -1    0    0    0  501  0.00000000000E+00  0.00000000000E+00  0.12231076779E+04  0.12231076779E+04  0.25500000920E-02 0. -1.
        2   -1    0    0  501    0  0.00000000000E+00  0.00000000000E+00 -0.27972508474E+04  0.27972508474E+04  0.25500000920E-02 0.  1.
    10030    2    1    2    0    0  0.00000000000E+00  0.00000000000E+00 -0.15741431694E+04  0.40203585253E+04  0.36993723730E+04 0.  0.
        2    1    3    3  502    0 -0.43807719065E+02  0.16621323192E+04  0.93636849308E+02  0.16653440553E+04  0.25500000920E-02 0. -1.
       -2    1    3    3    0  502  0.43807719065E+02 -0.16621323192E+04 -0.16677800188E+04  0.23550144700E+04  0.25500000920E-02 0.  1.
</event>
<event>
 5   0  0.5714125E-09  0.3697534E+04  0.7818609E-02  0.8068508E-01
       -1   -1    0    0    0  501  0.00000000000E+00  0.00000000000E+00  0.26057531953E+04  0.26057531953E+04  0.50400001928E-02 0.  1.
        1   -1    0    0  501    0  0.00000000000E+00  0.00000000000E+00 -0.13116898583E+04  0.13116898583E+04  0.50400001928E-02 0. -1.
    10030    2    1    2    0    0  0.00000000000E+00  0.00000000000E+00  0.12940633371E+04  0.39174430536E+04  0.36975343349E+04 0.  0.
        4    1    3    3  502    0 -0.23586476673E+03 -0.62494701535E+03  0.24734338915E+04  0.25620436742E+04  0.12699999809E+01 0.  1.
       -4    1    3    3    0  502  0.23586476673E+03  0.62494701535E+03 -0.11793705544E+04  0.13553993794E+04  0.12699999809E+01 0. -1.
</event>
<event>
 5   0  0.5714125E-09  0.3690730E+04  0.7818609E-02  0.8070019E-01
       -1   -1    0    0    0  501  0.00000000000E+00  0.00000000000E+00  0.17213132526E+04  0.17213132526E+04  0.50400001928E-02 0. -1.
        1   -1    0    0  501    0  0.00000000000E+00  0.00000000000E+00 -0.19783567668E+04  0.19783567668E+04  0.50400001928E-02 0.  1.
    10030    2    1    2    0    0  0.00000000000E+00  0.00000000000E+00 -0.25704351425E+03  0.36996700194E+04  0.36907298579E+04 0.  0.
        1    1    3    3  502    0 -0.47542497437E+03 -0.16198527289E+04  0.61854854066E+03  0.17979304956E+04  0.50400001928E-02 0. -1.
       -1    1    3    3    0  502  0.47542497437E+03  0.16198527289E+04 -0.87559205491E+03  0.19017395238E+04  0.50400001928E-02 0.  1.
</event>
<event>
 5   0  0.5714125E-09  0.3700702E+04  0.7818609E-02  0.8067806E-01
        1   -1    0    0  501    0  0.00000000000E+00  0.00000000000E+00  0.24780390582E+04  0.24780390582E+04  0.50400001928E-02 0.  1.
       -1   -1    0    0    0  501  0.00000000000E+00  0.00000000000E+00 -0.13816561840E+04  0.13816561841E+04  0.50400001928E-02 0. -1.
    10030    2    1    2    0    0  0.00000000000E+00  0.00000000000E+00  0.10963828742E+04  0.38596952423E+04  0.37007015492E+04 0.  0.
        1    1    3    3  502    0 -0.32922326076E+03  0.18181554356E+04  0.44536116772E+03  0.19006377123E+04  0.50400001928E-02 0.  1.
       -1    1    3    3    0  502  0.32922326076E+03 -0.18181554356E+04  0.65102170646E+03  0.19590575300E+04  0.50400001928E-02 0. -1.
</event>
<event>
 5   0  0.5714125E-09  0.3694922E+04  0.7818609E-02  0.8069088E-01
       -1   -1    0    0    0  501  0.00000000000E+00  0.00000000000E+00  0.28497009240E+04  0.28497009240E+04  0.50400001928E-02 0. -1.
        1   -1    0    0  501    0  0.00000000000E+00  0.00000000000E+00 -0.11977086318E+04  0.11977086318E+04  0.50400001928E-02 0.  1.
    10030    2    1    2    0    0  0.00000000000E+00  0.00000000000E+00  0.16519922922E+04  0.40474095558E+04  0.36949215930E+04 0.  0.
        5    1    3    3  502    0 -0.14400353748E+04 -0.11381465868E+04  0.10557942707E+04  0.21174992717E+04  0.46999998093E+01 0.  1.
       -5    1    3    3    0  502  0.14400353748E+04  0.11381465868E+04  0.59619802150E+03  0.19299102841E+04  0.46999998093E+01 0. -1.
</event>
<event>
 5   0  0.1725865E-08  0.3699518E+04  0.7818609E-02  0.8068069E-01
       -2   -1    0    0    0  501  0.00000000000E+00  0.00000000000E+00  0.15602689089E+04  0.15602689089E+04  0.25500000920E-02 0. -1.
        2   -1    0    0  501    0  0.00000000000E+00  0.00000000000E+00 -0.21929601383E+04  0.21929601383E+04  0.25500000920E-02 0.  1.
    10030    2    1    2    0    0  0.00000000000E+00  0.00000000000E+00 -0.63269122941E+03  0.37532290472E+04  0.36995175481E+04 0.  0.
        1    1    3    3  502    0  0.84230171169E+03  0.95590318086E+03 -0.16768540768E+04  0.21059588457E+04  0.50400001928E-02 0.  1.
       -1    1    3    3    0  502 -0.84230171169E+03 -0.95590318086E+03  0.10441628474E+04  0.16472702015E+04  0.50400001928E-02 0. -1.
</event>
<event>
 5   0  0.1757996E-08  0.3698474E+04  0.7818609E-02  0.8068300E-01
       -2   -1    0    0    0  501  0.00000000000E+00  0.00000000000E+00  0.11433890931E+04  0.11433890931E+04  0.25500000920E-02 0.  1.
        2   -1    0    0  501    0  0.00000000000E+00  0.00000000000E+00 -0.29908259389E+04  0.29908259389E+04  0.25500000920E-02 0. -1.
    10030    2    1    2    0    0  0.00000000000E+00  0.00000000000E+00 -0.18474368458E+04  0.41342150319E+04  0.36984741490E+04 0.  0.
        3    1    3    3  502    0  0.13401061642E+03  0.11961542739E+04 -0.24930203174E+04  0.27683739280E+04  0.10100000352E+00 0. -1.
       -3    1    3    3    0  502 -0.13401061642E+03 -0.11961542739E+04  0.64558347154E+03  0.13658411039E+04  0.10100000352E+00 0.  1.
</event>
<event>
 5   0  0.1725865E-08  0.3699748E+04  0.7818609E-02  0.8068018E-01
        2   -1    0    0  501    0  0.00000000000E+00  0.00000000000E+00  0.24762269812E+04  0.24762269812E+04  0.25500000920E-02 0.  1.
       -2   -1    0    0    0  501  0.00000000000E+00  0.00000000000E+00 -0.13819548092E+04  0.13819548092E+04  0.25500000920E-02 0. -1.
    10030    2    1    2    0    0  0.00000000000E+00  0.00000000000E+00  0.10942721720E+04  0.38581817904E+04  0.36997479834E+04 0.  0.
        1    1    3    3  502    0 -0.47306690075E+03 -0.10571221920E+04  0.20513820114E+04  0.23557308374E+04  0.50400001928E-02 0.  1.
       -1    1    3    3    0  502  0.47306690075E+03  0.10571221920E+04 -0.95710983940E+03  0.15024509530E+04  0.50400001928E-02 0. -1.
</event>
<event>
 5   0  0.1757996E-08  0.3703410E+04  0.7818609E-02  0.8067207E-01
       -2   -1    0    0    0  501  0.00000000000E+00  0.00000000000E+00  0.20043505841E+04  0.20043505841E+04  0.25500000920E-02 0.  1.
        2   -1    0    0  501    0  0.00000000000E+00  0.00000000000E+00 -0.17106844459E+04  0.17106844459E+04  0.25500000920E-02 0. -1.
    10030    2    1    2    0    0  0.00000000000E+00  0.00000000000E+00  0.29366613824E+03  0.37150350300E+04  0.37034099791E+04 0.  0.
        3    1    3    3  502    0  0.54563118587E+03  0.60709892756E+03 -0.15204699345E+04  0.17257205251E+04  0.10100000352E+00 0. -1.
       -3    1    3    3    0  502 -0.54563118587E+03 -0.60709892756E+03  0.18141360727E+04  0.19893145049E+04  0.10100000352E+00 0.  1.
</event>
<event>
 5   0  0.1740290E-08  0.3695139E+04  0.7818609E-02  0.8069040E-01
        2   -1    0    0  501    0  0.00000000000E+00  0.00000000000E+00  0.17711349470E+04  0.17711349470E+04  0.25500000920E-02 0. -1.
       -2   -1    0    0    0  501  0.00000000000E+00  0.00000000000E+00 -0.19273030743E+04  0.19273030743E+04  0.25500000920E-02 0.  1.
    10030    2    1    2    0    0  0.00000000000E+00  0.00000000000E+00 -0.15616812727E+03  0.36984380213E+04  0.36951394173E+04 0.  0.
        5    1    3    3  502    0 -0.41390036875E+03  0.80549662503E+03 -0.16899108484E+04  0.19172790860E+04  0.46999998093E+01 0.  1.
       -5    1    3    3    0  502  0.41390036875E+03 -0.80549662503E+03  0.15337427211E+04  0.17811589353E+04  0.46999998093E+01 0. -1.
</event>
<event>
 5   0  0.1740290E-08  0.3701900E+04  0.7818609E-02  0.8067541E-01
        2   -1    0    0  501    0  0.00000000000E+00  0.00000000000E+00  0.17993712959E+04  0.17993712959E+04  0.25500000920E-02 0.  1.
       -2   -1    0    0    0  501  0.00000000000E+00  0.00000000000E+00 -0.19040076200E+04  0.19040076200E+04  0.25500000920E-02 0. -1.
    10030    2    1    2    0    0  0.00000000000E+00  0.00000000000E+00 -0.10463632409E+03  0.37033789159E+04  0.37019004085E+04 0.  0.
        5    1    3    3  502    0 -0.18276955276E+04 -0.24131668086E+03 -0.21758064860E+03  0.18563588314E+04  0.46999998093E+01 0.  1.
       -5    1    3    3    0  502  0.18276955276E+04  0.24131668086E+03  0.11294432451E+03  0.18470200845E+04  0.46999998093E+01 0. -1.
</event>
<event>
 5   0  0.5714125E-09  0.3699568E+04  0.7818609E-02  0.8068058E-01
        1   -1    0    0  501    0  0.00000000000E+00  0.00000000000E+00  0.12790288210E+04  0.12790288210E+04  0.50400001928E-02 0. -1.
       -1   -1    0    0    0  501  0.00000000000E+00  0.00000000000E+00 -0.26752334830E+04  0.26752334830E+04  0.50400001928E-02 0.  1.
    10030    2    1    2    0    0  0.00000000000E+00  0.00000000000E+00 -0.13962046620E+04  0.39542623040E+04  0.36995679357E+04 0.  0.
        3    1    3    3  502    0 -0.44205740327E+03  0.17662677258E+04 -0.10470506151E+04  0.21003407885E+04  0.10100000352E+00 0.  1.
       -3    1    3    3    0  502  0.44205740327E+03 -0.17662677258E+04 -0.34915404684E+03  0.18539215155E+04  0.10100000352E+00 0. -1.
</event>
<event>
 5   0  0.1725865E-08  0.3701258E+04  0.7818609E-02  0.8067683E-01
       -2   -1    0    0    0  501  0.00000000000E+00  0.00000000000E+00  0.20633250564E+04  0.20633250564E+04  0.25500000920E-02 0.  1.
        2   -1    0    0  501    0  0.00000000000E+00  0.00000000000E+00 -0.16598586861E+04  0.16598586861E+04  0.25500000920E-02 0. -1.
    10030    2    1    2    0    0  0.00000000000E+00  0.00000000000E+00  0.40346637028E+03  0.37231837426E+04  0.37012581738E+04 0.  0.
        1    1    3    3  502    0 -0.17419906067E+04 -0.35896304577E+03  0.71607637901E+03  0.19173291638E+04  0.50400001928E-02 0.  1.
       -1    1    3    3    0  502  0.17419906067E+04  0.35896304577E+03 -0.31261000873E+03  0.18058545787E+04  0.50400001928E-02 0. -1.
</event>
<event>
 5   0  0.5714125E-09  0.3700002E+04  0.7818609E-02  0.8067961E-01
        1   -1    0    0  501    0  0.00000000000E+00  0.00000000000E+00  0.16103756447E+04  0.16103756447E+04  0.50400001928E-02 0. -1.
       -1   -1    0    0    0  501  0.00000000000E+00  0.00000000000E+00 -0.21252832694E+04  0.21252832694E+04  0.50400001928E-02 0.  1.
    10030    2    1    2    0    0  0.00000000000E+00  0.00000000000E+00 -0.51490762469E+03  0.37356589140E+04  0.37000023865E+04 0.  0.
        3    1    3    3  502    0  0.98945112538E+02 -0.18284707327E+04 -0.52344868124E+03  0.19044930790E+04  0.10100000352E+00 0.  1.
       -3    1    3    3    0  502 -0.98945112538E+02  0.18284707327E+04  0.85410565447E+01  0.18311658351E+04  0.10100000352E+00 0. -1.
</event>
<event>
 5   0  0.5714125E-09  0.3697286E+04  0.7818609E-02  0.8068564E-01
       -1   -1    0    0    0  501  0.00000000000E+00  0.00000000000E+00  0.15112212377E+04  0.15112212377E+04  0.50400001928E-02 0. -1.
        1   -1    0    0  501    0  0.00000000000E+00  0.00000000000E+00 -0.22614029686E+04  0.22614029686E+04  0.50400001928E-02 0.  1.
    10030    2    1    2    0    0  0.00000000000E+00  0.00000000000E+00 -0.75018173089E+03  0.37726242063E+04  0.36972855952E+04 0.  0.
        2    1    3    3  502    0 -0.10351420587E+04  0.83880286646E+03 -0.16827548542E+04  0.21463394955E+04  0.25500000920E-02 0.  1.
       -2    1    3    3    0  502  0.10351420587E+04 -0.83880286646E+03  0.93257312331E+03  0.16262847109E+04  0.25500000920E-02 0. -1.
</event>
<event>
 5   0  0.5714125E-09  0.3693812E+04  0.7818609E-02  0.8069334E-01
        1   -1    0    0  501    0  0.00000000000E+00  0.00000000000E+00  0.20979640056E+04  0.20979640056E+04  0.50400001928E-02 0.  1.
       -1   -1    0    0    0  501  0.00000000000E+00  0.00000000000E+00 -0.16258918539E+04  0.16258918539E+04  0.50400001928E-02 0. -1.
    10030    2    1    2    0    0  0.00000000000E+00  0.00000000000E+00  0.47207215169E+03  0.37238558595E+04  0.36938124406E+04 0.  0.
        4    1    3    3  502    0 -0.11948911185E+04  0.14036738629E+04  0.35096273717E+03  0.18764971500E+04  0.12699999809E+01 0.  1.
       -4    1    3    3    0  502  0.11948911185E+04 -0.14036738629E+04  0.12110941453E+03  0.18473587095E+04  0.12699999809E+01 0. -1.
</event>
<event>
 5   0  0.1825308E-08  0.3700676E+04  0.7818609E-02  0.8067812E-01
       -2   -1    0    0    0  501  0.00000000000E+00  0.00000000000E+00  0.27312203321E+04  0.27312203321E+04  0.25500000920E-02 0.  1.
        2   -1    0    0  501    0  0.00000000000E+00  0.00000000000E+00 -0.12535606197E+04  0.12535606197E+04  0.25500000920E-02 0. -1.
    10030    2    1    2    0    0  0.00000000000E+00  0.00000000000E+00  0.14776597124E+04  0.39847809518E+04  0.37006757502E+04 0.  0.
        4    1    3    3  502    0 -0.15963633730E+04 -0.81252132810E+03  0.23934066175E+03  0.18071669797E+04  0.12699999809E+01 0. -1.
       -4    1    3    3    0  502  0.15963633730E+04  0.81252132810E+03  0.12383190506E+04  0.21776139721E+04  0.12699999809E+01 0.  1.
</event>
<event>
 5   0  0.5714125E-09  0.3699091E+04  0.7818609E-02  0.8068163E-01
       -1   -1    0    0    0  501  0.00000000000E+00  0.00000000000E+00  0.23722236564E+04  0.23722236564E+04  0.50400001928E-02 0. -1.
        1   -1    0    0  501    0  0.00000000000E+00  0.00000000000E+00 -0.14420302949E+04  0.14420302949E+04  0.50400001928E-02 0.  1.
    10030    2    1    2    0    0  0.00000000000E+00  0.00000000000E+00  0.93019336148E+03  0.38142539513E+04  0.36990909039E+04 0.  0.
        5    1    3    3  502    0 -0.16337866357E+04 -0.77180720337E+03  0.87216716937E+03  0.20064004564E+04  0.46999998093E+01 0.  1.
       -5    1    3    3    0  502  0.16337866357E+04  0.77180720337E+03  0.58026192110E+02  0.18078534949E+04  0.46999998093E+01 0. -1.
</event>
<event>
 5   0  0.5714125E-09  0.3700200E+04  0.7818609E-02  0.8067918E-01
       -1   -1    0    0    0  501  0.00000000000E+00  0.00000000000E+00  0.20294889947E+04  0.20294889947E+04  0.50400001928E-02 0.  1.
        1   -1    0    0  501    0  0.00000000000E+00  0.00000000000E+00 -0.16865670164E+04  0.16865670164E+04  0.50400001928E-02 0. -1.
    10030    2    1    2    0    0  0.00000000000E+00  0.00000000000E+00  0.34292197834E+03  0.37160560112E+04  0.37001995615E+04 0.  0.
        5    1    3    3  502    0 -0.16391549618E+03  0.76632210219E+03  0.18545692165E+04  0.20133471938E+04  0.46999998093E+01 0.  1.
       -5    1    3    3    0  502  0.16391549618E+03 -0.76632210219E+03 -0.15116472381E+04  0.17027088174E+04  0.46999998093E+01 0. -1.
</event>
<event>
 5   0  0.5714125E-09  0.3698436E+04  0.7818609E-02  0.8068308E-01
       -1   -1    0    0    0  501  0.00000000000E+00  0.00000000000E+00  0.11790224212E+04  0.11790224212E+04  0.50400001928E-02 0. -1.
        1   -1    0    0  501    0  0.00000000000E+00  0.00000000000E+00 -0.29003753579E+04  0.29003753579E+04  0.50400001928E-02 0.  1.
    10030    2    1    2    0    0  0.00000000000E+00  0.00000000000E+00 -0.17213529366E+04  0.40793977791E+04  0.36984361976E+04 0.  0.
        5    1    3    3  502    0 -0.10681039650E+03 -0.67240617028E+03 -0.27570923742E+04  0.28399153101E+04  0.46999998093E+01 0.  1.
       -5    1    3    3    0  502  0.10681039650E+03  0.67240617028E+03  0.10357394375E+04  0.12394824691E+04  0.46999998093E+01 0. -1.
</event>
<event>
 5   0  0.1740290E-08  0.3698655E+04  0.7818609E-02  0.8068260E-01
        2   -1    0    0  501    0  0.00000000000E+00  0.00000000000E+00  0.23594746211E+04  0.23594746211E+04  0.25500000920E-02 0.  1.
       -2   -1    0    0    0  501  0.00000000000E+00  0.00000000000E+00 -0.14494801446E+04  0.14494801446E+04  0.25500000920E-02 0. -1.
    10030    2    1    2    0    0  0.00000000000E+00  0.00000000000E+00  0.90999447650E+03  0.38089547656E+04  0.36986546823E+04 0.  0.
        5    1    3    3  502    0  0.78109410728E+03  0.12248013358E+04  0.16335664902E+04  0.21860484634E+04  0.46999998093E+01 0.  1.
       -5    1    3    3    0  502 -0.78109410728E+03 -0.12248013358E+04 -0.72357201369E+03  0.16229063022E+04  0.46999998093E+01 0. -1.
</event>
<event>
 5   0  0.1725865E-08  0.3699236E+04  0.7818609E-02  0.8068131E-01
        2   -1    0    0  501    0  0.00000000000E+00  0.00000000000E+00  0.10980552912E+04  0.10980552912E+04  0.25500000920E-02 0. -1.
       -2   -1    0    0    0  501  0.00000000000E+00  0.00000000000E+00 -0.31155868627E+04  0.31155868627E+04  0.25500000920E-02 0.  1.
    10030    2    1    2    0    0  0.00000000000E+00  0.00000000000E+00 -0.20175315715E+04  0.42136421540E+04  0.36992359427E+04 0.  0.
        1    1    3    3  502    0 -0.30846563737E+03 -0.10467857222E+04 -0.27098080847E+04  0.29212961599E+04  0.50400001928E-02 0.  1.
       -1    1    3    3    0  502  0.30846563737E+03  0.10467857222E+04  0.69227651322E+03  0.12923459941E+04  0.50400001928E-02 0. -1.
</event>
<event>
 5   0  0.5714125E-09  0.3697979E+04  0.7818609E-02  0.8068410E-01
       -1   -1    0    0    0  501  0.00000000000E+00  0.00000000000E+00  0.13397825776E+04  0.13397825776E+04  0.50400001928E-02 0.  1.
        1   -1    0    0  501    0  0.00000000000E+00  0.00000000000E+00 -0.25517286412E+04  0.25517286412E+04  0.50400001928E-02 0. -1.
    10030    2    1    2    0    0  0.00000000000E+00  0.00000000000E+00 -0.12119460636E+04  0.38915112188E+04  0.36979786783E+04 0.  0.
        2    1    3    3  502    0  0.21521661723E+03 -0.13105194578E+04  0.74781459050E+03  0.15241411035E+04  0.25500000920E-02 0.  1.
       -2    1    3    3    0  502 -0.21521661723E+03  0.13105194578E+04 -0.19597606541E+04  0.23673701153E+04  0.25500000920E-02 0. -1.
</event>
<event>
 5   0  0.1740290E-08  0.3700754E+04  0.7818609E-02  0.8067795E-01
       -2   -1    0    0    0  501  0.00000000000E+00  0.00000000000E+00  0.18536036871E+04  0.18536036871E+04  0.25500000920E-02 0. -1.
        2   -1    0    0  501    0  0.00000000000E+00  0.00000000000E+00 -0.18471555813E+04  0.18471555813E+04  0.25500000920E-02 0.  1.
    10030    2    1    2    0    0  0.00000000000E+00  0.00000000000E+00  0.64481058280E+01  0.37007592684E+04  0.37007536509E+04 0.  0.
        5    1    3    3  502    0  0.75888945888E+03  0.38605562452E+03 -0.16396174926E+04  0.18475171902E+04  0.46999998093E+01 0.  1.
       -5    1    3    3    0  502 -0.75888945888E+03 -0.38605562452E+03  0.16460655984E+04  0.18532420782E+04  0.46999998093E+01 0. -1.
</event>
<event>
 5   0  0.1725865E-08  0.3700288E+04  0.7818609E-02  0.8067898E-01
       -2   -1    0    0    0  501  0.00000000000E+00  0.00000000000E+00  0.14601228282E+04  0.14601228282E+04  0.25500000920E-02 0.  1.
        2   -1    0    0  501    0  0.00000000000E+00  0.00000000000E+00 -0.23443455483E+04  0.23443455483E+04  0.25500000920E-02 0. -1.
    10030    2    1    2    0    0  0.00000000000E+00  0.00000000000E+00 -0.88422272018E+03  0.38044683765E+04  0.37002878008E+04 0.  0.
        1    1    3    3  502    0 -0.11402438865E+03  0.13509650120E+04  0.85227150167E+03  0.16013977450E+04  0.50400001928E-02 0.  1.
       -1    1    3    3    0  502  0.11402438865E+03 -0.13509650120E+04 -0.17364942218E+04  0.22030706315E+04  0.50400001928E-02 0. -1.
</event>
<event>
 5   0  0.1725865E-08  0.3709745E+04  0.7818609E-02  0.8065806E-01
        2   -1    0    0  501    0  0.00000000000E+00  0.00000000000E+00  0.21014369359E+04  0.21014369359E+04  0.25500000920E-02 0. -1.
       -2   -1    0    0    0  501  0.00000000000E+00  0.00000000000E+00 -0.16372381360E+04  0.16372381360E+04  0.25500000920E-02 0.  1.
    10030    2    1    2    0    0  0.00000000000E+00  0.00000000000E+00  0.46419879990E+03  0.37386750718E+04  0.37097453776E+04 0.  0.
        1    1    3    3  502    0 -0.58453070626E+03  0.10925956395E+04  0.16231207569E+04  0.20420485718E+04  0.50400001928E-02 0. -1.
       -1    1    3    3    0  502  0.58453070626E+03 -0.10925956395E+04 -0.11589219570E+04  0.16966265000E+04  0.50400001928E-02 0.  1.
</event>
<event>
 5   0  0.1757996E-08  0.3698443E+04  0.7818609E-02  0.8068307E-01
       -2   -1    0    0    0  501  0.00000000000E+00  0.00000000000E+00  0.13915848380E+04  0.13915848380E+04  0.25500000920E-02 0.  1.
        2   -1    0    0  501    0  0.00000000000E+00  0.00000000000E+00 -0.24573567527E+04  0.24573567527E+04  0.25500000920E-02 0. -1.
    10030    2    1    2    0    0  0.00000000000E+00  0.00000000000E+00 -0.10657719147E+04  0.38489415907E+04  0.36984431312E+04 0.  0.
        3    1    3    3  502    0 -0.77628524744E+03  0.13820836627E+04  0.45814958585E+03  0.16500530565E+04  0.10100000352E+00 0.  1.
       -3    1    3    3    0  502  0.77628524744E+03 -0.13820836627E+04 -0.15239215006E+04  0.21988885343E+04  0.10100000352E+00 0. -1.
</event>
<event>
 5   0  0.5714125E-09  0.3701092E+04  0.7818609E-02  0.8067720E-01
       -1   -1    0    0    0  501  0.00000000000E+00  0.00000000000E+00  0.19467848255E+04  0.19467848255E+04  0.50400001928E-02 0.  1.
        1   -1    0    0  501    0  0.00000000000E+00  0.00000000000E+00 -0.17590645817E+04  0.17590645817E+04  0.50400001928E-02 0. -1.
    10030    2    1    2    0    0  0.00000000000E+00  0.00000000000E+00  0.18772024387E+03  0.37058494072E+04  0.37010918577E+04 0.  0.
        4    1    3    3  502    0  0.16283699706E+03  0.17170704622E+03 -0.17438517931E+04  0.17598351873E+04  0.12699999809E+01 0. -1.
       -4    1    3    3    0  502 -0.16283699706E+03 -0.17170704622E+03  0.19315720369E+04  0.19460142199E+04  0.12699999809E+01 0.  1.
</event>
<event>
 5   0  0.5714125E-09  0.3700059E+04  0.7818609E-02  0.8067949E-01
       -1   -1    0    0    0  501  0.00000000000E+00  0.00000000000E+00  0.10139327623E+04  0.10139327623E+04  0.50400001928E-02 0.  1.
        1   -1    0    0  501    0  0.00000000000E+00  0.00000000000E+00 -0.33755787198E+04  0.33755787198E+04  0.50400001928E-02 0. -1.
    10030    2    1    2    0    0  0.00000000000E+00  0.00000000000E+00 -0.23616459575E+04  0.43895114822E+04  0.37000593811E+04 0.  0.
        4    1    3    3  502    0 -0.17644088866E+04 -0.55312986015E+03 -0.11104693707E+04  0.21569040770E+04  0.12699999809E+01 0.  1.
       -4    1    3    3    0  502  0.17644088866E+04  0.55312986015E+03 -0.12511765868E+04  0.22326074052E+04  0.12699999809E+01 0. -1.
</event>
<event>
 5   0  0.5714125E-09  0.3700293E+04  0.7818609E-02  0.8067897E-01
       -1   -1    0    0    0  501  0.00000000000E+00  0.00000000000E+00  0.31594120011E+04  0.31594120011E+04  0.50400001928E-02 0.  1.
        1   -1    0    0  501    0  0.00000000000E+00  0.00000000000E+00 -0.10834428098E+04  0.10834428098E+04  0.50400001928E-02 0. -1.
    10030    2    1    2    0    0  0.00000000000E+00  0.00000000000E+00  0.20759691913E+04  0.42428548109E+04  0.37002930780E+04 0.  0.
        1    1    3    3  502    0  0.10421046285E+04  0.38105657904E+03 -0.65958684743E+03  0.12908295714E+04  0.50400001928E-02 0. -1.
       -1    1    3    3    0  502 -0.10421046285E+04 -0.38105657904E+03  0.27355560387E+04  0.29520252394E+04  0.50400001928E-02 0.  1.
</event>
<event>
 5   0  0.1740290E-08  0.3717422E+04  0.7818609E-02  0.8064112E-01
        2   -1    0    0  501    0  0.00000000000E+00  0.00000000000E+00  0.26885385812E+04  0.26885385812E+04  0.25500000920E-02 0. -1.
       -2   -1    0    0    0  501  0.00000000000E+00  0.00000000000E+00 -0.12850126921E+04  0.12850126921E+04  0.25500000920E-02 0.  1.
    10030    2    1    2    0    0  0.00000000000E+00  0.00000000000E+00  0.14035258892E+04  0.39735512733E+04  0.37174217947E+04 0.  0.
        5    1    3    3  502    0  0.11427578959E+02 -0.13686093999E+04  0.20460130159E+04  0.24615876239E+04  0.46999998093E+01 0. -1.
       -5    1    3    3    0  502 -0.11427578959E+02  0.13686093999E+04 -0.64248712667E+03  0.15119636494E+04  0.46999998093E+01 0.  1.
</event>
<event>
 5   0  0.5714125E-09  0.3700363E+04  0.7818609E-02  0.8067881E-01
       -1   -1    0    0    0  501  0.00000000000E+00  0.00000000000E+00  0.19056573223E+04  0.19056573223E+04  0.50400001928E-02 0.  1.
        1   -1    0    0  501    0  0.00000000000E+00  0.00000000000E+00 -0.17963204442E+04  0.17963204442E+04  0.50400001928E-02 0. -1.
    10030    2    1    2    0    0  0.00000000000E+00  0.00000000000E+00  0.10933687808E+03  0.37019777664E+04  0.37003627971E+04 0.  0.
        1    1    3    3  502    0 -0.17439034956E+03  0.18349815698E+04 -0.10540718092E+03  0.18462610945E+04  0.50400001928E-02 0.  1.
       -1    1    3    3    0  502  0.17439034956E+03 -0.18349815698E+04  0.21474405900E+03  0.18557166719E+04  0.50400001928E-02 0. -1.
</event>
<event>
 5   0  0.1740290E-08  0.3699548E+04  0.7818609E-02  0.8068062E-01
       -2   -1    0    0    0  501  0.00000000000E+00  0.00000000000E+00  0.21535474099E+04  0.21535474099E+04  0.25500000920E-02 0. -1.
        2   -1    0    0  501    0  0.00000000000E+00  0.00000000000E+00 -0.15888503222E+04  0.15888503222E+04  0.25500000920E-02 0.  1.
    10030    2    1    2    0    0  0.00000000000E+00  0.00000000000E+00  0.56469708770E+03  0.37423977322E+04  0.36995483488E+04 0.  0.
        5    1    3    3  502    0 -0.14741627733E+04  0.11129603515E+04  0.18217747514E+03  0.18560838744E+04  0.46999998093E+01 0. -1.
       -5    1    3    3    0  502  0.14741627733E+04 -0.11129603515E+04  0.38251961256E+03  0.18863138578E+04  0.46999998093E+01 0.  1.
</event>
<event>
 5   0  0.1725865E-08  0.3704088E+04  0.7818609E-02  0.8067056E-01
        2   -1    0    0  501    0  0.00000000000E+00  0.00000000000E+00  0.19081899212E+04  0.19081899212E+04  0.25500000920E-02 0.  1.
       -2   -1    0    0    0  501  0.00000000000E+00  0.00000000000E+00 -0.17975504900E+04  0.17975504900E+04  0.25500000920E-02 0. -1.
    10030    2    1    2    0    0  0.00000000000E+00  0.00000000000E+00  0.11063943112E+03  0.37057404112E+04  0.37040884049E+04 0.  0.
        1    1    3    3  502    0  0.62838941308E+03  0.99538695689E+03 -0.13751428919E+04  0.18101619877E+04  0.50400001928E-02 0. -1.
       -1    1    3    3    0  502 -0.62838941308E+03 -0.99538695689E+03  0.14857823230E+04  0.18955784235E+04  0.50400001928E-02 0.  1.
</event>
<event>
 5   0  0.1825308E-08  0.3700625E+04  0.7818609E-02  0.8067823E-01
        2   -1    0    0  501    0  0.00000000000E+00  0.00000000000E+00  0.27986483135E+04  0.27986483135E+04  0.25500000920E-02 0. -1.
       -2   -1    0    0    0  501  0.00000000000E+00  0.00000000000E+00 -0.12233247393E+04  0.12233247393E+04  0.25500000920E-02 0.  1.
    10030    2    1    2    0    0  0.00000000000E+00  0.00000000000E+00  0.15753235741E+04  0.40219730528E+04  0.37006246600E+04 0.  0.
        4    1    3    3  502    0 -0.96355301503E+03 -0.14201471436E+04  0.15393894166E+04  0.23054226752E+04  0.12699999809E+01 0. -1.
       -4    1    3    3    0  502  0.96355301503E+03  0.14201471436E+04  0.35934157490E+02  0.17165503776E+04  0.12699999809E+01 0.  1.
</event>
<event>
 5   0  0.1740290E-08  0.3700370E+04  0.7818609E-02  0.8067880E-01
       -2   -1    0    0    0  501  0.00000000000E+00  0.00000000000E+00  0.32038236061E+04  0.32038236061E+04  0.25500000920E-02 0. -1.
        2   -1    0    0  501    0  0.00000000000E+00  0.00000000000E+00 -0.10684687633E+04  0.10684687633E+04  0.25500000920E-02 0.  1.
    10030    2    1    2    0    0  0.00000000000E+00  0.00000000000E+00  0.21353548428E+04  0.42722923695E+04  0.37003704930E+04 0.  0.
        5    1    3    3  502    0  0.15415456105E+04  0.68394932710E+03  0.18914010019E+03  0.16970402526E+04  0.46999998093E+01 0.  1.
       -5    1    3    3    0  502 -0.15415456105E+04 -0.68394932710E+03  0.19462147426E+04  0.25752521169E+04  0.46999998093E+01 0. -1.
</event>
<event>
 5   0  0.5714125E-09  0.3695925E+04  0.7818609E-02  0.8068865E-01
        1   -1    0    0  501    0  0.00000000000E+00  0.00000000000E+00  0.20573379925E+04  0.20573379926E+04  0.50400001928E-02 0.  1.
       -1   -1    0    0    0  501  0.00000000000E+00  0.00000000000E+00 -0.16598952222E+04  0.16598952222E+04  0.50400001928E-02 0. -1.
    10030    2    1    2    0    0  0.00000000000E+00  0.00000000000E+00  0.39744277032E+03  0.37172332148E+04  0.36959250557E+04 0.  0.
        4    1    3    3  502    0  0.39361800134E+03 -0.71434801609E+03  0.18665143086E+04  0.20369353196E+04  0.12699999809E+01 0.  1.
       -4    1    3    3    0  502 -0.39361800134E+03  0.71434801609E+03 -0.14690715383E+04  0.16802978952E+04  0.12699999809E+01 0. -1.
</event>
<event>
 5   0  0.1725865E-08  0.3700304E+04  0.7818609E-02  0.8067894E-01
        2   -1    0    0  501    0  0.00000000000E+00  0.00000000000E+00  0.15714616831E+04  0.15714616831E+04  0.25500000920E-02 0.  1.
       -2   -1    0    0    0  501  0.00000000000E+00  0.00000000000E+00 -0.21782667992E+04  0.21782667992E+04  0.25500000920E-02 0. -1.
    10030    2    1    2    0    0  0.00000000000E+00  0.00000000000E+00 -0.60680511609E+03  0.37497284823E+04  0.37003042093E+04 0.  0.
        1    1    3    3  502    0 -0.90311138050E+02 -0.18352267387E+04 -0.84063994847E+02  0.18393694679E+04  0.50400001928E-02 0. -1.
       -1    1    3    3    0  502  0.90311138050E+02  0.18352267387E+04 -0.52274112124E+03  0.19103590144E+04  0.50400001928E-02 0.  1.
</event>
<event>
 5   0  0.5714125E-09  0.3699428E+04  0.7818609E-02  0.8068089E-01
        1   -1    0    0  501    0  0.00000000000E+00  0.00000000000E+00  0.13836976766E+04  0.13836976767E+04  0.50400001928E-02 0.  1.
       -1   -1    0    0    0  501  0.00000000000E+00  0.00000000000E+00 -0.24726804768E+04  0.24726804769E+04  0.50400001928E-02 0. -1.
    10030    2    1    2    0    0  0.00000000000E+00  0.00000000000E+00 -0.10889828002E+04  0.38563781535E+04  0.36994281887E+04 0.  0.
        4    1    3    3  502    0  0.14228516557E+04  0.11797319310E+04 -0.61941818987E+03  0.19493472677E+04  0.12699999809E+01 0.  1.
       -4    1    3    3    0  502 -0.14228516557E+04 -0.11797319310E+04 -0.46956461034E+03  0.19070308858E+04  0.12699999809E+01 0. -1.
</event>
<event>
 5   0  0.5714125E-09  0.3699673E+04  0.7818609E-02  0.8068034E-01
       -1   -1    0    0    0  501  0.00000000000E+00  0.00000000000E+00  0.17999996885E+04  0.17999996885E+04  0.50400001928E-02 0.  1.
        1   -1    0    0  501    0  0.00000000000E+00  0.00000000000E+00 -0.19010529300E+04  0.19010529300E+04  0.50400001928E-02 0. -1.
    10030    2    1    2    0    0  0.00000000000E+00  0.00000000000E+00 -0.10105324151E+03  0.37010526185E+04  0.36996727866E+04 0.  0.
        2    1    3    3  502    0  0.17087706025E+03  0.12593671767E+04 -0.13951596287E+04  0.18872400602E+04  0.25500000920E-02 0. -1.
       -2    1    3    3    0  502 -0.17087706025E+03 -0.12593671767E+04  0.12941063872E+04  0.18138125583E+04  0.25500000920E-02 0.  1.
</event>
<event>
 5   0  0.5714125E-09  0.3700251E+04  0.7818609E-02  0.8067906E-01
       -1   -1    0    0    0  501  0.00000000000E+00  0.00000000000E+00  0.25704507123E+04  0.25704507123E+04  0.50400001928E-02 0.  1.
        1   -1    0    0  501    0  0.00000000000E+00  0.00000000000E+00 -0.13316589139E+04  0.13316589140E+04  0.50400001928E-02 0. -1.
    10030    2    1    2    0    0  0.00000000000E+00  0.00000000000E+00  0.12387917984E+04  0.39021096263E+04  0.37002505882E+04 0.  0.
        2    1    3    3  502    0  0.89351056472E+03  0.12628403685E+04  0.16895652473E+04  0.22907984745E+04  0.25500000920E-02 0.  1.
       -2    1    3    3    0  502 -0.89351056472E+03 -0.12628403685E+04 -0.45077344896E+03  0.16113111518E+04  0.25500000920E-02 0. -1.
</event>
<event>
 5   0  0.5714125E-09  0.3699686E+04  0.7818609E-02  0.8068031E-01
       -1   -1    0    0    0  501  0.00000000000E+00  0.00000000000E+00  0.21805614689E+04  0.21805614689E+04  0.50400001928E-02 0.  1.
        1   -1    0    0  501    0  0.00000000000E+00  0.00000000000E+00 -0.15692835108E+04  0.15692835108E+04  0.50400001928E-02 0. -1.
    10030    2    1    2    0    0  0.00000000000E+00  0.00000000000E+00  0.61127795814E+03  0.37498449797E+04  0.36996860178E+04 0.  0.
        1    1    3    3  502    0 -0.12541543321E+04 -0.99104379649E+03  0.12493086285E+04  0.20287540375E+04  0.50400001928E-02 0.  1.
       -1    1    3    3    0  502  0.12541543321E+04  0.99104379649E+03 -0.63803067041E+03  0.17210909423E+04  0.50400001928E-02 0. -1.
</event>
<event>
 5   0  0.5714125E-09  0.3699849E+04  0.7818609E-02  0.8067995E-01
       -1   -1    0    0    0  501  0.00000000000E+00  0.00000000000E+00  0.20300195543E+04  0.20300195543E+04  0.50400001928E-02 0.  1.
        1   -1    0    0  501    0  0.00000000000E+00  0.00000000000E+00 -0.16858068146E+04  0.16858068146E+04  0.50400001928E-02 0. -1.
    10030    2    1    2    0    0  0.00000000000E+00  0.00000000000E+00  0.34421273975E+03  0.37158263689E+04  0.36998490772E+04 0.  0.
        4    1    3    3  502    0  0.52320058456E+03 -0.13774506209E+04 -0.95125418997E+03  0.17538515363E+04  0.12699999809E+01 0. -1.
       -4    1    3    3    0  502 -0.52320058456E+03  0.13774506209E+04  0.12954669297E+04  0.19619748326E+04  0.12699999809E+01 0.  1.
</event>
<event>
 5   0  0.1825308E-08  0.3700536E+04  0.7818609E-02  0.8067843E-01
        2   -1    0    0  501    0  0.00000000000E+00  0.00000000000E+00  0.15703420503E+04  0.15703420503E+04  0.25500000920E-02 0. -1.
       -2   -1    0    0    0  501  0.00000000000E+00  0.00000000000E+00 -0.21800933435E+04  0.21800933435E+04  0.25500000920E-02 0.  1.
    10030    2    1    2    0    0  0.00000000000E+00  0.00000000000E+00 -0.60975129324E+03  0.37504353938E+04  0.37005363130E+04 0.  0.
        4    1    3    3  502    0 -0.63401900965E+03 -0.70421903378E+03  0.13057629660E+04  0.16133577063E+04  0.12699999809E+01 0. -1.
       -4    1    3    3    0  502  0.63401900965E+03  0.70421903378E+03 -0.19155142593E+04  0.21370776875E+04  0.12699999809E+01 0.  1.
</event>
<event>
 5   0  0.1825308E-08  0.3690492E+04  0.7818609E-02  0.8070072E-01
       -2   -1    0    0    0  501  0.00000000000E+00  0.00000000000E+00  0.19790054339E+04  0.19790054339E+04  0.25500000920E-02 0.  1.
        2   -1    0    0  501    0  0.00000000000E+00  0.00000000000E+00 -0.17205273670E+04  0.17205273670E+04  0.25500000920E-02 0. -1.
    10030    2    1    2    0    0  0.00000000000E+00  0.00000000000E+00  0.25847806698E+03  0.36995328009E+04  0.36904921127E+04 0.  0.
        4    1    3    3  502    0 -0.76128584350E+03 -0.13901145109E+04  0.10765179057E+04  0.19159506526E+04  0.12699999809E+01 0.  1.
       -4    1    3    3    0  502  0.76128584350E+03  0.13901145109E+04 -0.81803983876E+03  0.17835821483E+04  0.12699999809E+01 0. -1.
</event>
<event>
 5   0  0.5714125E-09  0.3700017E+04  0.7818609E-02  0.8067958E-01
        1   -1    0    0  501    0  0.00000000000E+00  0.00000000000E+00  0.18545573040E+04  0.18545573040E+04  0.50400001928E-02 0. -1.
       -1   -1    0    0    0  501  0.00000000000E+00  0.00000000000E+00 -0.18454704996E+04  0.18454704996E+04  0.50400001928E-02 0.  1.
    10030    2    1    2    0    0  0.00000000000E+00  0.00000000000E+00  0.90868043531E+01  0.37000278036E+04  0.37000166455E+04 0.  0.
        5    1    3    3  502    0  0.96292732849E+03  0.46684549509E+03 -0.15045452909E+04  0.18463077692E+04  0.46999998093E+01 0. -1.
       -5    1    3    3    0  502 -0.96292732849E+03 -0.46684549509E+03  0.15136320952E+04  0.18537200344E+04  0.46999998093E+01 0.  1.
</event>
<event>
 5   0  0.1856107E-08  0.3699362E+04  0.7818609E-02  0.8068103E-01
       -2   -1    0    0    0  501  0.00000000000E+00  0.00000000000E+00  0.20978281708E+04  0.20978281708E+04  0.25500000920E-02 0. -1.
        2   -1    0    0  501    0  0.00000000000E+00  0.00000000000E+00 -0.16308861855E+04  0.16308861855E+04  0.25500000920E-02 0.  1.
    10030    2    1    2    0    0  0.00000000000E+00  0.00000000000E+00  0.46694198530E+03  0.37287143564E+04  0.36993615576E+04 0.  0.
        2    1    3    3  502    0 -0.65299024120E+03 -0.16295835819E+04  0.82065674369E+03  0.19378896760E+04  0.25500000920E-02 0. -1.
       -2    1    3    3    0  502  0.65299024120E+03  0.16295835819E+04 -0.35371475839E+03  0.17908246804E+04  0.25500000920E-02 0.  1.
</event>
<event>
 5   0  0.5714125E-09  0.3698426E+04  0.7818609E-02  0.8068311E-01
        1   -1    0    0  501    0  0.00000000000E+00  0.00000000000E+00  0.27736466933E+04  0.27736466933E+04  0.50400001928E-02 0. -1.
       -1   -1    0    0    0  501  0.00000000000E+00  0.00000000000E+00 -0.12328854807E+04  0.12328854807E+04  0.50400001928E-02 0.  1.
    10030    2    1    2    0    0  0.00000000000E+00  0.00000000000E+00  0.15407612126E+04  0.40065321740E+04  0.36984260094E+04 0.  0.
        5    1    3    3  502    0  0.12414734484E+04 -0.40272702741E+03  0.21895220608E+04  0.25490143834E+04  0.46999998093E+01 0. -1.
       -5    1    3    3    0  502 -0.12414734484E+04  0.40272702741E+03 -0.64876084824E+03  0.14575177906E+04  0.46999998093E+01 0.  1.
</event>
<event>
 5   0  0.1725865E-08  0.3688558E+04  0.7818609E-02  0.8070502E-01
       -2   -1    0    0    0  501  0.00000000000E+00  0.00000000000E+00  0.27554642642E+04  0.27554642642E+04  0.25500000920E-02 0.  1.
        2   -1    0    0  501    0  0.00000000000E+00  0.00000000000E+00 -0.12344073638E+04  0.12344073638E+04  0.25500000920E-02 0. -1.
    10030    2    1    2    0    0  0.00000000000E+00  0.00000000000E+00  0.15210569004E+04  0.39898716279E+04  0.36885581889E+04 0.  0.
        1    1    3    3  502    0 -0.17659616748E+04 -0.89009394591E+02  0.13275872393E+04  0.22111153718E+04  0.50400001928E-02 0.  1.
       -1    1    3    3    0  502  0.17659616748E+04  0.89009394591E+02  0.19346966109E+03  0.17787562562E+04  0.50400001928E-02 0. -1.
</event>
<event>
 5   0  0.1825308E-08  0.3699372E+04  0.7818609E-02  0.8068101E-01
       -2   -1    0    0    0  501  0.00000000000E+00  0.00000000000E+00  0.14378439019E+04  0.14378439019E+04  0.25500000920E-02 0.  1.
        2   -1    0    0  501    0  0.00000000000E+00  0.00000000000E+00 -0.23794924448E+04  0.23794924448E+04  0.25500000920E-02 0. -1.
    10030    2    1    2    0    0  0.00000000000E+00  0.00000000000E+00 -0.94164854290E+03  0.38173363466E+04  0.36993722177E+04 0.  0.
        4    1    3    3  502    0  0.81532969179E+03 -0.11147528547E+04 -0.17404657004E+04  0.22218593341E+04  0.12699999809E+01 0. -1.
       -4    1    3    3    0  502 -0.81532969179E+03  0.11147528547E+04  0.79881715747E+03  0.15954770125E+04  0.12699999809E+01 0.  1.
</event>
<event>
 5   0  0.5714125E-09  0.3699500E+04  0.7818609E-02  0.8068073E-01
        1   -1    0    0  501    0  0.00000000000E+00  0.00000000000E+00  0.30084322389E+04  0.30084322389E+04  0.50400001928E-02 0. -1.
       -1   -1    0    0    0  501  0.00000000000E+00  0.00000000000E+00 -0.11373285646E+04  0.11373285646E+04  0.50400001928E-02 0.  1.
    10030    2    1    2    0    0  0.00000000000E+00  0.00000000000E+00  0.18711036744E+04  0.41457608035E+04  0.36995004635E+04 0.  0.
        5    1    3    3  502    0 -0.14234104889E+04 -0.77770935749E+03 -0.60877044428E+02  0.16231627673E+04  0.46999998093E+01 0.  1.
       -5    1    3    3    0  502  0.14234104889E+04  0.77770935749E+03  0.19319807188E+04  0.25225980362E+04  0.46999998093E+01 0. -1.
</event>
<event>
 5   0  0.1825308E-08  0.3708560E+04  0.7818609E-02  0.8066067E-01
       -2   -1    0    0    0  501  0.00000000000E+00  0.00000000000E+00  0.13498078572E+04  0.13498078572E+04  0.25500000920E-02 0.  1.
        2   -1    0    0  501    0  0.00000000000E+00  0.00000000000E+00 -0.25472918851E+04  0.25472918851E+04  0.25500000920E-02 0. -1.
    10030    2    1    2    0    0  0.00000000000E+00  0.00000000000E+00 -0.11974840279E+04  0.38970997423E+04  0.37085601525E+04 0.  0.
        4    1    3    3  502    0 -0.64543896290E+03  0.15164458372E+04 -0.14917410102E+04  0.22229467575E+04  0.12699999809E+01 0. -1.
       -4    1    3    3    0  502  0.64543896290E+03 -0.15164458372E+04  0.29425698229E+03  0.16741529848E+04  0.12699999809E+01 0.  1.
</event>
<event>
 5   0  0.1740290E-08  0.3698517E+04  0.7818609E-02  0.8068291E-01
        2   -1    0    0  501    0  0.00000000000E+00  0.00000000000E+00  0.23216461695E+04  0.23216461695E+04  0.25500000920E-02 0. -1.
       -2   -1    0    0    0  501  0.00000000000E+00  0.00000000000E+00 -0.14729876790E+04  0.14729876790E+04  0.25500000920E-02 0.  1.
    10030    2    1    2    0    0  0.00000000000E+00  0.00000000000E+00  0.84865849050E+03  0.37946338484E+04  0.36985165689E+04 0.  0.
        5    1    3    3  502    0 -0.38140432394E+03  0.88258605845E+03  0.20450353738E+04  0.22597829938E+04  0.46999998093E+01 0. -1.
       -5    1    3    3    0  502  0.38140432394E+03 -0.88258605845E+03 -0.11963768833E+04  0.15348508546E+04  0.46999998093E+01 0.  1.
</event>
<event>
 5   0  0.1725865E-08  0.3701081E+04  0.7818609E-02  0.8067722E-01
        2   -1    0    0  501    0  0.00000000000E+00  0.00000000000E+00  0.24629403769E+04  0.24629403769E+04  0.25500000920E-02 0.  1.
       -2   -1    0    0    0  501  0.00000000000E+00  0.00000000000E+00 -0.13904114025E+04  0.13904114025E+04  0.25500000920E-02 0. -1.
    10030    2    1    2    0    0  0.00000000000E+00  0.00000000000E+00  0.10725289744E+04  0.38533517795E+04  0.37010811306E+04 0.  0.
        1    1    3    3  502    0 -0.17055782644E+04  0.10236326619E+03 -0.20362432657E+03  0.17207377258E+04  0.50400001928E-02 0. -1.
       -1    1    3    3    0  502  0.17055782644E+04 -0.10236326619E+03  0.12761533010E+04  0.21326140537E+04  0.50400001928E-02 0.  1.
</event>
<event>
 5   0  0.5714125E-09  0.3697104E+04  0.7818609E-02  0.8068604E-01
        1   -1    0    0  501    0  0.00000000000E+00  0.00000000000E+00  0.13312163112E+04  0.13312163112E+04  0.50400001928E-02 0.  1.
       -1   -1    0    0    0  501  0.00000000000E+00  0.00000000000E+00 -0.25669343157E+04  0.25669343157E+04  0.50400001928E-02 0. -1.
    10030    2    1    2    0    0  0.00000000000E+00  0.00000000000E+00 -0.12357180045E+04  0.38981506269E+04  0.36971041808E+04 0.  0.
        4    1    3    3  502    0 -0.75180604076E+03 -0.12989771245E+04 -0.17557045912E+04  0.23097736074E+04  0.12699999809E+01 0. -1.
       -4    1    3    3    0  502  0.75180604076E+03  0.12989771245E+04  0.51998658669E+03  0.15883770195E+04  0.12699999809E+01 0.  1.
</event>
<event>
 5   0  0.1725865E-08  0.3700996E+04  0.7818609E-02  0.8067741E-01
        2   -1    0    0  501    0  0.00000000000E+00  0.00000000000E+00  0.21344437124E+04  0.21344437124E+04  0.25500000920E-02 0. -1.
       -2   -1    0    0    0  501  0.00000000000E+00  0.00000000000E+00 -0.16043259286E+04  0.16043259286E+04  0.25500000920E-02 0.  1.
    10030    2    1    2    0    0  0.00000000000E+00  0.00000000000E+00  0.53011778377E+03  0.37387696410E+04  0.37009962934E+04 0.  0.
        1    1    3    3  502    0  0.27071626640E+03  0.36433470183E+03  0.20773352340E+04  0.21263463374E+04  0.50400001928E-02 0. -1.
       -1    1    3    3    0  502 -0.27071626640E+03 -0.36433470183E+03 -0.15472174502E+04  0.16124233037E+04  0.50400001928E-02 0.  1.
</event>
<event>
 5   0  0.5714125E-09  0.3701946E+04  0.7818609E-02  0.8067531E-01
       -1   -1    0    0    0  501  0.00000000000E+00  0.00000000000E+00  0.18526937711E+04  0.18526937711E+04  0.50400001928E-02 0. -1.
        1   -1    0    0  501    0  0.00000000000E+00  0.00000000000E+00 -0.18492534880E+04  0.18492534880E+04  0.50400001928E-02 0.  1.
    10030    2    1    2    0    0  0.00000000000E+00  0.00000000000E+00  0.34402831060E+01  0.37019472590E+04  0.37019456605E+04 0.  0.
        2    1    3    3  502    0  0.93817712667E+03  0.13955969983E+04 -0.77173550178E+03  0.18502548439E+04  0.25500000920E-02 0.  1.
       -2    1    3    3    0  502 -0.93817712667E+03 -0.13955969983E+04  0.77517578489E+03  0.18516924151E+04  0.25500000920E-02 0. -1.
</event>
<event>
 5   0  0.1757996E-08  0.3694581E+04  0.7818609E-02  0.8069164E-01
        2   -1    0    0  501    0  0.00000000000E+00  0.00000000000E+00  0.16255663884E+04  0.16255663884E+04  0.25500000920E-02 0.  1.
       -2   -1    0    0    0  501  0.00000000000E+00  0.00000000000E+00 -0.20992578667E+04  0.20992578667E+04  0.25500000920E-02 0. -1.
    10030    2    1    2    0    0  0.00000000000E+00  0.00000000000E+00 -0.47369147830E+03  0.37248242550E+04  0.36945814532E+04 0.  0.
        3    1    3    3  502    0  0.10925178784E+04 -0.94057796894E+03  0.92768548420E+03  0.17143169480E+04  0.10100000352E+00 0.  1.
       -3    1    3    3    0  502 -0.10925178784E+04  0.94057796894E+03 -0.14013769625E+04  0.20105073070E+04  0.10100000352E+00 0. -1.
</event>
<event>
 5   0  0.5714125E-09  0.3699393E+04  0.7818609E-02  0.8068096E-01
       -1   -1    0    0    0  501  0.00000000000E+00  0.00000000000E+00  0.14725958323E+04  0.14725958323E+04  0.50400001928E-02 0. -1.
        1   -1    0    0  501    0  0.00000000000E+00  0.00000000000E+00 -0.23233648662E+04  0.23233648662E+04  0.50400001928E-02 0.  1.
    10030    2    1    2    0    0  0.00000000000E+00  0.00000000000E+00 -0.85076903390E+03  0.37959606986E+04  0.36993931497E+04 0.  0.
        4    1    3    3  502    0  0.50197187721E+03 -0.11304368978E+03 -0.22484507677E+04  0.23065747569E+04  0.12699999809E+01 0.  1.
       -4    1    3    3    0  502 -0.50197187721E+03  0.11304368978E+03  0.13976817338E+04  0.14893859417E+04  0.12699999809E+01 0. -1.
</event>
<event>
 5   0  0.5714125E-09  0.3698423E+04  0.7818609E-02  0.8068311E-01
        1   -1    0    0  501    0  0.00000000000E+00  0.00000000000E+00  0.20516063537E+04  0.20516063537E+04  0.50400001928E-02 0. -1.
       -1   -1    0    0    0  501  0.00000000000E+00  0.00000000000E+00 -0.16667833454E+04  0.16667833454E+04  0.50400001928E-02 0.  1.
    10030    2    1    2    0    0  0.00000000000E+00  0.00000000000E+00  0.38482300826E+03  0.37183896991E+04  0.36984230702E+04 0.  0.
        1    1    3    3  502    0  0.15113168165E+04 -0.84852277366E+03 -0.45567217380E+03  0.17921234744E+04  0.50400001928E-02 0.  1.
       -1    1    3    3    0  502 -0.15113168165E+04  0.84852277366E+03  0.84049518206E+03  0.19262662247E+04  0.50400001928E-02 0. -1.
</event>
<event>
 5   0  0.1725865E-08  0.3700629E+04  0.7818609E-02  0.8067822E-01
       -2   -1    0    0    0  501  0.00000000000E+00  0.00000000000E+00  0.97900059010E+03  0.97900059011E+03  0.25500000920E-02 0.  1.
        2   -1    0    0  501    0  0.00000000000E+00  0.00000000000E+00 -0.34971016520E+04  0.34971016520E+04  0.25500000920E-02 0. -1.
    10030    2    1    2    0    0  0.00000000000E+00  0.00000000000E+00 -0.25181010619E+04  0.44761022421E+04  0.37006294497E+04 0.  0.
        1    1    3    3  502    0 -0.15783995301E+04  0.13796209510E+03 -0.24149705603E+04  0.28883319449E+04  0.50400001928E-02 0.  1.
       -1    1    3    3    0  502  0.15783995301E+04 -0.13796209510E+03 -0.10313050155E+03  0.15877702972E+04  0.50400001928E-02 0. -1.
</event>
<event>
 5   0  0.1825308E-08  0.3698186E+04  0.7818609E-02  0.8068364E-01
       -2   -1    0    0    0  501  0.00000000000E+00  0.00000000000E+00  0.14162237062E+04  0.14162237062E+04  0.25500000920E-02 0.  1.
        2   -1    0    0  501    0  0.00000000000E+00  0.00000000000E+00 -0.24142692307E+04  0.24142692307E+04  0.25500000920E-02 0. -1.
    10030    2    1    2    0    0  0.00000000000E+00  0.00000000000E+00 -0.99804552452E+03  0.38304929369E+04  0.36981862136E+04 0.  0.
        4    1    3    3  502    0 -0.47346223112E+02  0.13439976404E+04  0.81546338748E+03  0.15727534681E+04  0.12699999809E+01 0.  1.
       -4    1    3    3    0  502  0.47346223112E+02 -0.13439976404E+04 -0.18135089120E+04  0.22577394688E+04  0.12699999809E+01 0. -1.
</event>
<event>
 5   0  0.5714125E-09  0.3698370E+04  0.7818609E-02  0.8068323E-01
        1   -1    0    0  501    0  0.00000000000E+00  0.00000000000E+00  0.20365510121E+04  0.20365510121E+04  0.50400001928E-02 0.  1.
       -1   -1    0    0    0  501  0.00000000000E+00  0.00000000000E+00 -0.16790570294E+04  0.16790570294E+04  0.50400001928E-02 0. -1.
    10030    2    1    2    0    0  0.00000000000E+00  0.00000000000E+00  0.35749398270E+03  0.37156080415E+04  0.36983700694E+04 0.  0.
        5    1    3    3  502    0 -0.51431493291E+03  0.50583867364E+03 -0.15318548035E+04  0.16932199630E+04  0.46999998093E+01 0. -1.
       -5    1    3    3    0  502  0.51431493291E+03 -0.50583867364E+03  0.18893487862E+04  0.20223880785E+04  0.46999998093E+01 0.  1.
</event>
<event>
 5   0  0.1725865E-08  0.3701519E+04  0.7818609E-02  0.8067625E-01
       -2   -1    0    0    0  501  0.00000000000E+00  0.00000000000E+00  0.20102880581E+04  0.20102880581E+04  0.25500000920E-02 0. -1.
        2   -1    0    0  501    0  0.00000000000E+00  0.00000000000E+00 -0.17038909567E+04  0.17038909567E+04  0.25500000920E-02 0.  1.
    10030    2    1    2    0    0  0.00000000000E+00  0.00000000000E+00  0.30639710143E+03  0.37141790148E+04  0.37015194948E+04 0.  0.
        1    1    3    3  502    0 -0.78739050384E+02  0.47523813574E+03 -0.16398826885E+04  0.17091712482E+04  0.50400001928E-02 0.  1.
       -1    1    3    3    0  502  0.78739050384E+02 -0.47523813574E+03  0.19462797899E+04  0.20050077666E+04  0.50400001928E-02 0. -1.
</event>
<event>
 5   0  0.1757996E-08  0.3700465E+04  0.7818609E-02  0.8067859E-01
       -2   -1    0    0    0  501  0.00000000000E+00  0.00000000000E+00  0.20053514344E+04  0.20053514344E+04  0.25500000920E-02 0.  1.
        2   -1    0    0  501    0  0.00000000000E+00  0.00000000000E+00 -0.17071121171E+04  0.17071121171E+04  0.25500000920E-02 0. -1.
    10030    2    1    2    0    0  0.00000000000E+00  0.00000000000E+00  0.29823931739E+03  0.37124635515E+04  0.37004646912E+04 0.  0.
        3    1    3    3  502    0  0.15664225001E+04 -0.61850535594E+03  0.91784922836E+03  0.19179873671E+04  0.10100000352E+00 0. -1.
       -3    1    3    3    0  502 -0.15664225001E+04  0.61850535594E+03 -0.61960991097E+03  0.17944761844E+04  0.10100000352E+00 0.  1.
</event>
<event>
 5   0  0.5714125E-09  0.3698751E+04  0.7818609E-02  0.8068239E-01
       -1   -1    0    0    0  501  0.00000000000E+00  0.00000000000E+00  0.20449290392E+04  0.20449290392E+04  0.50400001928E-02 0.  1.
        1   -1    0    0  501    0  0.00000000000E+00  0.00000000000E+00 -0.16725224683E+04  0.16725224683E+04  0.50400001928E-02 0. -1.
    10030    2    1    2    0    0  0.00000000000E+00  0.00000000000E+00  0.37240657084E+03  0.37174515075E+04  0.36987510131E+04 0.  0.
        1    1    3    3  502    0  0.28123790888E+03 -0.10965181143E+04 -0.12836348744E+04  0.17114804198E+04  0.50400001928E-02 0. -1.
       -1    1    3    3    0  502 -0.28123790888E+03  0.10965181143E+04  0.16560414453E+04  0.20059710877E+04  0.50400001928E-02 0.  1.
</event>
<event>
 5   0  0.5714125E-09  0.3699355E+04  0.7818609E-02  0.8068105E-01
        1   -1    0    0  501    0  0.00000000000E+00  0.00000000000E+00  0.29579410518E+04  0.29579410518E+04  0.50400001928E-02 0.  1.
       -1   -1    0    0    0  501  0.00000000000E+00  0.00000000000E+00 -0.11566515266E+04  0.11566515266E+04  0.50400001928E-02 0. -1.
    10030    2    1    2    0    0  0.00000000000E+00  0.00000000000E+00  0.18012895253E+04  0.41145925784E+04  0.36993550968E+04 0.  0.
        1    1    3    3  502    0 -0.13820250434E+03  0.68380435966E+02 -0.11494906412E+04  0.11597864245E+04  0.50400001928E-02 0. -1.
       -1    1    3    3    0  502  0.13820250434E+03 -0.68380435966E+02  0.29507801665E+04  0.29548061539E+04  0.50400001928E-02 0.  1.
</event>
<event>
 5   0  0.5714125E-09  0.3698843E+04  0.7818609E-02  0.8068218E-01
        1   -1    0    0  501    0  0.00000000000E+00  0.00000000000E+00  0.11873088983E+04  0.11873088983E+04  0.50400001928E-02 0. -1.
       -1   -1    0    0    0  501  0.00000000000E+00  0.00000000000E+00 -0.28807665242E+04  0.28807665242E+04  0.50400001928E-02 0.  1.
    10030    2    1    2    0    0  0.00000000000E+00  0.00000000000E+00 -0.16934576260E+04  0.40680754225E+04  0.36988429153E+04 0.  0.
        3    1    3    3  502    0  0.11760019523E+04 -0.14175845026E+04 -0.66324173242E+03  0.19576557459E+04  0.10100000352E+00 0.  1.
       -3    1    3    3    0  502 -0.11760019523E+04  0.14175845026E+04 -0.10302158935E+04  0.21104196766E+04  0.10100000352E+00 0. -1.
</event>
<event>
 5   0  0.5714125E-09  0.3699420E+04  0.7818609E-02  0.8068090E-01
        1   -1    0    0  501    0  0.00000000000E+00  0.00000000000E+00  0.26722471097E+04  0.26722471097E+04  0.50400001928E-02 0. -1.
       -1   -1    0    0    0  501  0.00000000000E+00  0.00000000000E+00 -0.12803560211E+04  0.12803560211E+04  0.50400001928E-02 0.  1.
    10030    2    1    2    0    0  0.00000000000E+00  0.00000000000E+00  0.13918910886E+04  0.39526031308E+04  0.36994203204E+04 0.  0.
        5    1    3    3  502    0 -0.12419381092E+04  0.12771784081E+04  0.12278204516E+04  0.21635988779E+04  0.46999998093E+01 0. -1.
       -5    1    3    3    0  502  0.12419381092E+04 -0.12771784081E+04  0.16407063698E+03  0.17890042529E+04  0.46999998093E+01 0.  1.
</event>
<event>
 5   0  0.5714125E-09  0.3699389E+04  0.7818609E-02  0.8068097E-01
        1   -1    0    0  501    0  0.00000000000E+00  0.00000000000E+00  0.27331739778E+04  0.27331739778E+04  0.50400001928E-02 0. -1.
       -1   -1    0    0    0  501  0.00000000000E+00  0.00000000000E+00 -0.12517938670E+04  0.12517938670E+04  0.50400001928E-02 0.  1.
    10030    2    1    2    0    0  0.00000000000E+00  0.00000000000E+00  0.14813801108E+04  0.39849678448E+04  0.36993893674E+04 0.  0.
        5    1    3    3  502    0  0.15270596096E+04 -0.15302269066E+03  0.18528768296E+04  0.24059305124E+04  0.46999998093E+01 0. -1.
       -5    1    3    3    0  502 -0.15270596096E+04  0.15302269066E+03 -0.37149671884E+03  0.15790373324E+04  0.46999998093E+01 0.  1.
</event>
<event>
 5   0  0.1825308E-08  0.3700442E+04  0.7818609E-02  0.8067864E-01
        2   -1    0    0  501    0  0.00000000000E+00  0.00000000000E+00  0.16459904777E+04  0.16459904777E+04  0.25500000920E-02 0.  1.
       -2   -1    0    0    0  501  0.00000000000E+00  0.00000000000E+00 -0.20797916219E+04  0.20797916219E+04  0.25500000920E-02 0. -1.
    10030    2    1    2    0    0  0.00000000000E+00  0.00000000000E+00 -0.43380114419E+03  0.37257820995E+04  0.37004417061E+04 0.  0.
        4    1    3    3  502    0  0.13714485253E+04 -0.83073284492E+03 -0.11464385298E+04  0.19711192335E+04  0.12699999809E+01 0. -1.
       -4    1    3    3    0  502 -0.13714485253E+04  0.83073284492E+03  0.71263738558E+03  0.17546628660E+04  0.12699999809E+01 0.  1.
</event>
<event>
 5   0  0.1725865E-08  0.3699342E+04  0.7818609E-02  0.8068108E-01
        2   -1    0    0  501    0  0.00000000000E+00  0.00000000000E+00  0.16695856420E+04  0.16695856420E+04  0.25500000920E-02 0. -1.
       -2   -1    0    0    0  501  0.00000000000E+00  0.00000000000E+00 -0.20491807415E+04  0.20491807415E+04  0.25500000920E-02 0.  1.
    10030    2    1    2    0    0  0.00000000000E+00  0.00000000000E+00 -0.37959509951E+03  0.37187663834E+04  0.36993419651E+04 0.  0.
        1    1    3    3  502    0  0.95012057606E+02 -0.18274843935E+04 -0.46057457570E+03  0.18870229038E+04  0.50400001928E-02 0. -1.
       -1    1    3    3    0  502 -0.95012057606E+02  0.18274843935E+04  0.80979476196E+02  0.18317434796E+04  0.50400001928E-02 0.  1.
</event>
<event>
 5   0  0.5714125E-09  0.3705682E+04  0.7818609E-02  0.8066704E-01
       -1   -1    0    0    0  501  0.00000000000E+00  0.00000000000E+00  0.29897756199E+04  0.29897756199E+04  0.50400001928E-02 0. -1.
        1   -1    0    0  501    0  0.00000000000E+00  0.00000000000E+00 -0.11482534290E+04  0.11482534290E+04  0.50400001928E-02 0.  1.
    10030    2    1    2    0    0  0.00000000000E+00  0.00000000000E+00  0.18415221909E+04  0.41380290490E+04  0.37056821815E+04 0.  0.
        2    1    3    3  502    0  0.23487355557E+03 -0.10465224620E+04 -0.76635348086E+03  0.13182080671E+04  0.25500000920E-02 0.  1.
       -2    1    3    3    0  502 -0.23487355557E+03  0.10465224620E+04  0.26078756717E+04  0.28198209819E+04  0.25500000920E-02 0. -1.
</event>
<event>
 5   0  0.1740290E-08  0.3699006E+04  0.7818609E-02  0.8068182E-01
       -2   -1    0    0    0  501  0.00000000000E+00  0.00000000000E+00  0.24320783657E+04  0.24320783657E+04  0.25500000920E-02 0.  1.
        2   -1    0    0  501    0  0.00000000000E+00  0.00000000000E+00 -0.14064768583E+04  0.14064768583E+04  0.25500000920E-02 0. -1.
    10030    2    1    2    0    0  0.00000000000E+00  0.00000000000E+00  0.10256015074E+04  0.38385552240E+04  0.36990063200E+04 0.  0.
        5    1    3    3  502    0 -0.43636780786E+03  0.85132115556E+03 -0.11297839733E+04  0.14804048399E+04  0.46999998093E+01 0. -1.
       -5    1    3    3    0  502  0.43636780786E+03 -0.85132115556E+03  0.21553854807E+04  0.23581503841E+04  0.46999998093E+01 0.  1.
</event>
<event>
 5   0  0.5714125E-09  0.3719566E+04  0.7818609E-02  0.8063640E-01
        1   -1    0    0  501    0  0.00000000000E+00  0.00000000000E+00  0.31593505986E+04  0.31593505986E+04  0.50400001928E-02 0. -1.
       -1   -1    0    0    0  501  0.00000000000E+00  0.00000000000E+00 -0.10947793993E+04  0.10947793993E+04  0.50400001928E-02 0.  1.
    10030    2    1    2    0    0  0.00000000000E+00  0.00000000000E+00  0.20645711993E+04  0.42541299979E+04  0.37195655394E+04 0.  0.
        2    1    3    3  502    0 -0.14103210733E+04  0.30008145472E+03  0.23757209816E+04  0.27790474252E+04  0.25500000920E-02 0. -1.
       -2    1    3    3    0  502  0.14103210733E+04 -0.30008145472E+03 -0.31114978230E+03  0.14750825727E+04  0.25500000920E-02 0.  1.
</event>
<event>
 5   0  0.1856107E-08  0.3700080E+04  0.7818609E-02  0.8067944E-01
        2   -1    0    0  501    0  0.00000000000E+00  0.00000000000E+00  0.20927467785E+04  0.20927467785E+04  0.25500000920E-02 0. -1.
       -2   -1    0    0    0  501  0.00000000000E+00  0.00000000000E+00 -0.16354811939E+04  0.16354811939E+04  0.25500000920E-02 0.  1.
    10030    2    1    2    0    0  0.00000000000E+00  0.00000000000E+00  0.45726558454E+03  0.37282279724E+04  0.37000799990E+04 0.  0.
        2    1    3    3  502    0  0.29623482064E+03  0.16744146679E+04 -0.50576609425E+03  0.17740402733E+04  0.25500000920E-02 0.  1.
       -2    1    3    3    0  502 -0.29623482064E+03 -0.16744146679E+04  0.96303167879E+03  0.19541876991E+04  0.25500000920E-02 0. -1.
</event>
<event>
 5   0  0.1757996E-08  0.3699495E+04  0.7818609E-02  0.8068074E-01
        2   -1    0    0  501    0  0.00000000000E+00  0.00000000000E+00  0.14126396260E+04  0.14126396260E+04  0.25500000920E-02 0. -1.
       -2   -1    0    0    0  501  0.00000000000E+00  0.00000000000E+00 -0.24221077010E+04  0.24221077010E+04  0.25500000920E-02 0.  1.
    10030    2    1    2    0    0  0.00000000000E+00  0.00000000000E+00 -0.10094680750E+04  0.38347473271E+04  0.36994947314E+04 0.  0.
        3    1    3    3  502    0 -0.71286404199E+03 -0.75227320507E+03 -0.20928962029E+04  0.23354452774E+04  0.10100000352E+00 0.  1.
       -3    1    3    3    0  502  0.71286404199E+03  0.75227320507E+03  0.10834281279E+04  0.14993020496E+04  0.10100000352E+00 0. -1.
</event>
<event>
 5   0  0.1725865E-08  0.3699189E+04  0.7818609E-02  0.8068142E-01
       -2   -1    0    0    0  501  0.00000000000E+00  0.00000000000E+00  0.16218229783E+04  0.16218229783E+04  0.25500000920E-02 0. -1.
        2   -1    0    0  501    0  0.00000000000E+00  0.00000000000E+00 -0.21093541221E+04  0.21093541221E+04  0.25500000920E-02 0.  1.
    10030    2    1    2    0    0  0.00000000000E+00  0.00000000000E+00 -0.48753114377E+03  0.37311771004E+04  0.36991885513E+04 0.  0.
        1    1    3    3  502    0  0.88821790576E+03  0.54839261352E+03 -0.17838395935E+04  0.20668210377E+04  0.50400001928E-02 0.  1.
       -1    1    3    3    0  502 -0.88821790576E+03 -0.54839261352E+03  0.12963084497E+04  0.16643560627E+04  0.50400001928E-02 0. -1.
</event>
<event>
 5   0  0.1825308E-08  0.3699915E+04  0.7818609E-02  0.8067981E-01
       -2   -1    0    0    0  501  0.00000000000E+00  0.00000000000E+00  0.24145087860E+04  0.24145087860E+04  0.25500000920E-02 0.  1.
        2   -1    0    0  501    0  0.00000000000E+00  0.00000000000E+00 -0.14174073327E+04  0.14174073327E+04  0.25500000920E-02 0. -1.
    10030    2    1    2    0    0  0.00000000000E+00  0.00000000000E+00  0.99710145329E+03  0.38319161187E+04  0.36999148413E+04 0.  0.
        4    1    3    3  502    0 -0.52866711964E+03 -0.80323486195E+03  0.21353349054E+04  0.23418650554E+04  0.12699999809E+01 0.  1.
       -4    1    3    3    0  502  0.52866711964E+03  0.80323486195E+03 -0.11382334521E+04  0.14900510633E+04  0.12699999809E+01 0. -1.
</event>
<event>
 5   0  0.5714125E-09  0.3700848E+04  0.7818609E-02  0.8067774E-01
       -1   -1    0    0    0  501  0.00000000000E+00  0.00000000000E+00  0.12550420022E+04  0.12550420022E+04  0.50400001928E-02 0.  1.
        1   -1    0    0  501    0  0.00000000000E+00  0.00000000000E+00 -0.27282505161E+04  0.27282505161E+04  0.50400001928E-02 0. -1.
    10030    2    1    2    0    0  0.00000000000E+00  0.00000000000E+00 -0.14732085139E+04  0.39832925183E+04  0.37008480057E+04 0.  0.
        5    1    3    3  502    0  0.21871619609E+03 -0.74643670979E+03  0.10705355516E+04  0.13232811467E+04  0.46999998093E+01 0.  1.
       -5    1    3    3    0  502 -0.21871619609E+03  0.74643670979E+03 -0.25437440655E+04  0.26600113716E+04  0.46999998093E+01 0. -1.
</event>
<event>
 5   0  0.5714125E-09  0.3705033E+04  0.7818609E-02  0.8066847E-01
        1   -1    0    0  501    0  0.00000000000E+00  0.00000000000E+00  0.16186278095E+04  0.16186278095E+04  0.50400001928E-02 0.  1.
       -1   -1    0    0    0  501  0.00000000000E+00  0.00000000000E+00 -0.21202015855E+04  0.21202015855E+04  0.50400001928E-02 0. -1.
    10030    2    1    2    0    0  0.00000000000E+00  0.00000000000E+00 -0.50157377595E+03  0.37388293950E+04  0.37050329273E+04 0.  0.
        4    1    3    3  502    0 -0.74276300154E+03  0.77287382423E+03  0.12738838441E+04  0.16648761173E+04  0.12699999809E+01 0.  1.
       -4    1    3    3    0  502  0.74276300154E+03 -0.77287382423E+03 -0.17754576201E+04  0.20739532777E+04  0.12699999809E+01 0. -1.
</event>
<event>
 5   0  0.5714125E-09  0.3700269E+04  0.7818609E-02  0.8067902E-01
       -3   -1    0    0    0  501  0.00000000000E+00  0.00000000000E+00  0.24268978238E+04  0.24268978259E+04  0.10100000352E+00 0.  1.
        3   -1    0    0  501    0  0.00000000000E+00  0.00000000000E+00 -0.14104413405E+04  0.14104413441E+04  0.10100000352E+00 0. -1.
    10030    2    1    2    0    0  0.00000000000E+00  0.00000000000E+00  0.10164564833E+04  0.38373391700E+04  0.37002686556E+04 0.  0.
        2    1    3    3  502    0  0.26039714589E+03  0.56032700399E+03 -0.13002826760E+04  0.14396208052E+04  0.25500000920E-02 0. -1.
       -2    1    3    3    0  502 -0.26039714589E+03 -0.56032700399E+03  0.23167391593E+04  0.23977183649E+04  0.25500000920E-02 0.  1.
</event>
<event>
 5   0  0.1757996E-08  0.3699666E+04  0.7818609E-02  0.8068036E-01
        2   -1    0    0  501    0  0.00000000000E+00  0.00000000000E+00  0.26095780972E+04  0.26095780972E+04  0.25500000920E-02 0. -1.
       -2   -1    0    0    0  501  0.00000000000E+00  0.00000000000E+00 -0.13112775951E+04  0.13112775951E+04  0.25500000920E-02 0.  1.
    10030    2    1    2    0    0  0.00000000000E+00  0.00000000000E+00  0.12983005021E+04  0.39208556922E+04  0.36996655478E+04 0.  0.
        3    1    3    3  502    0 -0.15313040891E+04  0.53161838696E+03 -0.29541088407E+03  0.16476583151E+04  0.10100000352E+00 0.  1.
       -3    1    3    3    0  502  0.15313040891E+04 -0.53161838696E+03  0.15937113861E+04  0.22731973771E+04  0.10100000352E+00 0. -1.
</event>
<event>
 5   0  0.1856107E-08  0.3697869E+04  0.7818609E-02  0.8068434E-01
       -2   -1    0    0    0  501  0.00000000000E+00  0.00000000000E+00  0.16802230904E+04  0.16802230904E+04  0.25500000920E-02 0. -1.
        2   -1    0    0  501    0  0.00000000000E+00  0.00000000000E+00 -0.20345858966E+04  0.20345858966E+04  0.25500000920E-02 0.  1.
    10030    2    1    2    0    0  0.00000000000E+00  0.00000000000E+00 -0.35436280618E+03  0.37148089870E+04  0.36978686850E+04 0.  0.
        2    1    3    3  502    0 -0.40172850776E+02  0.21398339230E+03 -0.20216632800E+04  0.20333531832E+04  0.25500000920E-02 0.  1.
       -2    1    3    3    0  502  0.40172850776E+02 -0.21398339230E+03  0.16673004738E+04  0.16814558038E+04  0.25500000920E-02 0. -1.
</event>
<event>
 5   0  0.1740290E-08  0.3699413E+04  0.7818609E-02  0.8068092E-01
        2   -1    0    0  501    0  0.00000000000E+00  0.00000000000E+00  0.19437606251E+04  0.19437606251E+04  0.25500000920E-02 0.  1.
       -2   -1    0    0    0  501  0.00000000000E+00  0.00000000000E+00 -0.17602035537E+04  0.17602035537E+04  0.25500000920E-02 0. -1.
    10030    2    1    2    0    0  0.00000000000E+00  0.00000000000E+00  0.18355707134E+03  0.37039641788E+04  0.36994131209E+04 0.  0.
        5    1    3    3  502    0  0.17325024052E+04  0.33161042387E+03  0.64911602157E+03  0.18796020208E+04  0.46999998093E+01 0. -1.
       -5    1    3    3    0  502 -0.17325024052E+04 -0.33161042387E+03 -0.46555895024E+03  0.18243621579E+04  0.46999998093E+01 0.  1.
</event>
<event>
 5   0  0.5714125E-09  0.3699073E+04  0.7818609E-02  0.8068167E-01
       -1   -1    0    0    0  501  0.00000000000E+00  0.00000000000E+00  0.21684513224E+04  0.21684513225E+04  0.50400001928E-02 0. -1.
        1   -1    0    0  501    0  0.00000000000E+00  0.00000000000E+00 -0.15775244437E+04  0.15775244437E+04  0.50400001928E-02 0.  1.
    10030    2    1    2    0    0  0.00000000000E+00  0.00000000000E+00  0.59092687874E+03  0.37459757662E+04  0.36990728385E+04 0.  0.
        4    1    3    3  502    0  0.66887165900E+03  0.93513920930E+02 -0.14481842414E+04  0.15979278331E+04  0.12699999809E+01 0.  1.
       -4    1    3    3    0  502 -0.66887165900E+03 -0.93513920930E+02  0.20391111202E+04  0.21480479331E+04  0.12699999809E+01 0. -1.
</event>
<event>
 5   0  0.5714125E-09  0.3698542E+04  0.7818609E-02  0.8068285E-01
        1   -1    0    0  501    0  0.00000000000E+00  0.00000000000E+00  0.28149294875E+04  0.28149294875E+04  0.50400001928E-02 0.  1.
       -1   -1    0    0    0  501  0.00000000000E+00  0.00000000000E+00 -0.12148803404E+04  0.12148803404E+04  0.50400001928E-02 0. -1.
    10030    2    1    2    0    0  0.00000000000E+00  0.00000000000E+00  0.16000491471E+04  0.40298098278E+04  0.36985416012E+04 0.  0.
        1    1    3    3  502    0 -0.11724477984E+04 -0.72986674108E+03  0.21399988187E+04  0.25469460622E+04  0.50400001928E-02 0.  1.
       -1    1    3    3    0  502  0.11724477984E+04  0.72986674108E+03 -0.53994967158E+03  0.14828637657E+04  0.50400001928E-02 0. -1.
</event>
<event>
 5   0  0.1856107E-08  0.3698989E+04  0.7818609E-02  0.8068186E-01
       -2   -1    0    0    0  501  0.00000000000E+00  0.00000000000E+00  0.29064466473E+04  0.29064466473E+04  0.25500000920E-02 0. -1.
        2   -1    0    0  501    0  0.00000000000E+00  0.00000000000E+00 -0.11769114486E+04  0.11769114486E+04  0.25500000920E-02 0.  1.
    10030    2    1    2    0    0  0.00000000000E+00  0.00000000000E+00  0.17295351987E+04  0.40833580959E+04  0.36989892317E+04 0.  0.
        2    1    3    3  502    0  0.12934839152E+04 -0.12406746060E+04  0.13685388605E+04  0.22550549283E+04  0.25500000920E-02 0.  1.
       -2    1    3    3    0  502 -0.12934839152E+04  0.12406746060E+04  0.36099633816E+03  0.18283031677E+04  0.25500000920E-02 0. -1.
</event>
<event>
 5   0  0.5714125E-09  0.3699184E+04  0.7818609E-02  0.8068143E-01
       -1   -1    0    0    0  501  0.00000000000E+00  0.00000000000E+00  0.15170051270E+04  0.15170051270E+04  0.50400001928E-02 0.  1.
        1   -1    0    0  501    0  0.00000000000E+00  0.00000000000E+00 -0.22550950291E+04  0.22550950292E+04  0.50400001928E-02 0. -1.
    10030    2    1    2    0    0  0.00000000000E+00  0.00000000000E+00 -0.73808990211E+03  0.37721001562E+04  0.36991840837E+04 0.  0.
        4    1    3    3  502    0  0.69239698871E+03  0.11379762387E+04  0.93944209670E+03  0.16300173544E+04  0.12699999809E+01 0.  1.
       -4    1    3    3    0  502 -0.69239698871E+03 -0.11379762387E+04 -0.16775319988E+04  0.21420828018E+04  0.12699999809E+01 0. -1.
</event>
<event>
 5   0  0.1825308E-08  0.3700454E+04  0.7818609E-02  0.8067861E-01
        2   -1    0    0  501    0  0.00000000000E+00  0.00000000000E+00  0.21020406663E+04  0.21020406663E+04  0.25500000920E-02 0. -1.
       -2   -1    0    0    0  501  0.00000000000E+00  0.00000000000E+00 -0.16285791895E+04  0.16285791895E+04  0.25500000920E-02 0.  1.
    10030    2    1    2    0    0  0.00000000000E+00  0.00000000000E+00  0.47346147675E+03  0.37306198558E+04  0.37004538558E+04 0.  0.
        4    1    3    3  502    0  0.56099895615E+03 -0.11330513508E+04  0.15985992333E+04  0.20381477655E+04  0.12699999809E+01 0. -1.
       -4    1    3    3    0  502 -0.56099895615E+03  0.11330513508E+04 -0.11251377566E+04  0.16924720903E+04  0.12699999809E+01 0.  1.
</event>
<event>
 5   0  0.5714125E-09  0.3699901E+04  0.7818609E-02  0.8067984E-01
       -1   -1    0    0    0  501  0.00000000000E+00  0.00000000000E+00  0.12337899214E+04  0.12337899215E+04  0.50400001928E-02 0. -1.
        1   -1    0    0  501    0  0.00000000000E+00  0.00000000000E+00 -0.27738243236E+04  0.27738243237E+04  0.50400001928E-02 0.  1.
    10030    2    1    2    0    0  0.00000000000E+00  0.00000000000E+00 -0.15400344022E+04  0.40076142451E+04  0.36999008065E+04 0.  0.
        5    1    3    3  502    0 -0.18484139059E+04  0.63286136302E+02 -0.72594807438E+03  0.19868723661E+04  0.46999998093E+01 0. -1.
       -5    1    3    3    0  502  0.18484139059E+04 -0.63286136302E+02 -0.81408632782E+03  0.20207418790E+04  0.46999998093E+01 0.  1.
</event>
<event>
 5   0  0.1757996E-08  0.3700450E+04  0.7818609E-02  0.8067862E-01
        2   -1    0    0  501    0  0.00000000000E+00  0.00000000000E+00  0.18909006469E+04  0.18909006469E+04  0.25500000920E-02 0.  1.
       -2   -1    0    0    0  501  0.00000000000E+00  0.00000000000E+00 -0.18104240165E+04  0.18104240165E+04  0.25500000920E-02 0. -1.
    10030    2    1    2    0    0  0.00000000000E+00  0.00000000000E+00  0.80476630358E+02  0.37013246634E+04  0.37004496721E+04 0.  0.
        3    1    3    3  502    0 -0.21442008683E+03  0.12628434952E+04 -0.12952111855E+04  0.18216261121E+04  0.10100000352E+00 0. -1.
       -3    1    3    3    0  502  0.21442008683E+03 -0.12628434952E+04  0.13756878158E+04  0.18796985513E+04  0.10100000352E+00 0.  1.
</event>
<event>
 5   0  0.1725865E-08  0.3698167E+04  0.7818609E-02  0.8068368E-01
        2   -1    0    0  501    0  0.00000000000E+00  0.00000000000E+00  0.13610181991E+04  0.13610181991E+04  0.25500000920E-02 0. -1.
       -2   -1    0    0    0  501  0.00000000000E+00  0.00000000000E+00 -0.25121710253E+04  0.25121710253E+04  0.25500000920E-02 0.  1.
    10030    2    1    2    0    0  0.00000000000E+00  0.00000000000E+00 -0.11511528262E+04  0.38731892244E+04  0.36981673757E+04 0.  0.
        1    1    3    3  502    0 -0.17015259747E+04  0.68870612194E+03 -0.80883587744E+03  0.20059217935E+04  0.50400001928E-02 0. -1.
       -1    1    3    3    0  502  0.17015259747E+04 -0.68870612194E+03 -0.34231694874E+03  0.18672674309E+04  0.50400001928E-02 0.  1.
</event>
<event>
 5   0  0.5714125E-09  0.3698188E+04  0.7818609E-02  0.8068363E-01
       -1   -1    0    0    0  501  0.00000000000E+00  0.00000000000E+00  0.18748640297E+04  0.18748640297E+04  0.50400001928E-02 0. -1.
        1   -1    0    0  501    0  0.00000000000E+00  0.00000000000E+00 -0.18236782896E+04  0.18236782896E+04  0.50400001928E-02 0.  1.
    10030    2    1    2    0    0  0.00000000000E+00  0.00000000000E+00  0.51185740075E+02  0.36985423193E+04  0.36981881115E+04 0.  0.
        3    1    3    3  502    0  0.24089204239E+03  0.10371977200E+04 -0.14862862671E+04  0.18283476050E+04  0.10100000352E+00 0.  1.
       -3    1    3    3    0  502 -0.24089204239E+03 -0.10371977200E+04  0.15374720072E+04  0.18701947144E+04  0.10100000352E+00 0. -1.
</event>
<event>
 5   0  0.5714125E-09  0.3700002E+04  0.7818609E-02  0.8067961E-01
        1   -1    0    0  501    0  0.00000000000E+00  0.00000000000E+00  0.16657056114E+04  0.16657056114E+04  0.50400001928E-02 0.  1.
       -1   -1    0    0    0  501  0.00000000000E+00  0.00000000000E+00 -0.20546869065E+04  0.20546869065E+04  0.50400001928E-02 0. -1.
    10030    2    1    2    0    0  0.00000000000E+00  0.00000000000E+00 -0.38898129509E+03  0.37203925179E+04  0.37000018972E+04 0.  0.
        4    1    3    3  502    0 -0.18242253332E+03  0.56743411686E+03  0.15665154829E+04  0.16760763195E+04  0.12699999809E+01 0.  1.
       -4    1    3    3    0  502  0.18242253332E+03 -0.56743411686E+03 -0.19554967780E+04  0.20443161984E+04  0.12699999809E+01 0. -1.
</event>
<event>
 5   0  0.5714125E-09  0.3702016E+04  0.7818609E-02  0.8067515E-01
        1   -1    0    0  501    0  0.00000000000E+00  0.00000000000E+00  0.35128201941E+04  0.35128201941E+04  0.50400001928E-02 0.  1.
       -1   -1    0    0    0  501  0.00000000000E+00  0.00000000000E+00 -0.97535035095E+03  0.97535035097E+03  0.50400001928E-02 0. -1.
    10030    2    1    2    0    0  0.00000000000E+00  0.00000000000E+00  0.25374698432E+04  0.44881705451E+04  0.37020158882E+04 0.  0.
        4    1    3    3  502    0 -0.89932986900E+03  0.13206888616E+04  0.13583435392E+03  0.16035790803E+04  0.12699999809E+01 0. -1.
       -4    1    3    3    0  502  0.89932986900E+03 -0.13206888616E+04  0.24016354892E+04  0.28845914647E+04  0.12699999809E+01 0.  1.
</event>
<event>
 5   0  0.5714125E-09  0.3700124E+04  0.7818609E-02  0.8067934E-01
        1   -1    0    0  501    0  0.00000000000E+00  0.00000000000E+00  0.18542468313E+04  0.18542468314E+04  0.50400001928E-02 0. -1.
       -1   -1    0    0    0  501  0.00000000000E+00  0.00000000000E+00 -0.18458864840E+04  0.18458864840E+04  0.50400001928E-02 0.  1.
    10030    2    1    2    0    0  0.00000000000E+00  0.00000000000E+00  0.83603473512E+01  0.37001333153E+04  0.37001238704E+04 0.  0.
        4    1    3    3  502    0  0.11033945492E+04  0.14440218705E+04 -0.34230138481E+03  0.18492837923E+04  0.12699999809E+01 0.  1.
       -4    1    3    3    0  502 -0.11033945492E+04 -0.14440218705E+04  0.35066173216E+03  0.18508495230E+04  0.12699999809E+01 0. -1.
</event>
<event>
 5   0  0.5714125E-09  0.3718519E+04  0.7818609E-02  0.8063870E-01
       -1   -1    0    0    0  501  0.00000000000E+00  0.00000000000E+00  0.22066375646E+04  0.22066375646E+04  0.50400001928E-02 0.  1.
        1   -1    0    0  501    0  0.00000000000E+00  0.00000000000E+00 -0.15665669510E+04  0.15665669510E+04  0.50400001928E-02 0. -1.
    10030    2    1    2    0    0  0.00000000000E+00  0.00000000000E+00  0.64007061359E+03  0.37732045156E+04  0.37185187812E+04 0.  0.
        3    1    3    3  502    0 -0.17995884391E+04 -0.46050254357E+03  0.40034678607E+03  0.19002259608E+04  0.10100000352E+00 0.  1.
       -3    1    3    3    0  502  0.17995884391E+04  0.46050254357E+03  0.23972382752E+03  0.18729785548E+04  0.10100000352E+00 0. -1.
</event>
<event>
 5   0  0.1740290E-08  0.3701133E+04  0.7818609E-02  0.8067711E-01
        2   -1    0    0  501    0  0.00000000000E+00  0.00000000000E+00  0.17867562806E+04  0.17867562806E+04  0.25500000920E-02 0.  1.
       -2   -1    0    0    0  501  0.00000000000E+00  0.00000000000E+00 -0.19166553364E+04  0.19166553364E+04  0.25500000920E-02 0. -1.
    10030    2    1    2    0    0  0.00000000000E+00  0.00000000000E+00 -0.12989905578E+03  0.37034116171E+04  0.37011327781E+04 0.  0.
        5    1    3    3  502    0 -0.16580252359E+04  0.79465161999E+03  0.14507251258E+03  0.18443391781E+04  0.46999998093E+01 0.  1.
       -5    1    3    3    0  502  0.16580252359E+04 -0.79465161999E+03 -0.27497156836E+03  0.18590724390E+04  0.46999998093E+01 0. -1.
</event>
<event>
 5   0  0.1856107E-08  0.3699025E+04  0.7818609E-02  0.8068178E-01
        2   -1    0    0  501    0  0.00000000000E+00  0.00000000000E+00  0.17106334996E+04  0.17106334996E+04  0.25500000920E-02 0. -1.
       -2   -1    0    0    0  501  0.00000000000E+00  0.00000000000E+00 -0.19996667442E+04  0.19996667442E+04  0.25500000920E-02 0.  1.
    10030    2    1    2    0    0  0.00000000000E+00  0.00000000000E+00 -0.28903324465E+03  0.37103002438E+04  0.36990252342E+04 0.  0.
        2    1    3    3  502    0 -0.42312366945E+03  0.60762455554E+03  0.15554814511E+04  0.17227198800E+04  0.25500000920E-02 0. -1.
       -2    1    3    3    0  502  0.42312366945E+03 -0.60762455554E+03 -0.18445146957E+04  0.19875803639E+04  0.25500000920E-02 0.  1.
</event>
<event>
 5   0  0.5714125E-09  0.3696672E+04  0.7818609E-02  0.8068700E-01
       -1   -1    0    0    0  501  0.00000000000E+00  0.00000000000E+00  0.28116700271E+04  0.28116700271E+04  0.50400001928E-02 0. -1.
        1   -1    0    0  501    0  0.00000000000E+00  0.00000000000E+00 -0.12150592959E+04  0.12150592959E+04  0.50400001928E-02 0.  1.
    10030    2    1    2    0    0  0.00000000000E+00  0.00000000000E+00  0.15966107312E+04  0.40267293231E+04  0.36966719106E+04 0.  0.
        2    1    3    3  502    0  0.81060629587E+03  0.45186733695E+03  0.25394855200E+04  0.27037480214E+04  0.25500000920E-02 0. -1.
       -2    1    3    3    0  502 -0.81060629587E+03 -0.45186733695E+03 -0.94287478882E+03  0.13229813016E+04  0.25500000920E-02 0.  1.
</event>
<event>
 5   0  0.5714125E-09  0.3700896E+04  0.7818609E-02  0.8067763E-01
        1   -1    0    0  501    0  0.00000000000E+00  0.00000000000E+00  0.20733081711E+04  0.20733081711E+04  0.50400001928E-02 0. -1.
       -1   -1    0    0    0  501  0.00000000000E+00  0.00000000000E+00 -0.16515429949E+04  0.16515429949E+04  0.50400001928E-02 0.  1.
    10030    2    1    2    0    0  0.00000000000E+00  0.00000000000E+00  0.42176517615E+03  0.37248511660E+04  0.37008958842E+04 0.  0.
        1    1    3    3  502    0  0.13562351129E+04  0.97711700734E+03 -0.58799710566E+03  0.17719683755E+04  0.50400001928E-02 0.  1.
       -1    1    3    3    0  502 -0.13562351129E+04 -0.97711700734E+03  0.10097622818E+04  0.19528827905E+04  0.50400001928E-02 0. -1.
</event>
<event>
 5   0  0.5714125E-09  0.3699805E+04  0.7818609E-02  0.8068005E-01
       -1   -1    0    0    0  501  0.00000000000E+00  0.00000000000E+00  0.30051350922E+04  0.30051350922E+04  0.50400001928E-02 0.  1.
        1   -1    0    0  501    0  0.00000000000E+00  0.00000000000E+00 -0.11387639235E+04  0.11387639235E+04  0.50400001928E-02 0. -1.
    10030    2    1    2    0    0  0.00000000000E+00  0.00000000000E+00  0.18663711686E+04  0.41438990157E+04  0.36998050913E+04 0.  0.
        3    1    3    3  502    0 -0.45315724212E+03  0.17859923704E+04  0.11172909472E+04  0.21548687441E+04  0.10100000352E+00 0.  1.
       -3    1    3    3    0  502  0.45315724212E+03 -0.17859923704E+04  0.74908022145E+03  0.19890302717E+04  0.10100000352E+00 0. -1.
</event>
<event>
 5   0  0.5714125E-09  0.3701111E+04  0.7818609E-02  0.8067716E-01
        1   -1    0    0  501    0  0.00000000000E+00  0.00000000000E+00  0.22962050163E+04  0.22962050163E+04  0.50400001928E-02 0.  1.
       -1   -1    0    0    0  501  0.00000000000E+00  0.00000000000E+00 -0.14913979957E+04  0.14913979957E+04  0.50400001928E-02 0. -1.
    10030    2    1    2    0    0  0.00000000000E+00  0.00000000000E+00  0.80480702054E+03  0.37876030120E+04  0.37011109462E+04 0.  0.
        1    1    3    3  502    0 -0.25197422949E+03 -0.12193961208E+04  0.18033872403E+04  0.21914888661E+04  0.50400001928E-02 0.  1.
       -1    1    3    3    0  502  0.25197422949E+03  0.12193961208E+04 -0.99858021971E+03  0.15961141460E+04  0.50400001928E-02 0. -1.
</event>
<event>
 5   0  0.5714125E-09  0.3700773E+04  0.7818609E-02  0.8067791E-01
       -1   -1    0    0    0  501  0.00000000000E+00  0.00000000000E+00  0.15073831715E+04  0.15073831716E+04  0.50400001928E-02 0.  1.
        1   -1    0    0  501    0  0.00000000000E+00  0.00000000000E+00 -0.22714399280E+04  0.22714399280E+04  0.50400001928E-02 0. -1.
    10030    2    1    2    0    0  0.00000000000E+00  0.00000000000E+00 -0.76405675641E+03  0.37788230995E+04  0.37007730666E+04 0.  0.
        4    1    3    3  502    0 -0.18568697761E+03  0.10935204130E+04  0.11303100197E+04  0.15836252400E+04  0.12699999809E+01 0.  1.
       -4    1    3    3    0  502  0.18568697761E+03 -0.10935204130E+04 -0.18943667761E+04  0.21951978595E+04  0.12699999809E+01 0. -1.
</event>
<event>
 5   0  0.5714125E-09  0.3699604E+04  0.7818609E-02  0.8068050E-01
        1   -1    0    0  501    0  0.00000000000E+00  0.00000000000E+00  0.17488784937E+04  0.17488784938E+04  0.50400001928E-02 0.  1.
       -1   -1    0    0    0  501  0.00000000000E+00  0.00000000000E+00 -0.19565494913E+04  0.19565494913E+04  0.50400001928E-02 0. -1.
    10030    2    1    2    0    0  0.00000000000E+00  0.00000000000E+00 -0.20767099755E+03  0.37054279851E+04  0.36996039395E+04 0.  0.
        4    1    3    3  502    0 -0.16503923328E+04  0.82357757205E+02 -0.93652148981E+03  0.18993819432E+04  0.12699999809E+01 0. -1.
       -4    1    3    3    0  502  0.16503923328E+04 -0.82357757205E+02  0.72885049226E+03  0.18060460419E+04  0.12699999809E+01 0.  1.
</event>
<event>
 5   0  0.5714125E-09  0.3701593E+04  0.7818609E-02  0.8067609E-01
        1   -1    0    0  501    0  0.00000000000E+00  0.00000000000E+00  0.25051652590E+04  0.25051652590E+04  0.50400001928E-02 0. -1.
       -1   -1    0    0    0  501  0.00000000000E+00  0.00000000000E+00 -0.13673537875E+04  0.13673537875E+04  0.50400001928E-02 0.  1.
    10030    2    1    2    0    0  0.00000000000E+00  0.00000000000E+00  0.11378114715E+04  0.38725190465E+04  0.37015927411E+04 0.  0.
        3    1    3    3  502    0 -0.13370184983E+04  0.61126351762E+03 -0.60737329344E+03  0.15906488866E+04  0.10100000352E+00 0.  1.
       -3    1    3    3    0  502  0.13370184983E+04 -0.61126351762E+03  0.17451847650E+04  0.22818701599E+04  0.10100000352E+00 0. -1.
</event>
<event>
 5   0  0.1856107E-08  0.3700148E+04  0.7818609E-02  0.8067929E-01
        2   -1    0    0  501    0  0.00000000000E+00  0.00000000000E+00  0.20474481993E+04  0.20474481993E+04  0.25500000920E-02 0.  1.
       -2   -1    0    0    0  501  0.00000000000E+00  0.00000000000E+00 -0.16717271382E+04  0.16717271382E+04  0.25500000920E-02 0. -1.
    10030    2    1    2    0    0  0.00000000000E+00  0.00000000000E+00  0.37572106110E+03  0.37191753374E+04  0.37001484936E+04 0.  0.
        2    1    3    3  502    0  0.11940813006E+04  0.39238126964E+03 -0.11766848652E+04  0.17217376354E+04  0.25500000920E-02 0. -1.
       -2    1    3    3    0  502 -0.11940813006E+04 -0.39238126964E+03  0.15524059263E+04  0.19974377020E+04  0.25500000920E-02 0.  1.
</event>
<event>
 5   0  0.5714125E-09  0.3700724E+04  0.7818609E-02  0.8067801E-01
        1   -1    0    0  501    0  0.00000000000E+00  0.00000000000E+00  0.28868261384E+04  0.28868261384E+04  0.50400001928E-02 0. -1.
       -1   -1    0    0    0  501  0.00000000000E+00  0.00000000000E+00 -0.11860218740E+04  0.11860218740E+04  0.50400001928E-02 0.  1.
    10030    2    1    2    0    0  0.00000000000E+00  0.00000000000E+00  0.17008042644E+04  0.40728480124E+04  0.37007236841E+04 0.  0.
        5    1    3    3  502    0 -0.10694213784E+04 -0.66752423730E+03 -0.64025661840E+03  0.14139311579E+04  0.46999998093E+01 0.  1.
       -5    1    3    3    0  502  0.10694213784E+04  0.66752423730E+03  0.23410608828E+04  0.26589168544E+04  0.46999998093E+01 0. -1.
</event>
<event>
 5   0  0.1725865E-08  0.3700199E+04  0.7818609E-02  0.8067918E-01
       -2   -1    0    0    0  501  0.00000000000E+00  0.00000000000E+00  0.25937908134E+04  0.25937908134E+04  0.25500000920E-02 0.  1.
        2   -1    0    0  501    0  0.00000000000E+00  0.00000000000E+00 -0.13196391607E+04  0.13196391607E+04  0.25500000920E-02 0. -1.
    10030    2    1    2    0    0  0.00000000000E+00  0.00000000000E+00  0.12741516527E+04  0.39134299742E+04  0.37001988769E+04 0.  0.
        1    1    3    3  502    0 -0.36358227811E+02  0.60723647292E+03 -0.12108408264E+04  0.13550621984E+04  0.50400001928E-02 0. -1.
       -1    1    3    3    0  502  0.36358227811E+02 -0.60723647292E+03  0.24849924791E+04  0.25583677757E+04  0.50400001928E-02 0.  1.
</event>
<event>
 5   0  0.5714125E-09  0.3697335E+04  0.7818609E-02  0.8068553E-01
       -1   -1    0    0    0  501  0.00000000000E+00  0.00000000000E+00  0.22792005636E+04  0.22792005636E+04  0.50400001928E-02 0.  1.
        1   -1    0    0  501    0  0.00000000000E+00  0.00000000000E+00 -0.14994604568E+04  0.14994604568E+04  0.50400001928E-02 0. -1.
    10030    2    1    2    0    0  0.00000000000E+00  0.00000000000E+00  0.77974010686E+03  0.37786610204E+04  0.36973347797E+04 0.  0.
        3    1    3    3  502    0  0.20515054275E+03  0.15991123183E+04  0.13143805432E+04  0.20801065296E+04  0.10100000352E+00 0.  1.
       -3    1    3    3    0  502 -0.20515054275E+03 -0.15991123183E+04 -0.53464043635E+03  0.16985544908E+04  0.10100000352E+00 0. -1.
</event>
<event>
 5   0  0.1725865E-08  0.3699832E+04  0.7818609E-02  0.8067999E-01
        2   -1    0    0  501    0  0.00000000000E+00  0.00000000000E+00  0.25275986826E+04  0.25275986826E+04  0.25500000920E-02 0.  1.
       -2   -1    0    0    0  501  0.00000000000E+00  0.00000000000E+00 -0.13539288334E+04  0.13539288334E+04  0.25500000920E-02 0. -1.
    10030    2    1    2    0    0  0.00000000000E+00  0.00000000000E+00  0.11736698491E+04  0.38815275160E+04  0.36998317452E+04 0.  0.
        1    1    3    3  502    0  0.29096548226E+02 -0.53678065255E+02 -0.13528714649E+04  0.13542485534E+04  0.50400001928E-02 0. -1.
       -1    1    3    3    0  502 -0.29096548226E+02  0.53678065255E+02  0.25265413140E+04  0.25272789626E+04  0.50400001928E-02 0.  1.
</event>
<event>
 5   0  0.5714125E-09  0.3697919E+04  0.7818609E-02  0.8068423E-01
        1   -1    0    0  501    0  0.00000000000E+00  0.00000000000E+00  0.29022131567E+04  0.29022131567E+04  0.50400001928E-02 0. -1.
       -1   -1    0    0    0  501  0.00000000000E+00  0.00000000000E+00 -0.11779464443E+04  0.11779464443E+04  0.50400001928E-02 0.  1.
    10030    2    1    2    0    0  0.00000000000E+00  0.00000000000E+00  0.17242667124E+04  0.40801596010E+04  0.36979192358E+04 0.  0.
        1    1    3    3  502    0  0.11504197480E+04  0.84967389516E+03  0.21551169272E+04  0.25864918895E+04  0.50400001928E-02 0. -1.
       -1    1    3    3    0  502 -0.11504197480E+04 -0.84967389516E+03 -0.43085021484E+03  0.14936677115E+04  0.50400001928E-02 0.  1.
</event>
<event>
 5   0  0.1740290E-08  0.3700454E+04  0.7818609E-02  0.8067861E-01
        2   -1    0    0  501    0  0.00000000000E+00  0.00000000000E+00  0.13825290858E+04  0.13825290858E+04  0.25500000920E-02 0.  1.
       -2   -1    0    0    0  501  0.00000000000E+00  0.00000000000E+00 -0.24761428014E+04  0.24761428014E+04  0.25500000920E-02 0. -1.
    10030    2    1    2    0    0  0.00000000000E+00  0.00000000000E+00 -0.10936137156E+04  0.38586718872E+04  0.37004537255E+04 0.  0.
        5    1    3    3  502    0 -0.91623960349E+03 -0.12325521791E+04  0.52912247195E+03  0.16243991399E+04  0.46999998093E+01 0.  1.
       -5    1    3    3    0  502  0.91623960349E+03  0.12325521791E+04 -0.16227361876E+04  0.22342727474E+04  0.46999998093E+01 0. -1.
</event>
<event>
 5   0  0.5714125E-09  0.3696419E+04  0.7818609E-02  0.8068756E-01
        1   -1    0    0  501    0  0.00000000000E+00  0.00000000000E+00  0.11288054578E+04  0.11288054578E+04  0.50400001928E-02 0. -1.
       -1   -1    0    0    0  501  0.00000000000E+00  0.00000000000E+00 -0.30261003196E+04  0.30261003196E+04  0.50400001928E-02 0.  1.
    10030    2    1    2    0    0  0.00000000000E+00  0.00000000000E+00 -0.18972948618E+04  0.41549057774E+04  0.36964191086E+04 0.  0.
        2    1    3    3  502    0 -0.77300622158E+03  0.75314600615E+01 -0.28356491245E+04  0.29391327460E+04  0.25500000920E-02 0.  1.
       -2    1    3    3    0  502  0.77300622158E+03 -0.75314600615E+01  0.93835426268E+03  0.12157730314E+04  0.25500000920E-02 0. -1.
</event>
<event>
 5   0  0.1757996E-08  0.3699899E+04  0.7818609E-02  0.8067984E-01
       -2   -1    0    0    0  501  0.00000000000E+00  0.00000000000E+00  0.15004107371E+04  0.15004107371E+04  0.25500000920E-02 0.  1.
        2   -1    0    0  501    0  0.00000000000E+00  0.00000000000E+00 -0.22809169151E+04  0.22809169151E+04  0.25500000920E-02 0. -1.
    10030    2    1    2    0    0  0.00000000000E+00  0.00000000000E+00 -0.78050617798E+03  0.37813276522E+04  0.36998985012E+04 0.  0.
        3    1    3    3  502    0  0.11346908799E+04 -0.74191570864E+03  0.89615881969E+03  0.16251347489E+04  0.10100000352E+00 0.  1.
       -3    1    3    3    0  502 -0.11346908799E+04  0.74191570864E+03 -0.16766649977E+04  0.21561929033E+04  0.10100000352E+00 0. -1.
</event>
<event>
 5   0  0.1856107E-08  0.3698996E+04  0.7818609E-02  0.8068184E-01
        2   -1    0    0  501    0  0.00000000000E+00  0.00000000000E+00  0.20415524677E+04  0.20415524677E+04  0.25500000920E-02 0.  1.
       -2   -1    0    0    0  501  0.00000000000E+00  0.00000000000E+00 -0.16755101728E+04  0.16755101728E+04  0.25500000920E-02 0. -1.
    10030    2    1    2    0    0  0.00000000000E+00  0.00000000000E+00  0.36604229486E+03  0.37170626405E+04  0.36989955004E+04 0.  0.
        2    1    3    3  502    0 -0.10354031399E+04 -0.15021572955E+04 -0.12195044712E+03  0.18284988691E+04  0.25500000920E-02 0.  1.
       -2    1    3    3    0  502  0.10354031399E+04  0.15021572955E+04  0.48799274199E+03  0.18885637715E+04  0.25500000920E-02 0. -1.
</event>
<event>
 5   0  0.5714125E-09  0.3700978E+04  0.7818609E-02  0.8067745E-01
        1   -1    0    0  501    0  0.00000000000E+00  0.00000000000E+00  0.16762410710E+04  0.16762410710E+04  0.50400001928E-02 0. -1.
       -1   -1    0    0    0  501  0.00000000000E+00  0.00000000000E+00 -0.20428507592E+04  0.20428507592E+04  0.50400001928E-02 0.  1.
    10030    2    1    2    0    0  0.00000000000E+00  0.00000000000E+00 -0.36660968819E+03  0.37190918302E+04  0.37009784352E+04 0.  0.
        2    1    3    3  502    0 -0.16266667979E+04 -0.88209631268E+03 -0.19646735996E+03  0.18608434108E+04  0.25500000920E-02 0.  1.
       -2    1    3    3    0  502  0.16266667979E+04  0.88209631268E+03 -0.17014232823E+03  0.18582484193E+04  0.25500000920E-02 0. -1.
</event>
<event>
 5   0  0.1740290E-08  0.3700626E+04  0.7818609E-02  0.8067823E-01
        2   -1    0    0  501    0  0.00000000000E+00  0.00000000000E+00  0.26393769975E+04  0.26393769975E+04  0.25500000920E-02 0. -1.
       -2   -1    0    0    0  501  0.00000000000E+00  0.00000000000E+00 -0.12971460861E+04  0.12971460861E+04  0.25500000920E-02 0.  1.
    10030    2    1    2    0    0  0.00000000000E+00  0.00000000000E+00  0.13422309114E+04  0.39365230836E+04  0.37006256455E+04 0.  0.
        5    1    3    3  502    0 -0.90618111785E+02  0.13878850167E+04 -0.62700207457E+03  0.15256441765E+04  0.46999998093E+01 0.  1.
       -5    1    3    3    0  502  0.90618111785E+02 -0.13878850167E+04  0.19692329859E+04  0.24108789071E+04  0.46999998093E+01 0. -1.
</event>
<event>
 5   0  0.1740290E-08  0.3704977E+04  0.7818609E-02  0.8066860E-01
       -2   -1    0    0    0  501  0.00000000000E+00  0.00000000000E+00  0.24997320610E+04  0.24997320610E+04  0.25500000920E-02 0.  1.
        2   -1    0    0  501    0  0.00000000000E+00  0.00000000000E+00 -0.13728325141E+04  0.13728325141E+04  0.25500000920E-02 0. -1.
    10030    2    1    2    0    0  0.00000000000E+00  0.00000000000E+00  0.11268995469E+04  0.38725645752E+04  0.37049768960E+04 0.  0.
        5    1    3    3  502    0  0.13057563329E+04  0.10333246816E+04 -0.28501422261E+03  0.16893829334E+04  0.46999998093E+01 0. -1.
       -5    1    3    3    0  502 -0.13057563329E+04 -0.10333246816E+04  0.14119137695E+04  0.21831816418E+04  0.46999998093E+01 0.  1.
</event>
<event>
 5   0  0.1757996E-08  0.3702674E+04  0.7818609E-02  0.8067370E-01
       -2   -1    0    0    0  501  0.00000000000E+00  0.00000000000E+00  0.15615822986E+04  0.15615822986E+04  0.25500000920E-02 0.  1.
        2   -1    0    0  501    0  0.00000000000E+00  0.00000000000E+00 -0.21948558529E+04  0.21948558529E+04  0.25500000920E-02 0. -1.
    10030    2    1    2    0    0  0.00000000000E+00  0.00000000000E+00 -0.63327355435E+03  0.37564381515E+04  0.37026736545E+04 0.  0.
        3    1    3    3  502    0  0.83453801079E+03  0.16466416183E+04 -0.45854540572E+03  0.19021425314E+04  0.10100000352E+00 0. -1.
       -3    1    3    3    0  502 -0.83453801079E+03 -0.16466416183E+04 -0.17472814863E+03  0.18542956201E+04  0.10100000352E+00 0.  1.
</event>
<event>
 5   0  0.1725865E-08  0.3698121E+04  0.7818609E-02  0.8068378E-01
       -2   -1    0    0    0  501  0.00000000000E+00  0.00000000000E+00  0.11818674820E+04  0.11818674820E+04  0.25500000920E-02 0.  1.
        2   -1    0    0  501    0  0.00000000000E+00  0.00000000000E+00 -0.28929004850E+04  0.28929004850E+04  0.25500000920E-02 0. -1.
    10030    2    1    2    0    0  0.00000000000E+00  0.00000000000E+00 -0.17110330031E+04  0.40747679670E+04  0.36981211509E+04 0.  0.
        1    1    3    3  502    0 -0.82048192795E+03  0.15784523770E+04 -0.14111829189E+04  0.22707134851E+04  0.50400001928E-02 0.  1.
       -1    1    3    3    0  502  0.82048192795E+03 -0.15784523770E+04 -0.29985008418E+03  0.18040544819E+04  0.50400001928E-02 0. -1.
</event>
<event>
 5   0  0.5714125E-09  0.3699253E+04  0.7818609E-02  0.8068127E-01
       -1   -1    0    0    0  501  0.00000000000E+00  0.00000000000E+00  0.19944934977E+04  0.19944934977E+04  0.50400001928E-02 0.  1.
        1   -1    0    0  501    0  0.00000000000E+00  0.00000000000E+00 -0.17152818162E+04  0.17152818162E+04  0.50400001928E-02 0. -1.
    10030    2    1    2    0    0  0.00000000000E+00  0.00000000000E+00  0.27921168152E+03  0.37097753139E+04  0.36992531296E+04 0.  0.
        5    1    3    3  502    0 -0.13855438665E+04  0.45642978125E+03 -0.10007461641E+04  0.17690604643E+04  0.46999998093E+01 0. -1.
       -5    1    3    3    0  502  0.13855438665E+04 -0.45642978125E+03  0.12799578456E+04  0.19407148497E+04  0.46999998093E+01 0.  1.
</event>
<event>
 5   0  0.5714125E-09  0.3700795E+04  0.7818609E-02  0.8067786E-01
       -1   -1    0    0    0  501  0.00000000000E+00  0.00000000000E+00  0.20130501257E+04  0.20130501257E+04  0.50400001928E-02 0. -1.
        1   -1    0    0  501    0  0.00000000000E+00  0.00000000000E+00 -0.17008867007E+04  0.17008867007E+04  0.50400001928E-02 0.  1.
    10030    2    1    2    0    0  0.00000000000E+00  0.00000000000E+00  0.31216342504E+03  0.37139368264E+04  0.37007946101E+04 0.  0.
        1    1    3    3  502    0 -0.12526381380E+04  0.52410546209E+03  0.14175983850E+04  0.19630012790E+04  0.50400001928E-02 0. -1.
       -1    1    3    3    0  502  0.12526381380E+04 -0.52410546209E+03 -0.11054349600E+04  0.17509355474E+04  0.50400001928E-02 0.  1.
</event>
<event>
 5   0  0.1856107E-08  0.3700559E+04  0.7818609E-02  0.8067838E-01
       -2   -1    0    0    0  501  0.00000000000E+00  0.00000000000E+00  0.13498767511E+04  0.13498767511E+04  0.25500000920E-02 0. -1.
        2   -1    0    0  501    0  0.00000000000E+00  0.00000000000E+00 -0.25361831585E+04  0.25361831585E+04  0.25500000920E-02 0.  1.
    10030    2    1    2    0    0  0.00000000000E+00  0.00000000000E+00 -0.11863064074E+04  0.38860599096E+04  0.37005592454E+04 0.  0.
        2    1    3    3  502    0  0.85236969937E+03  0.28510011926E+03  0.11052376095E+04  0.14245583020E+04  0.25500000920E-02 0. -1.
       -2    1    3    3    0  502 -0.85236969937E+03 -0.28510011926E+03 -0.22915440169E+04  0.24615016075E+04  0.25500000920E-02 0.  1.
</event>
<event>
 5   0  0.5714125E-09  0.3707280E+04  0.7818609E-02  0.8066350E-01
       -1   -1    0    0    0  501  0.00000000000E+00  0.00000000000E+00  0.16851697913E+04  0.16851697913E+04  0.50400001928E-02 0.  1.
        1   -1    0    0  501    0  0.00000000000E+00  0.00000000000E+00 -0.20389525481E+04  0.20389525481E+04  0.50400001928E-02 0. -1.
    10030    2    1    2    0    0  0.00000000000E+00  0.00000000000E+00 -0.35378275674E+03  0.37241223394E+04  0.37072799948E+04 0.  0.
        2    1    3    3  502    0  0.26309028518E+03 -0.18025670045E+04  0.16747344489E+03  0.18293473313E+04  0.25500000920E-02 0.  1.
       -2    1    3    3    0  502 -0.26309028518E+03  0.18025670045E+04 -0.52125620163E+03  0.18947750081E+04  0.25500000920E-02 0. -1.
</event>
<event>
 5   0  0.1725865E-08  0.3698947E+04  0.7818609E-02  0.8068195E-01
       -2   -1    0    0    0  501  0.00000000000E+00  0.00000000000E+00  0.30723414168E+04  0.30723414169E+04  0.25500000920E-02 0.  1.
        2   -1    0    0  501    0  0.00000000000E+00  0.00000000000E+00 -0.11133372647E+04  0.11133372647E+04  0.25500000920E-02 0. -1.
    10030    2    1    2    0    0  0.00000000000E+00  0.00000000000E+00  0.19590041521E+04  0.41856786816E+04  0.36989469795E+04 0.  0.
        1    1    3    3  502    0 -0.63919866990E+03 -0.10697197931E+03  0.29396419973E+04  0.30102347112E+04  0.50400001928E-02 0.  1.
       -1    1    3    3    0  502  0.63919866990E+03  0.10697197931E+03 -0.98063784523E+03  0.11754439704E+04  0.50400001928E-02 0. -1.
</event>
<event>
 5   0  0.1740290E-08  0.3704660E+04  0.7818609E-02  0.8066930E-01
        2   -1    0    0  501    0  0.00000000000E+00  0.00000000000E+00  0.16866703538E+04  0.16866703538E+04  0.25500000920E-02 0.  1.
       -2   -1    0    0    0  501  0.00000000000E+00  0.00000000000E+00 -0.20342605261E+04  0.20342605261E+04  0.25500000920E-02 0. -1.
    10030    2    1    2    0    0  0.00000000000E+00  0.00000000000E+00 -0.34759017226E+03  0.37209308800E+04  0.37046602659E+04 0.  0.
        5    1    3    3  502    0 -0.77445766028E+03  0.16507390388E+04  0.15379806994E+03  0.18298633769E+04  0.46999998093E+01 0. -1.
       -5    1    3    3    0  502  0.77445766028E+03 -0.16507390388E+04 -0.50138824220E+03  0.18910675031E+04  0.46999998093E+01 0.  1.
</event>
<event>
 5   0  0.5714125E-09  0.3698764E+04  0.7818609E-02  0.8068236E-01
       -1   -1    0    0    0  501  0.00000000000E+00  0.00000000000E+00  0.15470062105E+04  0.15470062105E+04  0.50400001928E-02 0. -1.
        1   -1    0    0  501    0  0.00000000000E+00  0.00000000000E+00 -0.22108602086E+04  0.22108602086E+04  0.50400001928E-02 0.  1.
    10030    2    1    2    0    0  0.00000000000E+00  0.00000000000E+00 -0.66385399808E+03  0.37578664191E+04  0.36987643738E+04 0.  0.
        5    1    3    3  502    0 -0.16882819810E+04 -0.56387235318E+03  0.17803397901E+03  0.17888449530E+04  0.46999998093E+01 0.  1.
       -5    1    3    3    0  502  0.16882819810E+04  0.56387235318E+03 -0.84188797709E+03  0.19690214661E+04  0.46999998093E+01 0. -1.
</event>
<event>
 5   0  0.5714125E-09  0.3701567E+04  0.7818609E-02  0.8067615E-01
        1   -1    0    0  501    0  0.00000000000E+00  0.00000000000E+00  0.20511564591E+04  0.20511564591E+04  0.50400001928E-02 0.  1.
       -1   -1    0    0    0  501  0.00000000000E+00  0.00000000000E+00 -0.16699841090E+04  0.16699841090E+04  0.50400001928E-02 0. -1.
    10030    2    1    2    0    0  0.00000000000E+00  0.00000000000E+00  0.38117235007E+03  0.37211405682E+04  0.37015665289E+04 0.  0.
        5    1    3    3  502    0 -0.36646713202E+03  0.86703489718E+03  0.17925400116E+04  0.20246652699E+04  0.46999998093E+01 0.  1.
       -5    1    3    3    0  502  0.36646713202E+03 -0.86703489718E+03 -0.14113676615E+04  0.16964752983E+04  0.46999998093E+01 0. -1.
</event>
<event>
 5   0  0.1725865E-08  0.3699391E+04  0.7818609E-02  0.8068097E-01
        2   -1    0    0  501    0  0.00000000000E+00  0.00000000000E+00  0.19430568774E+04  0.19430568774E+04  0.25500000920E-02 0. -1.
       -2   -1    0    0    0  501  0.00000000000E+00  0.00000000000E+00 -0.17608195795E+04  0.17608195795E+04  0.25500000920E-02 0.  1.
    10030    2    1    2    0    0  0.00000000000E+00  0.00000000000E+00  0.18223729796E+03  0.37038764569E+04  0.36993905410E+04 0.  0.
        1    1    3    3  502    0  0.15387343397E+04 -0.18419942663E+03 -0.91992753612E+03  0.18021929610E+04  0.50400001928E-02 0.  1.
       -1    1    3    3    0  502 -0.15387343397E+04  0.18419942663E+03  0.11021648341E+04  0.19016834959E+04  0.50400001928E-02 0. -1.
</event>
<event>
 5   0  0.1825308E-08  0.3698891E+04  0.7818609E-02  0.8068208E-01
       -2   -1    0    0    0  501  0.00000000000E+00  0.00000000000E+00  0.23422200130E+04  0.23422200130E+04  0.25500000920E-02 0.  1.
        2   -1    0    0  501    0  0.00000000000E+00  0.00000000000E+00 -0.14603449763E+04  0.14603449763E+04  0.25500000920E-02 0. -1.
    10030    2    1    2    0    0  0.00000000000E+00  0.00000000000E+00  0.88187503664E+03  0.38025649893E+04  0.36988913092E+04 0.  0.
        4    1    3    3  502    0  0.68774054021E+03 -0.13184306870E+04 -0.68952024391E+03  0.16391114382E+04  0.12699999809E+01 0. -1.
       -4    1    3    3    0  502 -0.68774054021E+03  0.13184306870E+04  0.15713952806E+04  0.21634535511E+04  0.12699999809E+01 0.  1.
</event>
<event>
 5   0  0.5714125E-09  0.3699920E+04  0.7818609E-02  0.8067980E-01
        4   -1    0    0  501    0  0.00000000000E+00  0.00000000000E+00  0.16494837801E+04  0.16494842690E+04  0.12699999809E+01 0.  1.
       -4   -1    0    0    0  501  0.00000000000E+00  0.00000000000E+00 -0.20748003910E+04  0.20748007797E+04  0.12699999809E+01 0. -1.
    10030    2    1    2    0    0  0.00000000000E+00  0.00000000000E+00 -0.42531661093E+03  0.37242850487E+04  0.36999195808E+04 0.  0.
        5    1    3    3  502    0 -0.12596936815E+04 -0.44732615067E+03  0.10745909899E+04  0.17151375286E+04  0.46999998093E+01 0.  1.
       -5    1    3    3    0  502  0.12596936815E+04  0.44732615067E+03 -0.14999076009E+04  0.20091475201E+04  0.46999998093E+01 0. -1.
</event>
<event>
 5   0  0.5714125E-09  0.3699608E+04  0.7818609E-02  0.8068049E-01
        1   -1    0    0  501    0  0.00000000000E+00  0.00000000000E+00  0.18057364628E+04  0.18057364628E+04  0.50400001928E-02 0.  1.
       -1   -1    0    0    0  501  0.00000000000E+00  0.00000000000E+00 -0.18949470551E+04  0.18949470551E+04  0.50400001928E-02 0. -1.
    10030    2    1    2    0    0  0.00000000000E+00  0.00000000000E+00 -0.89210592294E+02  0.37006835180E+04  0.36996080834E+04 0.  0.
        4    1    3    3  502    0  0.18175375076E+03  0.15342038072E+04  0.97301910432E+03  0.18258103785E+04  0.12699999809E+01 0.  1.
       -4    1    3    3    0  502 -0.18175375076E+03 -0.15342038072E+04 -0.10622296966E+04  0.18748731395E+04  0.12699999809E+01 0. -1.
</event>
<event>
 5   0  0.1757996E-08  0.3699747E+04  0.7818609E-02  0.8068018E-01
        2   -1    0    0  501    0  0.00000000000E+00  0.00000000000E+00  0.20893336583E+04  0.20893336583E+04  0.25500000920E-02 0. -1.
       -2   -1    0    0    0  501  0.00000000000E+00  0.00000000000E+00 -0.16378584252E+04  0.16378584252E+04  0.25500000920E-02 0.  1.
    10030    2    1    2    0    0  0.00000000000E+00  0.00000000000E+00  0.45147523304E+03  0.37271920835E+04  0.36997474159E+04 0.  0.
        3    1    3    3  502    0 -0.66329198749E+02  0.44090476104E+03 -0.15829175045E+04  0.16445134257E+04  0.10100000352E+00 0.  1.
       -3    1    3    3    0  502  0.66329198749E+02 -0.44090476104E+03  0.20343927375E+04  0.20826786578E+04  0.10100000352E+00 0. -1.
</event>
<event>
 5   0  0.5714125E-09  0.3701323E+04  0.7818609E-02  0.8067669E-01
        1   -1    0    0  501    0  0.00000000000E+00  0.00000000000E+00  0.29887277126E+04  0.29887277126E+04  0.50400001928E-02 0.  1.
       -1   -1    0    0    0  501  0.00000000000E+00  0.00000000000E+00 -0.11459551927E+04  0.11459551927E+04  0.50400001928E-02 0. -1.
    10030    2    1    2    0    0  0.00000000000E+00  0.00000000000E+00  0.18427725200E+04  0.41346829053E+04  0.37013230293E+04 0.  0.
        1    1    3    3  502    0 -0.11899769277E+04  0.13792105716E+04  0.12862486249E+04  0.22299556978E+04  0.50400001928E-02 0.  1.
       -1    1    3    3    0  502  0.11899769277E+04 -0.13792105716E+04  0.55652389504E+03  0.19047272075E+04  0.50400001928E-02 0. -1.
</event>
<event>
 5   0  0.1757996E-08  0.3699592E+04  0.7818609E-02  0.8068052E-01
       -2   -1    0    0    0  501  0.00000000000E+00  0.00000000000E+00  0.15336055756E+04  0.15336055756E+04  0.25500000920E-02 0.  1.
        2   -1    0    0  501    0  0.00000000000E+00  0.00000000000E+00 -0.22311771151E+04  0.22311771151E+04  0.25500000920E-02 0. -1.
    10030    2    1    2    0    0  0.00000000000E+00  0.00000000000E+00 -0.69757153945E+03  0.37647826907E+04  0.36995922283E+04 0.  0.
        3    1    3    3  502    0 -0.13987819901E+04 -0.51322017054E+03 -0.14643507295E+04  0.20890928817E+04  0.10100000352E+00 0. -1.
       -3    1    3    3    0  502  0.13987819901E+04  0.51322017054E+03  0.76677919009E+03  0.16756898089E+04  0.10100000352E+00 0.  1.
</event>
<event>
 5   0  0.5714125E-09  0.3701680E+04  0.7818609E-02  0.8067590E-01
       -1   -1    0    0    0  501  0.00000000000E+00  0.00000000000E+00  0.21198420550E+04  0.21198420550E+04  0.50400001928E-02 0.  1.
        1   -1    0    0  501    0  0.00000000000E+00  0.00000000000E+00 -0.16159738718E+04  0.16159738718E+04  0.50400001928E-02 0. -1.
    10030    2    1    2    0    0  0.00000000000E+00  0.00000000000E+00  0.50386818320E+03  0.37358159268E+04  0.37016803608E+04 0.  0.
        2    1    3    3  502    0  0.13290522978E+04  0.64442273814E+03  0.13775436941E+04  0.20197245616E+04  0.25500000920E-02 0.  1.
       -2    1    3    3    0  502 -0.13290522978E+04 -0.64442273814E+03 -0.87367551086E+03  0.17160913653E+04  0.25500000920E-02 0. -1.
</event>
<event>
 5   0  0.1725865E-08  0.3699144E+04  0.7818609E-02  0.8068152E-01
        2   -1    0    0  501    0  0.00000000000E+00  0.00000000000E+00  0.22092400534E+04  0.22092400534E+04  0.25500000920E-02 0. -1.
       -2   -1    0    0    0  501  0.00000000000E+00  0.00000000000E+00 -0.15484582484E+04  0.15484582484E+04  0.25500000920E-02 0.  1.
    10030    2    1    2    0    0  0.00000000000E+00  0.00000000000E+00  0.66078180506E+03  0.37576983018E+04  0.36991436757E+04 0.  0.
        1    1    3    3  502    0 -0.14373415433E+04 -0.76973781342E+02  0.15102582216E+04  0.20863258545E+04  0.50400001928E-02 0. -1.
       -1    1    3    3    0  502  0.14373415433E+04  0.76973781342E+02 -0.84947641659E+03  0.16713724473E+04  0.50400001928E-02 0.  1.
</event>
<event>
 5   0  0.1856107E-08  0.3697190E+04  0.7818609E-02  0.8068585E-01
        2   -1    0    0  501    0  0.00000000000E+00  0.00000000000E+00  0.21588328336E+04  0.21588328336E+04  0.25500000920E-02 0. -1.
       -2   -1    0    0    0  501  0.00000000000E+00  0.00000000000E+00 -0.15829403155E+04  0.15829403155E+04  0.25500000920E-02 0.  1.
    10030    2    1    2    0    0  0.00000000000E+00  0.00000000000E+00  0.57589251809E+03  0.37417731491E+04  0.36971900285E+04 0.  0.
        2    1    3    3  502    0 -0.52595398277E+03  0.13328369294E+04  0.14700297460E+04  0.20528198476E+04  0.25500000920E-02 0. -1.
       -2    1    3    3    0  502  0.52595398277E+03 -0.13328369294E+04 -0.89413722788E+03  0.16889533015E+04  0.25500000920E-02 0.  1.
</event>
<event>
 5   0  0.5714125E-09  0.3699488E+04  0.7818609E-02  0.8068075E-01
       -3   -1    0    0    0  501  0.00000000000E+00  0.00000000000E+00  0.17816193768E+04  0.17816193797E+04  0.10100000352E+00 0. -1.
        3   -1    0    0  501    0  0.00000000000E+00  0.00000000000E+00 -0.19204734464E+04  0.19204734490E+04  0.10100000352E+00 0.  1.
    10030    2    1    2    0    0  0.00000000000E+00  0.00000000000E+00 -0.13885406956E+03  0.37020928287E+04  0.36994879186E+04 0.  0.
        5    1    3    3  502    0 -0.74282986709E+03 -0.59235197081E+02 -0.17636122079E+04  0.19145900684E+04  0.46999998093E+01 0.  1.
       -5    1    3    3    0  502  0.74282986709E+03  0.59235197081E+02  0.16247581384E+04  0.17875027603E+04  0.46999998093E+01 0. -1.
</event>
<event>
 5   0  0.5714125E-09  0.3700657E+04  0.7818609E-02  0.8067816E-01
       -1   -1    0    0    0  501  0.00000000000E+00  0.00000000000E+00  0.26758316399E+04  0.26758316399E+04  0.50400001928E-02 0. -1.
        1   -1    0    0  501    0  0.00000000000E+00  0.00000000000E+00 -0.12794955713E+04  0.12794955713E+04  0.50400001928E-02 0.  1.
    10030    2    1    2    0    0  0.00000000000E+00  0.00000000000E+00  0.13963360686E+04  0.39553272112E+04  0.37006565541E+04 0.  0.
        4    1    3    3  502    0 -0.64905999601E+02 -0.91460748630E+03 -0.10196030596E+04  0.13712445642E+04  0.12699999809E+01 0. -1.
       -4    1    3    3    0  502  0.64905999601E+02  0.91460748630E+03  0.24159391282E+04  0.25840826470E+04  0.12699999809E+01 0.  1.
</event>
<event>
 5   0  0.1825308E-08  0.3700173E+04  0.7818609E-02  0.8067923E-01
        2   -1    0    0  501    0  0.00000000000E+00  0.00000000000E+00  0.22290586437E+04  0.22290586437E+04  0.25500000920E-02 0.  1.
       -2   -1    0    0    0  501  0.00000000000E+00  0.00000000000E+00 -0.15355450924E+04  0.15355450924E+04  0.25500000920E-02 0. -1.
    10030    2    1    2    0    0  0.00000000000E+00  0.00000000000E+00  0.69351355128E+03  0.37646037361E+04  0.37001730019E+04 0.  0.
        4    1    3    3  502    0  0.81893722167E+03  0.43995465307E+03  0.19741722898E+04  0.21821035980E+04  0.12699999809E+01 0.  1.
       -4    1    3    3    0  502 -0.81893722167E+03 -0.43995465307E+03 -0.12806587385E+04  0.15825001381E+04  0.12699999809E+01 0. -1.
</event>
<event>
 5   0  0.1740290E-08  0.3699872E+04  0.7818609E-02  0.8067990E-01
       -2   -1    0    0    0  501  0.00000000000E+00  0.00000000000E+00  0.17503193289E+04  0.17503193289E+04  0.25500000920E-02 0.  1.
        2   -1    0    0  501    0  0.00000000000E+00  0.00000000000E+00 -0.19552217660E+04  0.19552217660E+04  0.25500000920E-02 0. -1.
    10030    2    1    2    0    0  0.00000000000E+00  0.00000000000E+00 -0.20490243716E+03  0.37055410949E+04  0.36998715920E+04 0.  0.
        5    1    3    3  502    0 -0.54242043626E+03 -0.14119134365E+04  0.96431984888E+03  0.17937821336E+04  0.46999998093E+01 0.  1.
       -5    1    3    3    0  502  0.54242043626E+03  0.14119134365E+04 -0.11692222860E+04  0.19117589613E+04  0.46999998093E+01 0. -1.
</event>
<event>
 5   0  0.5714125E-09  0.3699599E+04  0.7818609E-02  0.8068051E-01
       -1   -1    0    0    0  501  0.00000000000E+00  0.00000000000E+00  0.12307770663E+04  0.12307770663E+04  0.50400001928E-02 0. -1.
        1   -1    0    0  501    0  0.00000000000E+00  0.00000000000E+00 -0.27801613906E+04  0.27801613906E+04  0.50400001928E-02 0.  1.
    10030    2    1    2    0    0  0.00000000000E+00  0.00000000000E+00 -0.15493843243E+04  0.40109384569E+04  0.36995993730E+04 0.  0.
        1    1    3    3  502    0  0.11230901416E+04 -0.25864445532E+03  0.79397549788E+03  0.13995090252E+04  0.50400001928E-02 0. -1.
       -1    1    3    3    0  502 -0.11230901416E+04  0.25864445532E+03 -0.23433598222E+04  0.26114294317E+04  0.50400001928E-02 0.  1.
</event>
<event>
 5   0  0.1825308E-08  0.3697571E+04  0.7818609E-02  0.8068500E-01
       -2   -1    0    0    0  501  0.00000000000E+00  0.00000000000E+00  0.16490658269E+04  0.16490658269E+04  0.25500000920E-02 0. -1.
        2   -1    0    0  501    0  0.00000000000E+00  0.00000000000E+00 -0.20726934825E+04  0.20726934825E+04  0.25500000920E-02 0.  1.
    10030    2    1    2    0    0  0.00000000000E+00  0.00000000000E+00 -0.42362765560E+03  0.37217593094E+04  0.36975710901E+04 0.  0.
        4    1    3    3  502    0 -0.87768513142E+02  0.16086992983E+04  0.70097552294E+03  0.17569817987E+04  0.12699999809E+01 0. -1.
       -4    1    3    3    0  502  0.87768513142E+02 -0.16086992983E+04 -0.11246031785E+04  0.19647775107E+04  0.12699999809E+01 0.  1.
</event>
<event>
 5   0  0.5714125E-09  0.3699828E+04  0.7818609E-02  0.8068000E-01
        1   -1    0    0  501    0  0.00000000000E+00  0.00000000000E+00  0.23854916618E+04  0.23854916618E+04  0.50400001928E-02 0.  1.
       -1   -1    0    0    0  501  0.00000000000E+00  0.00000000000E+00 -0.14345813102E+04  0.14345813102E+04  0.50400001928E-02 0. -1.
    10030    2    1    2    0    0  0.00000000000E+00  0.00000000000E+00  0.95091035158E+03  0.38200729721E+04  0.36998279710E+04 0.  0.
        3    1    3    3  502    0  0.12754804995E+04 -0.10930374667E+04 -0.32471601819E+03  0.17108541466E+04  0.10100000352E+00 0. -1.
       -3    1    3    3    0  502 -0.12754804995E+04  0.10930374667E+04  0.12756263698E+04  0.21092188255E+04  0.10100000352E+00 0.  1.
</event>
<event>
 5   0  0.5714125E-09  0.3700954E+04  0.7818609E-02  0.8067750E-01
       -1   -1    0    0    0  501  0.00000000000E+00  0.00000000000E+00  0.12423043222E+04  0.12423043222E+04  0.50400001928E-02 0.  1.
        1   -1    0    0  501    0  0.00000000000E+00  0.00000000000E+00 -0.27563819961E+04  0.27563819961E+04  0.50400001928E-02 0. -1.
    10030    2    1    2    0    0  0.00000000000E+00  0.00000000000E+00 -0.15140776739E+04  0.39986863184E+04  0.37009540756E+04 0.  0.
        2    1    3    3  502    0  0.10839036056E+03 -0.98227410887E+03 -0.24473968111E+04  0.26393866799E+04  0.25500000920E-02 0. -1.
       -2    1    3    3    0  502 -0.10839036056E+03  0.98227410887E+03  0.93331913718E+03  0.13592996384E+04  0.25500000920E-02 0.  1.
</event>
<event>
 5   0  0.5714125E-09  0.3701966E+04  0.7818609E-02  0.8067526E-01
        1   -1    0    0  501    0  0.00000000000E+00  0.00000000000E+00  0.19446167321E+04  0.19446167321E+04  0.50400001928E-02 0.  1.
       -1   -1    0    0    0  501  0.00000000000E+00  0.00000000000E+00 -0.17618577450E+04  0.17618577450E+04  0.50400001928E-02 0. -1.
    10030    2    1    2    0    0  0.00000000000E+00  0.00000000000E+00  0.18275898709E+03  0.37064744770E+04  0.37019659914E+04 0.  0.
        2    1    3    3  502    0  0.35887224284E+03 -0.14635642104E+04 -0.98479165547E+03  0.18001733498E+04  0.25500000920E-02 0. -1.
       -2    1    3    3    0  502 -0.35887224284E+03  0.14635642104E+04  0.11675506426E+04  0.19063011272E+04  0.25500000920E-02 0.  1.
</event>
<event>
 5   0  0.5714125E-09  0.3701184E+04  0.7818609E-02  0.8067700E-01
       -1   -1    0    0    0  501  0.00000000000E+00  0.00000000000E+00  0.13206464362E+04  0.13206464362E+04  0.50400001928E-02 0. -1.
        1   -1    0    0  501    0  0.00000000000E+00  0.00000000000E+00 -0.25931925874E+04  0.25931925874E+04  0.50400001928E-02 0.  1.
    10030    2    1    2    0    0  0.00000000000E+00  0.00000000000E+00 -0.12725461512E+04  0.39138390236E+04  0.37011838911E+04 0.  0.
        1    1    3    3  502    0  0.58459676685E+03  0.17553212552E+04 -0.68094305252E+03  0.19714435141E+04  0.50400001928E-02 0. -1.
       -1    1    3    3    0  502 -0.58459676685E+03 -0.17553212552E+04 -0.59160309869E+03  0.19423955094E+04  0.50400001928E-02 0.  1.
</event>
<event>
 5   0  0.5714125E-09  0.3697253E+04  0.7818609E-02  0.8068571E-01
       -1   -1    0    0    0  501  0.00000000000E+00  0.00000000000E+00  0.16850329200E+04  0.16850329201E+04  0.50400001928E-02 0. -1.
        1   -1    0    0  501    0  0.00000000000E+00  0.00000000000E+00 -0.20281024908E+04  0.20281024908E+04  0.50400001928E-02 0.  1.
    10030    2    1    2    0    0  0.00000000000E+00  0.00000000000E+00 -0.34306957078E+03  0.37131354109E+04  0.36972527435E+04 0.  0.
        5    1    3    3  502    0 -0.12233728835E+04 -0.11480035927E+04  0.60823084151E+03  0.17845224312E+04  0.46999998093E+01 0. -1.
       -5    1    3    3    0  502  0.12233728835E+04  0.11480035927E+04 -0.95130041228E+03  0.19286129797E+04  0.46999998093E+01 0.  1.
</event>
<event>
 5   0  0.5714125E-09  0.3699502E+04  0.7818609E-02  0.8068072E-01
        1   -1    0    0  501    0  0.00000000000E+00  0.00000000000E+00  0.22371147785E+04  0.22371147785E+04  0.50400001928E-02 0.  1.
       -1   -1    0    0    0  501  0.00000000000E+00  0.00000000000E+00 -0.15294601571E+04  0.15294601571E+04  0.50400001928E-02 0. -1.
    10030    2    1    2    0    0  0.00000000000E+00  0.00000000000E+00  0.70765462143E+03  0.37665749356E+04  0.36995015451E+04 0.  0.
        2    1    3    3  502    0 -0.43864095149E+03  0.13261050173E+04  0.15885040512E+04  0.21152554271E+04  0.25500000920E-02 0.  1.
       -2    1    3    3    0  502  0.43864095149E+03 -0.13261050173E+04 -0.88084942979E+03  0.16513195085E+04  0.25500000920E-02 0. -1.
</event>
<event>
 5   0  0.1825308E-08  0.3702049E+04  0.7818609E-02  0.8067508E-01
        2   -1    0    0  501    0  0.00000000000E+00  0.00000000000E+00  0.22137124204E+04  0.22137124204E+04  0.25500000920E-02 0. -1.
       -2   -1    0    0    0  501  0.00000000000E+00  0.00000000000E+00 -0.15477583228E+04  0.15477583228E+04  0.25500000920E-02 0.  1.
    10030    2    1    2    0    0  0.00000000000E+00  0.00000000000E+00  0.66595409769E+03  0.37614707432E+04  0.37020490666E+04 0.  0.
        4    1    3    3  502    0 -0.64950184236E+03  0.46874368950E+03 -0.13625551612E+04  0.15805478386E+04  0.12699999809E+01 0.  1.
       -4    1    3    3    0  502  0.64950184236E+03 -0.46874368950E+03  0.20285092589E+04  0.21809229047E+04  0.12699999809E+01 0. -1.
</event>
<event>
 5   0  0.1825308E-08  0.3693074E+04  0.7818609E-02  0.8069498E-01
       -2   -1    0    0    0  501  0.00000000000E+00  0.00000000000E+00  0.14289418288E+04  0.14289418288E+04  0.25500000920E-02 0.  1.
        2   -1    0    0  501    0  0.00000000000E+00  0.00000000000E+00 -0.23861706327E+04  0.23861706327E+04  0.25500000920E-02 0. -1.
    10030    2    1    2    0    0  0.00000000000E+00  0.00000000000E+00 -0.95722880386E+03  0.38151124615E+04  0.36930740733E+04 0.  0.
        4    1    3    3  502    0 -0.14377547861E+04 -0.16841216163E+03 -0.16628807417E+04  0.22046939595E+04  0.12699999809E+01 0. -1.
       -4    1    3    3    0  502  0.14377547861E+04  0.16841216163E+03  0.70565193781E+03  0.16104185020E+04  0.12699999809E+01 0.  1.
</event>
<event>
 5   0  0.1725865E-08  0.3699401E+04  0.7818609E-02  0.8068095E-01
       -2   -1    0    0    0  501  0.00000000000E+00  0.00000000000E+00  0.16355727726E+04  0.16355727726E+04  0.25500000920E-02 0.  1.
        2   -1    0    0  501    0  0.00000000000E+00  0.00000000000E+00 -0.20918613944E+04  0.20918613944E+04  0.25500000920E-02 0. -1.
    10030    2    1    2    0    0  0.00000000000E+00  0.00000000000E+00 -0.45628862179E+03  0.37274341670E+04  0.36994007843E+04 0.  0.
        1    1    3    3  502    0  0.10988464000E+04  0.90463432217E+03  0.96214795648E+03  0.17180091263E+04  0.50400001928E-02 0.  1.
       -1    1    3    3    0  502 -0.10988464000E+04 -0.90463432217E+03 -0.14184365783E+04  0.20094250407E+04  0.50400001928E-02 0. -1.
</event>
<event>
 5   0  0.5714125E-09  0.3699276E+04  0.7818609E-02  0.8068122E-01
        1   -1    0    0  501    0  0.00000000000E+00  0.00000000000E+00  0.26592845563E+04  0.26592845563E+04  0.50400001928E-02 0. -1.
       -1   -1    0    0    0  501  0.00000000000E+00  0.00000000000E+00 -0.12864967839E+04  0.12864967839E+04  0.50400001928E-02 0.  1.
    10030    2    1    2    0    0  0.00000000000E+00  0.00000000000E+00  0.13727877725E+04  0.39457813402E+04  0.36992761611E+04 0.  0.
        4    1    3    3  502    0 -0.16953187776E+04 -0.29133219369E+03 -0.38745449602E+02  0.17206054247E+04  0.12699999809E+01 0.  1.
       -4    1    3    3    0  502  0.16953187776E+04  0.29133219369E+03  0.14115332221E+04  0.22251759155E+04  0.12699999809E+01 0. -1.
</event>
<event>
 5   0  0.5714125E-09  0.3703893E+04  0.7818609E-02  0.8067100E-01
        1   -1    0    0  501    0  0.00000000000E+00  0.00000000000E+00  0.27461635915E+04  0.27461635915E+04  0.50400001928E-02 0.  1.
       -1   -1    0    0    0  501  0.00000000000E+00  0.00000000000E+00 -0.12489080643E+04  0.12489080644E+04  0.50400001928E-02 0. -1.
    10030    2    1    2    0    0  0.00000000000E+00  0.00000000000E+00  0.14972555271E+04  0.39950716559E+04  0.37038930090E+04 0.  0.
        4    1    3    3  502    0 -0.13029596581E+03 -0.14362806376E+04  0.20017830641E+04  0.24671879047E+04  0.12699999809E+01 0.  1.
       -4    1    3    3    0  502  0.13029596581E+03  0.14362806376E+04 -0.50452753693E+03  0.15278837512E+04  0.12699999809E+01 0. -1.
</event>
<event>
 5   0  0.1740290E-08  0.3699478E+04  0.7818609E-02  0.8068077E-01
       -2   -1    0    0    0  501  0.00000000000E+00  0.00000000000E+00  0.31508329144E+04  0.31508329144E+04  0.25500000920E-02 0. -1.
        2   -1    0    0  501    0  0.00000000000E+00  0.00000000000E+00 -0.10859143990E+04  0.10859143990E+04  0.25500000920E-02 0.  1.
    10030    2    1    2    0    0  0.00000000000E+00  0.00000000000E+00  0.20649185154E+04  0.42367473133E+04  0.36994782499E+04 0.  0.
        5    1    3    3  502    0  0.18026152023E+04 -0.37663954011E+03  0.83332835379E+03  0.20213206440E+04  0.46999998093E+01 0. -1.
       -5    1    3    3    0  502 -0.18026152023E+04  0.37663954011E+03  0.12315901616E+04  0.22154266693E+04  0.46999998093E+01 0.  1.
</event>
<event>
 5   0  0.5714125E-09  0.3697932E+04  0.7818609E-02  0.8068420E-01
       -1   -1    0    0    0  501  0.00000000000E+00  0.00000000000E+00  0.14944963881E+04  0.14944963881E+04  0.50400001928E-02 0. -1.
        1   -1    0    0  501    0  0.00000000000E+00  0.00000000000E+00 -0.22875098825E+04  0.22875098825E+04  0.50400001928E-02 0.  1.
    10030    2    1    2    0    0  0.00000000000E+00  0.00000000000E+00 -0.79301349445E+03  0.37820062706E+04  0.36979319935E+04 0.  0.
        5    1    3    3  502    0  0.11273787744E+04  0.81174066549E+03  0.85137613246E+03  0.16293462547E+04  0.46999998093E+01 0. -1.
       -5    1    3    3    0  502 -0.11273787744E+04 -0.81174066549E+03 -0.16443896269E+04  0.21526600159E+04  0.46999998093E+01 0.  1.
</event>
<event>
 5   0  0.5714125E-09  0.3699620E+04  0.7818609E-02  0.8068046E-01
       -3   -1    0    0    0  501  0.00000000000E+00  0.00000000000E+00  0.16472245025E+04  0.16472245056E+04  0.10100000352E+00 0.  1.
        3   -1    0    0  501    0  0.00000000000E+00  0.00000000000E+00 -0.20773101823E+04  0.20773101847E+04  0.10100000352E+00 0. -1.
    10030    2    1    2    0    0  0.00000000000E+00  0.00000000000E+00 -0.43008567983E+03  0.37245346903E+04  0.36996195706E+04 0.  0.
        2    1    3    3  502    0  0.61333230655E+03  0.12146058679E+04  0.10465334093E+04  0.17165885090E+04  0.25500000920E-02 0.  1.
       -2    1    3    3    0  502 -0.61333230655E+03 -0.12146058679E+04 -0.14766190891E+04  0.20079461813E+04  0.25500000920E-02 0. -1.
</event>
<event>
 5   0  0.1856107E-08  0.3698796E+04  0.7818609E-02  0.8068229E-01
        2   -1    0    0  501    0  0.00000000000E+00  0.00000000000E+00  0.13979192579E+04  0.13979192579E+04  0.25500000920E-02 0.  1.
       -2   -1    0    0    0  501  0.00000000000E+00  0.00000000000E+00 -0.24466884925E+04  0.24466884925E+04  0.25500000920E-02 0. -1.
    10030    2    1    2    0    0  0.00000000000E+00  0.00000000000E+00 -0.10487692346E+04  0.38446077504E+04  0.36987959997E+04 0.  0.
        2    1    3    3  502    0 -0.23487491446E+03  0.73544601935E+03  0.12224081006E+04  0.14457968866E+04  0.25500000920E-02 0.  1.
       -2    1    3    3    0  502  0.23487491446E+03 -0.73544601935E+03 -0.22711773352E+04  0.23988108639E+04  0.25500000920E-02 0. -1.
</event>
<event>
 5   0  0.5714125E-09  0.3700150E+04  0.7818609E-02  0.8067929E-01
       -1   -1    0    0    0  501  0.00000000000E+00  0.00000000000E+00  0.13866549824E+04  0.13866549824E+04  0.50400001928E-02 0. -1.
        1   -1    0    0  501    0  0.00000000000E+00  0.00000000000E+00 -0.24683703032E+04  0.24683703032E+04  0.50400001928E-02 0.  1.
    10030    2    1    2    0    0  0.00000000000E+00  0.00000000000E+00 -0.10817153207E+04  0.38550252856E+04  0.37001502561E+04 0.  0.
        3    1    3    3  502    0 -0.11625140661E+03  0.26119570671E+03 -0.24452162675E+04  0.24618733094E+04  0.10100000352E+00 0.  1.
       -3    1    3    3    0  502  0.11625140661E+03 -0.26119570671E+03  0.13635009467E+04  0.13931519762E+04  0.10100000352E+00 0. -1.
</event>
<event>
 5   0  0.1757996E-08  0.3698904E+04  0.7818609E-02  0.8068205E-01
       -2   -1    0    0    0  501  0.00000000000E+00  0.00000000000E+00  0.12985985447E+04  0.12985985447E+04  0.25500000920E-02 0. -1.
        2   -1    0    0  501    0  0.00000000000E+00  0.00000000000E+00 -0.26339721510E+04  0.26339721510E+04  0.25500000920E-02 0.  1.
    10030    2    1    2    0    0  0.00000000000E+00  0.00000000000E+00 -0.13353736063E+04  0.39325706958E+04  0.36989038388E+04 0.  0.
        3    1    3    3  502    0 -0.12374903816E+03  0.18282859678E+04 -0.93354141344E+03  0.20565609608E+04  0.10100000352E+00 0.  1.
       -3    1    3    3    0  502  0.12374903816E+03 -0.18282859678E+04 -0.40183219288E+03  0.18760097350E+04  0.10100000352E+00 0. -1.
</event>
<event>
 5   0  0.1825308E-08  0.3698542E+04  0.7818609E-02  0.8068285E-01
        2   -1    0    0  501    0  0.00000000000E+00  0.00000000000E+00  0.15694801726E+04  0.15694801726E+04  0.25500000920E-02 0.  1.
       -2   -1    0    0    0  501  0.00000000000E+00  0.00000000000E+00 -0.21789395779E+04  0.21789395779E+04  0.25500000920E-02 0. -1.
    10030    2    1    2    0    0  0.00000000000E+00  0.00000000000E+00 -0.60945940526E+03  0.37484197504E+04  0.36985415854E+04 0.  0.
        4    1    3    3  502    0  0.25819024217E+03 -0.12822161252E+04  0.10202109469E+04  0.16587864184E+04  0.12699999809E+01 0.  1.
       -4    1    3    3    0  502 -0.25819024217E+03  0.12822161252E+04 -0.16296703521E+04  0.20896333320E+04  0.12699999809E+01 0. -1.
</event>
<event>
 5   0  0.1825308E-08  0.3691076E+04  0.7818609E-02  0.8069942E-01
       -2   -1    0    0    0  501  0.00000000000E+00  0.00000000000E+00  0.12925323671E+04  0.12925323671E+04  0.25500000920E-02 0. -1.
        2   -1    0    0  501    0  0.00000000000E+00  0.00000000000E+00 -0.26351450006E+04  0.26351450006E+04  0.25500000920E-02 0.  1.
    10030    2    1    2    0    0  0.00000000000E+00  0.00000000000E+00 -0.13426126335E+04  0.39276773677E+04  0.36910758352E+04 0.  0.
        4    1    3    3  502    0 -0.15621095050E+03 -0.14748284370E+04  0.49750473040E+03  0.15642996354E+04  0.12699999809E+01 0. -1.
       -4    1    3    3    0  502  0.15621095050E+03  0.14748284370E+04 -0.18401173639E+04  0.23633777323E+04  0.12699999809E+01 0.  1.
</event>
<event>
 5   0  0.5714125E-09  0.3699536E+04  0.7818609E-02  0.8068065E-01
        1   -1    0    0  501    0  0.00000000000E+00  0.00000000000E+00  0.19899238603E+04  0.19899238603E+04  0.50400001928E-02 0.  1.
       -1   -1    0    0    0  501  0.00000000000E+00  0.00000000000E+00 -0.17194837208E+04  0.17194837208E+04  0.50400001928E-02 0. -1.
    10030    2    1    2    0    0  0.00000000000E+00  0.00000000000E+00  0.27044013952E+03  0.37094075810E+04  0.36995360159E+04 0.  0.
        2    1    3    3  502    0  0.14985245521E+04  0.64704040718E+02  0.12206423335E+04  0.19338381919E+04  0.25500000920E-02 0.  1.
       -2    1    3    3    0  502 -0.14985245521E+04 -0.64704040718E+02 -0.95020219394E+03  0.17755693891E+04  0.25500000920E-02 0. -1.
</event>
<event>
 5   0  0.1725865E-08  0.3700888E+04  0.7818609E-02  0.8067765E-01
       -2   -1    0    0    0  501  0.00000000000E+00  0.00000000000E+00  0.14588501883E+04  0.14588501883E+04  0.25500000920E-02 0. -1.
        2   -1    0    0  501    0  0.00000000000E+00  0.00000000000E+00 -0.23471517449E+04  0.23471517449E+04  0.25500000920E-02 0.  1.
    10030    2    1    2    0    0  0.00000000000E+00  0.00000000000E+00 -0.88830155661E+03  0.38060019332E+04  0.37008878746E+04 0.  0.
        1    1    3    3  502    0 -0.16859567277E+04  0.55066219643E+02 -0.12264537037E+04  0.20855865035E+04  0.50400001928E-02 0.  1.
       -1    1    3    3    0  502  0.16859567277E+04 -0.55066219643E+02  0.33815214708E+03  0.17204154297E+04  0.50400001928E-02 0. -1.
</event>
<event>
 5   0  0.5714125E-09  0.3699097E+04  0.7818609E-02  0.8068162E-01
       -1   -1    0    0    0  501  0.00000000000E+00  0.00000000000E+00  0.12850369328E+04  0.12850369328E+04  0.50400001928E-02 0.  1.
        1   -1    0    0  501    0  0.00000000000E+00  0.00000000000E+00 -0.26620474859E+04  0.26620474859E+04  0.50400001928E-02 0. -1.
    10030    2    1    2    0    0  0.00000000000E+00  0.00000000000E+00 -0.13770105531E+04  0.39470844187E+04  0.36990968283E+04 0.  0.
        1    1    3    3  502    0  0.39499901685E+03  0.17944117318E+04 -0.46242457216E+03  0.18946699374E+04  0.50400001928E-02 0. -1.
       -1    1    3    3    0  502 -0.39499901685E+03 -0.17944117318E+04 -0.91458598090E+03  0.20524144813E+04  0.50400001928E-02 0.  1.
</event>
<event>
 5   0  0.5714125E-09  0.3700134E+04  0.7818609E-02  0.8067932E-01
       -1   -1    0    0    0  501  0.00000000000E+00  0.00000000000E+00  0.14107131015E+04  0.14107131015E+04  0.50400001928E-02 0. -1.
        1   -1    0    0  501    0  0.00000000000E+00  0.00000000000E+00 -0.24262533094E+04  0.24262533094E+04  0.50400001928E-02 0.  1.
    10030    2    1    2    0    0  0.00000000000E+00  0.00000000000E+00 -0.10155402079E+04  0.38369664109E+04  0.37001336901E+04 0.  0.
        5    1    3    3  502    0 -0.94431599776E+03  0.39575961288E+03 -0.21056513260E+04  0.23413987212E+04  0.46999998093E+01 0.  1.
       -5    1    3    3    0  502  0.94431599776E+03 -0.39575961288E+03  0.10901111181E+04  0.14955676897E+04  0.46999998093E+01 0. -1.
</event>
<event>
 5   0  0.1725865E-08  0.3700067E+04  0.7818609E-02  0.8067947E-01
       -2   -1    0    0    0  501  0.00000000000E+00  0.00000000000E+00  0.16854853554E+04  0.16854853554E+04  0.25500000920E-02 0.  1.
        2   -1    0    0  501    0  0.00000000000E+00  0.00000000000E+00 -0.20306455463E+04  0.20306455463E+04  0.25500000920E-02 0. -1.
    10030    2    1    2    0    0  0.00000000000E+00  0.00000000000E+00 -0.34516019085E+03  0.37161309017E+04  0.37000666644E+04 0.  0.
        1    1    3    3  502    0  0.30759728090E+03  0.47600998873E+03  0.15961512313E+04  0.16937828520E+04  0.50400001928E-02 0.  1.
       -1    1    3    3    0  502 -0.30759728090E+03 -0.47600998873E+03 -0.19413114221E+04  0.20223480497E+04  0.50400001928E-02 0. -1.
</event>
<event>
 5   0  0.5714125E-09  0.3699736E+04  0.7818609E-02  0.8068020E-01
        1   -1    0    0  501    0  0.00000000000E+00  0.00000000000E+00  0.14402510775E+04  0.14402510776E+04  0.50400001928E-02 0. -1.
       -1   -1    0    0    0  501  0.00000000000E+00  0.00000000000E+00 -0.23759823673E+04  0.23759823673E+04  0.50400001928E-02 0.  1.
    10030    2    1    2    0    0  0.00000000000E+00  0.00000000000E+00 -0.93573128972E+03  0.38162334448E+04  0.36997357553E+04 0.  0.
        5    1    3    3  502    0 -0.25855208115E+03  0.58665655100E+03  0.13219888567E+04  0.14692486905E+04  0.46999998093E+01 0. -1.
       -5    1    3    3    0  502  0.25855208115E+03 -0.58665655100E+03 -0.22577201464E+04  0.23469847543E+04  0.46999998093E+01 0.  1.
</event>
<event>
 5   0  0.5714125E-09  0.3724800E+04  0.7818609E-02  0.8062488E-01
       -1   -1    0    0    0  501  0.00000000000E+00  0.00000000000E+00  0.17438942479E+04  0.17438942479E+04  0.50400001928E-02 0.  1.
        1   -1    0    0  501    0  0.00000000000E+00  0.00000000000E+00 -0.19889591487E+04  0.19889591487E+04  0.50400001928E-02 0. -1.
    10030    2    1    2    0    0  0.00000000000E+00  0.00000000000E+00 -0.24506490088E+03  0.37328533966E+04  0.37248003537E+04 0.  0.
        3    1    3    3  502    0  0.35446829103E+03 -0.83830515517E+03  0.15058285072E+04  0.17595234599E+04  0.10100000352E+00 0.  1.
       -3    1    3    3    0  502 -0.35446829103E+03  0.83830515517E+03 -0.17508934081E+04  0.19733299367E+04  0.10100000352E+00 0. -1.
</event>
<event>
 5   0  0.5714125E-09  0.3701012E+04  0.7818609E-02  0.8067737E-01
       -1   -1    0    0    0  501  0.00000000000E+00  0.00000000000E+00  0.16890320879E+04  0.16890320879E+04  0.50400001928E-02 0. -1.
        1   -1    0    0  501    0  0.00000000000E+00  0.00000000000E+00 -0.20274175358E+04  0.20274175358E+04  0.50400001928E-02 0.  1.
    10030    2    1    2    0    0  0.00000000000E+00  0.00000000000E+00 -0.33838544791E+03  0.37164496237E+04  0.37010124417E+04 0.  0.
        4    1    3    3  502    0  0.60406955682E+03  0.11532931139E+04 -0.14897393901E+04  0.19784615486E+04  0.12699999809E+01 0.  1.
       -4    1    3    3    0  502 -0.60406955682E+03 -0.11532931139E+04  0.11513539422E+04  0.17379880751E+04  0.12699999809E+01 0. -1.
</event>
<event>
 5   0  0.1740290E-08  0.3700599E+04  0.7818609E-02  0.8067829E-01
       -2   -1    0    0    0  501  0.00000000000E+00  0.00000000000E+00  0.14191182206E+04  0.14191182206E+04  0.25500000920E-02 0. -1.
        2   -1    0    0  501    0  0.00000000000E+00  0.00000000000E+00 -0.24124902689E+04  0.24124902689E+04  0.25500000920E-02 0.  1.
    10030    2    1    2    0    0  0.00000000000E+00  0.00000000000E+00 -0.99337204831E+03  0.38316084896E+04  0.37005993556E+04 0.  0.
        5    1    3    3  502    0 -0.43375620069E+03  0.34930314326E+03  0.13302720815E+04  0.14421522210E+04  0.46999998093E+01 0. -1.
       -5    1    3    3    0  502  0.43375620069E+03 -0.34930314326E+03 -0.23236441298E+04  0.23894562686E+04  0.46999998093E+01 0.  1.
</event>
<event>
 5   0  0.1725865E-08  0.3699187E+04  0.7818609E-02  0.8068142E-01
       -2   -1    0    0    0  501  0.00000000000E+00  0.00000000000E+00  0.13233150800E+04  0.13233150800E+04  0.25500000920E-02 0.  1.
        2   -1    0    0  501    0  0.00000000000E+00  0.00000000000E+00 -0.25851717493E+04  0.25851717493E+04  0.25500000920E-02 0. -1.
    10030    2    1    2    0    0  0.00000000000E+00  0.00000000000E+00 -0.12618566694E+04  0.39084868293E+04  0.36991873487E+04 0.  0.
        1    1    3    3  502    0 -0.10827368768E+03 -0.18352574991E+04 -0.84513926474E+03  0.20234015064E+04  0.50400001928E-02 0.  1.
       -1    1    3    3    0  502  0.10827368768E+03  0.18352574991E+04 -0.41671740464E+03  0.18850853229E+04  0.50400001928E-02 0. -1.
</event>
<event>
 5   0  0.5714125E-09  0.3699850E+04  0.7818609E-02  0.8067995E-01
       -1   -1    0    0    0  501  0.00000000000E+00  0.00000000000E+00  0.25021217223E+04  0.25021217223E+04  0.50400001928E-02 0. -1.
        1   -1    0    0  501    0  0.00000000000E+00  0.00000000000E+00 -0.13677284151E+04  0.13677284151E+04  0.50400001928E-02 0.  1.
    10030    2    1    2    0    0  0.00000000000E+00  0.00000000000E+00  0.11343933072E+04  0.38698501373E+04  0.36998502551E+04 0.  0.
        2    1    3    3  502    0  0.18139731250E+04 -0.32218968803E+03  0.74196161340E+03  0.19861550114E+04  0.25500000920E-02 0. -1.
       -2    1    3    3    0  502 -0.18139731250E+04  0.32218968803E+03  0.39243169379E+03  0.18836951260E+04  0.25500000920E-02 0.  1.
</event>
<event>
 5   0  0.5714125E-09  0.3700790E+04  0.7818609E-02  0.8067787E-01
       -1   -1    0    0    0  501  0.00000000000E+00  0.00000000000E+00  0.20335193591E+04  0.20335193591E+04  0.50400001928E-02 0.  1.
        1   -1    0    0  501    0  0.00000000000E+00  0.00000000000E+00 -0.16837614840E+04  0.16837614840E+04  0.50400001928E-02 0. -1.
    10030    2    1    2    0    0  0.00000000000E+00  0.00000000000E+00  0.34975787515E+03  0.37172808431E+04  0.37007899556E+04 0.  0.
        5    1    3    3  502    0 -0.10996400847E+04  0.12983097818E+04 -0.55577075687E+03  0.17898938040E+04  0.46999998093E+01 0. -1.
       -5    1    3    3    0  502  0.10996400847E+04 -0.12983097818E+04  0.90552863201E+03  0.19273870391E+04  0.46999998093E+01 0.  1.
</event>
<event>
 5   0  0.1757996E-08  0.3700458E+04  0.7818609E-02  0.8067860E-01
        2   -1    0    0  501    0  0.00000000000E+00  0.00000000000E+00  0.14287104815E+04  0.14287104815E+04  0.25500000920E-02 0. -1.
       -2   -1    0    0    0  501  0.00000000000E+00  0.00000000000E+00 -0.23961103908E+04  0.23961103908E+04  0.25500000920E-02 0.  1.
    10030    2    1    2    0    0  0.00000000000E+00  0.00000000000E+00 -0.96739990925E+03  0.38248208723E+04  0.37004583663E+04 0.  0.
        3    1    3    3  502    0  0.33207692614E+03 -0.18201744478E+04 -0.49006436819E+03  0.19140201672E+04  0.10100000352E+00 0.  1.
       -3    1    3    3    0  502 -0.33207692614E+03  0.18201744478E+04 -0.47733554105E+03  0.19108007050E+04  0.10100000352E+00 0. -1.
</event>
<event>
 5   0  0.1725865E-08  0.3712983E+04  0.7818609E-02  0.8065091E-01
       -2   -1    0    0    0  501  0.00000000000E+00  0.00000000000E+00  0.17739853002E+04  0.17739853002E+04  0.25500000920E-02 0. -1.
        2   -1    0    0  501    0  0.00000000000E+00  0.00000000000E+00 -0.19428351067E+04  0.19428351067E+04  0.25500000920E-02 0.  1.
    10030    2    1    2    0    0  0.00000000000E+00  0.00000000000E+00 -0.16884980645E+03  0.37168204069E+04  0.37129831241E+04 0.  0.
        1    1    3    3  502    0 -0.88997075313E+03 -0.13729983537E+03 -0.17095748473E+04  0.19322384285E+04  0.50400001928E-02 0.  1.
       -1    1    3    3    0  502  0.88997075313E+03  0.13729983537E+03  0.15407250408E+04  0.17845819784E+04  0.50400001928E-02 0. -1.
</event>
<event>
 5   0  0.5714125E-09  0.3700104E+04  0.7818609E-02  0.8067939E-01
        3   -1    0    0  501    0  0.00000000000E+00  0.00000000000E+00  0.22939821981E+04  0.22939822003E+04  0.10100000352E+00 0.  1.
       -3   -1    0    0    0  501  0.00000000000E+00  0.00000000000E+00 -0.14920312678E+04  0.14920312712E+04  0.10100000352E+00 0. -1.
    10030    2    1    2    0    0  0.00000000000E+00  0.00000000000E+00  0.80195093025E+03  0.37860134715E+04  0.37001044190E+04 0.  0.
        4    1    3    3  502    0 -0.65949816861E+03  0.57648923532E+03 -0.12664033765E+04  0.15398236255E+04  0.12699999809E+01 0. -1.
       -4    1    3    3    0  502  0.65949816861E+03 -0.57648923532E+03  0.20683543068E+04  0.22461898459E+04  0.12699999809E+01 0.  1.
</event>
<event>
 5   0  0.5714125E-09  0.3711892E+04  0.7818609E-02  0.8065332E-01
        1   -1    0    0  501    0  0.00000000000E+00  0.00000000000E+00  0.20647386887E+04  0.20647386887E+04  0.50400001928E-02 0. -1.
       -1   -1    0    0    0  501  0.00000000000E+00  0.00000000000E+00 -0.16682670354E+04  0.16682670354E+04  0.50400001928E-02 0.  1.
    10030    2    1    2    0    0  0.00000000000E+00  0.00000000000E+00  0.39647165327E+03  0.37330057241E+04  0.37118919656E+04 0.  0.
        2    1    3    3  502    0 -0.91916965909E+03 -0.58753395596E+03  0.17082645884E+04  0.20268786139E+04  0.25500000920E-02 0. -1.
       -2    1    3    3    0  502  0.91916965909E+03  0.58753395596E+03 -0.13117929351E+04  0.17061271102E+04  0.25500000920E-02 0.  1.
</event>
<event>
 5   0  0.5714125E-09  0.3697291E+04  0.7818609E-02  0.8068563E-01
        1   -1    0    0  501    0  0.00000000000E+00  0.00000000000E+00  0.25245728857E+04  0.25245728857E+04  0.50400001928E-02 0.  1.
       -1   -1    0    0    0  501  0.00000000000E+00  0.00000000000E+00 -0.13536901524E+04  0.13536901525E+04  0.50400001928E-02 0. -1.
    10030    2    1    2    0    0  0.00000000000E+00  0.00000000000E+00  0.11708827333E+04  0.38782630382E+04  0.36972906051E+04 0.  0.
        5    1    3    3  502    0  0.39575155886E+03 -0.12051911101E+04  0.19960171219E+04  0.23649971139E+04  0.46999998093E+01 0.  1.
       -5    1    3    3    0  502 -0.39575155886E+03  0.12051911101E+04 -0.82513438860E+03  0.15132659242E+04  0.46999998093E+01 0. -1.
</event>
<event>
 5   0  0.5714125E-09  0.3700045E+04  0.7818609E-02  0.8067952E-01
       -1   -1    0    0    0  501  0.00000000000E+00  0.00000000000E+00  0.12505501310E+04  0.12505501310E+04  0.50400001928E-02 0. -1.
        1   -1    0    0  501    0  0.00000000000E+00  0.00000000000E+00 -0.27368625701E+04  0.27368625701E+04  0.50400001928E-02 0.  1.
    10030    2    1    2    0    0  0.00000000000E+00  0.00000000000E+00 -0.14863124391E+04  0.39874127011E+04  0.37000453217E+04 0.  0.
        2    1    3    3  502    0 -0.51910704715E+03 -0.87524190574E+03  0.92185097463E+03  0.13730731005E+04  0.25500000920E-02 0. -1.
       -2    1    3    3    0  502  0.51910704715E+03  0.87524190574E+03 -0.24081634138E+04  0.26143396006E+04  0.25500000920E-02 0.  1.
</event>
<event>
 5   0  0.5714125E-09  0.3700631E+04  0.7818609E-02  0.8067822E-01
        1   -1    0    0  501    0  0.00000000000E+00  0.00000000000E+00  0.18921942053E+04  0.18921942053E+04  0.50400001928E-02 0.  1.
       -1   -1    0    0    0  501  0.00000000000E+00  0.00000000000E+00 -0.18093635038E+04  0.18093635038E+04  0.50400001928E-02 0. -1.
    10030    2    1    2    0    0  0.00000000000E+00  0.00000000000E+00  0.82830701510E+02  0.37015577091E+04  0.37006308311E+04 0.  0.
        5    1    3    3  502    0 -0.41284813533E+03  0.17004635002E+04 -0.56008819881E+03  0.18373188561E+04  0.46999998093E+01 0. -1.
       -5    1    3    3    0  502  0.41284813533E+03 -0.17004635002E+04  0.64291890032E+03  0.18642388530E+04  0.46999998093E+01 0.  1.
</event>
<event>
 5   0  0.5714125E-09  0.3700126E+04  0.7818609E-02  0.8067934E-01
       -1   -1    0    0    0  501  0.00000000000E+00  0.00000000000E+00  0.30189962383E+04  0.30189962383E+04  0.50400001928E-02 0. -1.
        1   -1    0    0  501    0  0.00000000000E+00  0.00000000000E+00 -0.11337318851E+04  0.11337318851E+04  0.50400001928E-02 0.  1.
    10030    2    1    2    0    0  0.00000000000E+00  0.00000000000E+00  0.18852643532E+04  0.41527281235E+04  0.37001255635E+04 0.  0.
        2    1    3    3  502    0  0.10296965808E+04  0.12649550078E+04  0.19225578174E+04  0.25212327901E+04  0.25500000920E-02 0. -1.
       -2    1    3    3    0  502 -0.10296965808E+04 -0.12649550078E+04 -0.37293464248E+02  0.16314953334E+04  0.25500000920E-02 0.  1.
</event>
<event>
 5   0  0.1757996E-08  0.3698461E+04  0.7818609E-02  0.8068303E-01
        2   -1    0    0  501    0  0.00000000000E+00  0.00000000000E+00  0.16109284755E+04  0.16109284755E+04  0.25500000920E-02 0. -1.
       -2   -1    0    0    0  501  0.00000000000E+00  0.00000000000E+00 -0.21227840726E+04  0.21227840726E+04  0.25500000920E-02 0.  1.
    10030    2    1    2    0    0  0.00000000000E+00  0.00000000000E+00 -0.51185559713E+03  0.37337125481E+04  0.36984609285E+04 0.  0.
        3    1    3    3  502    0  0.36500456765E+03 -0.17485167283E+04  0.22729327166E+03  0.18006113754E+04  0.10100000352E+00 0.  1.
       -3    1    3    3    0  502 -0.36500456765E+03  0.17485167283E+04 -0.73914886879E+03  0.19331011727E+04  0.10100000352E+00 0. -1.
</event>
<event>
 5   0  0.1856107E-08  0.3698430E+04  0.7818609E-02  0.8068310E-01
       -2   -1    0    0    0  501  0.00000000000E+00  0.00000000000E+00  0.17407412228E+04  0.17407412228E+04  0.25500000920E-02 0. -1.
        2   -1    0    0  501    0  0.00000000000E+00  0.00000000000E+00 -0.19644478656E+04  0.19644478656E+04  0.25500000920E-02 0.  1.
    10030    2    1    2    0    0  0.00000000000E+00  0.00000000000E+00 -0.22370664288E+03  0.37051890884E+04  0.36984296017E+04 0.  0.
        2    1    3    3  502    0  0.33383008856E+03 -0.16545837245E+04 -0.86855196752E+03  0.18982814200E+04  0.25500000920E-02 0.  1.
       -2    1    3    3    0  502 -0.33383008856E+03  0.16545837245E+04  0.64484532463E+03  0.18069076684E+04  0.25500000920E-02 0. -1.
</event>
<event>
 5   0  0.1725865E-08  0.3699143E+04  0.7818609E-02  0.8068152E-01
       -2   -1    0    0    0  501  0.00000000000E+00  0.00000000000E+00  0.14028274216E+04  0.14028274216E+04  0.25500000920E-02 0.  1.
        2   -1    0    0  501    0  0.00000000000E+00  0.00000000000E+00 -0.24385858533E+04  0.24385858533E+04  0.25500000920E-02 0. -1.
    10030    2    1    2    0    0  0.00000000000E+00  0.00000000000E+00 -0.10357584317E+04  0.38414132748E+04  0.36991432007E+04 0.  0.
        1    1    3    3  502    0  0.10987588857E+04 -0.84837766754E+03  0.75138067935E+03  0.15784766964E+04  0.50400001928E-02 0.  1.
       -1    1    3    3    0  502 -0.10987588857E+04  0.84837766754E+03 -0.17871391110E+04  0.22629365784E+04  0.50400001928E-02 0. -1.
</event>
<event>
 5   0  0.5714125E-09  0.3699961E+04  0.7818609E-02  0.8067971E-01
        1   -1    0    0  501    0  0.00000000000E+00  0.00000000000E+00  0.13582122352E+04  0.13582122352E+04  0.50400001928E-02 0.  1.
       -1   -1    0    0    0  501  0.00000000000E+00  0.00000000000E+00 -0.25198029118E+04  0.25198029118E+04  0.50400001928E-02 0. -1.
    10030    2    1    2    0    0  0.00000000000E+00  0.00000000000E+00 -0.11615906766E+04  0.38780151470E+04  0.36999606187E+04 0.  0.
        2    1    3    3  502    0 -0.11245874536E+04 -0.19568144809E+03  0.94509336457E+03  0.14819546679E+04  0.25500000920E-02 0.  1.
       -2    1    3    3    0  502  0.11245874536E+04  0.19568144809E+03 -0.21066840412E+04  0.23960604791E+04  0.25500000920E-02 0. -1.
</event>
<event>
 5   0  0.1825308E-08  0.3700570E+04  0.7818609E-02  0.8067835E-01
        2   -1    0    0  501    0  0.00000000000E+00  0.00000000000E+00  0.23207656737E+04  0.23207656737E+04  0.25500000920E-02 0.  1.
       -2   -1    0    0    0  501  0.00000000000E+00  0.00000000000E+00 -0.14751834952E+04  0.14751834952E+04  0.25500000920E-02 0. -1.
    10030    2    1    2    0    0  0.00000000000E+00  0.00000000000E+00  0.84558217853E+03  0.37959491689E+04  0.37005703442E+04 0.  0.
        4    1    3    3  502    0 -0.10761804078E+04  0.14786845577E+04  0.13469405186E+03  0.18337983509E+04  0.12699999809E+01 0. -1.
       -4    1    3    3    0  502  0.10761804078E+04 -0.14786845577E+04  0.71088812667E+03  0.19621508180E+04  0.12699999809E+01 0.  1.
</event>
<event>
 5   0  0.5714125E-09  0.3700105E+04  0.7818609E-02  0.8067939E-01
        1   -1    0    0  501    0  0.00000000000E+00  0.00000000000E+00  0.22032118218E+04  0.22032118218E+04  0.50400001928E-02 0. -1.
       -1   -1    0    0    0  501  0.00000000000E+00  0.00000000000E+00 -0.15535019888E+04  0.15535019888E+04  0.50400001928E-02 0.  1.
    10030    2    1    2    0    0  0.00000000000E+00  0.00000000000E+00  0.64970983305E+03  0.37567138106E+04  0.37001048347E+04 0.  0.
        1    1    3    3  502    0 -0.14463464256E+04  0.18553499145E+03  0.14808491717E+04  0.20782818590E+04  0.50400001928E-02 0. -1.
       -1    1    3    3    0  502  0.14463464256E+04 -0.18553499145E+03 -0.83113933862E+03  0.16784319516E+04  0.50400001928E-02 0.  1.
</event>
<event>
 5   0  0.5714125E-09  0.3698912E+04  0.7818609E-02  0.8068203E-01
        1   -1    0    0  501    0  0.00000000000E+00  0.00000000000E+00  0.20033688290E+04  0.20033688290E+04  0.50400001928E-02 0.  1.
       -1   -1    0    0    0  501  0.00000000000E+00  0.00000000000E+00 -0.17073678953E+04  0.17073678953E+04  0.50400001928E-02 0. -1.
    10030    2    1    2    0    0  0.00000000000E+00  0.00000000000E+00  0.29600093369E+03  0.37107367243E+04  0.36989120676E+04 0.  0.
        4    1    3    3  502    0  0.11577173757E+04  0.60964174772E+03 -0.11632792186E+04  0.17507691841E+04  0.12699999809E+01 0. -1.
       -4    1    3    3    0  502 -0.11577173757E+04 -0.60964174772E+03  0.14592801523E+04  0.19599675402E+04  0.12699999809E+01 0.  1.
</event>
<event>
 5   0  0.1757996E-08  0.3683121E+04  0.7818609E-02  0.8071713E-01
        2   -1    0    0  501    0  0.00000000000E+00  0.00000000000E+00  0.24791918595E+04  0.24791918595E+04  0.25500000920E-02 0. -1.
       -2   -1    0    0    0  501  0.00000000000E+00  0.00000000000E+00 -0.13679235175E+04  0.13679235175E+04  0.25500000920E-02 0.  1.
    10030    2    1    2    0    0  0.00000000000E+00  0.00000000000E+00  0.11112683420E+04  0.38471153770E+04  0.36831208772E+04 0.  0.
        3    1    3    3  502    0  0.85142013984E+03  0.10189451494E+04 -0.77718233441E+03  0.15385635713E+04  0.10100000352E+00 0.  1.
       -3    1    3    3    0  502 -0.85142013984E+03 -0.10189451494E+04  0.18884506764E+04  0.23085518056E+04  0.10100000352E+00 0. -1.
</event>
<event>
 5   0  0.5714125E-09  0.3700736E+04  0.7818609E-02  0.8067799E-01
       -1   -1    0    0    0  501  0.00000000000E+00  0.00000000000E+00  0.22238327770E+04  0.22238327770E+04  0.50400001928E-02 0.  1.
        1   -1    0    0  501    0  0.00000000000E+00  0.00000000000E+00 -0.15396220716E+04  0.15396220716E+04  0.50400001928E-02 0. -1.
    10030    2    1    2    0    0  0.00000000000E+00  0.00000000000E+00  0.68421070542E+03  0.37634548486E+04  0.37007361576E+04 0.  0.
        5    1    3    3  502    0 -0.14691189177E+04  0.85400946319E+03 -0.40255962708E+03  0.17463444393E+04  0.46999998093E+01 0. -1.
       -5    1    3    3    0  502  0.14691189177E+04 -0.85400946319E+03  0.10867703325E+04  0.20171104092E+04  0.46999998093E+01 0.  1.
</event>
<event>
 5   0  0.1757996E-08  0.3717286E+04  0.7818609E-02  0.8064142E-01
        2   -1    0    0  501    0  0.00000000000E+00  0.00000000000E+00  0.30344761687E+04  0.30344761687E+04  0.25500000920E-02 0. -1.
       -2   -1    0    0    0  501  0.00000000000E+00  0.00000000000E+00 -0.11384348638E+04  0.11384348638E+04  0.25500000920E-02 0.  1.
    10030    2    1    2    0    0  0.00000000000E+00  0.00000000000E+00  0.18960413049E+04  0.41729110325E+04  0.37172858184E+04 0.  0.
        3    1    3    3  502    0  0.46030746652E+03  0.11358153015E+04 -0.62060443325E+03  0.13737209453E+04  0.10100000352E+00 0.  1.
       -3    1    3    3    0  502 -0.46030746652E+03 -0.11358153015E+04  0.25166457381E+04  0.27991900872E+04  0.10100000352E+00 0. -1.
</event>
<event>
 5   0  0.5714125E-09  0.3699143E+04  0.7818609E-02  0.8068152E-01
        1   -1    0    0  501    0  0.00000000000E+00  0.00000000000E+00  0.24992107792E+04  0.24992107792E+04  0.50400001928E-02 0. -1.
       -1   -1    0    0    0  501  0.00000000000E+00  0.00000000000E+00 -0.13687977530E+04  0.13687977530E+04  0.50400001928E-02 0.  1.
    10030    2    1    2    0    0  0.00000000000E+00  0.00000000000E+00  0.11304130262E+04  0.38680085322E+04  0.36991426568E+04 0.  0.
        4    1    3    3  502    0 -0.15565062096E+04  0.28180770472E+03 -0.43708341855E+03  0.16410882642E+04  0.12699999809E+01 0.  1.
       -4    1    3    3    0  502  0.15565062096E+04 -0.28180770472E+03  0.15674964447E+04  0.22269202680E+04  0.12699999809E+01 0. -1.
</event>
<event>
 5   0  0.5714125E-09  0.3700713E+04  0.7818609E-02  0.8067804E-01
       -1   -1    0    0    0  501  0.00000000000E+00  0.00000000000E+00  0.21766317306E+04  0.21766317306E+04  0.50400001928E-02 0.  1.
        1   -1    0    0  501    0  0.00000000000E+00  0.00000000000E+00 -0.15729895906E+04  0.15729895906E+04  0.50400001928E-02 0. -1.
    10030    2    1    2    0    0  0.00000000000E+00  0.00000000000E+00  0.60364214004E+03  0.37496213212E+04  0.37007129339E+04 0.  0.
        5    1    3    3  502    0  0.13390037164E+04  0.84235029208E+03 -0.67071423355E+03  0.17182446392E+04  0.46999998093E+01 0. -1.
       -5    1    3    3    0  502 -0.13390037164E+04 -0.84235029208E+03  0.12743563736E+04  0.20313766820E+04  0.46999998093E+01 0.  1.
</event>
<event>
 5   0  0.1740290E-08  0.3700535E+04  0.7818609E-02  0.8067843E-01
        2   -1    0    0  501    0  0.00000000000E+00  0.00000000000E+00  0.13188331707E+04  0.13188331707E+04  0.25500000920E-02 0.  1.
       -2   -1    0    0    0  501  0.00000000000E+00  0.00000000000E+00 -0.25958471589E+04  0.25958471589E+04  0.25500000920E-02 0. -1.
    10030    2    1    2    0    0  0.00000000000E+00  0.00000000000E+00 -0.12770139882E+04  0.39146803296E+04  0.37005347394E+04 0.  0.
        5    1    3    3  502    0  0.35845372279E+03 -0.50953383951E+03  0.12045401841E+04  0.13561168645E+04  0.46999998093E+01 0.  1.
       -5    1    3    3    0  502 -0.35845372279E+03  0.50953383951E+03 -0.24815541723E+04  0.25585634652E+04  0.46999998093E+01 0. -1.
</event>
<event>
 5   0  0.5714125E-09  0.3700128E+04  0.7818609E-02  0.8067934E-01
        1   -1    0    0  501    0  0.00000000000E+00  0.00000000000E+00  0.22626476477E+04  0.22626476477E+04  0.50400001928E-02 0.  1.
       -1   -1    0    0    0  501  0.00000000000E+00  0.00000000000E+00 -0.15127128680E+04  0.15127128681E+04  0.50400001928E-02 0. -1.
    10030    2    1    2    0    0  0.00000000000E+00  0.00000000000E+00  0.74993477963E+03  0.37753605157E+04  0.37001276802E+04 0.  0.
        1    1    3    3  502    0  0.12144608740E+04  0.35021530297E+03 -0.10034901980E+04  0.16138644771E+04  0.50400001928E-02 0. -1.
       -1    1    3    3    0  502 -0.12144608740E+04 -0.35021530297E+03  0.17534249776E+04  0.21614960386E+04  0.50400001928E-02 0.  1.
</event>
<event>
 5   0  0.1740290E-08  0.3702764E+04  0.7818609E-02  0.8067350E-01
       -2   -1    0    0    0  501  0.00000000000E+00  0.00000000000E+00  0.29876383191E+04  0.29876383191E+04  0.25500000920E-02 0. -1.
        2   -1    0    0  501    0  0.00000000000E+00  0.00000000000E+00 -0.11472658504E+04  0.11472658504E+04  0.25500000920E-02 0.  1.
    10030    2    1    2    0    0  0.00000000000E+00  0.00000000000E+00  0.18403724687E+04  0.41349041696E+04  0.37027640578E+04 0.  0.
        5    1    3    3  502    0  0.18825169514E+03  0.17984492733E+04  0.47667643405E+03  0.18700537431E+04  0.46999998093E+01 0.  1.
       -5    1    3    3    0  502 -0.18825169514E+03 -0.17984492733E+04  0.13636960346E+04  0.22648504264E+04  0.46999998093E+01 0. -1.
</event>
<event>
 5   0  0.5714125E-09  0.3698598E+04  0.7818609E-02  0.8068273E-01
        1   -1    0    0  501    0  0.00000000000E+00  0.00000000000E+00  0.18889817633E+04  0.18889817633E+04  0.50400001928E-02 0. -1.
       -1   -1    0    0    0  501  0.00000000000E+00  0.00000000000E+00 -0.18104496650E+04  0.18104496650E+04  0.50400001928E-02 0.  1.
    10030    2    1    2    0    0  0.00000000000E+00  0.00000000000E+00  0.78532098306E+02  0.36994314284E+04  0.36985977887E+04 0.  0.
        2    1    3    3  502    0 -0.94220650496E+03  0.19604388605E+03  0.16187736814E+04  0.18832457447E+04  0.25500000920E-02 0. -1.
       -2    1    3    3    0  502  0.94220650496E+03 -0.19604388605E+03 -0.15402415831E+04  0.18161856837E+04  0.25500000920E-02 0.  1.
</event>
<event>
 5   0  0.5714125E-09  0.3703001E+04  0.7818609E-02  0.8067297E-01
        1   -1    0    0  501    0  0.00000000000E+00  0.00000000000E+00  0.25336329242E+04  0.25336329242E+04  0.50400001928E-02 0. -1.
       -1   -1    0    0    0  501  0.00000000000E+00  0.00000000000E+00 -0.13530192778E+04  0.13530192778E+04  0.50400001928E-02 0.  1.
    10030    2    1    2    0    0  0.00000000000E+00  0.00000000000E+00  0.11806136464E+04  0.38866522020E+04  0.37030010474E+04 0.  0.
        3    1    3    3  502    0  0.11110894589E+04 -0.13461664693E+04 -0.57872598558E+02  0.17464344238E+04  0.10100000352E+00 0.  1.
       -3    1    3    3    0  502 -0.11110894589E+04  0.13461664693E+04  0.12384862449E+04  0.21402177782E+04  0.10100000352E+00 0. -1.
</event>
<event>
 5   0  0.5714125E-09  0.3699517E+04  0.7818609E-02  0.8068069E-01
       -1   -1    0    0    0  501  0.00000000000E+00  0.00000000000E+00  0.16043653708E+04  0.16043653708E+04  0.50400001928E-02 0. -1.
        1   -1    0    0  501    0  0.00000000000E+00  0.00000000000E+00 -0.21326853837E+04  0.21326853837E+04  0.50400001928E-02 0.  1.
    10030    2    1    2    0    0  0.00000000000E+00  0.00000000000E+00 -0.52832001285E+03  0.37370507545E+04  0.36995170368E+04 0.  0.
        5    1    3    3  502    0  0.26220088439E+03 -0.54476727366E+03  0.15017361971E+04  0.16188744182E+04  0.46999998093E+01 0. -1.
       -5    1    3    3    0  502 -0.26220088439E+03  0.54476727366E+03 -0.20300562099E+04  0.21181763363E+04  0.46999998093E+01 0.  1.
</event>
<event>
 5   0  0.1856107E-08  0.3700325E+04  0.7818609E-02  0.8067890E-01
       -2   -1    0    0    0  501  0.00000000000E+00  0.00000000000E+00  0.16267197319E+04  0.16267197319E+04  0.25500000920E-02 0. -1.
        2   -1    0    0  501    0  0.00000000000E+00  0.00000000000E+00 -0.21042969321E+04  0.21042969321E+04  0.25500000920E-02 0.  1.
    10030    2    1    2    0    0  0.00000000000E+00  0.00000000000E+00 -0.47757720026E+03  0.37310166640E+04  0.37003250351E+04 0.  0.
        2    1    3    3  502    0 -0.14395926740E+04 -0.73296414821E+03 -0.11481771846E+04  0.19819117934E+04  0.25500000920E-02 0.  1.
       -2    1    3    3    0  502  0.14395926740E+04  0.73296414821E+03  0.67059998435E+03  0.17491048706E+04  0.25500000920E-02 0. -1.
</event>
<event>
 5   0  0.1725865E-08  0.3697559E+04  0.7818609E-02  0.8068503E-01
       -2   -1    0    0    0  501  0.00000000000E+00  0.00000000000E+00  0.18707545181E+04  0.18707545181E+04  0.25500000920E-02 0.  1.
        2   -1    0    0  501    0  0.00000000000E+00  0.00000000000E+00 -0.18270622640E+04  0.18270622640E+04  0.25500000920E-02 0. -1.
    10030    2    1    2    0    0  0.00000000000E+00  0.00000000000E+00  0.43692254048E+02  0.36978167821E+04  0.36975586460E+04 0.  0.
        1    1    3    3  502    0  0.24353909751E+03 -0.72913520164E+03  0.17033425706E+04  0.18687764305E+04  0.50400001928E-02 0.  1.
       -1    1    3    3    0  502 -0.24353909751E+03  0.72913520164E+03 -0.16596503166E+04  0.18290403516E+04  0.50400001928E-02 0. -1.
</event>
<event>
 5   0  0.5714125E-09  0.3701912E+04  0.7818609E-02  0.8067538E-01
       -1   -1    0    0    0  501  0.00000000000E+00  0.00000000000E+00  0.13307650017E+04  0.13307650017E+04  0.50400001928E-02 0. -1.
        1   -1    0    0  501    0  0.00000000000E+00  0.00000000000E+00 -0.25744875327E+04  0.25744875327E+04  0.50400001928E-02 0.  1.
    10030    2    1    2    0    0  0.00000000000E+00  0.00000000000E+00 -0.12437225310E+04  0.39052525344E+04  0.37019118876E+04 0.  0.
        1    1    3    3  502    0  0.14690907195E+04  0.51588221828E+03 -0.16776734217E+04  0.22888752948E+04  0.50400001928E-02 0. -1.
       -1    1    3    3    0  502 -0.14690907195E+04 -0.51588221828E+03  0.43395089066E+03  0.16163772396E+04  0.50400001928E-02 0.  1.
</event>
<event>
 5   0  0.5714125E-09  0.3700550E+04  0.7818609E-02  0.8067840E-01
       -1   -1    0    0    0  501  0.00000000000E+00  0.00000000000E+00  0.14550259693E+04  0.14550259693E+04  0.50400001928E-02 0.  1.
        1   -1    0    0  501    0  0.00000000000E+00  0.00000000000E+00 -0.23528913406E+04  0.23528913406E+04  0.50400001928E-02 0. -1.
    10030    2    1    2    0    0  0.00000000000E+00  0.00000000000E+00 -0.89786537137E+03  0.38079173099E+04  0.37005502312E+04 0.  0.
        3    1    3    3  502    0 -0.30942319860E+03  0.91271407086E+03  0.11763646833E+04  0.15207312613E+04  0.10100000352E+00 0.  1.
       -3    1    3    3    0  502  0.30942319860E+03 -0.91271407086E+03 -0.20742300546E+04  0.22871860486E+04  0.10100000352E+00 0. -1.
</event>
<event>
 5   0  0.5714125E-09  0.3700568E+04  0.7818609E-02  0.8067836E-01
       -1   -1    0    0    0  501  0.00000000000E+00  0.00000000000E+00  0.15300291633E+04  0.15300291633E+04  0.50400001928E-02 0. -1.
        1   -1    0    0  501    0  0.00000000000E+00  0.00000000000E+00 -0.22375719531E+04  0.22375719531E+04  0.50400001928E-02 0.  1.
    10030    2    1    2    0    0  0.00000000000E+00  0.00000000000E+00 -0.70754278978E+03  0.37676011163E+04  0.37005677095E+04 0.  0.
        3    1    3    3  502    0  0.63806655914E+03  0.43513235907E+03 -0.20656213883E+04  0.22052802166E+04  0.10100000352E+00 0.  1.
       -3    1    3    3    0  502 -0.63806655914E+03 -0.43513235907E+03  0.13580785985E+04  0.15623208997E+04  0.10100000352E+00 0. -1.
</event>
<event>
 5   0  0.5714125E-09  0.3699585E+04  0.7818609E-02  0.8068054E-01
        1   -1    0    0  501    0  0.00000000000E+00  0.00000000000E+00  0.12680451975E+04  0.12680451975E+04  0.50400001928E-02 0. -1.
       -1   -1    0    0    0  501  0.00000000000E+00  0.00000000000E+00 -0.26984315762E+04  0.26984315762E+04  0.50400001928E-02 0.  1.
    10030    2    1    2    0    0  0.00000000000E+00  0.00000000000E+00 -0.14303863787E+04  0.39664767738E+04  0.36995854909E+04 0.  0.
        2    1    3    3  502    0 -0.69568119738E+02 -0.16577715441E+04 -0.15919179726E+04  0.22994018890E+04  0.25500000920E-02 0.  1.
       -2    1    3    3    0  502  0.69568119738E+02  0.16577715441E+04  0.16153159392E+03  0.16670748848E+04  0.25500000920E-02 0. -1.
</event>
<event>
 5   0  0.1725865E-08  0.3702653E+04  0.7818609E-02  0.8067374E-01
       -2   -1    0    0    0  501  0.00000000000E+00  0.00000000000E+00  0.17549974984E+04  0.17549974984E+04  0.25500000920E-02 0.  1.
        2   -1    0    0  501    0  0.00000000000E+00  0.00000000000E+00 -0.19529433302E+04  0.19529433302E+04  0.25500000920E-02 0. -1.
    10030    2    1    2    0    0  0.00000000000E+00  0.00000000000E+00 -0.19794583184E+03  0.37079408286E+04  0.37026534588E+04 0.  0.
        1    1    3    3  502    0 -0.15224112634E+04 -0.99191277636E+03  0.25619344156E+03  0.18350101063E+04  0.50400001928E-02 0. -1.
       -1    1    3    3    0  502  0.15224112634E+04  0.99191277636E+03 -0.45413927339E+03  0.18729307223E+04  0.50400001928E-02 0.  1.
</event>
<event>
 5   0  0.1757996E-08  0.3699001E+04  0.7818609E-02  0.8068183E-01
       -2   -1    0    0    0  501  0.00000000000E+00  0.00000000000E+00  0.13343402374E+04  0.13343402374E+04  0.25500000920E-02 0.  1.
        2   -1    0    0  501    0  0.00000000000E+00  0.00000000000E+00 -0.25635528921E+04  0.25635528921E+04  0.25500000920E-02 0. -1.
    10030    2    1    2    0    0  0.00000000000E+00  0.00000000000E+00 -0.12292126547E+04  0.38978931295E+04  0.36990008244E+04 0.  0.
        3    1    3    3  502    0 -0.72594350558E+03  0.11548734595E+04 -0.19307320295E+04  0.23639908758E+04  0.10100000352E+00 0. -1.
       -3    1    3    3    0  502  0.72594350558E+03 -0.11548734595E+04  0.70151937474E+03  0.15339022538E+04  0.10100000352E+00 0.  1.
</event>
<event>
 5   0  0.5714125E-09  0.3698035E+04  0.7818609E-02  0.8068398E-01
       -1   -1    0    0    0  501  0.00000000000E+00  0.00000000000E+00  0.12143341206E+04  0.12143341206E+04  0.50400001928E-02 0. -1.
        1   -1    0    0  501    0  0.00000000000E+00  0.00000000000E+00 -0.28154234892E+04  0.28154234892E+04  0.50400001928E-02 0.  1.
    10030    2    1    2    0    0  0.00000000000E+00  0.00000000000E+00 -0.16010893687E+04  0.40297576098E+04  0.36980345087E+04 0.  0.
        3    1    3    3  502    0  0.32453413154E+03 -0.60167736557E+03 -0.26726545235E+04  0.27586990171E+04  0.10100000352E+00 0.  1.
       -3    1    3    3    0  502 -0.32453413154E+03  0.60167736557E+03  0.10715651549E+04  0.12710585927E+04  0.10100000352E+00 0. -1.
</event>
<event>
 5   0  0.1825308E-08  0.3700048E+04  0.7818609E-02  0.8067951E-01
        2   -1    0    0  501    0  0.00000000000E+00  0.00000000000E+00  0.26709093694E+04  0.26709093694E+04  0.25500000920E-02 0. -1.
       -2   -1    0    0    0  501  0.00000000000E+00  0.00000000000E+00 -0.12814320790E+04  0.12814320790E+04  0.25500000920E-02 0.  1.
    10030    2    1    2    0    0  0.00000000000E+00  0.00000000000E+00  0.13894772904E+04  0.39523414483E+04  0.37000480785E+04 0.  0.
        4    1    3    3  502    0  0.17360916950E+04 -0.62842731689E+03  0.56992953353E+03  0.19322930814E+04  0.12699999809E+01 0.  1.
       -4    1    3    3    0  502 -0.17360916950E+04  0.62842731689E+03  0.81954775687E+03  0.20200483670E+04  0.12699999809E+01 0. -1.
</event>
<event>
 5   0  0.5714125E-09  0.3696583E+04  0.7818609E-02  0.8068719E-01
        1   -1    0    0  501    0  0.00000000000E+00  0.00000000000E+00  0.22695277257E+04  0.22695277257E+04  0.50400001928E-02 0. -1.
       -1   -1    0    0    0  501  0.00000000000E+00  0.00000000000E+00 -0.15052390629E+04  0.15052390629E+04  0.50400001928E-02 0.  1.
    10030    2    1    2    0    0  0.00000000000E+00  0.00000000000E+00  0.76428866283E+03  0.37747667886E+04  0.36965831721E+04 0.  0.
        3    1    3    3  502    0  0.10344500243E+04 -0.72111626684E+02 -0.11802138110E+04  0.15710479271E+04  0.10100000352E+00 0.  1.
       -3    1    3    3    0  502 -0.10344500243E+04  0.72111626684E+02  0.19445024738E+04  0.22037188615E+04  0.10100000352E+00 0. -1.
</event>
<event>
 5   0  0.5714125E-09  0.3687855E+04  0.7818609E-02  0.8070659E-01
       -1   -1    0    0    0  501  0.00000000000E+00  0.00000000000E+00  0.21900674022E+04  0.21900674022E+04  0.50400001928E-02 0.  1.
        1   -1    0    0  501    0  0.00000000000E+00  0.00000000000E+00 -0.15524953544E+04  0.15524953544E+04  0.50400001928E-02 0. -1.
    10030    2    1    2    0    0  0.00000000000E+00  0.00000000000E+00  0.63757204777E+03  0.37425627566E+04  0.36878554569E+04 0.  0.
        3    1    3    3  502    0 -0.15251669542E+02  0.18358144527E+04  0.14412201992E+03  0.18415261293E+04  0.10100000352E+00 0. -1.
       -3    1    3    3    0  502  0.15251669542E+02 -0.18358144527E+04  0.49345002785E+03  0.19010366273E+04  0.10100000352E+00 0.  1.
</event>
<event>
 5   0  0.1757996E-08  0.3699483E+04  0.7818609E-02  0.8068076E-01
        2   -1    0    0  501    0  0.00000000000E+00  0.00000000000E+00  0.24320088669E+04  0.24320088669E+04  0.25500000920E-02 0. -1.
       -2   -1    0    0    0  501  0.00000000000E+00  0.00000000000E+00 -0.14068796695E+04  0.14068796695E+04  0.25500000920E-02 0.  1.
    10030    2    1    2    0    0  0.00000000000E+00  0.00000000000E+00  0.10251291974E+04  0.38388885364E+04  0.36994831157E+04 0.  0.
        3    1    3    3  502    0  0.57654410847E+03 -0.59731684876E+03 -0.12027069315E+04  0.14614015534E+04  0.10100000352E+00 0.  1.
       -3    1    3    3    0  502 -0.57654410847E+03  0.59731684876E+03  0.22278361289E+04  0.23774869830E+04  0.10100000352E+00 0. -1.
</event>
<event>
 5   0  0.5714125E-09  0.3699318E+04  0.7818609E-02  0.8068113E-01
       -1   -1    0    0    0  501  0.00000000000E+00  0.00000000000E+00  0.17158886864E+04  0.17158886864E+04  0.50400001928E-02 0.  1.
        1   -1    0    0  501    0  0.00000000000E+00  0.00000000000E+00 -0.19938577025E+04  0.19938577025E+04  0.50400001928E-02 0. -1.
    10030    2    1    2    0    0  0.00000000000E+00  0.00000000000E+00 -0.27796901606E+03  0.37097463889E+04  0.36993177068E+04 0.  0.
        4    1    3    3  502    0  0.85393662446E+03 -0.16400383289E+04 -0.90861912995E+02  0.18512673980E+04  0.12699999809E+01 0.  1.
       -4    1    3    3    0  502 -0.85393662446E+03  0.16400383289E+04 -0.18710710306E+03  0.18584789909E+04  0.12699999809E+01 0. -1.
</event>
<event>
 5   0  0.5714125E-09  0.3703333E+04  0.7818609E-02  0.8067224E-01
       -1   -1    0    0    0  501  0.00000000000E+00  0.00000000000E+00  0.20707150576E+04  0.20707150576E+04  0.50400001928E-02 0.  1.
        1   -1    0    0  501    0  0.00000000000E+00  0.00000000000E+00 -0.16557896744E+04  0.16557896744E+04  0.50400001928E-02 0. -1.
    10030    2    1    2    0    0  0.00000000000E+00  0.00000000000E+00  0.41492538319E+03  0.37265047321E+04  0.37033328833E+04 0.  0.
        3    1    3    3  502    0 -0.12468753896E+04  0.13548633716E+04  0.10494187518E+02  0.18413210288E+04  0.10100000352E+00 0. -1.
       -3    1    3    3    0  502  0.12468753896E+04 -0.13548633716E+04  0.40443119567E+03  0.18851837033E+04  0.10100000352E+00 0.  1.
</event>
<event>
 5   0  0.1856107E-08  0.3701522E+04  0.7818609E-02  0.8067625E-01
        2   -1    0    0  501    0  0.00000000000E+00  0.00000000000E+00  0.17534527769E+04  0.17534527769E+04  0.25500000920E-02 0.  1.
       -2   -1    0    0    0  501  0.00000000000E+00  0.00000000000E+00 -0.19534694685E+04  0.19534694685E+04  0.25500000920E-02 0. -1.
    10030    2    1    2    0    0  0.00000000000E+00  0.00000000000E+00 -0.20001669165E+03  0.37069222454E+04  0.37015221000E+04 0.  0.
        2    1    3    3  502    0  0.16558453167E+04  0.51369663109E+03 -0.74872534750E+03  0.18884643464E+04  0.25500000920E-02 0.  1.
       -2    1    3    3    0  502 -0.16558453167E+04 -0.51369663109E+03  0.54870865584E+03  0.18184578991E+04  0.25500000920E-02 0. -1.
</event>
<event>
 5   0  0.5714125E-09  0.3698269E+04  0.7818609E-02  0.8068346E-01
        1   -1    0    0  501    0  0.00000000000E+00  0.00000000000E+00  0.17580490562E+04  0.17580490562E+04  0.50400001928E-02 0.  1.
       -1   -1    0    0    0  501  0.00000000000E+00  0.00000000000E+00 -0.19449391147E+04  0.19449391147E+04  0.50400001928E-02 0. -1.
    10030    2    1    2    0    0  0.00000000000E+00  0.00000000000E+00 -0.18689005846E+03  0.37029881709E+04  0.36982689869E+04 0.  0.
        4    1    3    3  502    0  0.16252096908E+04 -0.80644806010E+03 -0.45115676599E+03  0.18695478205E+04  0.12699999809E+01 0.  1.
       -4    1    3    3    0  502 -0.16252096908E+04  0.80644806010E+03  0.26426670752E+03  0.18334403504E+04  0.12699999809E+01 0. -1.
</event>
<event>
 5   0  0.1725865E-08  0.3692108E+04  0.7818609E-02  0.8069713E-01
       -2   -1    0    0    0  501  0.00000000000E+00  0.00000000000E+00  0.16427703183E+04  0.16427703183E+04  0.25500000920E-02 0. -1.
        2   -1    0    0  501    0  0.00000000000E+00  0.00000000000E+00 -0.20744931634E+04  0.20744931634E+04  0.25500000920E-02 0.  1.
    10030    2    1    2    0    0  0.00000000000E+00  0.00000000000E+00 -0.43172284503E+03  0.37172634817E+04  0.36921082294E+04 0.  0.
        1    1    3    3  502    0  0.52543232075E+02 -0.15677647307E+04 -0.11957699287E+04  0.19724382790E+04  0.50400001928E-02 0. -1.
       -1    1    3    3    0  502 -0.52543232075E+02  0.15677647307E+04  0.76404708366E+03  0.17448252027E+04  0.50400001928E-02 0.  1.
</event>
<event>
 5   0  0.5714125E-09  0.3699974E+04  0.7818609E-02  0.8067968E-01
        1   -1    0    0  501    0  0.00000000000E+00  0.00000000000E+00  0.25209070165E+04  0.25209070165E+04  0.50400001928E-02 0. -1.
       -1   -1    0    0    0  501  0.00000000000E+00  0.00000000000E+00 -0.13576271380E+04  0.13576271380E+04  0.50400001928E-02 0.  1.
    10030    2    1    2    0    0  0.00000000000E+00  0.00000000000E+00  0.11632798785E+04  0.38785341544E+04  0.36999739339E+04 0.  0.
        2    1    3    3  502    0 -0.72339883385E+03  0.67799175279E+03  0.22188973747E+04  0.24303259553E+04  0.25500000920E-02 0. -1.
       -2    1    3    3    0  502  0.72339883385E+03 -0.67799175279E+03 -0.10556174962E+04  0.14482081991E+04  0.25500000920E-02 0.  1.
</event>
<event>
 5   0  0.5714125E-09  0.3699302E+04  0.7818609E-02  0.8068117E-01
       -1   -1    0    0    0  501  0.00000000000E+00  0.00000000000E+00  0.22958603221E+04  0.22958603221E+04  0.50400001928E-02 0.  1.
        1   -1    0    0  501    0  0.00000000000E+00  0.00000000000E+00 -0.14901640229E+04  0.14901640229E+04  0.50400001928E-02 0. -1.
    10030    2    1    2    0    0  0.00000000000E+00  0.00000000000E+00  0.80569629926E+03  0.37860243450E+04  0.36993018009E+04 0.  0.
        4    1    3    3  502    0  0.82056002860E+03 -0.84118182838E+03 -0.10590286780E+04  0.15819130768E+04  0.12699999809E+01 0. -1.
       -4    1    3    3    0  502 -0.82056002860E+03  0.84118182838E+03  0.18647249772E+04  0.22041112682E+04  0.12699999809E+01 0.  1.
</event>
<event>
 5   0  0.1757996E-08  0.3700109E+04  0.7818609E-02  0.8067938E-01
        2   -1    0    0  501    0  0.00000000000E+00  0.00000000000E+00  0.24514654621E+04  0.24514654621E+04  0.25500000920E-02 0. -1.
       -2   -1    0    0    0  501  0.00000000000E+00  0.00000000000E+00 -0.13961859350E+04  0.13961859350E+04  0.25500000920E-02 0.  1.
    10030    2    1    2    0    0  0.00000000000E+00  0.00000000000E+00  0.10552795270E+04  0.38476513971E+04  0.37001089705E+04 0.  0.
        3    1    3    3  502    0 -0.10664218910E+04  0.14093673560E+04  0.10963759922E+04  0.20798106453E+04  0.10100000352E+00 0. -1.
       -3    1    3    3    0  502  0.10664218910E+04 -0.14093673560E+04 -0.41096465205E+02  0.17678407517E+04  0.10100000352E+00 0.  1.
</event>
<event>
 5   0  0.5714125E-09  0.3700283E+04  0.7818609E-02  0.8067899E-01
       -1   -1    0    0    0  501  0.00000000000E+00  0.00000000000E+00  0.25327558374E+04  0.25327558374E+04  0.50400001928E-02 0. -1.
        1   -1    0    0  501    0  0.00000000000E+00  0.00000000000E+00 -0.13515012581E+04  0.13515012581E+04  0.50400001928E-02 0.  1.
    10030    2    1    2    0    0  0.00000000000E+00  0.00000000000E+00  0.11812545793E+04  0.38842570955E+04  0.37002825301E+04 0.  0.
        3    1    3    3  502    0  0.71214743141E+03  0.15019802784E+03 -0.11949165280E+04  0.13991207706E+04  0.10100000352E+00 0.  1.
       -3    1    3    3    0  502 -0.71214743141E+03 -0.15019802784E+03  0.23761711073E+04  0.24851363248E+04  0.10100000352E+00 0. -1.
</event>
<event>
 5   0  0.1856107E-08  0.3701871E+04  0.7818609E-02  0.8067547E-01
       -2   -1    0    0    0  501  0.00000000000E+00  0.00000000000E+00  0.33054866179E+04  0.33054866180E+04  0.25500000920E-02 0.  1.
        2   -1    0    0  501    0  0.00000000000E+00  0.00000000000E+00 -0.10364469491E+04  0.10364469491E+04  0.25500000920E-02 0. -1.
    10030    2    1    2    0    0  0.00000000000E+00  0.00000000000E+00  0.22690396688E+04  0.43419335671E+04  0.37018706193E+04 0.  0.
        2    1    3    3  502    0  0.44372993176E+03  0.53604660745E+03  0.31462167655E+04  0.32222542037E+04  0.25500000920E-02 0.  1.
       -2    1    3    3    0  502 -0.44372993176E+03 -0.53604660745E+03 -0.87717709669E+03  0.11196793633E+04  0.25500000920E-02 0. -1.
</event>
<event>
 5   0  0.1757996E-08  0.3699520E+04  0.7818609E-02  0.8068068E-01
       -2   -1    0    0    0  501  0.00000000000E+00  0.00000000000E+00  0.11992002171E+04  0.11992002171E+04  0.25500000920E-02 0. -1.
        2   -1    0    0  501    0  0.00000000000E+00  0.00000000000E+00 -0.28532456055E+04  0.28532456055E+04  0.25500000920E-02 0.  1.
    10030    2    1    2    0    0  0.00000000000E+00  0.00000000000E+00 -0.16540453883E+04  0.40524458226E+04  0.36995203741E+04 0.  0.
        3    1    3    3  502    0  0.45935172603E+02  0.18263371160E+04 -0.50955492223E+03  0.18966453359E+04  0.10100000352E+00 0. -1.
       -3    1    3    3    0  502 -0.45935172603E+02 -0.18263371160E+04 -0.11444904661E+04  0.21558004867E+04  0.10100000352E+00 0.  1.
</event>
<event>
 5   0  0.1856107E-08  0.3697754E+04  0.7818609E-02  0.8068460E-01
       -2   -1    0    0    0  501  0.00000000000E+00  0.00000000000E+00  0.15264518532E+04  0.15264518532E+04  0.25500000920E-02 0.  1.
        2   -1    0    0  501    0  0.00000000000E+00  0.00000000000E+00 -0.22394068741E+04  0.22394068741E+04  0.25500000920E-02 0. -1.
    10030    2    1    2    0    0  0.00000000000E+00  0.00000000000E+00 -0.71295502098E+03  0.37658587273E+04  0.36977543310E+04 0.  0.
        2    1    3    3  502    0  0.90716013365E+03 -0.79002470750E+03 -0.17863550040E+04  0.21536347757E+04  0.25500000920E-02 0. -1.
       -2    1    3    3    0  502 -0.90716013365E+03  0.79002470750E+03  0.10733999831E+04  0.16122239516E+04  0.25500000920E-02 0.  1.
</event>
<event>
 5   0  0.1825308E-08  0.3700924E+04  0.7818609E-02  0.8067757E-01
        2   -1    0    0  501    0  0.00000000000E+00  0.00000000000E+00  0.17227825507E+04  0.17227825507E+04  0.25500000920E-02 0.  1.
       -2   -1    0    0    0  501  0.00000000000E+00  0.00000000000E+00 -0.19876038547E+04  0.19876038548E+04  0.25500000920E-02 0. -1.
    10030    2    1    2    0    0  0.00000000000E+00  0.00000000000E+00 -0.26482130407E+03  0.37103864054E+04  0.37009237974E+04 0.  0.
        4    1    3    3  502    0  0.17167258177E+04  0.65366224215E+03 -0.35610839037E+03  0.18711591751E+04  0.12699999809E+01 0. -1.
       -4    1    3    3    0  502 -0.17167258177E+04 -0.65366224215E+03  0.91287086304E+02  0.18392272304E+04  0.12699999809E+01 0.  1.
</event>
<event>
 5   0  0.5714125E-09  0.3701117E+04  0.7818609E-02  0.8067714E-01
       -1   -1    0    0    0  501  0.00000000000E+00  0.00000000000E+00  0.13965677181E+04  0.13965677181E+04  0.50400001928E-02 0. -1.
        1   -1    0    0  501    0  0.00000000000E+00  0.00000000000E+00 -0.24521312843E+04  0.24521312843E+04  0.50400001928E-02 0.  1.
    10030    2    1    2    0    0  0.00000000000E+00  0.00000000000E+00 -0.10555635661E+04  0.38486990024E+04  0.37011173406E+04 0.  0.
        5    1    3    3  502    0 -0.76011256953E+03  0.67289677253E+03 -0.21367287354E+04  0.23656273932E+04  0.46999998093E+01 0.  1.
       -5    1    3    3    0  502  0.76011256953E+03 -0.67289677253E+03  0.10811651692E+04  0.14830716092E+04  0.46999998093E+01 0. -1.
</event>
<event>
 5   0  0.5714125E-09  0.3698969E+04  0.7818609E-02  0.8068190E-01
        1   -1    0    0  501    0  0.00000000000E+00  0.00000000000E+00  0.27789979698E+04  0.27789979698E+04  0.50400001928E-02 0.  1.
       -1   -1    0    0    0  501  0.00000000000E+00  0.00000000000E+00 -0.12308730855E+04  0.12308730855E+04  0.50400001928E-02 0. -1.
    10030    2    1    2    0    0  0.00000000000E+00  0.00000000000E+00  0.15481248843E+04  0.40098710553E+04  0.36989694812E+04 0.  0.
        4    1    3    3  502    0  0.11769735068E+04 -0.13724126546E+04  0.35168714707E+03  0.18418655197E+04  0.12699999809E+01 0. -1.
       -4    1    3    3    0  502 -0.11769735068E+04  0.13724126546E+04  0.11964377373E+04  0.21680055356E+04  0.12699999809E+01 0.  1.
</event>
<event>
 5   0  0.1856107E-08  0.3700013E+04  0.7818609E-02  0.8067959E-01
       -2   -1    0    0    0  501  0.00000000000E+00  0.00000000000E+00  0.15817057623E+04  0.15817057623E+04  0.25500000920E-02 0. -1.
        2   -1    0    0  501    0  0.00000000000E+00  0.00000000000E+00 -0.21638187106E+04  0.21638187106E+04  0.25500000920E-02 0.  1.
    10030    2    1    2    0    0  0.00000000000E+00  0.00000000000E+00 -0.58211294825E+03  0.37455244729E+04  0.37000132557E+04 0.  0.
        2    1    3    3  502    0 -0.15726607283E+04  0.58456072010E+03 -0.10800999176E+04  0.19953918998E+04  0.25500000920E-02 0.  1.
       -2    1    3    3    0  502  0.15726607283E+04 -0.58456072010E+03  0.49798696936E+03  0.17501325731E+04  0.25500000920E-02 0. -1.
</event>
<event>
 5   0  0.1856107E-08  0.3699708E+04  0.7818609E-02  0.8068027E-01
       -2   -1    0    0    0  501  0.00000000000E+00  0.00000000000E+00  0.14284957528E+04  0.14284957528E+04  0.25500000920E-02 0.  1.
        2   -1    0    0  501    0  0.00000000000E+00  0.00000000000E+00 -0.23954986431E+04  0.23954986431E+04  0.25500000920E-02 0. -1.
    10030    2    1    2    0    0  0.00000000000E+00  0.00000000000E+00 -0.96700289034E+03  0.38239943959E+04  0.36997079006E+04 0.  0.
        2    1    3    3  502    0 -0.40985559642E+03  0.16955825230E+04 -0.11197938992E+04  0.20729013674E+04  0.25500000920E-02 0. -1.
       -2    1    3    3    0  502  0.40985559642E+03 -0.16955825230E+04  0.15279100887E+03  0.17510930285E+04  0.25500000920E-02 0.  1.
</event>
<event>
 5   0  0.1757996E-08  0.3699245E+04  0.7818609E-02  0.8068129E-01
       -2   -1    0    0    0  501  0.00000000000E+00  0.00000000000E+00  0.13544468130E+04  0.13544468130E+04  0.25500000920E-02 0.  1.
        2   -1    0    0  501    0  0.00000000000E+00  0.00000000000E+00 -0.25258310091E+04  0.25258310091E+04  0.25500000920E-02 0. -1.
    10030    2    1    2    0    0  0.00000000000E+00  0.00000000000E+00 -0.11713841961E+04  0.38802778221E+04  0.36992451989E+04 0.  0.
        3    1    3    3  502    0 -0.38050052653E+03 -0.32380611778E+03  0.12823221792E+04  0.13762199076E+04  0.10100000352E+00 0.  1.
       -3    1    3    3    0  502  0.38050052653E+03  0.32380611778E+03 -0.24537063753E+04  0.25040579145E+04  0.10100000352E+00 0. -1.
</event>
<event>
 5   0  0.5714125E-09  0.3699737E+04  0.7818609E-02  0.8068020E-01
        1   -1    0    0  501    0  0.00000000000E+00  0.00000000000E+00  0.20923900534E+04  0.20923900534E+04  0.50400001928E-02 0.  1.
       -1   -1    0    0    0  501  0.00000000000E+00  0.00000000000E+00 -0.16354563962E+04  0.16354563962E+04  0.50400001928E-02 0. -1.
    10030    2    1    2    0    0  0.00000000000E+00  0.00000000000E+00  0.45693365723E+03  0.37278464496E+04  0.36997365832E+04 0.  0.
        2    1    3    3  502    0  0.10193763733E+04 -0.13825366166E+03  0.17776039443E+04  0.20538057474E+04  0.25500000920E-02 0.  1.
       -2    1    3    3    0  502 -0.10193763733E+04  0.13825366166E+03 -0.13206702871E+04  0.16740407022E+04  0.25500000920E-02 0. -1.
</event>
<event>
 5   0  0.5714125E-09  0.3703518E+04  0.7818609E-02  0.8067183E-01
       -1   -1    0    0    0  501  0.00000000000E+00  0.00000000000E+00  0.15980978014E+04  0.15980978014E+04  0.50400001928E-02 0.  1.
        1   -1    0    0  501    0  0.00000000000E+00  0.00000000000E+00 -0.21456832745E+04  0.21456832745E+04  0.50400001928E-02 0. -1.
    10030    2    1    2    0    0  0.00000000000E+00  0.00000000000E+00 -0.54758547309E+03  0.37437810759E+04  0.37035181779E+04 0.  0.
        1    1    3    3  502    0 -0.11792979896E+04  0.14175133486E+04 -0.10187358705E+03  0.18467447223E+04  0.50400001928E-02 0.  1.
       -1    1    3    3    0  502  0.11792979896E+04 -0.14175133486E+04 -0.44571188605E+03  0.18970363536E+04  0.50400001928E-02 0. -1.
</event>
<event>
 5   0  0.1856107E-08  0.3696103E+04  0.7818609E-02  0.8068826E-01
       -2   -1    0    0    0  501  0.00000000000E+00  0.00000000000E+00  0.17320048257E+04  0.17320048257E+04  0.25500000920E-02 0. -1.
        2   -1    0    0  501    0  0.00000000000E+00  0.00000000000E+00 -0.19718732293E+04  0.19718732293E+04  0.25500000920E-02 0.  1.
    10030    2    1    2    0    0  0.00000000000E+00  0.00000000000E+00 -0.23986840361E+03  0.37038780549E+04  0.36961027847E+04 0.  0.
        2    1    3    3  502    0  0.16525038358E+04  0.71314238026E+03 -0.54028409064E+03  0.18791614833E+04  0.25500000920E-02 0.  1.
       -2    1    3    3    0  502 -0.16525038358E+04 -0.71314238026E+03  0.30041568703E+03  0.18247165716E+04  0.25500000920E-02 0. -1.
</event>
<event>
 5   0  0.1740290E-08  0.3698188E+04  0.7818609E-02  0.8068364E-01
        2   -1    0    0  501    0  0.00000000000E+00  0.00000000000E+00  0.19252780610E+04  0.19252780610E+04  0.25500000920E-02 0.  1.
       -2   -1    0    0    0  501  0.00000000000E+00  0.00000000000E+00 -0.17759244170E+04  0.17759244170E+04  0.25500000920E-02 0. -1.
    10030    2    1    2    0    0  0.00000000000E+00  0.00000000000E+00  0.14935364402E+03  0.37012024780E+04  0.36981878362E+04 0.  0.
        5    1    3    3  502    0  0.15004955141E+04  0.10476933910E+04 -0.19007236636E+03  0.18399178850E+04  0.46999998093E+01 0.  1.
       -5    1    3    3    0  502 -0.15004955141E+04 -0.10476933910E+04  0.33942601039E+03  0.18612845929E+04  0.46999998093E+01 0. -1.
</event>
<event>
 5   0  0.5714125E-09  0.3699950E+04  0.7818609E-02  0.8067973E-01
       -4   -1    0    0    0  501  0.00000000000E+00  0.00000000000E+00  0.14674050703E+04  0.14674056199E+04  0.12699999809E+01 0.  1.
        4   -1    0    0  501    0  0.00000000000E+00  0.00000000000E+00 -0.23322842050E+04  0.23322845507E+04  0.12699999809E+01 0. -1.
    10030    2    1    2    0    0  0.00000000000E+00  0.00000000000E+00 -0.86487913463E+03  0.37996901707E+04  0.36999499288E+04 0.  0.
        1    1    3    3  502    0 -0.12835558878E+04  0.11115739773E+04 -0.11866030735E+04  0.20715065238E+04  0.50400001928E-02 0. -1.
       -1    1    3    3    0  502  0.12835558878E+04 -0.11115739773E+04  0.32172393887E+03  0.17281836468E+04  0.50400001928E-02 0.  1.
</event>
<event>
 5   0  0.5714125E-09  0.3700820E+04  0.7818609E-02  0.8067780E-01
       -1   -1    0    0    0  501  0.00000000000E+00  0.00000000000E+00  0.12596651500E+04  0.12596651500E+04  0.50400001928E-02 0. -1.
        1   -1    0    0  501    0  0.00000000000E+00  0.00000000000E+00 -0.27181965146E+04  0.27181965147E+04  0.50400001928E-02 0.  1.
    10030    2    1    2    0    0  0.00000000000E+00  0.00000000000E+00 -0.14585313646E+04  0.39778616647E+04  0.37008201363E+04 0.  0.
        5    1    3    3  502    0  0.50885953130E+03 -0.55754602577E+03 -0.25451738345E+04  0.26547556444E+04  0.46999998093E+01 0.  1.
       -5    1    3    3    0  502 -0.50885953130E+03  0.55754602577E+03  0.10866424699E+04  0.13231060203E+04  0.46999998093E+01 0. -1.
</event>
<event>
 5   0  0.1825308E-08  0.3700027E+04  0.7818609E-02  0.8067956E-01
        2   -1    0    0  501    0  0.00000000000E+00  0.00000000000E+00  0.22583653131E+04  0.22583653131E+04  0.25500000920E-02 0.  1.
       -2   -1    0    0    0  501  0.00000000000E+00  0.00000000000E+00 -0.15154992218E+04  0.15154992218E+04  0.25500000920E-02 0. -1.
    10030    2    1    2    0    0  0.00000000000E+00  0.00000000000E+00  0.74286609127E+03  0.37738645348E+04  0.37000274996E+04 0.  0.
        4    1    3    3  502    0 -0.12705447482E+04 -0.93675361439E+03 -0.61257746406E+03  0.16932347898E+04  0.12699999809E+01 0. -1.
       -4    1    3    3    0  502  0.12705447482E+04  0.93675361439E+03  0.13554435553E+04  0.20806297450E+04  0.12699999809E+01 0.  1.
</event>
<event>
 5   0  0.5714125E-09  0.3700311E+04  0.7818609E-02  0.8067893E-01
        1   -1    0    0  501    0  0.00000000000E+00  0.00000000000E+00  0.24958700471E+04  0.24958700471E+04  0.50400001928E-02 0.  1.
       -1   -1    0    0    0  501  0.00000000000E+00  0.00000000000E+00 -0.13714956116E+04  0.13714956116E+04  0.50400001928E-02 0. -1.
    10030    2    1    2    0    0  0.00000000000E+00  0.00000000000E+00  0.11243744355E+04  0.38673656587E+04  0.37003106987E+04 0.  0.
        3    1    3    3  502    0  0.20681063286E+03 -0.12521941835E+04 -0.84481167362E+03  0.15246205053E+04  0.10100000352E+00 0. -1.
       -3    1    3    3    0  502 -0.20681063286E+03  0.12521941835E+04  0.19691861091E+04  0.23427451534E+04  0.10100000352E+00 0.  1.
</event>
<event>
 5   0  0.5714125E-09  0.3703346E+04  0.7818609E-02  0.8067221E-01
       -1   -1    0    0    0  501  0.00000000000E+00  0.00000000000E+00  0.19332860194E+04  0.19332860194E+04  0.50400001928E-02 0.  1.
        1   -1    0    0  501    0  0.00000000000E+00  0.00000000000E+00 -0.17735052284E+04  0.17735052284E+04  0.50400001928E-02 0. -1.
    10030    2    1    2    0    0  0.00000000000E+00  0.00000000000E+00  0.15978079100E+03  0.37067912479E+04  0.37033459809E+04 0.  0.
        2    1    3    3  502    0 -0.15204839898E+04 -0.79180925140E+03  0.78044109166E+03  0.18835927775E+04  0.25500000920E-02 0.  1.
       -2    1    3    3    0  502  0.15204839898E+04  0.79180925140E+03 -0.62066030066E+03  0.18231984704E+04  0.25500000920E-02 0. -1.
</event>
<event>
 5   0  0.1856107E-08  0.3695703E+04  0.7818609E-02  0.8068915E-01
        2   -1    0    0  501    0  0.00000000000E+00  0.00000000000E+00  0.18387304176E+04  0.18387304176E+04  0.25500000920E-02 0. -1.
       -2   -1    0    0    0  501  0.00000000000E+00  0.00000000000E+00 -0.18570183058E+04  0.18570183058E+04  0.25500000920E-02 0.  1.
    10030    2    1    2    0    0  0.00000000000E+00  0.00000000000E+00 -0.18287888170E+02  0.36957487234E+04  0.36957034756E+04 0.  0.
        2    1    3    3  502    0  0.19505233474E+03 -0.14540078541E+04  0.11144230113E+04  0.18423145500E+04  0.25500000920E-02 0. -1.
       -2    1    3    3    0  502 -0.19505233474E+03  0.14540078541E+04 -0.11327108995E+04  0.18534341734E+04  0.25500000920E-02 0.  1.
</event>
<event>
 5   0  0.1757996E-08  0.3696262E+04  0.7818609E-02  0.8068791E-01
        2   -1    0    0  501    0  0.00000000000E+00  0.00000000000E+00  0.23820293388E+04  0.23820293388E+04  0.25500000920E-02 0. -1.
       -2   -1    0    0    0  501  0.00000000000E+00  0.00000000000E+00 -0.14338984175E+04  0.14338984175E+04  0.25500000920E-02 0.  1.
    10030    2    1    2    0    0  0.00000000000E+00  0.00000000000E+00  0.94813092127E+03  0.38159277563E+04  0.36962619492E+04 0.  0.
        3    1    3    3  502    0 -0.92831344252E+02  0.29074170733E+03 -0.14077020049E+04  0.14404073533E+04  0.10100000352E+00 0.  1.
       -3    1    3    3    0  502  0.92831344252E+02 -0.29074170733E+03  0.23558329261E+04  0.23755204030E+04  0.10100000352E+00 0. -1.
</event>
<event>
 5   0  0.5714125E-09  0.3703986E+04  0.7818609E-02  0.8067079E-01
       -1   -1    0    0    0  501  0.00000000000E+00  0.00000000000E+00  0.15183358547E+04  0.15183358547E+04  0.50400001928E-02 0. -1.
        1   -1    0    0  501    0  0.00000000000E+00  0.00000000000E+00 -0.22589721694E+04  0.22589721694E+04  0.50400001928E-02 0.  1.
    10030    2    1    2    0    0  0.00000000000E+00  0.00000000000E+00 -0.74063631472E+03  0.37773080240E+04  0.37039861984E+04 0.  0.
        4    1    3    3  502    0  0.18126889779E+04 -0.50095377573E+01  0.16680956363E+02  0.18127730948E+04  0.12699999809E+01 0. -1.
       -4    1    3    3    0  502 -0.18126889779E+04  0.50095377573E+01 -0.75731727108E+03  0.19645349292E+04  0.12699999809E+01 0.  1.
</event>
<event>
 5   0  0.1757996E-08  0.3695713E+04  0.7818609E-02  0.8068913E-01
        2   -1    0    0  501    0  0.00000000000E+00  0.00000000000E+00  0.17180295008E+04  0.17180295008E+04  0.25500000920E-02 0.  1.
       -2   -1    0    0    0  501  0.00000000000E+00  0.00000000000E+00 -0.19874941391E+04  0.19874941391E+04  0.25500000920E-02 0. -1.
    10030    2    1    2    0    0  0.00000000000E+00  0.00000000000E+00 -0.26946463835E+03  0.37055236399E+04  0.36957129562E+04 0.  0.
        3    1    3    3  502    0  0.37436909204E+03 -0.86269334321E+03  0.14601446862E+04  0.17367828121E+04  0.10100000352E+00 0.  1.
       -3    1    3    3    0  502 -0.37436909204E+03  0.86269334321E+03 -0.17296093245E+04  0.19687408278E+04  0.10100000352E+00 0. -1.
</event>
<event>
 5   0  0.5714125E-09  0.3700735E+04  0.7818609E-02  0.8067799E-01
        1   -1    0    0  501    0  0.00000000000E+00  0.00000000000E+00  0.27626204221E+04  0.27626204221E+04  0.50400001928E-02 0.  1.
       -1   -1    0    0    0  501  0.00000000000E+00  0.00000000000E+00 -0.12393521904E+04  0.12393521904E+04  0.50400001928E-02 0. -1.
    10030    2    1    2    0    0  0.00000000000E+00  0.00000000000E+00  0.15232682317E+04  0.40019726125E+04  0.37007348845E+04 0.  0.
        3    1    3    3  502    0 -0.10279146348E+04  0.22049121060E+03 -0.88501972805E+03  0.13742215250E+04  0.10100000352E+00 0. -1.
       -3    1    3    3    0  502  0.10279146348E+04 -0.22049121060E+03  0.24082879598E+04  0.26277510875E+04  0.10100000352E+00 0.  1.
</event>
<event>
 5   0  0.1856107E-08  0.3699488E+04  0.7818609E-02  0.8068075E-01
       -2   -1    0    0    0  501  0.00000000000E+00  0.00000000000E+00  0.13169422004E+04  0.13169422004E+04  0.25500000920E-02 0. -1.
        2   -1    0    0  501    0  0.00000000000E+00  0.00000000000E+00 -0.25981039644E+04  0.25981039644E+04  0.25500000920E-02 0.  1.
    10030    2    1    2    0    0  0.00000000000E+00  0.00000000000E+00 -0.12811617640E+04  0.39150461648E+04  0.36994879385E+04 0.  0.
        2    1    3    3  502    0 -0.13743430126E+04  0.19603350540E+03  0.65306342628E+03  0.15341902393E+04  0.25500000920E-02 0. -1.
       -2    1    3    3    0  502  0.13743430126E+04 -0.19603350540E+03 -0.19342251903E+04  0.23808559255E+04  0.25500000920E-02 0.  1.
</event>
<event>
 5   0  0.1757996E-08  0.3699003E+04  0.7818609E-02  0.8068183E-01
        2   -1    0    0  501    0  0.00000000000E+00  0.00000000000E+00  0.22458779711E+04  0.22458779711E+04  0.25500000920E-02 0.  1.
       -2   -1    0    0    0  501  0.00000000000E+00  0.00000000000E+00 -0.15230814151E+04  0.15230814151E+04  0.25500000920E-02 0. -1.
    10030    2    1    2    0    0  0.00000000000E+00  0.00000000000E+00  0.72279655604E+03  0.37689593862E+04  0.36990025673E+04 0.  0.
        3    1    3    3  502    0 -0.30238968662E+03 -0.91786907290E+03  0.19681593511E+04  0.21926181608E+04  0.10100000352E+00 0.  1.
       -3    1    3    3    0  502  0.30238968662E+03  0.91786907290E+03 -0.12453627950E+04  0.15763412254E+04  0.10100000352E+00 0. -1.
</event>
<event>
 5   0  0.1725865E-08  0.3701051E+04  0.7818609E-02  0.8067729E-01
        2   -1    0    0  501    0  0.00000000000E+00  0.00000000000E+00  0.17352165495E+04  0.17352165495E+04  0.25500000920E-02 0. -1.
       -2   -1    0    0    0  501  0.00000000000E+00  0.00000000000E+00 -0.19734972778E+04  0.19734972778E+04  0.25500000920E-02 0.  1.
    10030    2    1    2    0    0  0.00000000000E+00  0.00000000000E+00 -0.23828072823E+03  0.37087138273E+04  0.37010512759E+04 0.  0.
        1    1    3    3  502    0 -0.25811137242E+03  0.17951961597E+04 -0.48745324018E+03  0.18780206053E+04  0.50400001928E-02 0.  1.
       -1    1    3    3    0  502  0.25811137242E+03 -0.17951961597E+04  0.24917251195E+03  0.18306932220E+04  0.50400001928E-02 0. -1.
</event>
<event>
 5   0  0.5714125E-09  0.3694041E+04  0.7818609E-02  0.8069284E-01
        1   -1    0    0  501    0  0.00000000000E+00  0.00000000000E+00  0.23816632302E+04  0.23816632302E+04  0.50400001928E-02 0. -1.
       -1   -1    0    0    0  501  0.00000000000E+00  0.00000000000E+00 -0.14323962109E+04  0.14323962109E+04  0.50400001928E-02 0.  1.
    10030    2    1    2    0    0  0.00000000000E+00  0.00000000000E+00  0.94926701929E+03  0.38140594411E+04  0.36940413569E+04 0.  0.
        1    1    3    3  502    0 -0.65117385976E+03  0.88666917155E+03 -0.10572400863E+04  0.15257674186E+04  0.50400001928E-02 0.  1.
       -1    1    3    3    0  502  0.65117385976E+03 -0.88666917155E+03  0.20065071056E+04  0.22882920225E+04  0.50400001928E-02 0. -1.
</event>
<event>
 5   0  0.1757996E-08  0.3700343E+04  0.7818609E-02  0.8067886E-01
        2   -1    0    0  501    0  0.00000000000E+00  0.00000000000E+00  0.18253793612E+04  0.18253793612E+04  0.25500000920E-02 0.  1.
       -2   -1    0    0    0  501  0.00000000000E+00  0.00000000000E+00 -0.18753000427E+04  0.18753000427E+04  0.25500000920E-02 0. -1.
    10030    2    1    2    0    0  0.00000000000E+00  0.00000000000E+00 -0.49920681523E+02  0.37006794040E+04  0.37003426836E+04 0.  0.
        3    1    3    3  502    0  0.78073220107E+03  0.76390514009E+03  0.14685074439E+04  0.18301934203E+04  0.10100000352E+00 0.  1.
       -3    1    3    3    0  502 -0.78073220107E+03 -0.76390514009E+03 -0.15184281254E+04  0.18704859836E+04  0.10100000352E+00 0. -1.
</event>
<event>
 5   0  0.5714125E-09  0.3699030E+04  0.7818609E-02  0.8068177E-01
       -1   -1    0    0    0  501  0.00000000000E+00  0.00000000000E+00  0.16270930672E+04  0.16270930672E+04  0.50400001928E-02 0. -1.
        1   -1    0    0  501    0  0.00000000000E+00  0.00000000000E+00 -0.21023420239E+04  0.21023420239E+04  0.50400001928E-02 0.  1.
    10030    2    1    2    0    0  0.00000000000E+00  0.00000000000E+00 -0.47524895673E+03  0.37294350911E+04  0.36990302145E+04 0.  0.
        4    1    3    3  502    0  0.23132524457E+03  0.14542350880E+04  0.89067807116E+03  0.17209358208E+04  0.12699999809E+01 0. -1.
       -4    1    3    3    0  502 -0.23132524457E+03 -0.14542350880E+04 -0.13659270279E+04  0.20084992702E+04  0.12699999809E+01 0.  1.
</event>
<event>
 5   0  0.1740290E-08  0.3701631E+04  0.7818609E-02  0.8067600E-01
        2   -1    0    0  501    0  0.00000000000E+00  0.00000000000E+00  0.16098237642E+04  0.16098237642E+04  0.25500000920E-02 0. -1.
       -2   -1    0    0    0  501  0.00000000000E+00  0.00000000000E+00 -0.21278842613E+04  0.21278842613E+04  0.25500000920E-02 0.  1.
    10030    2    1    2    0    0  0.00000000000E+00  0.00000000000E+00 -0.51806049714E+03  0.37377080255E+04  0.37016313438E+04 0.  0.
        5    1    3    3  502    0 -0.17422673008E+04 -0.43771369817E+03  0.19074103612E+03  0.18065140082E+04  0.46999998093E+01 0. -1.
       -5    1    3    3    0  502  0.17422673008E+04  0.43771369817E+03 -0.70880153326E+03  0.19311940173E+04  0.46999998093E+01 0.  1.
</event>
<event>
 5   0  0.5714125E-09  0.3704783E+04  0.7818609E-02  0.8066903E-01
        1   -1    0    0  501    0  0.00000000000E+00  0.00000000000E+00  0.24321757861E+04  0.24321757861E+04  0.50400001928E-02 0.  1.
       -1   -1    0    0    0  501  0.00000000000E+00  0.00000000000E+00 -0.14108169419E+04  0.14108169419E+04  0.50400001928E-02 0. -1.
    10030    2    1    2    0    0  0.00000000000E+00  0.00000000000E+00  0.10213588442E+04  0.38429927280E+04  0.37047832891E+04 0.  0.
        4    1    3    3  502    0  0.22499725957E+03  0.12280882370E+04 -0.90877350872E+03  0.15442458961E+04  0.12699999809E+01 0. -1.
       -4    1    3    3    0  502 -0.22499725957E+03 -0.12280882370E+04  0.19301323529E+04  0.22987468319E+04  0.12699999809E+01 0.  1.
</event>
<event>
 5   0  0.5714125E-09  0.3699882E+04  0.7818609E-02  0.8067988E-01
       -1   -1    0    0    0  501  0.00000000000E+00  0.00000000000E+00  0.16492005370E+04  0.16492005370E+04  0.50400001928E-02 0. -1.
        1   -1    0    0  501    0  0.00000000000E+00  0.00000000000E+00 -0.20751152806E+04  0.20751152806E+04  0.50400001928E-02 0.  1.
    10030    2    1    2    0    0  0.00000000000E+00  0.00000000000E+00 -0.42591474357E+03  0.37243158176E+04  0.36998817468E+04 0.  0.
        3    1    3    3  502    0 -0.11709507815E+04 -0.14032801107E+04  0.75220582449E+02  0.18292017242E+04  0.10100000352E+00 0. -1.
       -3    1    3    3    0  502  0.11709507815E+04  0.14032801107E+04 -0.50113532602E+03  0.18951140934E+04  0.10100000352E+00 0.  1.
</event>
<event>
 5   0  0.1725865E-08  0.3698300E+04  0.7818609E-02  0.8068339E-01
        2   -1    0    0  501    0  0.00000000000E+00  0.00000000000E+00  0.18678965180E+04  0.18678965180E+04  0.25500000920E-02 0.  1.
       -2   -1    0    0    0  501  0.00000000000E+00  0.00000000000E+00 -0.18305918787E+04  0.18305918787E+04  0.25500000920E-02 0. -1.
    10030    2    1    2    0    0  0.00000000000E+00  0.00000000000E+00  0.37304639295E+02  0.36984883967E+04  0.36983002561E+04 0.  0.
        1    1    3    3  502    0 -0.74191385947E+03  0.49709671666E+03 -0.16006319781E+04  0.18329113590E+04  0.50400001928E-02 0. -1.
       -1    1    3    3    0  502  0.74191385947E+03 -0.49709671666E+03  0.16379366174E+04  0.18655770376E+04  0.50400001928E-02 0.  1.
</event>
<event>
 5   0  0.1825308E-08  0.3701101E+04  0.7818609E-02  0.8067718E-01
       -2   -1    0    0    0  501  0.00000000000E+00  0.00000000000E+00  0.14512225697E+04  0.14512225697E+04  0.25500000920E-02 0.  1.
        2   -1    0    0  501    0  0.00000000000E+00  0.00000000000E+00 -0.23597602342E+04  0.23597602342E+04  0.25500000920E-02 0. -1.
    10030    2    1    2    0    0  0.00000000000E+00  0.00000000000E+00 -0.90853766456E+03  0.38109828039E+04  0.37011010853E+04 0.  0.
        4    1    3    3  502    0  0.10579569160E+04 -0.31337825989E+03 -0.19839918797E+04  0.22701771212E+04  0.12699999809E+01 0. -1.
       -4    1    3    3    0  502 -0.10579569160E+04  0.31337825989E+03  0.10754542152E+04  0.15408056827E+04  0.12699999809E+01 0.  1.
</event>
<event>
 5   0  0.1757996E-08  0.3705475E+04  0.7818609E-02  0.8066750E-01
       -2   -1    0    0    0  501  0.00000000000E+00  0.00000000000E+00  0.20431187029E+04  0.20431187029E+04  0.25500000920E-02 0.  1.
        2   -1    0    0  501    0  0.00000000000E+00  0.00000000000E+00 -0.16800965484E+04  0.16800965484E+04  0.25500000920E-02 0. -1.
    10030    2    1    2    0    0  0.00000000000E+00  0.00000000000E+00  0.36302215452E+03  0.37232152513E+04  0.37054752358E+04 0.  0.
        3    1    3    3  502    0 -0.17901515560E+03 -0.18394224320E+04  0.31296309754E+03  0.18744245037E+04  0.10100000352E+00 0. -1.
       -3    1    3    3    0  502  0.17901515560E+03  0.18394224320E+04  0.50059056983E+02  0.18487907477E+04  0.10100000352E+00 0.  1.
</event>
<event>
 5   0  0.5714125E-09  0.3700818E+04  0.7818609E-02  0.8067781E-01
       -1   -1    0    0    0  501  0.00000000000E+00  0.00000000000E+00  0.23102122554E+04  0.23102122554E+04  0.50400001928E-02 0. -1.
        1   -1    0    0  501    0  0.00000000000E+00  0.00000000000E+00 -0.14821207793E+04  0.14821207793E+04  0.50400001928E-02 0.  1.
    10030    2    1    2    0    0  0.00000000000E+00  0.00000000000E+00  0.82809147608E+03  0.37923330348E+04  0.37008180655E+04 0.  0.
        4    1    3    3  502    0 -0.34711952605E+03 -0.57321168145E+03 -0.13534096100E+04  0.15102260700E+04  0.12699999809E+01 0.  1.
       -4    1    3    3    0  502  0.34711952605E+03  0.57321168145E+03  0.21815010861E+04  0.22821069648E+04  0.12699999809E+01 0. -1.
</event>
<event>
 5   0  0.5714125E-09  0.3699420E+04  0.7818609E-02  0.8068090E-01
       -1   -1    0    0    0  501  0.00000000000E+00  0.00000000000E+00  0.14830321853E+04  0.14830321853E+04  0.50400001928E-02 0.  1.
        1   -1    0    0  501    0  0.00000000000E+00  0.00000000000E+00 -0.23070485822E+04  0.23070485822E+04  0.50400001928E-02 0. -1.
    10030    2    1    2    0    0  0.00000000000E+00  0.00000000000E+00 -0.82401639687E+03  0.37900807675E+04  0.36994201170E+04 0.  0.
        2    1    3    3  502    0 -0.88413296725E+03  0.15557446695E+04 -0.89188294634E+03  0.19993718440E+04  0.25500000920E-02 0. -1.
       -2    1    3    3    0  502  0.88413296725E+03 -0.15557446695E+04  0.67866549474E+02  0.17907089236E+04  0.25500000920E-02 0.  1.
</event>
<event>
 5   0  0.1740290E-08  0.3695382E+04  0.7818609E-02  0.8068986E-01
       -2   -1    0    0    0  501  0.00000000000E+00  0.00000000000E+00  0.22982504800E+04  0.22982504800E+04  0.25500000920E-02 0. -1.
        2   -1    0    0  501    0  0.00000000000E+00  0.00000000000E+00 -0.14854609351E+04  0.14854609351E+04  0.25500000920E-02 0.  1.
    10030    2    1    2    0    0  0.00000000000E+00  0.00000000000E+00  0.81278954486E+03  0.37837114150E+04  0.36953816079E+04 0.  0.
        5    1    3    3  502    0  0.54181637085E+03  0.10281098812E+04 -0.10643816842E+04  0.15759141370E+04  0.46999998093E+01 0.  1.
       -5    1    3    3    0  502 -0.54181637085E+03 -0.10281098812E+04  0.18771712291E+04  0.22077972780E+04  0.46999998093E+01 0. -1.
</event>
<event>
 5   0  0.5714125E-09  0.3700377E+04  0.7818609E-02  0.8067878E-01
       -1   -1    0    0    0  501  0.00000000000E+00  0.00000000000E+00  0.11770710916E+04  0.11770710916E+04  0.50400001928E-02 0. -1.
        1   -1    0    0  501    0  0.00000000000E+00  0.00000000000E+00 -0.29082336592E+04  0.29082336592E+04  0.50400001928E-02 0.  1.
    10030    2    1    2    0    0  0.00000000000E+00  0.00000000000E+00 -0.17311625676E+04  0.40853047508E+04  0.37003771526E+04 0.  0.
        1    1    3    3  502    0 -0.11691243370E+04  0.70262758410E+03 -0.22456820270E+04  0.26274750243E+04  0.50400001928E-02 0.  1.
       -1    1    3    3    0  502  0.11691243370E+04 -0.70262758410E+03  0.51451945939E+03  0.14578297264E+04  0.50400001928E-02 0. -1.
</event>
<event>
 5   0  0.1757996E-08  0.3698795E+04  0.7818609E-02  0.8068229E-01
        2   -1    0    0  501    0  0.00000000000E+00  0.00000000000E+00  0.10533010712E+04  0.10533010712E+04  0.25500000920E-02 0.  1.
       -2   -1    0    0    0  501  0.00000000000E+00  0.00000000000E+00 -0.32471919323E+04  0.32471919323E+04  0.25500000920E-02 0. -1.
    10030    2    1    2    0    0  0.00000000000E+00  0.00000000000E+00 -0.21938908611E+04  0.43004930036E+04  0.36987947988E+04 0.  0.
        3    1    3    3  502    0  0.90548366865E+03 -0.88754458628E+03  0.46841066113E+03  0.13516821462E+04  0.10100000352E+00 0.  1.
       -3    1    3    3    0  502 -0.90548366865E+03  0.88754458628E+03 -0.26623015222E+04  0.29488108573E+04  0.10100000352E+00 0. -1.
</event>
<event>
 5   0  0.5714125E-09  0.3699619E+04  0.7818609E-02  0.8068046E-01
       -1   -1    0    0    0  501  0.00000000000E+00  0.00000000000E+00  0.30001192409E+04  0.30001192409E+04  0.50400001928E-02 0. -1.
        1   -1    0    0  501    0  0.00000000000E+00  0.00000000000E+00 -0.11405533037E+04  0.11405533037E+04  0.50400001928E-02 0.  1.
    10030    2    1    2    0    0  0.00000000000E+00  0.00000000000E+00  0.18595659373E+04  0.41406725446E+04  0.36996193921E+04 0.  0.
        2    1    3    3  502    0 -0.16789508057E+04  0.10677820252E+03  0.68991384078E+02  0.16837568719E+04  0.25500000920E-02 0.  1.
       -2    1    3    3    0  502  0.16789508057E+04 -0.10677820252E+03  0.17905745532E+04  0.24569156727E+04  0.25500000920E-02 0. -1.
</event>
<event>
 5   0  0.5714125E-09  0.3700076E+04  0.7818609E-02  0.8067945E-01
        1   -1    0    0  501    0  0.00000000000E+00  0.00000000000E+00  0.22672721945E+04  0.22672721945E+04  0.50400001928E-02 0.  1.
       -1   -1    0    0    0  501  0.00000000000E+00  0.00000000000E+00 -0.15095849100E+04  0.15095849100E+04  0.50400001928E-02 0. -1.
    10030    2    1    2    0    0  0.00000000000E+00  0.00000000000E+00  0.75768728454E+03  0.37768571045E+04  0.37000756164E+04 0.  0.
        4    1    3    3  502    0 -0.15648061214E+03  0.13156152048E+04 -0.93919446341E+03  0.16240127469E+04  0.12699999809E+01 0. -1.
       -4    1    3    3    0  502  0.15648061214E+03 -0.13156152048E+04  0.16968817479E+04  0.21528443577E+04  0.12699999809E+01 0.  1.
</event>
<event>
 5   0  0.5714125E-09  0.3703213E+04  0.7818609E-02  0.8067250E-01
        3   -1    0    0  501    0  0.00000000000E+00  0.00000000000E+00  0.16881258477E+04  0.16881258507E+04  0.10100000352E+00 0. -1.
       -3   -1    0    0    0  501  0.00000000000E+00  0.00000000000E+00 -0.20309189813E+04  0.20309189838E+04  0.10100000352E+00 0.  1.
    10030    2    1    2    0    0  0.00000000000E+00  0.00000000000E+00 -0.34279313365E+03  0.37190448345E+04  0.37032131114E+04 0.  0.
        1    1    3    3  502    0 -0.10646296077E+04 -0.69366155315E+03  0.11811515034E+04  0.17348548717E+04  0.50400001928E-02 0. -1.
       -1    1    3    3    0  502  0.10646296077E+04  0.69366155315E+03 -0.15239446370E+04  0.19841899628E+04  0.50400001928E-02 0.  1.
</event>
<event>
 5   0  0.1825308E-08  0.3698851E+04  0.7818609E-02  0.8068217E-01
       -2   -1    0    0    0  501  0.00000000000E+00  0.00000000000E+00  0.18198477685E+04  0.18198477685E+04  0.25500000920E-02 0.  1.
        2   -1    0    0  501    0  0.00000000000E+00  0.00000000000E+00 -0.18794837962E+04  0.18794837962E+04  0.25500000920E-02 0. -1.
    10030    2    1    2    0    0  0.00000000000E+00  0.00000000000E+00 -0.59636027650E+02  0.36993315647E+04  0.36988508445E+04 0.  0.
        4    1    3    3  502    0  0.15132357982E+04 -0.96796193619E+03 -0.46980687593E+03  0.18567587362E+04  0.12699999809E+01 0. -1.
       -4    1    3    3    0  502 -0.15132357982E+04  0.96796193619E+03  0.41017084828E+03  0.18425728285E+04  0.12699999809E+01 0.  1.
</event>
<event>
 5   0  0.5714125E-09  0.3700902E+04  0.7818609E-02  0.8067762E-01
       -1   -1    0    0    0  501  0.00000000000E+00  0.00000000000E+00  0.28678333210E+04  0.28678333210E+04  0.50400001928E-02 0. -1.
        1   -1    0    0  501    0  0.00000000000E+00  0.00000000000E+00 -0.11939917140E+04  0.11939917140E+04  0.50400001928E-02 0.  1.
    10030    2    1    2    0    0  0.00000000000E+00  0.00000000000E+00  0.16738416070E+04  0.40618250350E+04  0.37009021723E+04 0.  0.
        5    1    3    3  502    0  0.59108353475E+03  0.90485883541E+03 -0.81155641553E+03  0.13515898648E+04  0.46999998093E+01 0.  1.
       -5    1    3    3    0  502 -0.59108353475E+03 -0.90485883541E+03  0.24853980225E+04  0.27102351701E+04  0.46999998093E+01 0. -1.
</event>
<event>
 5   0  0.1856107E-08  0.3700531E+04  0.7818609E-02  0.8067844E-01
       -2   -1    0    0    0  501  0.00000000000E+00  0.00000000000E+00  0.13993204617E+04  0.13993204617E+04  0.25500000920E-02 0.  1.
        2   -1    0    0  501    0  0.00000000000E+00  0.00000000000E+00 -0.24465322168E+04  0.24465322168E+04  0.25500000920E-02 0. -1.
    10030    2    1    2    0    0  0.00000000000E+00  0.00000000000E+00 -0.10472117551E+04  0.38458526785E+04  0.37005310922E+04 0.  0.
        2    1    3    3  502    0  0.12353848783E+04 -0.39496964915E+03 -0.18950120691E+04  0.22963552781E+04  0.25500000920E-02 0. -1.
       -2    1    3    3    0  502 -0.12353848783E+04  0.39496964915E+03  0.84780031395E+03  0.15494974004E+04  0.25500000920E-02 0.  1.
</event>
<event>
 5   0  0.5714125E-09  0.3700234E+04  0.7818609E-02  0.8067910E-01
       -1   -1    0    0    0  501  0.00000000000E+00  0.00000000000E+00  0.16761763314E+04  0.16761763314E+04  0.50400001928E-02 0.  1.
        1   -1    0    0  501    0  0.00000000000E+00  0.00000000000E+00 -0.20421083006E+04  0.20421083006E+04  0.50400001928E-02 0. -1.
    10030    2    1    2    0    0  0.00000000000E+00  0.00000000000E+00 -0.36593196920E+03  0.37182846320E+04  0.37002343707E+04 0.  0.
        2    1    3    3  502    0 -0.91016763915E+03 -0.76909446368E+03 -0.16051515856E+04  0.19991055595E+04  0.25500000920E-02 0. -1.
       -2    1    3    3    0  502  0.91016763915E+03  0.76909446368E+03  0.12392196164E+04  0.17191790724E+04  0.25500000920E-02 0.  1.
</event>
<event>
 5   0  0.5714125E-09  0.3695474E+04  0.7818609E-02  0.8068966E-01
        1   -1    0    0  501    0  0.00000000000E+00  0.00000000000E+00  0.22360263329E+04  0.22360263329E+04  0.50400001928E-02 0. -1.
       -1   -1    0    0    0  501  0.00000000000E+00  0.00000000000E+00 -0.15268745686E+04  0.15268745686E+04  0.50400001928E-02 0.  1.
    10030    2    1    2    0    0  0.00000000000E+00  0.00000000000E+00  0.70915176435E+03  0.37629009015E+04  0.36954738492E+04 0.  0.
        1    1    3    3  502    0  0.33171703469E+03  0.10228091985E+04 -0.11754911973E+04  0.15930958548E+04  0.50400001928E-02 0.  1.
       -1    1    3    3    0  502 -0.33171703469E+03 -0.10228091985E+04  0.18846429617E+04  0.21698050467E+04  0.50400001928E-02 0. -1.
</event>
<event>
 5   0  0.1856107E-08  0.3698133E+04  0.7818609E-02  0.8068376E-01
       -2   -1    0    0    0  501  0.00000000000E+00  0.00000000000E+00  0.12218939454E+04  0.12218939454E+04  0.25500000920E-02 0.  1.
        2   -1    0    0  501    0  0.00000000000E+00  0.00000000000E+00 -0.27981539572E+04  0.27981539572E+04  0.25500000920E-02 0. -1.
    10030    2    1    2    0    0  0.00000000000E+00  0.00000000000E+00 -0.15762600118E+04  0.40200479026E+04  0.36981332472E+04 0.  0.
        2    1    3    3  502    0  0.15873092116E+04  0.92316888091E+03 -0.55182254143E+03  0.19173678398E+04  0.25500000920E-02 0.  1.
       -2    1    3    3    0  502 -0.15873092116E+04 -0.92316888091E+03 -0.10244374704E+04  0.21026800628E+04  0.25500000920E-02 0. -1.
</event>
<event>
 5   0  0.1725865E-08  0.3702236E+04  0.7818609E-02  0.8067467E-01
       -2   -1    0    0    0  501  0.00000000000E+00  0.00000000000E+00  0.11754723418E+04  0.11754723418E+04  0.25500000920E-02 0. -1.
        2   -1    0    0  501    0  0.00000000000E+00  0.00000000000E+00 -0.29151149286E+04  0.29151149286E+04  0.25500000920E-02 0.  1.
    10030    2    1    2    0    0  0.00000000000E+00  0.00000000000E+00 -0.17396425869E+04  0.40905872704E+04  0.37022355256E+04 0.  0.
        1    1    3    3  502    0  0.40433491712E+02  0.13638242402E+04  0.51239746985E+03  0.14574644396E+04  0.50400001928E-02 0. -1.
       -1    1    3    3    0  502 -0.40433491712E+02 -0.13638242402E+04 -0.22520400567E+04  0.26331228309E+04  0.50400001928E-02 0.  1.
</event>
<event>
 5   0  0.5714125E-09  0.3701835E+04  0.7818609E-02  0.8067555E-01
       -1   -1    0    0    0  501  0.00000000000E+00  0.00000000000E+00  0.16131552663E+04  0.16131552664E+04  0.50400001928E-02 0.  1.
        1   -1    0    0  501    0  0.00000000000E+00  0.00000000000E+00 -0.21237236884E+04  0.21237236885E+04  0.50400001928E-02 0. -1.
    10030    2    1    2    0    0  0.00000000000E+00  0.00000000000E+00 -0.51056842210E+03  0.37368789548E+04  0.37018352488E+04 0.  0.
        2    1    3    3  502    0  0.50522229993E+03 -0.24612998540E+03 -0.20355169448E+04  0.21116720329E+04  0.25500000920E-02 0. -1.
       -2    1    3    3    0  502 -0.50522229993E+03  0.24612998540E+03  0.15249485227E+04  0.16252069219E+04  0.25500000920E-02 0.  1.
</event>
<event>
 5   0  0.5714125E-09  0.3701650E+04  0.7818609E-02  0.8067596E-01
       -1   -1    0    0    0  501  0.00000000000E+00  0.00000000000E+00  0.14424088413E+04  0.14424088413E+04  0.50400001928E-02 0. -1.
        1   -1    0    0  501    0  0.00000000000E+00  0.00000000000E+00 -0.23748838610E+04  0.23748838610E+04  0.50400001928E-02 0.  1.
    10030    2    1    2    0    0  0.00000000000E+00  0.00000000000E+00 -0.93247501969E+03  0.38172927023E+04  0.37016501608E+04 0.  0.
        1    1    3    3  502    0 -0.13538564293E+04 -0.87673974037E+03  0.46983930353E+03  0.16799847543E+04  0.50400001928E-02 0. -1.
       -1    1    3    3    0  502  0.13538564293E+04  0.87673974037E+03 -0.14023143232E+04  0.21373079480E+04  0.50400001928E-02 0.  1.
</event>
<event>
 5   0  0.5714125E-09  0.3700749E+04  0.7818609E-02  0.8067796E-01
       -1   -1    0    0    0  501  0.00000000000E+00  0.00000000000E+00  0.14970988947E+04  0.14970988947E+04  0.50400001928E-02 0.  1.
        1   -1    0    0  501    0  0.00000000000E+00  0.00000000000E+00 -0.22870135933E+04  0.22870135933E+04  0.50400001928E-02 0. -1.
    10030    2    1    2    0    0  0.00000000000E+00  0.00000000000E+00 -0.78991469866E+03  0.37841124880E+04  0.37007488554E+04 0.  0.
        4    1    3    3  502    0 -0.35534653904E+03  0.43518783890E+03  0.14077722916E+04  0.15157453796E+04  0.12699999809E+01 0.  1.
       -4    1    3    3    0  502  0.35534653904E+03 -0.43518783890E+03 -0.21976869903E+04  0.22683671083E+04  0.12699999809E+01 0. -1.
</event>
<event>
 5   0  0.1825308E-08  0.3698857E+04  0.7818609E-02  0.8068215E-01
        2   -1    0    0  501    0  0.00000000000E+00  0.00000000000E+00  0.19876455141E+04  0.19876455141E+04  0.25500000920E-02 0.  1.
       -2   -1    0    0    0  501  0.00000000000E+00  0.00000000000E+00 -0.17208230745E+04  0.17208230745E+04  0.25500000920E-02 0. -1.
    10030    2    1    2    0    0  0.00000000000E+00  0.00000000000E+00  0.26682243954E+03  0.37084685886E+04  0.36988572638E+04 0.  0.
        4    1    3    3  502    0 -0.10175795168E+04 -0.12038972631E+04  0.11031618265E+04  0.19240073600E+04  0.12699999809E+01 0.  1.
       -4    1    3    3    0  502  0.10175795168E+04  0.12038972631E+04 -0.83633938691E+03  0.17844612286E+04  0.12699999809E+01 0. -1.
</event>
<event>
 5   0  0.5714125E-09  0.3700231E+04  0.7818609E-02  0.8067911E-01
        1   -1    0    0  501    0  0.00000000000E+00  0.00000000000E+00  0.24580439424E+04  0.24580439424E+04  0.50400001928E-02 0.  1.
       -1   -1    0    0    0  501  0.00000000000E+00  0.00000000000E+00 -0.13925412629E+04  0.13925412629E+04  0.50400001928E-02 0. -1.
    10030    2    1    2    0    0  0.00000000000E+00  0.00000000000E+00  0.10655026795E+04  0.38505852053E+04  0.37002311365E+04 0.  0.
        3    1    3    3  502    0 -0.17804923806E+04  0.15774693872E+03  0.35975012981E+02  0.17878286903E+04  0.10100000352E+00 0. -1.
       -3    1    3    3    0  502  0.17804923806E+04 -0.15774693872E+03  0.10295276665E+04  0.20627565150E+04  0.10100000352E+00 0.  1.
</event>
<event>
 5   0  0.5714125E-09  0.3699553E+04  0.7818609E-02  0.8068061E-01
        1   -1    0    0  501    0  0.00000000000E+00  0.00000000000E+00  0.17843615566E+04  0.17843615566E+04  0.50400001928E-02 0.  1.
       -1   -1    0    0    0  501  0.00000000000E+00  0.00000000000E+00 -0.19175896736E+04  0.19175896736E+04  0.50400001928E-02 0. -1.
    10030    2    1    2    0    0  0.00000000000E+00  0.00000000000E+00 -0.13322811695E+03  0.37019512302E+04  0.36995531054E+04 0.  0.
        1    1    3    3  502    0  0.17712047770E+04 -0.32035398025E+03  0.36013661064E+03  0.18356174473E+04  0.50400001928E-02 0.  1.
       -1    1    3    3    0  502 -0.17712047770E+04  0.32035398025E+03 -0.49336472760E+03  0.18663337829E+04  0.50400001928E-02 0. -1.
</event>
<event>
 5   0  0.5714125E-09  0.3703431E+04  0.7818609E-02  0.8067202E-01
       -1   -1    0    0    0  501  0.00000000000E+00  0.00000000000E+00  0.33266358515E+04  0.33266358515E+04  0.50400001928E-02 0. -1.
        1   -1    0    0  501    0  0.00000000000E+00  0.00000000000E+00 -0.10307262917E+04  0.10307262917E+04  0.50400001928E-02 0.  1.
    10030    2    1    2    0    0  0.00000000000E+00  0.00000000000E+00  0.22959095597E+04  0.43573621432E+04  0.37034314008E+04 0.  0.
        1    1    3    3  502    0 -0.64055588961E+03 -0.21754922962E+03  0.31760397030E+04  0.32472862070E+04  0.50400001928E-02 0. -1.
       -1    1    3    3    0  502  0.64055588961E+03  0.21754922962E+03 -0.88013014328E+03  0.11100759362E+04  0.50400001928E-02 0.  1.
</event>
<event>
 5   0  0.1825308E-08  0.3699617E+04  0.7818609E-02  0.8068047E-01
       -2   -1    0    0    0  501  0.00000000000E+00  0.00000000000E+00  0.11391598761E+04  0.11391598761E+04  0.25500000920E-02 0. -1.
        2   -1    0    0  501    0  0.00000000000E+00  0.00000000000E+00 -0.30037852012E+04  0.30037852012E+04  0.25500000920E-02 0.  1.
    10030    2    1    2    0    0  0.00000000000E+00  0.00000000000E+00 -0.18646253250E+04  0.41429450773E+04  0.36996170492E+04 0.  0.
        4    1    3    3  502    0  0.67791501995E+03 -0.13316195813E+04  0.28877050690E+03  0.15218966792E+04  0.12699999809E+01 0. -1.
       -4    1    3    3    0  502 -0.67791501995E+03  0.13316195813E+04 -0.21533958319E+04  0.26210483981E+04  0.12699999809E+01 0.  1.
</event>
<event>
 5   0  0.1757996E-08  0.3704459E+04  0.7818609E-02  0.8066974E-01
       -2   -1    0    0    0  501  0.00000000000E+00  0.00000000000E+00  0.18225764965E+04  0.18225764966E+04  0.25500000920E-02 0. -1.
        2   -1    0    0  501    0  0.00000000000E+00  0.00000000000E+00 -0.18823653345E+04  0.18823653345E+04  0.25500000920E-02 0.  1.
    10030    2    1    2    0    0  0.00000000000E+00  0.00000000000E+00 -0.59788837980E+02  0.37049418311E+04  0.37044593757E+04 0.  0.
        3    1    3    3  502    0 -0.13554024062E+03  0.15388945229E+04  0.99209349527E+03  0.18359784920E+04  0.10100000352E+00 0. -1.
       -3    1    3    3    0  502  0.13554024062E+03 -0.15388945229E+04 -0.10518823333E+04  0.18689633391E+04  0.10100000352E+00 0.  1.
</event>
<event>
 5   0  0.1740290E-08  0.3702209E+04  0.7818609E-02  0.8067473E-01
        2   -1    0    0  501    0  0.00000000000E+00  0.00000000000E+00  0.31419643475E+04  0.31419643475E+04  0.25500000920E-02 0.  1.
       -2   -1    0    0    0  501  0.00000000000E+00  0.00000000000E+00 -0.10905875132E+04  0.10905875132E+04  0.25500000920E-02 0. -1.
    10030    2    1    2    0    0  0.00000000000E+00  0.00000000000E+00  0.20513768343E+04  0.42325518607E+04  0.37022085756E+04 0.  0.
        5    1    3    3  502    0  0.40906640466E+03 -0.14201862806E+04 -0.24856190798E+03  0.14986892630E+04  0.46999998093E+01 0. -1.
       -5    1    3    3    0  502 -0.40906640466E+03  0.14201862806E+04  0.22999387422E+04  0.27338625977E+04  0.46999998093E+01 0.  1.
</event>
<event>
 5   0  0.1757996E-08  0.3697146E+04  0.7818609E-02  0.8068595E-01
        2   -1    0    0  501    0  0.00000000000E+00  0.00000000000E+00  0.20313903072E+04  0.20313903072E+04  0.25500000920E-02 0.  1.
       -2   -1    0    0    0  501  0.00000000000E+00  0.00000000000E+00 -0.16822088899E+04  0.16822088899E+04  0.25500000920E-02 0. -1.
    10030    2    1    2    0    0  0.00000000000E+00  0.00000000000E+00  0.34918141733E+03  0.37135991972E+04  0.36971463773E+04 0.  0.
        3    1    3    3  502    0 -0.15746601619E+04 -0.37198635411E+03 -0.72342049572E+03  0.17723616158E+04  0.10100000352E+00 0. -1.
       -3    1    3    3    0  502  0.15746601619E+04  0.37198635411E+03  0.10726019131E+04  0.19412375814E+04  0.10100000352E+00 0.  1.
</event>
<event>
 5   0  0.5714125E-09  0.3699390E+04  0.7818609E-02  0.8068097E-01
        1   -1    0    0  501    0  0.00000000000E+00  0.00000000000E+00  0.19363897800E+04  0.19363897800E+04  0.50400001928E-02 0.  1.
       -1   -1    0    0    0  501  0.00000000000E+00  0.00000000000E+00 -0.17668814570E+04  0.17668814570E+04  0.50400001928E-02 0. -1.
    10030    2    1    2    0    0  0.00000000000E+00  0.00000000000E+00  0.16950832304E+03  0.37032712370E+04  0.36993897852E+04 0.  0.
        5    1    3    3  502    0  0.61848046327E+03 -0.51028178301E+03 -0.15838611168E+04  0.17752587723E+04  0.46999998093E+01 0. -1.
       -5    1    3    3    0  502 -0.61848046327E+03  0.51028178301E+03  0.17533694398E+04  0.19280124647E+04  0.46999998093E+01 0.  1.
</event>
<event>
 5   0  0.1740290E-08  0.3697572E+04  0.7818609E-02  0.8068500E-01
       -2   -1    0    0    0  501  0.00000000000E+00  0.00000000000E+00  0.20556911450E+04  0.20556911450E+04  0.25500000920E-02 0. -1.
        2   -1    0    0  501    0  0.00000000000E+00  0.00000000000E+00 -0.16627054288E+04  0.16627054288E+04  0.25500000920E-02 0.  1.
    10030    2    1    2    0    0  0.00000000000E+00  0.00000000000E+00  0.39298571624E+03  0.37183965738E+04  0.36975715419E+04 0.  0.
        5    1    3    3  502    0  0.15103525395E+04 -0.99175758053E+03  0.59015491282E+03  0.19008031995E+04  0.46999998093E+01 0. -1.
       -5    1    3    3    0  502 -0.15103525395E+04  0.99175758053E+03 -0.19716919658E+03  0.18175933743E+04  0.46999998093E+01 0.  1.
</event>
<event>
 5   0  0.1856107E-08  0.3701213E+04  0.7818609E-02  0.8067693E-01
        2   -1    0    0  501    0  0.00000000000E+00  0.00000000000E+00  0.20678018197E+04  0.20678018197E+04  0.25500000920E-02 0. -1.
       -2   -1    0    0    0  501  0.00000000000E+00  0.00000000000E+00 -0.16562247748E+04  0.16562247748E+04  0.25500000920E-02 0.  1.
    10030    2    1    2    0    0  0.00000000000E+00  0.00000000000E+00  0.41157704497E+03  0.37240265945E+04  0.37012131001E+04 0.  0.
        2    1    3    3  502    0  0.87103129360E+03 -0.13433039051E+04  0.11397251799E+04  0.19652313812E+04  0.25500000920E-02 0. -1.
       -2    1    3    3    0  502 -0.87103129360E+03  0.13433039051E+04 -0.72814813493E+03  0.17587952133E+04  0.25500000920E-02 0.  1.
</event>
<event>
 5   0  0.1740290E-08  0.3701280E+04  0.7818609E-02  0.8067678E-01
        2   -1    0    0  501    0  0.00000000000E+00  0.00000000000E+00  0.12100559172E+04  0.12100559172E+04  0.25500000920E-02 0. -1.
       -2   -1    0    0    0  501  0.00000000000E+00  0.00000000000E+00 -0.28303382004E+04  0.28303382004E+04  0.25500000920E-02 0.  1.
    10030    2    1    2    0    0  0.00000000000E+00  0.00000000000E+00 -0.16202822833E+04  0.40403941176E+04  0.37012795015E+04 0.  0.
        5    1    3    3  502    0 -0.38993702983E+02 -0.56486435161E+03  0.11131738356E+04  0.12489076519E+04  0.46999998093E+01 0. -1.
       -5    1    3    3    0  502  0.38993702983E+02  0.56486435161E+03 -0.27334561189E+04  0.27914864657E+04  0.46999998093E+01 0.  1.
</event>
<event>
 5   0  0.5714125E-09  0.3701408E+04  0.7818609E-02  0.8067650E-01
        1   -1    0    0  501    0  0.00000000000E+00  0.00000000000E+00  0.23034462398E+04  0.23034462398E+04  0.50400001928E-02 0.  1.
       -1   -1    0    0    0  501  0.00000000000E+00  0.00000000000E+00 -0.14869483370E+04  0.14869483370E+04  0.50400001928E-02 0. -1.
    10030    2    1    2    0    0  0.00000000000E+00  0.00000000000E+00  0.81649790285E+03  0.37903945768E+04  0.37014081405E+04 0.  0.
        1    1    3    3  502    0  0.84214187437E+03 -0.16060177147E+04  0.29755608541E+02  0.18136651380E+04  0.50400001928E-02 0. -1.
       -1    1    3    3    0  502 -0.84214187437E+03  0.16060177147E+04  0.78674229431E+03  0.19767294388E+04  0.50400001928E-02 0.  1.
</event>
<event>
 5   0  0.1856107E-08  0.3700087E+04  0.7818609E-02  0.8067942E-01
       -2   -1    0    0    0  501  0.00000000000E+00  0.00000000000E+00  0.12020279955E+04  0.12020279955E+04  0.25500000920E-02 0.  1.
        2   -1    0    0  501    0  0.00000000000E+00  0.00000000000E+00 -0.28474058947E+04  0.28474058947E+04  0.25500000920E-02 0. -1.
    10030    2    1    2    0    0  0.00000000000E+00  0.00000000000E+00 -0.16453778991E+04  0.40494338902E+04  0.37000873504E+04 0.  0.
        2    1    3    3  502    0  0.10978751935E+03 -0.39497801825E+03 -0.27970709851E+04  0.28269536660E+04  0.25500000920E-02 0. -1.
       -2    1    3    3    0  502 -0.10978751935E+03  0.39497801825E+03  0.11516930859E+04  0.12224802242E+04  0.25500000920E-02 0.  1.
</event>
<event>
 5   0  0.5714125E-09  0.3700168E+04  0.7818609E-02  0.8067925E-01
       -1   -1    0    0    0  501  0.00000000000E+00  0.00000000000E+00  0.16962529181E+04  0.16962529181E+04  0.50400001928E-02 0. -1.
        1   -1    0    0  501    0  0.00000000000E+00  0.00000000000E+00 -0.20178661575E+04  0.20178661575E+04  0.50400001928E-02 0.  1.
    10030    2    1    2    0    0  0.00000000000E+00  0.00000000000E+00 -0.32161323936E+03  0.37141190756E+04  0.37001682978E+04 0.  0.
        5    1    3    3  502    0 -0.47435063406E+03  0.74293265447E+03  0.14719274777E+04  0.17156777211E+04  0.46999998093E+01 0. -1.
       -5    1    3    3    0  502  0.47435063406E+03 -0.74293265447E+03 -0.17935407171E+04  0.19984413544E+04  0.46999998093E+01 0.  1.
</event>
<event>
 5   0  0.5714125E-09  0.3699663E+04  0.7818609E-02  0.8068036E-01
        1   -1    0    0  501    0  0.00000000000E+00  0.00000000000E+00  0.15829914744E+04  0.15829914744E+04  0.50400001928E-02 0.  1.
       -1   -1    0    0    0  501  0.00000000000E+00  0.00000000000E+00 -0.21616521191E+04  0.21616521191E+04  0.50400001928E-02 0. -1.
    10030    2    1    2    0    0  0.00000000000E+00  0.00000000000E+00 -0.57866064476E+03  0.37446435935E+04  0.36996631604E+04 0.  0.
        3    1    3    3  502    0  0.31097767659E+03 -0.49244824049E+03  0.14877679019E+04  0.15977063952E+04  0.10100000352E+00 0.  1.
       -3    1    3    3    0  502 -0.31097767659E+03  0.49244824049E+03 -0.20664285467E+04  0.21469371984E+04  0.10100000352E+00 0. -1.
</event>
<event>
 5   0  0.1825308E-08  0.3699589E+04  0.7818609E-02  0.8068053E-01
       -2   -1    0    0    0  501  0.00000000000E+00  0.00000000000E+00  0.19053150620E+04  0.19053150620E+04  0.25500000920E-02 0.  1.
        2   -1    0    0  501    0  0.00000000000E+00  0.00000000000E+00 -0.17958917210E+04  0.17958917210E+04  0.25500000920E-02 0. -1.
    10030    2    1    2    0    0  0.00000000000E+00  0.00000000000E+00  0.10942334104E+03  0.37012067830E+04  0.36995889208E+04 0.  0.
        4    1    3    3  502    0 -0.43257561497E+03  0.17949791359E+04 -0.57881634849E+02  0.18472746567E+04  0.12699999809E+01 0.  1.
       -4    1    3    3    0  502  0.43257561497E+03 -0.17949791359E+04  0.16730497589E+03  0.18539321262E+04  0.12699999809E+01 0. -1.
</event>
<event>
 5   0  0.5714125E-09  0.3700258E+04  0.7818609E-02  0.8067905E-01
       -1   -1    0    0    0  501  0.00000000000E+00  0.00000000000E+00  0.22551558436E+04  0.22551558436E+04  0.50400001928E-02 0.  1.
        1   -1    0    0  501    0  0.00000000000E+00  0.00000000000E+00 -0.15178448586E+04  0.15178448586E+04  0.50400001928E-02 0. -1.
    10030    2    1    2    0    0  0.00000000000E+00  0.00000000000E+00  0.73731098500E+03  0.37730007022E+04  0.37002576681E+04 0.  0.
        5    1    3    3  502    0 -0.35722857074E+02  0.11476404311E+04  0.18478990778E+04  0.21755706776E+04  0.46999998093E+01 0.  1.
       -5    1    3    3    0  502  0.35722857074E+02 -0.11476404311E+04 -0.11105880928E+04  0.15974300246E+04  0.46999998093E+01 0. -1.
</event>
<event>
 5   0  0.5714125E-09  0.3699802E+04  0.7818609E-02  0.8068006E-01
        1   -1    0    0  501    0  0.00000000000E+00  0.00000000000E+00  0.16240467902E+04  0.16240467902E+04  0.50400001928E-02 0.  1.
       -1   -1    0    0    0  501  0.00000000000E+00  0.00000000000E+00 -0.21071646746E+04  0.21071646746E+04  0.50400001928E-02 0. -1.
    10030    2    1    2    0    0  0.00000000000E+00  0.00000000000E+00 -0.48311788434E+03  0.37312114648E+04  0.36998021711E+04 0.  0.
        1    1    3    3  502    0 -0.17406814547E+03 -0.48729549295E+03  0.15495755086E+04  0.16336893442E+04  0.50400001928E-02 0.  1.
       -1    1    3    3    0  502  0.17406814547E+03  0.48729549295E+03 -0.20326933929E+04  0.20975221206E+04  0.50400001928E-02 0. -1.
</event>
<event>
 5   0  0.5714125E-09  0.3701311E+04  0.7818609E-02  0.8067671E-01
        1   -1    0    0  501    0  0.00000000000E+00  0.00000000000E+00  0.18716529024E+04  0.18716529024E+04  0.50400001928E-02 0. -1.
       -1   -1    0    0    0  501  0.00000000000E+00  0.00000000000E+00 -0.18298937293E+04  0.18298937294E+04  0.50400001928E-02 0.  1.
    10030    2    1    2    0    0  0.00000000000E+00  0.00000000000E+00  0.41759173071E+02  0.37015466318E+04  0.37013110702E+04 0.  0.
        5    1    3    3  502    0 -0.64733911251E+03 -0.62095244913E+03  0.16397086332E+04  0.18690362122E+04  0.46999998093E+01 0. -1.
       -5    1    3    3    0  502  0.64733911251E+03  0.62095244913E+03 -0.15979494601E+04  0.18325104196E+04  0.46999998093E+01 0.  1.
</event>
<event>
 5   0  0.1757996E-08  0.3693548E+04  0.7818609E-02  0.8069393E-01
        2   -1    0    0  501    0  0.00000000000E+00  0.00000000000E+00  0.20977152173E+04  0.20977152173E+04  0.25500000920E-02 0. -1.
       -2   -1    0    0    0  501  0.00000000000E+00  0.00000000000E+00 -0.16258515151E+04  0.16258515151E+04  0.25500000920E-02 0.  1.
    10030    2    1    2    0    0  0.00000000000E+00  0.00000000000E+00  0.47186370218E+03  0.37235667324E+04  0.36935475978E+04 0.  0.
        3    1    3    3  502    0 -0.46282752940E+03  0.16699640233E+04 -0.40768019095E+03  0.17802225449E+04  0.10100000352E+00 0. -1.
       -3    1    3    3    0  502  0.46282752940E+03 -0.16699640233E+04  0.87954389314E+03  0.19433441875E+04  0.10100000352E+00 0.  1.
</event>
<event>
 5   0  0.5714125E-09  0.3702088E+04  0.7818609E-02  0.8067499E-01
        1   -1    0    0  501    0  0.00000000000E+00  0.00000000000E+00  0.27096844819E+04  0.27096844819E+04  0.50400001928E-02 0. -1.
       -1   -1    0    0    0  501  0.00000000000E+00  0.00000000000E+00 -0.12644883635E+04  0.12644883635E+04  0.50400001928E-02 0.  1.
    10030    2    1    2    0    0  0.00000000000E+00  0.00000000000E+00  0.14451961185E+04  0.39741728454E+04  0.37020883275E+04 0.  0.
        4    1    3    3  502    0 -0.11014353597E+03  0.17771984170E+04  0.12655329595E+04  0.21845230821E+04  0.12699999809E+01 0. -1.
       -4    1    3    3    0  502  0.11014353597E+03 -0.17771984170E+04  0.17966315896E+03  0.17896497633E+04  0.12699999809E+01 0.  1.
</event>
<event>
 5   0  0.5714125E-09  0.3699195E+04  0.7818609E-02  0.8068140E-01
        3   -1    0    0  501    0  0.00000000000E+00  0.00000000000E+00  0.30539252383E+04  0.30539252399E+04  0.10100000352E+00 0.  1.
       -3   -1    0    0    0  501  0.00000000000E+00  0.00000000000E+00 -0.11202009703E+04  0.11202009748E+04  0.10100000352E+00 0. -1.
    10030    2    1    2    0    0  0.00000000000E+00  0.00000000000E+00  0.19337242680E+04  0.41741262147E+04  0.36991945220E+04 0.  0.
        4    1    3    3  502    0  0.72099263829E+03 -0.13360551266E+04  0.21589731973E+04  0.26393257786E+04  0.12699999809E+01 0.  1.
       -4    1    3    3    0  502 -0.72099263829E+03  0.13360551266E+04 -0.22524892929E+03  0.15348004362E+04  0.12699999809E+01 0. -1.
</event>
<event>
 5   0  0.1740290E-08  0.3700943E+04  0.7818609E-02  0.8067753E-01
        2   -1    0    0  501    0  0.00000000000E+00  0.00000000000E+00  0.13656839540E+04  0.13656839540E+04  0.25500000920E-02 0. -1.
       -2   -1    0    0    0  501  0.00000000000E+00  0.00000000000E+00 -0.25073476934E+04  0.25073476934E+04  0.25500000920E-02 0.  1.
    10030    2    1    2    0    0  0.00000000000E+00  0.00000000000E+00 -0.11416637394E+04  0.38730316473E+04  0.37009428593E+04 0.  0.
        5    1    3    3  502    0  0.38839777806E+03  0.13610263695E+04 -0.18183077603E+04  0.23042375775E+04  0.46999998093E+01 0.  1.
       -5    1    3    3    0  502 -0.38839777806E+03 -0.13610263695E+04  0.67664402090E+03  0.15687940698E+04  0.46999998093E+01 0. -1.
</event>
<event>
 5   0  0.5714125E-09  0.3708879E+04  0.7818609E-02  0.8065997E-01
        1   -1    0    0  501    0  0.00000000000E+00  0.00000000000E+00  0.12356113618E+04  0.12356113619E+04  0.50400001928E-02 0. -1.
       -1   -1    0    0    0  501  0.00000000000E+00  0.00000000000E+00 -0.27831931669E+04  0.27831931669E+04  0.50400001928E-02 0.  1.
    10030    2    1    2    0    0  0.00000000000E+00  0.00000000000E+00 -0.15475818051E+04  0.40188045288E+04  0.37088785902E+04 0.  0.
        5    1    3    3  502    0  0.53234329239E+03 -0.10785136159E+04 -0.23032441717E+04  0.25983719528E+04  0.46999998093E+01 0.  1.
       -5    1    3    3    0  502 -0.53234329239E+03  0.10785136159E+04  0.75566236665E+03  0.14204325760E+04  0.46999998093E+01 0. -1.
</event>
<event>
 5   0  0.1825308E-08  0.3701079E+04  0.7818609E-02  0.8067723E-01
        2   -1    0    0  501    0  0.00000000000E+00  0.00000000000E+00  0.25537588370E+04  0.25537588370E+04  0.25500000920E-02 0.  1.
       -2   -1    0    0    0  501  0.00000000000E+00  0.00000000000E+00 -0.13409631799E+04  0.13409631799E+04  0.25500000920E-02 0. -1.
    10030    2    1    2    0    0  0.00000000000E+00  0.00000000000E+00  0.12127956571E+04  0.38947220169E+04  0.37010790701E+04 0.  0.
        4    1    3    3  502    0 -0.88849264305E+03 -0.48349245582E+03  0.22370911465E+04  0.24551502076E+04  0.12699999809E+01 0.  1.
       -4    1    3    3    0  502  0.88849264305E+03  0.48349245582E+03 -0.10242954894E+04  0.14395718093E+04  0.12699999809E+01 0. -1.
</event>
<event>
 5   0  0.5714125E-09  0.3700402E+04  0.7818609E-02  0.8067873E-01
        1   -1    0    0  501    0  0.00000000000E+00  0.00000000000E+00  0.19120793953E+04  0.19120793953E+04  0.50400001928E-02 0. -1.
       -1   -1    0    0    0  501  0.00000000000E+00  0.00000000000E+00 -0.17903254191E+04  0.17903254191E+04  0.50400001928E-02 0.  1.
    10030    2    1    2    0    0  0.00000000000E+00  0.00000000000E+00  0.12175397618E+03  0.37024048144E+04  0.37004023266E+04 0.  0.
        4    1    3    3  502    0 -0.13753414987E+04 -0.30423228935E+03 -0.11394059793E+04  0.18117309741E+04  0.12699999809E+01 0.  1.
       -4    1    3    3    0  502  0.13753414987E+04  0.30423228935E+03  0.12611599555E+04  0.18906738403E+04  0.12699999809E+01 0. -1.
</event>
<event>
 5   0  0.5714125E-09  0.3699661E+04  0.7818609E-02  0.8068037E-01
        1   -1    0    0  501    0  0.00000000000E+00  0.00000000000E+00  0.17789217895E+04  0.17789217895E+04  0.50400001928E-02 0. -1.
       -1   -1    0    0    0  501  0.00000000000E+00  0.00000000000E+00 -0.19235661423E+04  0.19235661423E+04  0.50400001928E-02 0.  1.
    10030    2    1    2    0    0  0.00000000000E+00  0.00000000000E+00 -0.14464435287E+03  0.37024879318E+04  0.36996614570E+04 0.  0.
        2    1    3    3  502    0  0.94813518057E+02 -0.89557511795E+03  0.15447183630E+04  0.17880713677E+04  0.25500000920E-02 0. -1.
       -2    1    3    3    0  502 -0.94813518057E+02  0.89557511795E+03 -0.16893627159E+04  0.19144165641E+04  0.25500000920E-02 0.  1.
</event>
<event>
 5   0  0.5714125E-09  0.3698632E+04  0.7818609E-02  0.8068265E-01
       -1   -1    0    0    0  501  0.00000000000E+00  0.00000000000E+00  0.16474368456E+04  0.16474368456E+04  0.50400001928E-02 0.  1.
        1   -1    0    0  501    0  0.00000000000E+00  0.00000000000E+00 -0.20759333388E+04  0.20759333388E+04  0.50400001928E-02 0. -1.
    10030    2    1    2    0    0  0.00000000000E+00  0.00000000000E+00 -0.42849649323E+03  0.37233701844E+04  0.36986316775E+04 0.  0.
        3    1    3    3  502    0 -0.35498747351E+03 -0.77675655272E+03 -0.18655250470E+04  0.20517189280E+04  0.10100000352E+00 0. -1.
       -3    1    3    3    0  502  0.35498747351E+03  0.77675655272E+03  0.14370285537E+04  0.16716512564E+04  0.10100000352E+00 0.  1.
</event>
<event>
 5   0  0.1757996E-08  0.3702810E+04  0.7818609E-02  0.8067339E-01
       -2   -1    0    0    0  501  0.00000000000E+00  0.00000000000E+00  0.18862640551E+04  0.18862640551E+04  0.25500000920E-02 0.  1.
        2   -1    0    0  501    0  0.00000000000E+00  0.00000000000E+00 -0.18171904555E+04  0.18171904555E+04  0.25500000920E-02 0. -1.
    10030    2    1    2    0    0  0.00000000000E+00  0.00000000000E+00  0.69073599552E+02  0.37034545106E+04  0.37028103043E+04 0.  0.
        3    1    3    3  502    0 -0.83042622492E+03 -0.15695141182E+04  0.55876417707E+03  0.18615046865E+04  0.10100000352E+00 0.  1.
       -3    1    3    3    0  502  0.83042622492E+03  0.15695141182E+04 -0.48969057751E+03  0.18419498240E+04  0.10100000352E+00 0. -1.
</event>
<event>
 5   0  0.5714125E-09  0.3699596E+04  0.7818609E-02  0.8068051E-01
        1   -1    0    0  501    0  0.00000000000E+00  0.00000000000E+00  0.12082810487E+04  0.12082810487E+04  0.50400001928E-02 0.  1.
       -1   -1    0    0    0  501  0.00000000000E+00  0.00000000000E+00 -0.28319182667E+04  0.28319182667E+04  0.50400001928E-02 0. -1.
    10030    2    1    2    0    0  0.00000000000E+00  0.00000000000E+00 -0.16236372180E+04  0.40401993154E+04  0.36995962878E+04 0.  0.
        2    1    3    3  502    0 -0.14497775008E+04  0.50935635045E+03 -0.19364092663E+04  0.24720395507E+04  0.25500000920E-02 0. -1.
       -2    1    3    3    0  502  0.14497775008E+04 -0.50935635045E+03  0.31277204828E+03  0.15681597648E+04  0.25500000920E-02 0.  1.
</event>
<event>
 5   0  0.5714125E-09  0.3698862E+04  0.7818609E-02  0.8068214E-01
       -1   -1    0    0    0  501  0.00000000000E+00  0.00000000000E+00  0.14038638249E+04  0.14038638249E+04  0.50400001928E-02 0.  1.
        1   -1    0    0  501    0  0.00000000000E+00  0.00000000000E+00 -0.24364148724E+04  0.24364148724E+04  0.50400001928E-02 0. -1.
    10030    2    1    2    0    0  0.00000000000E+00  0.00000000000E+00 -0.10325510475E+04  0.38402786973E+04  0.36988618260E+04 0.  0.
        2    1    3    3  502    0  0.16746963126E+04 -0.78455508072E+03 -0.53302578762E+03  0.19246430589E+04  0.25500000920E-02 0. -1.
       -2    1    3    3    0  502 -0.16746963126E+04  0.78455508072E+03 -0.49952525983E+03  0.19156356384E+04  0.25500000920E-02 0.  1.
</event>
<event>
 5   0  0.1740290E-08  0.3701389E+04  0.7818609E-02  0.8067654E-01
       -2   -1    0    0    0  501  0.00000000000E+00  0.00000000000E+00  0.15935612226E+04  0.15935612226E+04  0.25500000920E-02 0. -1.
        2   -1    0    0  501    0  0.00000000000E+00  0.00000000000E+00 -0.21493180322E+04  0.21493180322E+04  0.25500000920E-02 0.  1.
    10030    2    1    2    0    0  0.00000000000E+00  0.00000000000E+00 -0.55575680957E+03  0.37428792548E+04  0.37013888589E+04 0.  0.
        5    1    3    3  502    0 -0.54229358612E+03  0.14916831743E+04 -0.12403068936E+04  0.20143446345E+04  0.46999998093E+01 0.  1.
       -5    1    3    3    0  502  0.54229358612E+03 -0.14916831743E+04  0.68455008400E+03  0.17285346203E+04  0.46999998093E+01 0. -1.
</event>
<event>
 5   0  0.1825308E-08  0.3696316E+04  0.7818609E-02  0.8068779E-01
       -2   -1    0    0    0  501  0.00000000000E+00  0.00000000000E+00  0.11146926408E+04  0.11146926408E+04  0.25500000920E-02 0.  1.
        2   -1    0    0  501    0  0.00000000000E+00  0.00000000000E+00 -0.30642419329E+04  0.30642419329E+04  0.25500000920E-02 0. -1.
    10030    2    1    2    0    0  0.00000000000E+00  0.00000000000E+00 -0.19495492921E+04  0.41789345738E+04  0.36963159672E+04 0.  0.
        4    1    3    3  502    0 -0.16257377845E+04  0.87276757787E+03 -0.10930242774E+04  0.21446328993E+04  0.12699999809E+01 0. -1.
       -4    1    3    3    0  502  0.16257377845E+04 -0.87276757787E+03 -0.85652501474E+03  0.20343016745E+04  0.12699999809E+01 0.  1.
</event>
<event>
 5   0  0.5714125E-09  0.3696986E+04  0.7818609E-02  0.8068630E-01
       -1   -1    0    0    0  501  0.00000000000E+00  0.00000000000E+00  0.20782737099E+04  0.20782737099E+04  0.50400001928E-02 0. -1.
        1   -1    0    0  501    0  0.00000000000E+00  0.00000000000E+00 -0.16441172737E+04  0.16441172737E+04  0.50400001928E-02 0.  1.
    10030    2    1    2    0    0  0.00000000000E+00  0.00000000000E+00  0.43415643622E+03  0.37223909837E+04  0.36969856402E+04 0.  0.
        2    1    3    3  502    0 -0.76031704120E+01  0.53002214497E+03 -0.15659507645E+04  0.16532341272E+04  0.25500000920E-02 0.  1.
       -2    1    3    3    0  502  0.76031704120E+01 -0.53002214497E+03  0.20001072007E+04  0.20691568565E+04  0.25500000920E-02 0. -1.
</event>
<event>
 5   0  0.5714125E-09  0.3700647E+04  0.7818609E-02  0.8067818E-01
       -1   -1    0    0    0  501  0.00000000000E+00  0.00000000000E+00  0.10854568634E+04  0.10854568634E+04  0.50400001928E-02 0.  1.
        1   -1    0    0  501    0  0.00000000000E+00  0.00000000000E+00 -0.31541536442E+04  0.31541536442E+04  0.50400001928E-02 0. -1.
    10030    2    1    2    0    0  0.00000000000E+00  0.00000000000E+00 -0.20686967808E+04  0.42396105077E+04  0.37006473603E+04 0.  0.
        3    1    3    3  502    0  0.12545855579E+04 -0.95977056562E+03  0.69607356425E+02  0.15811355587E+04  0.10100000352E+00 0.  1.
       -3    1    3    3    0  502 -0.12545855579E+04  0.95977056562E+03 -0.21383041373E+04  0.26584749490E+04  0.10100000352E+00 0. -1.
</event>
<event>
 5   0  0.5714125E-09  0.3700111E+04  0.7818609E-02  0.8067937E-01
       -1   -1    0    0    0  501  0.00000000000E+00  0.00000000000E+00  0.12642118304E+04  0.12642118304E+04  0.50400001928E-02 0. -1.
        1   -1    0    0  501    0  0.00000000000E+00  0.00000000000E+00 -0.27073834949E+04  0.27073834949E+04  0.50400001928E-02 0.  1.
    10030    2    1    2    0    0  0.00000000000E+00  0.00000000000E+00 -0.14431716645E+04  0.39715953253E+04  0.37001114814E+04 0.  0.
        3    1    3    3  502    0 -0.62559661814E+03  0.98795562104E+03 -0.22603977901E+04  0.25449608282E+04  0.10100000352E+00 0.  1.
       -3    1    3    3    0  502  0.62559661814E+03 -0.98795562104E+03  0.81722612553E+03  0.14266344971E+04  0.10100000352E+00 0. -1.
</event>
<event>
 5   0  0.1856107E-08  0.3704500E+04  0.7818609E-02  0.8066965E-01
       -2   -1    0    0    0  501  0.00000000000E+00  0.00000000000E+00  0.24632986562E+04  0.24632986562E+04  0.25500000920E-02 0. -1.
        2   -1    0    0  501    0  0.00000000000E+00  0.00000000000E+00 -0.13927789376E+04  0.13927789376E+04  0.25500000920E-02 0.  1.
    10030    2    1    2    0    0  0.00000000000E+00  0.00000000000E+00  0.10705197187E+04  0.38560775938E+04  0.37045002283E+04 0.  0.
        2    1    3    3  502    0 -0.16203535846E+04 -0.78265083844E+03  0.78271873480E+02  0.18011703307E+04  0.25500000920E-02 0.  1.
       -2    1    3    3    0  502  0.16203535846E+04  0.78265083844E+03  0.99224784517E+03  0.20549072632E+04  0.25500000920E-02 0. -1.
</event>
<event>
 5   0  0.5714125E-09  0.3699558E+04  0.7818609E-02  0.8068060E-01
        1   -1    0    0  501    0  0.00000000000E+00  0.00000000000E+00  0.15025235001E+04  0.15025235001E+04  0.50400001928E-02 0.  1.
       -1   -1    0    0    0  501  0.00000000000E+00  0.00000000000E+00 -0.22772902612E+04  0.22772902612E+04  0.50400001928E-02 0. -1.
    10030    2    1    2    0    0  0.00000000000E+00  0.00000000000E+00 -0.77476676109E+03  0.37798137613E+04  0.36995578839E+04 0.  0.
        1    1    3    3  502    0 -0.13759470803E+04 -0.86933649834E+03 -0.12854895226E+04  0.20739960530E+04  0.50400001928E-02 0. -1.
       -1    1    3    3    0  502  0.13759470803E+04  0.86933649834E+03  0.51072276149E+03  0.17058177084E+04  0.50400001928E-02 0.  1.
</event>
<event>
 5   0  0.1740290E-08  0.3698407E+04  0.7818609E-02  0.8068315E-01
       -2   -1    0    0    0  501  0.00000000000E+00  0.00000000000E+00  0.16209619741E+04  0.16209619741E+04  0.25500000920E-02 0.  1.
        2   -1    0    0  501    0  0.00000000000E+00  0.00000000000E+00 -0.21095823338E+04  0.21095823338E+04  0.25500000920E-02 0. -1.
    10030    2    1    2    0    0  0.00000000000E+00  0.00000000000E+00 -0.48862035965E+03  0.37305443079E+04  0.36984065457E+04 0.  0.
        5    1    3    3  502    0 -0.13692498946E+03  0.10941448844E+04  0.12530518293E+04  0.16691502202E+04  0.46999998093E+01 0.  1.
       -5    1    3    3    0  502  0.13692498946E+03 -0.10941448844E+04 -0.17416721890E+04  0.20613940876E+04  0.46999998093E+01 0. -1.
</event>
<event>
 5   0  0.5714125E-09  0.3698868E+04  0.7818609E-02  0.8068213E-01
        1   -1    0    0  501    0  0.00000000000E+00  0.00000000000E+00  0.32871585872E+04  0.32871585872E+04  0.50400001928E-02 0.  1.
       -1   -1    0    0    0  501  0.00000000000E+00  0.00000000000E+00 -0.10405358123E+04  0.10405358123E+04  0.50400001928E-02 0. -1.
    10030    2    1    2    0    0  0.00000000000E+00  0.00000000000E+00  0.22466227750E+04  0.43276943995E+04  0.36988680596E+04 0.  0.
        3    1    3    3  502    0  0.15320876836E+04  0.53045722564E+03  0.82250969529E+02  0.16234046848E+04  0.10100000352E+00 0. -1.
       -3    1    3    3    0  502 -0.15320876836E+04 -0.53045722564E+03  0.21643718054E+04  0.27042897147E+04  0.10100000352E+00 0.  1.
</event>
<event>
 5   0  0.1856107E-08  0.3700422E+04  0.7818609E-02  0.8067868E-01
        2   -1    0    0  501    0  0.00000000000E+00  0.00000000000E+00  0.32696520511E+04  0.32696520511E+04  0.25500000920E-02 0.  1.
       -2   -1    0    0    0  501  0.00000000000E+00  0.00000000000E+00 -0.10469860795E+04  0.10469860795E+04  0.25500000920E-02 0. -1.
    10030    2    1    2    0    0  0.00000000000E+00  0.00000000000E+00  0.22226659716E+04  0.43166381306E+04  0.37004216961E+04 0.  0.
        2    1    3    3  502    0 -0.58448323084E+03  0.15153622101E+03  0.31514853530E+04  0.32088072244E+04  0.25500000920E-02 0.  1.
       -2    1    3    3    0  502  0.58448323084E+03 -0.15153622101E+03 -0.92881938138E+03  0.11078309062E+04  0.25500000920E-02 0. -1.
</event>
<event>
 5   0  0.1740290E-08  0.3697560E+04  0.7818609E-02  0.8068503E-01
       -2   -1    0    0    0  501  0.00000000000E+00  0.00000000000E+00  0.16665519971E+04  0.16665519971E+04  0.25500000920E-02 0. -1.
        2   -1    0    0  501    0  0.00000000000E+00  0.00000000000E+00 -0.20509330654E+04  0.20509330654E+04  0.25500000920E-02 0.  1.
    10030    2    1    2    0    0  0.00000000000E+00  0.00000000000E+00 -0.38438106834E+03  0.37174850625E+04  0.36975595174E+04 0.  0.
        5    1    3    3  502    0  0.97125396039E+03  0.32204161469E+03 -0.17402671782E+04  0.20188107882E+04  0.46999998093E+01 0.  1.
       -5    1    3    3    0  502 -0.97125396039E+03 -0.32204161469E+03  0.13558861099E+04  0.16986742743E+04  0.46999998093E+01 0. -1.
</event>
<event>
 5   0  0.5714125E-09  0.3698624E+04  0.7818609E-02  0.8068267E-01
       -1   -1    0    0    0  501  0.00000000000E+00  0.00000000000E+00  0.19598972442E+04  0.19598972442E+04  0.50400001928E-02 0. -1.
        1   -1    0    0  501    0  0.00000000000E+00  0.00000000000E+00 -0.17449667889E+04  0.17449667889E+04  0.50400001928E-02 0.  1.
    10030    2    1    2    0    0  0.00000000000E+00  0.00000000000E+00  0.21493045536E+03  0.37048640331E+04  0.36986243934E+04 0.  0.
        1    1    3    3  502    0 -0.14671643789E+04 -0.53800407397E+03 -0.88310949102E+03  0.17949657578E+04  0.50400001928E-02 0.  1.
       -1    1    3    3    0  502  0.14671643789E+04  0.53800407397E+03  0.10980399464E+04  0.19098982754E+04  0.50400001928E-02 0. -1.
</event>
<event>
 5   0  0.5714125E-09  0.3697878E+04  0.7818609E-02  0.8068432E-01
       -1   -1    0    0    0  501  0.00000000000E+00  0.00000000000E+00  0.13646481936E+04  0.13646481936E+04  0.50400001928E-02 0.  1.
        1   -1    0    0  501    0  0.00000000000E+00  0.00000000000E+00 -0.25050965178E+04  0.25050965178E+04  0.50400001928E-02 0. -1.
    10030    2    1    2    0    0  0.00000000000E+00  0.00000000000E+00 -0.11404483242E+04  0.38697447114E+04  0.36978780065E+04 0.  0.
        4    1    3    3  502    0 -0.10474333572E+04  0.22917250494E+03 -0.21465317596E+04  0.23994242815E+04  0.12699999809E+01 0. -1.
       -4    1    3    3    0  502  0.10474333572E+04 -0.22917250494E+03  0.10060834354E+04  0.14703204299E+04  0.12699999809E+01 0.  1.
</event>
<event>
 5   0  0.1757996E-08  0.3691472E+04  0.7818609E-02  0.8069854E-01
       -2   -1    0    0    0  501  0.00000000000E+00  0.00000000000E+00  0.15812212829E+04  0.15812212829E+04  0.25500000920E-02 0.  1.
        2   -1    0    0  501    0  0.00000000000E+00  0.00000000000E+00 -0.21544997458E+04  0.21544997458E+04  0.25500000920E-02 0. -1.
    10030    2    1    2    0    0  0.00000000000E+00  0.00000000000E+00 -0.57327846287E+03  0.37357210287E+04  0.36914717130E+04 0.  0.
        3    1    3    3  502    0  0.13184534566E+04 -0.12363834836E+04  0.91710186171E+02  0.18097995481E+04  0.10100000352E+00 0.  1.
       -3    1    3    3    0  502 -0.13184534566E+04  0.12363834836E+04 -0.66498864904E+03  0.19259214806E+04  0.10100000352E+00 0. -1.
</event>
<event>
 5   0  0.5714125E-09  0.3688333E+04  0.7818609E-02  0.8070552E-01
       -1   -1    0    0    0  501  0.00000000000E+00  0.00000000000E+00  0.11664911270E+04  0.11664911270E+04  0.50400001928E-02 0.  1.
        1   -1    0    0  501    0  0.00000000000E+00  0.00000000000E+00 -0.29155386494E+04  0.29155386494E+04  0.50400001928E-02 0. -1.
    10030    2    1    2    0    0  0.00000000000E+00  0.00000000000E+00 -0.17490475225E+04  0.40820297764E+04  0.36883329378E+04 0.  0.
        5    1    3    3  502    0 -0.67657646430E+03 -0.83729647714E+03 -0.25317209833E+04  0.27510823924E+04  0.46999998093E+01 0. -1.
       -5    1    3    3    0  502  0.67657646430E+03  0.83729647714E+03  0.78267346085E+03  0.13309473840E+04  0.46999998093E+01 0.  1.
</event>
<event>
 5   0  0.1725865E-08  0.3699343E+04  0.7818609E-02  0.8068107E-01
       -2   -1    0    0    0  501  0.00000000000E+00  0.00000000000E+00  0.16106304140E+04  0.16106304140E+04  0.25500000920E-02 0.  1.
        2   -1    0    0  501    0  0.00000000000E+00  0.00000000000E+00 -0.21241895767E+04  0.21241895767E+04  0.25500000920E-02 0. -1.
    10030    2    1    2    0    0  0.00000000000E+00  0.00000000000E+00 -0.51355916275E+03  0.37348199907E+04  0.36993428267E+04 0.  0.
        1    1    3    3  502    0  0.12806542812E+03 -0.11221075202E+04 -0.17356682953E+04  0.20707656729E+04  0.50400001928E-02 0. -1.
       -1    1    3    3    0  502 -0.12806542812E+03  0.11221075202E+04  0.12221091326E+04  0.16640543178E+04  0.50400001928E-02 0.  1.
</event>
<event>
 5   0  0.5714125E-09  0.3701330E+04  0.7818609E-02  0.8067667E-01
        1   -1    0    0  501    0  0.00000000000E+00  0.00000000000E+00  0.13516597238E+04  0.13516597238E+04  0.50400001928E-02 0. -1.
       -1   -1    0    0    0  501  0.00000000000E+00  0.00000000000E+00 -0.25338927110E+04  0.25338927110E+04  0.50400001928E-02 0.  1.
    10030    2    1    2    0    0  0.00000000000E+00  0.00000000000E+00 -0.11822329872E+04  0.38855524349E+04  0.37013298810E+04 0.  0.
        1    1    3    3  502    0 -0.11867128361E+04  0.13532574868E+04 -0.13914418700E+03  0.18052574015E+04  0.50400001928E-02 0. -1.
       -1    1    3    3    0  502  0.11867128361E+04 -0.13532574868E+04 -0.10430888002E+04  0.20802950334E+04  0.50400001928E-02 0.  1.
</event>
<event>
 5   0  0.1856107E-08  0.3700491E+04  0.7818609E-02  0.8067853E-01
       -2   -1    0    0    0  501  0.00000000000E+00  0.00000000000E+00  0.21076814866E+04  0.21076814866E+04  0.25500000920E-02 0.  1.
        2   -1    0    0  501    0  0.00000000000E+00  0.00000000000E+00 -0.16242533177E+04  0.16242533177E+04  0.25500000920E-02 0. -1.
    10030    2    1    2    0    0  0.00000000000E+00  0.00000000000E+00  0.48342816897E+03  0.37319348043E+04  0.37004911281E+04 0.  0.
        2    1    3    3  502    0  0.87230294544E+03  0.16183122034E+04  0.31225889981E+02  0.18387011374E+04  0.25500000920E-02 0.  1.
       -2    1    3    3    0  502 -0.87230294544E+03 -0.16183122034E+04  0.45220227899E+03  0.18932336669E+04  0.25500000920E-02 0. -1.
</event>
<event>
 5   0  0.5714125E-09  0.3700508E+04  0.7818609E-02  0.8067849E-01
       -1   -1    0    0    0  501  0.00000000000E+00  0.00000000000E+00  0.18399294068E+04  0.18399294069E+04  0.50400001928E-02 0.  1.
        1   -1    0    0  501    0  0.00000000000E+00  0.00000000000E+00 -0.18606370278E+04  0.18606370278E+04  0.50400001928E-02 0. -1.
    10030    2    1    2    0    0  0.00000000000E+00  0.00000000000E+00 -0.20707620952E+02  0.37005664347E+04  0.37005084964E+04 0.  0.
        3    1    3    3  502    0 -0.90600244408E+03  0.13695279338E+04  0.84229872577E+03  0.18455119463E+04  0.10100000352E+00 0.  1.
       -3    1    3    3    0  502  0.90600244408E+03 -0.13695279338E+04 -0.86300634672E+03  0.18550544884E+04  0.10100000352E+00 0. -1.
</event>
<event>
 5   0  0.1825308E-08  0.3687636E+04  0.7818609E-02  0.8070707E-01
        2   -1    0    0  501    0  0.00000000000E+00  0.00000000000E+00  0.22946841134E+04  0.22946841134E+04  0.25500000920E-02 0.  1.
       -2   -1    0    0    0  501  0.00000000000E+00  0.00000000000E+00 -0.14815390273E+04  0.14815390273E+04  0.25500000920E-02 0. -1.
    10030    2    1    2    0    0  0.00000000000E+00  0.00000000000E+00  0.81314508614E+03  0.37762231407E+04  0.36876355944E+04 0.  0.
        4    1    3    3  502    0 -0.11478721037E+03 -0.16170118991E+04 -0.49302956822E+03  0.16943976374E+04  0.12699999809E+01 0. -1.
       -4    1    3    3    0  502  0.11478721037E+03  0.16170118991E+04  0.13061746544E+04  0.20818255033E+04  0.12699999809E+01 0.  1.
</event>
<event>
 5   0  0.1725865E-08  0.3698223E+04  0.7818609E-02  0.8068356E-01
        2   -1    0    0  501    0  0.00000000000E+00  0.00000000000E+00  0.18370524671E+04  0.18370524671E+04  0.25500000920E-02 0.  1.
       -2   -1    0    0    0  501  0.00000000000E+00  0.00000000000E+00 -0.18612494038E+04  0.18612494038E+04  0.25500000920E-02 0. -1.
    10030    2    1    2    0    0  0.00000000000E+00  0.00000000000E+00 -0.24196936714E+02  0.36983018709E+04  0.36982227132E+04 0.  0.
        1    1    3    3  502    0 -0.15978560484E+04 -0.29185143726E+03  0.87160115561E+03  0.18433691403E+04  0.50400001928E-02 0.  1.
       -1    1    3    3    0  502  0.15978560484E+04  0.29185143726E+03 -0.89579809233E+03  0.18549327306E+04  0.50400001928E-02 0. -1.
</event>
<event>
 5   0  0.5714125E-09  0.3700333E+04  0.7818609E-02  0.8067888E-01
       -1   -1    0    0    0  501  0.00000000000E+00  0.00000000000E+00  0.25260171149E+04  0.25260171149E+04  0.50400001928E-02 0.  1.
        1   -1    0    0  501    0  0.00000000000E+00  0.00000000000E+00 -0.13551435662E+04  0.13551435662E+04  0.50400001928E-02 0. -1.
    10030    2    1    2    0    0  0.00000000000E+00  0.00000000000E+00  0.11708735487E+04  0.38811606810E+04  0.37003328722E+04 0.  0.
        3    1    3    3  502    0  0.17915197169E+04  0.27701523038E+02  0.10692885234E+04  0.20865493588E+04  0.10100000352E+00 0.  1.
       -3    1    3    3    0  502 -0.17915197169E+04 -0.27701523038E+02  0.10158502527E+03  0.17946113222E+04  0.10100000352E+00 0. -1.
</event>
<event>
 5   0  0.5714125E-09  0.3711290E+04  0.7818609E-02  0.8065464E-01
        1   -1    0    0  501    0  0.00000000000E+00  0.00000000000E+00  0.10345332785E+04  0.10345332785E+04  0.50400001928E-02 0.  1.
       -1   -1    0    0    0  501  0.00000000000E+00  0.00000000000E+00 -0.33284751439E+04  0.33284751439E+04  0.50400001928E-02 0. -1.
    10030    2    1    2    0    0  0.00000000000E+00  0.00000000000E+00 -0.22939418654E+04  0.43630084224E+04  0.37112899660E+04 0.  0.
        5    1    3    3  502    0  0.24510236912E+03 -0.88060323979E+03  0.75149677857E+03  0.11833455689E+04  0.46999998093E+01 0.  1.
       -5    1    3    3    0  502 -0.24510236912E+03  0.88060323979E+03 -0.30454386440E+04  0.31796628535E+04  0.46999998093E+01 0. -1.
</event>
<event>
 5   0  0.5714125E-09  0.3699621E+04  0.7818609E-02  0.8068046E-01
       -1   -1    0    0    0  501  0.00000000000E+00  0.00000000000E+00  0.14055446136E+04  0.14055446136E+04  0.50400001928E-02 0.  1.
        1   -1    0    0  501    0  0.00000000000E+00  0.00000000000E+00 -0.24344999788E+04  0.24344999788E+04  0.50400001928E-02 0. -1.
    10030    2    1    2    0    0  0.00000000000E+00  0.00000000000E+00 -0.10289553652E+04  0.38400445924E+04  0.36996207006E+04 0.  0.
        3    1    3    3  502    0 -0.15169241874E+04 -0.98225839097E+03 -0.10463898053E+03  0.18102043706E+04  0.10100000352E+00 0.  1.
       -3    1    3    3    0  502  0.15169241874E+04  0.98225839097E+03 -0.92431638469E+03  0.20298402218E+04  0.10100000352E+00 0. -1.
</event>
<event>
 5   0  0.5714125E-09  0.3700595E+04  0.7818609E-02  0.8067830E-01
        3   -1    0    0  501    0  0.00000000000E+00  0.00000000000E+00  0.26316753510E+04  0.26316753529E+04  0.10100000352E+00 0. -1.
       -3   -1    0    0    0  501  0.00000000000E+00  0.00000000000E+00 -0.13009207532E+04  0.13009207571E+04  0.10100000352E+00 0.  1.
    10030    2    1    2    0    0  0.00000000000E+00  0.00000000000E+00  0.13307545978E+04  0.39325961100E+04  0.37005951366E+04 0.  0.
        2    1    3    3  502    0 -0.73628020514E+03  0.13008297929E+04  0.18243141218E+04  0.23584716885E+04  0.25500000920E-02 0. -1.
       -2    1    3    3    0  502  0.73628020514E+03 -0.13008297929E+04 -0.49355952399E+03  0.15741244215E+04  0.25500000920E-02 0.  1.
</event>
<event>
 5   0  0.1856107E-08  0.3700833E+04  0.7818609E-02  0.8067777E-01
        2   -1    0    0  501    0  0.00000000000E+00  0.00000000000E+00  0.16049302711E+04  0.16049302711E+04  0.25500000920E-02 0. -1.
       -2   -1    0    0    0  501  0.00000000000E+00  0.00000000000E+00 -0.21334520755E+04  0.21334520755E+04  0.25500000920E-02 0.  1.
    10030    2    1    2    0    0  0.00000000000E+00  0.00000000000E+00 -0.52852180439E+03  0.37383823466E+04  0.37008333212E+04 0.  0.
        2    1    3    3  502    0 -0.75845257956E+03  0.79957362023E+03  0.12372503558E+04  0.16569118059E+04  0.25500000920E-02 0. -1.
       -2    1    3    3    0  502  0.75845257956E+03 -0.79957362023E+03 -0.17657721602E+04  0.20814705406E+04  0.25500000920E-02 0.  1.
</event>
<event>
 5   0  0.5714125E-09  0.3699219E+04  0.7818609E-02  0.8068135E-01
        1   -1    0    0  501    0  0.00000000000E+00  0.00000000000E+00  0.26114835596E+04  0.26114835596E+04  0.50400001928E-02 0. -1.
       -1   -1    0    0    0  501  0.00000000000E+00  0.00000000000E+00 -0.13100047775E+04  0.13100047775E+04  0.50400001928E-02 0.  1.
    10030    2    1    2    0    0  0.00000000000E+00  0.00000000000E+00  0.13014787821E+04  0.39214883371E+04  0.36992193444E+04 0.  0.
        3    1    3    3  502    0 -0.65590366370E+03  0.16230185464E+04  0.12838306074E+04  0.21708569407E+04  0.10100000352E+00 0. -1.
       -3    1    3    3    0  502  0.65590366370E+03 -0.16230185464E+04  0.17648174638E+02  0.17506313965E+04  0.10100000352E+00 0.  1.
</event>
<event>
 5   0  0.1725865E-08  0.3699330E+04  0.7818609E-02  0.8068110E-01
        2   -1    0    0  501    0  0.00000000000E+00  0.00000000000E+00  0.19015460671E+04  0.19015460671E+04  0.25500000920E-02 0.  1.
       -2   -1    0    0    0  501  0.00000000000E+00  0.00000000000E+00 -0.17991991970E+04  0.17991991970E+04  0.25500000920E-02 0. -1.
    10030    2    1    2    0    0  0.00000000000E+00  0.00000000000E+00  0.10234687005E+03  0.37007452641E+04  0.36993297539E+04 0.  0.
        1    1    3    3  502    0 -0.57336459972E+03  0.10794958151E+04 -0.13375947630E+04  0.18119652119E+04  0.50400001928E-02 0. -1.
       -1    1    3    3    0  502  0.57336459972E+03 -0.10794958151E+04  0.14399416331E+04  0.18887800522E+04  0.50400001928E-02 0.  1.
</event>
<event>
 5   0  0.1825308E-08  0.3701833E+04  0.7818609E-02  0.8067556E-01
       -2   -1    0    0    0  501  0.00000000000E+00  0.00000000000E+00  0.12457732088E+04  0.12457732088E+04  0.25500000920E-02 0. -1.
        2   -1    0    0  501    0  0.00000000000E+00  0.00000000000E+00 -0.27500127214E+04  0.27500127214E+04  0.25500000920E-02 0.  1.
    10030    2    1    2    0    0  0.00000000000E+00  0.00000000000E+00 -0.15042395126E+04  0.39957859303E+04  0.37018331525E+04 0.  0.
        4    1    3    3  502    0  0.12219343529E+03  0.17290696630E+04 -0.14527186805E+04  0.22616379712E+04  0.12699999809E+01 0.  1.
       -4    1    3    3    0  502 -0.12219343529E+03 -0.17290696630E+04 -0.51520832078E+02  0.17341479591E+04  0.12699999809E+01 0. -1.
</event>
<event>
 5   0  0.5714125E-09  0.3701990E+04  0.7818609E-02  0.8067521E-01
        1   -1    0    0  501    0  0.00000000000E+00  0.00000000000E+00  0.98191664913E+03  0.98191664915E+03  0.50400001928E-02 0. -1.
       -1   -1    0    0    0  501  0.00000000000E+00  0.00000000000E+00 -0.34892810765E+04  0.34892810765E+04  0.50400001928E-02 0.  1.
    10030    2    1    2    0    0  0.00000000000E+00  0.00000000000E+00 -0.25073644273E+04  0.44711977256E+04  0.37019903741E+04 0.  0.
        5    1    3    3  502    0 -0.22679239141E+03  0.15948054132E+04 -0.23549000242E+04  0.28531413054E+04  0.46999998093E+01 0.  1.
       -5    1    3    3    0  502  0.22679239141E+03 -0.15948054132E+04 -0.15246440316E+03  0.16180564202E+04  0.46999998093E+01 0. -1.
</event>
<event>
 5   0  0.1757996E-08  0.3699969E+04  0.7818609E-02  0.8067969E-01
       -2   -1    0    0    0  501  0.00000000000E+00  0.00000000000E+00  0.18239046834E+04  0.18239046834E+04  0.25500000920E-02 0.  1.
        2   -1    0    0  501    0  0.00000000000E+00  0.00000000000E+00 -0.18764375474E+04  0.18764375474E+04  0.25500000920E-02 0. -1.
    10030    2    1    2    0    0  0.00000000000E+00  0.00000000000E+00 -0.52532863989E+02  0.37003422309E+04  0.36999693139E+04 0.  0.
        3    1    3    3  502    0  0.16475466437E+04 -0.57726992745E+03  0.58599843088E+03  0.18414789392E+04  0.10100000352E+00 0.  1.
       -3    1    3    3    0  502 -0.16475466437E+04  0.57726992745E+03 -0.63853129487E+03  0.18588632917E+04  0.10100000352E+00 0. -1.
</event>
<event>
 5   0  0.1757996E-08  0.3700087E+04  0.7818609E-02  0.8067942E-01
       -2   -1    0    0    0  501  0.00000000000E+00  0.00000000000E+00  0.14308149332E+04  0.14308149332E+04  0.25500000920E-02 0. -1.
        2   -1    0    0  501    0  0.00000000000E+00  0.00000000000E+00 -0.23921065976E+04  0.23921065976E+04  0.25500000920E-02 0.  1.
    10030    2    1    2    0    0  0.00000000000E+00  0.00000000000E+00 -0.96129166438E+03  0.38229215308E+04  0.37000874810E+04 0.  0.
        3    1    3    3  502    0  0.12021702099E+04 -0.37097975354E+02 -0.19330410598E+04  0.22766724012E+04  0.10100000352E+00 0.  1.
       -3    1    3    3    0  502 -0.12021702099E+04  0.37097975354E+02  0.97174939539E+03  0.15462491297E+04  0.10100000352E+00 0. -1.
</event>
<event>
 5   0  0.5714125E-09  0.3695875E+04  0.7818609E-02  0.8068877E-01
        1   -1    0    0  501    0  0.00000000000E+00  0.00000000000E+00  0.28739435998E+04  0.28739435998E+04  0.50400001928E-02 0. -1.
       -1   -1    0    0    0  501  0.00000000000E+00  0.00000000000E+00 -0.11882186263E+04  0.11882186263E+04  0.50400001928E-02 0.  1.
    10030    2    1    2    0    0  0.00000000000E+00  0.00000000000E+00  0.16857249735E+04  0.40621622261E+04  0.36958751690E+04 0.  0.
        2    1    3    3  502    0  0.59651107033E+02 -0.33303986364E+03  0.28396103402E+04  0.28596959085E+04  0.25500000920E-02 0. -1.
       -2    1    3    3    0  502 -0.59651107033E+02  0.33303986364E+03 -0.11538853667E+04  0.12024663175E+04  0.25500000920E-02 0.  1.
</event>
<event>
 5   0  0.5714125E-09  0.3700878E+04  0.7818609E-02  0.8067767E-01
       -1   -1    0    0    0  501  0.00000000000E+00  0.00000000000E+00  0.13247288025E+04  0.13247288025E+04  0.50400001928E-02 0.  1.
        1   -1    0    0  501    0  0.00000000000E+00  0.00000000000E+00 -0.25847745970E+04  0.25847745970E+04  0.50400001928E-02 0. -1.
    10030    2    1    2    0    0  0.00000000000E+00  0.00000000000E+00 -0.12600457946E+04  0.39095033995E+04  0.37008784669E+04 0.  0.
        5    1    3    3  502    0 -0.34375833722E+03 -0.14018838925E+03 -0.25450243109E+04  0.25719629492E+04  0.46999998093E+01 0. -1.
       -5    1    3    3    0  502  0.34375833722E+03  0.14018838925E+03  0.12849785163E+04  0.13375404504E+04  0.46999998093E+01 0.  1.
</event>
<event>
 5   0  0.5714125E-09  0.3703136E+04  0.7818609E-02  0.8067267E-01
       -1   -1    0    0    0  501  0.00000000000E+00  0.00000000000E+00  0.15428316068E+04  0.15428316068E+04  0.50400001928E-02 0. -1.
        1   -1    0    0  501    0  0.00000000000E+00  0.00000000000E+00 -0.22220860765E+04  0.22220860765E+04  0.50400001928E-02 0.  1.
    10030    2    1    2    0    0  0.00000000000E+00  0.00000000000E+00 -0.67925446971E+03  0.37649176833E+04  0.37031363096E+04 0.  0.
        1    1    3    3  502    0 -0.87740681619E+03  0.48330477293E+02  0.13173255354E+04  0.15835166947E+04  0.50400001928E-02 0. -1.
       -1    1    3    3    0  502  0.87740681619E+03 -0.48330477293E+02 -0.19965800051E+04  0.21814009886E+04  0.50400001928E-02 0.  1.
</event>
<event>
 5   0  0.1740290E-08  0.3699867E+04  0.7818609E-02  0.8067991E-01
       -2   -1    0    0    0  501  0.00000000000E+00  0.00000000000E+00  0.15757821114E+04  0.15757821114E+04  0.25500000920E-02 0. -1.
        2   -1    0    0  501    0  0.00000000000E+00  0.00000000000E+00 -0.21717806930E+04  0.21717806930E+04  0.25500000920E-02 0.  1.
    10030    2    1    2    0    0  0.00000000000E+00  0.00000000000E+00 -0.59599858156E+03  0.37475628044E+04  0.36998665738E+04 0.  0.
        5    1    3    3  502    0  0.49165192139E+02 -0.59213801671E+03 -0.20724931133E+04  0.21559903621E+04  0.46999998093E+01 0.  1.
       -5    1    3    3    0  502 -0.49165192139E+02  0.59213801671E+03  0.14764945317E+04  0.15915724423E+04  0.46999998093E+01 0. -1.
</event>
<event>
 5   0  0.1757996E-08  0.3698268E+04  0.7818609E-02  0.8068346E-01
       -2   -1    0    0    0  501  0.00000000000E+00  0.00000000000E+00  0.14878472035E+04  0.14878472035E+04  0.25500000920E-02 0. -1.
        2   -1    0    0  501    0  0.00000000000E+00  0.00000000000E+00 -0.22981498146E+04  0.22981498146E+04  0.25500000920E-02 0.  1.
    10030    2    1    2    0    0  0.00000000000E+00  0.00000000000E+00 -0.81030261110E+03  0.37859970180E+04  0.36982675808E+04 0.  0.
        3    1    3    3  502    0  0.76220628491E+03 -0.14971472577E+02  0.13194820993E+04  0.15238817494E+04  0.10100000352E+00 0. -1.
       -3    1    3    3    0  502 -0.76220628491E+03  0.14971472577E+02 -0.21297847104E+04  0.22621152686E+04  0.10100000352E+00 0.  1.
</event>
<event>
 5   0  0.1825308E-08  0.3700449E+04  0.7818609E-02  0.8067862E-01
        2   -1    0    0  501    0  0.00000000000E+00  0.00000000000E+00  0.25244690868E+04  0.25244690868E+04  0.25500000920E-02 0.  1.
       -2   -1    0    0    0  501  0.00000000000E+00  0.00000000000E+00 -0.13560599753E+04  0.13560599753E+04  0.25500000920E-02 0. -1.
    10030    2    1    2    0    0  0.00000000000E+00  0.00000000000E+00  0.11684091115E+04  0.38805290622E+04  0.37004494255E+04 0.  0.
        4    1    3    3  502    0 -0.93715681730E+03  0.74524067623E+03  0.20634098266E+04  0.23856463047E+04  0.12699999809E+01 0.  1.
       -4    1    3    3    0  502  0.93715681730E+03 -0.74524067623E+03 -0.89500071510E+03  0.14948827575E+04  0.12699999809E+01 0. -1.
</event>
<event>
 5   0  0.1757996E-08  0.3700544E+04  0.7818609E-02  0.8067841E-01
        2   -1    0    0  501    0  0.00000000000E+00  0.00000000000E+00  0.17464061948E+04  0.17464061948E+04  0.25500000920E-02 0. -1.
       -2   -1    0    0    0  501  0.00000000000E+00  0.00000000000E+00 -0.19603151480E+04  0.19603151480E+04  0.25500000920E-02 0.  1.
    10030    2    1    2    0    0  0.00000000000E+00  0.00000000000E+00 -0.21390895313E+03  0.37067213428E+04  0.37005440239E+04 0.  0.
        3    1    3    3  502    0  0.69723615806E+03 -0.40362172559E+03 -0.17754053411E+04  0.19496442991E+04  0.10100000352E+00 0.  1.
       -3    1    3    3    0  502 -0.69723615806E+03  0.40362172559E+03  0.15614963880E+04  0.17570770437E+04  0.10100000352E+00 0. -1.
</event>
<event>
 5   0  0.5714125E-09  0.3699525E+04  0.7818609E-02  0.8068067E-01
       -1   -1    0    0    0  501  0.00000000000E+00  0.00000000000E+00  0.20135774679E+04  0.20135774679E+04  0.50400001928E-02 0.  1.
        1   -1    0    0  501    0  0.00000000000E+00  0.00000000000E+00 -0.16992749266E+04  0.16992749266E+04  0.50400001928E-02 0. -1.
    10030    2    1    2    0    0  0.00000000000E+00  0.00000000000E+00  0.31430254125E+03  0.37128523945E+04  0.36995252149E+04 0.  0.
        5    1    3    3  502    0 -0.49105141593E+03 -0.14978005056E+02 -0.16325967811E+04  0.17049194038E+04  0.46999998093E+01 0. -1.
       -5    1    3    3    0  502  0.49105141593E+03  0.14978005056E+02  0.19468993224E+04  0.20079329907E+04  0.46999998093E+01 0.  1.
</event>
<event>
 5   0  0.5714125E-09  0.3701798E+04  0.7818609E-02  0.8067564E-01
        1   -1    0    0  501    0  0.00000000000E+00  0.00000000000E+00  0.17921536771E+04  0.17921536771E+04  0.50400001928E-02 0. -1.
       -1   -1    0    0    0  501  0.00000000000E+00  0.00000000000E+00 -0.19115696222E+04  0.19115696222E+04  0.50400001928E-02 0.  1.
    10030    2    1    2    0    0  0.00000000000E+00  0.00000000000E+00 -0.11941594510E+03  0.37037232992E+04  0.37017976862E+04 0.  0.
        4    1    3    3  502    0 -0.17904928057E+04  0.41639499664E+03 -0.27563412241E+03  0.18588235696E+04  0.12699999809E+01 0. -1.
       -4    1    3    3    0  502  0.17904928057E+04 -0.41639499664E+03  0.15621817731E+03  0.18448997296E+04  0.12699999809E+01 0.  1.
</event>
<event>
 5   0  0.5714125E-09  0.3700336E+04  0.7818609E-02  0.8067887E-01
        1   -1    0    0  501    0  0.00000000000E+00  0.00000000000E+00  0.20434801305E+04  0.20434801305E+04  0.50400001928E-02 0.  1.
       -1   -1    0    0    0  501  0.00000000000E+00  0.00000000000E+00 -0.16751428535E+04  0.16751428535E+04  0.50400001928E-02 0. -1.
    10030    2    1    2    0    0  0.00000000000E+00  0.00000000000E+00  0.36833727697E+03  0.37186229840E+04  0.37003357345E+04 0.  0.
        5    1    3    3  502    0  0.14804373507E+04  0.10347695028E+04 -0.21863186033E+03  0.18194132718E+04  0.46999998093E+01 0. -1.
       -5    1    3    3    0  502 -0.14804373507E+04 -0.10347695028E+04  0.58696913730E+03  0.18992097123E+04  0.46999998093E+01 0.  1.
</event>
<event>
 5   0  0.5714125E-09  0.3700214E+04  0.7818609E-02  0.8067914E-01
        1   -1    0    0  501    0  0.00000000000E+00  0.00000000000E+00  0.18549103590E+04  0.18549103590E+04  0.50400001928E-02 0.  1.
       -1   -1    0    0    0  501  0.00000000000E+00  0.00000000000E+00 -0.18453161294E+04  0.18453161294E+04  0.50400001928E-02 0. -1.
    10030    2    1    2    0    0  0.00000000000E+00  0.00000000000E+00  0.95942296223E+01  0.37002264884E+04  0.37002140501E+04 0.  0.
        4    1    3    3  502    0  0.15553279423E+04 -0.68681763460E+03  0.73427260948E+03  0.18520046839E+04  0.12699999809E+01 0.  1.
       -4    1    3    3    0  502 -0.15553279423E+04  0.68681763460E+03 -0.72467837986E+03  0.18482218045E+04  0.12699999809E+01 0. -1.
</event>
<event>
 5   0  0.1757996E-08  0.3678086E+04  0.7818609E-02  0.8072836E-01
       -2   -1    0    0    0  501  0.00000000000E+00  0.00000000000E+00  0.15410584227E+04  0.15410584227E+04  0.25500000920E-02 0. -1.
        2   -1    0    0  501    0  0.00000000000E+00  0.00000000000E+00 -0.21946467682E+04  0.21946467682E+04  0.25500000920E-02 0.  1.
    10030    2    1    2    0    0  0.00000000000E+00  0.00000000000E+00 -0.65358834548E+03  0.37357051910E+04  0.36780858539E+04 0.  0.
        3    1    3    3  502    0 -0.10612467418E+04 -0.11830761648E+04  0.61299291366E+03  0.17034301222E+04  0.10100000352E+00 0. -1.
       -3    1    3    3    0  502  0.10612467418E+04  0.11830761648E+04 -0.12665812591E+04  0.20322750687E+04  0.10100000352E+00 0.  1.
</event>
<event>
 5   0  0.5714125E-09  0.3698460E+04  0.7818609E-02  0.8068303E-01
        1   -1    0    0  501    0  0.00000000000E+00  0.00000000000E+00  0.18014694616E+04  0.18014694616E+04  0.50400001928E-02 0. -1.
       -1   -1    0    0    0  501  0.00000000000E+00  0.00000000000E+00 -0.18982564896E+04  0.18982564896E+04  0.50400001928E-02 0.  1.
    10030    2    1    2    0    0  0.00000000000E+00  0.00000000000E+00 -0.96787027999E+02  0.36997259513E+04  0.36984597315E+04 0.  0.
        3    1    3    3  502    0 -0.96144665726E+03 -0.75565133495E+02  0.15299810571E+04  0.18085717595E+04  0.10100000352E+00 0. -1.
       -3    1    3    3    0  502  0.96144665726E+03  0.75565133495E+02 -0.16267680851E+04  0.18911541917E+04  0.10100000352E+00 0.  1.
</event>
<event>
 5   0  0.1740290E-08  0.3699801E+04  0.7818609E-02  0.8068006E-01
       -2   -1    0    0    0  501  0.00000000000E+00  0.00000000000E+00  0.16723627935E+04  0.16723627935E+04  0.25500000920E-02 0. -1.
        2   -1    0    0  501    0  0.00000000000E+00  0.00000000000E+00 -0.20462854620E+04  0.20462854620E+04  0.25500000920E-02 0.  1.
    10030    2    1    2    0    0  0.00000000000E+00  0.00000000000E+00 -0.37392266845E+03  0.37186482555E+04  0.36998008982E+04 0.  0.
        5    1    3    3  502    0  0.74669977010E+03  0.83101195267E+03  0.12949879376E+04  0.17103091126E+04  0.46999998093E+01 0. -1.
       -5    1    3    3    0  502 -0.74669977010E+03 -0.83101195267E+03 -0.16689106060E+04  0.20083391429E+04  0.46999998093E+01 0.  1.
</event>
<event>
 5   0  0.1757996E-08  0.3700098E+04  0.7818609E-02  0.8067940E-01
        2   -1    0    0  501    0  0.00000000000E+00  0.00000000000E+00  0.16155853175E+04  0.16155853175E+04  0.25500000920E-02 0. -1.
       -2   -1    0    0    0  501  0.00000000000E+00  0.00000000000E+00 -0.21185395724E+04  0.21185395724E+04  0.25500000920E-02 0.  1.
    10030    2    1    2    0    0  0.00000000000E+00  0.00000000000E+00 -0.50295425482E+03  0.37341248899E+04  0.37000980678E+04 0.  0.
        3    1    3    3  502    0  0.58230622660E+03 -0.15520038589E+04  0.57759145774E+03  0.17553940930E+04  0.10100000352E+00 0. -1.
       -3    1    3    3    0  502 -0.58230622660E+03  0.15520038589E+04 -0.10805457126E+04  0.19787307969E+04  0.10100000352E+00 0.  1.
</event>
<event>
 5   0  0.5714125E-09  0.3700313E+04  0.7818609E-02  0.8067893E-01
        1   -1    0    0  501    0  0.00000000000E+00  0.00000000000E+00  0.25526247175E+04  0.25526247175E+04  0.50400001928E-02 0.  1.
       -1   -1    0    0    0  501  0.00000000000E+00  0.00000000000E+00 -0.13410034476E+04  0.13410034476E+04  0.50400001928E-02 0. -1.
    10030    2    1    2    0    0  0.00000000000E+00  0.00000000000E+00  0.12116212700E+04  0.38936281651E+04  0.37003127146E+04 0.  0.
        3    1    3    3  502    0 -0.80872286960E+03 -0.33952382867E+03 -0.11083346955E+04  0.14134054328E+04  0.10100000352E+00 0. -1.
       -3    1    3    3    0  502  0.80872286960E+03  0.33952382867E+03  0.23199559654E+04  0.24802227323E+04  0.10100000352E+00 0.  1.
</event>
<event>
 5   0  0.1825308E-08  0.3700633E+04  0.7818609E-02  0.8067822E-01
        2   -1    0    0  501    0  0.00000000000E+00  0.00000000000E+00  0.12034415978E+04  0.12034415978E+04  0.25500000920E-02 0. -1.
       -2   -1    0    0    0  501  0.00000000000E+00  0.00000000000E+00 -0.28448993990E+04  0.28448993990E+04  0.25500000920E-02 0.  1.
    10030    2    1    2    0    0  0.00000000000E+00  0.00000000000E+00 -0.16414578012E+04  0.40483409968E+04  0.37006325288E+04 0.  0.
        4    1    3    3  502    0 -0.15486764173E+04  0.97736109869E+03 -0.53122152713E+03  0.19067855901E+04  0.12699999809E+01 0.  1.
       -4    1    3    3    0  502  0.15486764173E+04 -0.97736109869E+03 -0.11102362740E+04  0.21415554067E+04  0.12699999809E+01 0. -1.
</event>
<event>
 5   0  0.1740290E-08  0.3699789E+04  0.7818609E-02  0.8068009E-01
       -2   -1    0    0    0  501  0.00000000000E+00  0.00000000000E+00  0.25246583692E+04  0.25246583692E+04  0.25500000920E-02 0. -1.
        2   -1    0    0  501    0  0.00000000000E+00  0.00000000000E+00 -0.13554742911E+04  0.13554742911E+04  0.25500000920E-02 0.  1.
    10030    2    1    2    0    0  0.00000000000E+00  0.00000000000E+00  0.11691840781E+04  0.38801326603E+04  0.36997889200E+04 0.  0.
        5    1    3    3  502    0  0.17460057473E+03  0.83991393041E+03  0.23034282188E+04  0.24579960171E+04  0.46999998093E+01 0. -1.
       -5    1    3    3    0  502 -0.17460057473E+03 -0.83991393041E+03 -0.11342441406E+04  0.14221366431E+04  0.46999998093E+01 0.  1.
</event>
<event>
 5   0  0.5714125E-09  0.3699828E+04  0.7818609E-02  0.8068000E-01
       -1   -1    0    0    0  501  0.00000000000E+00  0.00000000000E+00  0.16756819895E+04  0.16756819895E+04  0.50400001928E-02 0. -1.
        1   -1    0    0  501    0  0.00000000000E+00  0.00000000000E+00 -0.20422620578E+04  0.20422620578E+04  0.50400001928E-02 0.  1.
    10030    2    1    2    0    0  0.00000000000E+00  0.00000000000E+00 -0.36658006829E+03  0.37179440473E+04  0.36998279679E+04 0.  0.
        2    1    3    3  502    0 -0.71103674395E+03  0.13145716798E+04  0.91223599684E+03  0.17509558722E+04  0.25500000920E-02 0. -1.
       -2    1    3    3    0  502  0.71103674395E+03 -0.13145716798E+04 -0.12788160651E+04  0.19669881751E+04  0.25500000920E-02 0.  1.
</event>
<event>
 5   0  0.5714125E-09  0.3699332E+04  0.7818609E-02  0.8068110E-01
        1   -1    0    0  501    0  0.00000000000E+00  0.00000000000E+00  0.11224401615E+04  0.11224401615E+04  0.50400001928E-02 0.  1.
       -1   -1    0    0    0  501  0.00000000000E+00  0.00000000000E+00 -0.30480598754E+04  0.30480598754E+04  0.50400001928E-02 0. -1.
    10030    2    1    2    0    0  0.00000000000E+00  0.00000000000E+00 -0.19256197139E+04  0.41705000368E+04  0.36993322742E+04 0.  0.
        4    1    3    3  502    0 -0.13692980048E+04  0.12199886814E+04 -0.69150609974E+03  0.19599825784E+04  0.12699999809E+01 0.  1.
       -4    1    3    3    0  502  0.13692980048E+04 -0.12199886814E+04 -0.12341136142E+04  0.22105174585E+04  0.12699999809E+01 0. -1.
</event>
<event>
 5   0  0.5714125E-09  0.3700098E+04  0.7818609E-02  0.8067940E-01
       -1   -1    0    0    0  501  0.00000000000E+00  0.00000000000E+00  0.15961061925E+04  0.15961061925E+04  0.50400001928E-02 0. -1.
        1   -1    0    0  501    0  0.00000000000E+00  0.00000000000E+00 -0.21443948467E+04  0.21443948467E+04  0.50400001928E-02 0.  1.
    10030    2    1    2    0    0  0.00000000000E+00  0.00000000000E+00 -0.54828865422E+03  0.37405010393E+04  0.37000983198E+04 0.  0.
        3    1    3    3  502    0  0.12304227617E+04  0.12547916627E+04  0.31030311652E+03  0.17845812740E+04  0.10100000352E+00 0. -1.
       -3    1    3    3    0  502 -0.12304227617E+04 -0.12547916627E+04 -0.85859177074E+03  0.19559197653E+04  0.10100000352E+00 0.  1.
</event>
<event>
 5   0  0.5714125E-09  0.3699543E+04  0.7818609E-02  0.8068063E-01
        1   -1    0    0  501    0  0.00000000000E+00  0.00000000000E+00  0.11268796407E+04  0.11268796407E+04  0.50400001928E-02 0.  1.
       -1   -1    0    0    0  501  0.00000000000E+00  0.00000000000E+00 -0.30363979565E+04  0.30363979565E+04  0.50400001928E-02 0. -1.
    10030    2    1    2    0    0  0.00000000000E+00  0.00000000000E+00 -0.19095183158E+04  0.41632775972E+04  0.36995432357E+04 0.  0.
        5    1    3    3  502    0  0.77044176754E+03 -0.81101505483E+02  0.93551746673E+03  0.12146493288E+04  0.46999998093E+01 0.  1.
       -5    1    3    3    0  502 -0.77044176754E+03  0.81101505483E+02 -0.28450357825E+04  0.29486282684E+04  0.46999998093E+01 0. -1.
</event>
<event>
 5   0  0.1757996E-08  0.3700360E+04  0.7818609E-02  0.8067882E-01
        2   -1    0    0  501    0  0.00000000000E+00  0.00000000000E+00  0.14530590875E+04  0.14530590875E+04  0.25500000920E-02 0.  1.
       -2   -1    0    0    0  501  0.00000000000E+00  0.00000000000E+00 -0.23558340111E+04  0.23558340111E+04  0.25500000920E-02 0. -1.
    10030    2    1    2    0    0  0.00000000000E+00  0.00000000000E+00 -0.90277492359E+03  0.38088930986E+04  0.37003599924E+04 0.  0.
        3    1    3    3  502    0  0.10023008466E+04 -0.10431862581E+04  0.73583773231E+03  0.16230532137E+04  0.10100000352E+00 0.  1.
       -3    1    3    3    0  502 -0.10023008466E+04  0.10431862581E+04 -0.16386126559E+04  0.21858398849E+04  0.10100000352E+00 0. -1.
</event>
<event>
 5   0  0.5714125E-09  0.3699312E+04  0.7818609E-02  0.8068114E-01
        1   -1    0    0  501    0  0.00000000000E+00  0.00000000000E+00  0.21267866650E+04  0.21267866650E+04  0.50400001928E-02 0.  1.
       -1   -1    0    0    0  501  0.00000000000E+00  0.00000000000E+00 -0.16086371481E+04  0.16086371481E+04  0.50400001928E-02 0. -1.
    10030    2    1    2    0    0  0.00000000000E+00  0.00000000000E+00  0.51814951690E+03  0.37354238132E+04  0.36993123877E+04 0.  0.
        1    1    3    3  502    0  0.16145930947E+04  0.79076093173E+03  0.69807649038E+03  0.19286068804E+04  0.50400001928E-02 0.  1.
       -1    1    3    3    0  502 -0.16145930947E+04 -0.79076093173E+03 -0.17992697348E+03  0.18068169328E+04  0.50400001928E-02 0. -1.
</event>
<event>
 5   0  0.1725865E-08  0.3703918E+04  0.7818609E-02  0.8067094E-01
        2   -1    0    0  501    0  0.00000000000E+00  0.00000000000E+00  0.12461392940E+04  0.12461392940E+04  0.25500000920E-02 0.  1.
       -2   -1    0    0    0  501  0.00000000000E+00  0.00000000000E+00 -0.27523025421E+04  0.27523025421E+04  0.25500000920E-02 0. -1.
    10030    2    1    2    0    0  0.00000000000E+00  0.00000000000E+00 -0.15061632480E+04  0.39984418361E+04  0.37039181129E+04 0.  0.
        1    1    3    3  502    0 -0.17223018283E+04  0.18130557820E+03 -0.44736747758E+02  0.17323962240E+04  0.50400001928E-02 0.  1.
       -1    1    3    3    0  502  0.17223018283E+04 -0.18130557820E+03 -0.14614265003E+04  0.22660456121E+04  0.50400001928E-02 0. -1.
</event>
<event>
 5   0  0.5714125E-09  0.3700977E+04  0.7818609E-02  0.8067745E-01
        1   -1    0    0  501    0  0.00000000000E+00  0.00000000000E+00  0.21920288222E+04  0.21920288222E+04  0.50400001928E-02 0.  1.
       -1   -1    0    0    0  501  0.00000000000E+00  0.00000000000E+00 -0.15621637305E+04  0.15621637305E+04  0.50400001928E-02 0. -1.
    10030    2    1    2    0    0  0.00000000000E+00  0.00000000000E+00  0.62986509173E+03  0.37541925527E+04  0.37009771262E+04 0.  0.
        3    1    3    3  502    0  0.17529482781E+03 -0.16241934957E+04 -0.56680425732E+03  0.17291616074E+04  0.10100000352E+00 0. -1.
       -3    1    3    3    0  502 -0.17529482781E+03  0.16241934957E+04  0.11966693490E+04  0.20250309453E+04  0.10100000352E+00 0.  1.
</event>
<event>
 5   0  0.5714125E-09  0.3695032E+04  0.7818609E-02  0.8069064E-01
        1   -1    0    0  501    0  0.00000000000E+00  0.00000000000E+00  0.28174012368E+04  0.28174012368E+04  0.50400001928E-02 0.  1.
       -1   -1    0    0    0  501  0.00000000000E+00  0.00000000000E+00 -0.12115120964E+04  0.12115120964E+04  0.50400001928E-02 0. -1.
    10030    2    1    2    0    0  0.00000000000E+00  0.00000000000E+00  0.16058891404E+04  0.40289133332E+04  0.36950321670E+04 0.  0.
        2    1    3    3  502    0  0.66549419744E+03  0.13891354828E+04  0.19152906817E+04  0.24578279663E+04  0.25500000920E-02 0.  1.
       -2    1    3    3    0  502 -0.66549419744E+03 -0.13891354828E+04 -0.30940154135E+03  0.15710853669E+04  0.25500000920E-02 0. -1.
</event>
<event>
 5   0  0.5714125E-09  0.3720340E+04  0.7818609E-02  0.8063469E-01
        1   -1    0    0  501    0  0.00000000000E+00  0.00000000000E+00  0.21888303278E+04  0.21888303278E+04  0.50400001928E-02 0. -1.
       -1   -1    0    0    0  501  0.00000000000E+00  0.00000000000E+00 -0.15808591543E+04  0.15808591543E+04  0.50400001928E-02 0.  1.
    10030    2    1    2    0    0  0.00000000000E+00  0.00000000000E+00  0.60797117348E+03  0.37696894821E+04  0.37203400172E+04 0.  0.
        5    1    3    3  502    0 -0.13333041185E+04  0.83031841986E+02 -0.10076410293E+04  0.16733071126E+04  0.46999998093E+01 0.  1.
       -5    1    3    3    0  502  0.13333041185E+04 -0.83031841986E+02  0.16156122028E+04  0.20963823695E+04  0.46999998093E+01 0. -1.
</event>
<event>
 5   0  0.1740290E-08  0.3700893E+04  0.7818609E-02  0.8067764E-01
       -2   -1    0    0    0  501  0.00000000000E+00  0.00000000000E+00  0.16153314374E+04  0.16153314374E+04  0.25500000920E-02 0.  1.
        2   -1    0    0  501    0  0.00000000000E+00  0.00000000000E+00 -0.21197833902E+04  0.21197833902E+04  0.25500000920E-02 0. -1.
    10030    2    1    2    0    0  0.00000000000E+00  0.00000000000E+00 -0.50445195275E+03  0.37351148276E+04  0.37008932709E+04 0.  0.
        5    1    3    3  502    0 -0.19163981289E+03  0.94617790720E+03  0.13410267813E+04  0.16523780948E+04  0.46999998093E+01 0.  1.
       -5    1    3    3    0  502  0.19163981289E+03 -0.94617790720E+03 -0.18454787341E+04  0.20827367327E+04  0.46999998093E+01 0. -1.
</event>
<event>
 5   0  0.1740290E-08  0.3700160E+04  0.7818609E-02  0.8067926E-01
       -2   -1    0    0    0  501  0.00000000000E+00  0.00000000000E+00  0.12266604215E+04  0.12266604215E+04  0.25500000920E-02 0.  1.
        2   -1    0    0  501    0  0.00000000000E+00  0.00000000000E+00 -0.27903372973E+04  0.27903372973E+04  0.25500000920E-02 0. -1.
    10030    2    1    2    0    0  0.00000000000E+00  0.00000000000E+00 -0.15636768758E+04  0.40169977188E+04  0.37001601723E+04 0.  0.
        5    1    3    3  502    0 -0.48479869057E+03 -0.58018768824E+03  0.10512749125E+04  0.12949318730E+04  0.46999998093E+01 0.  1.
       -5    1    3    3    0  502  0.48479869057E+03  0.58018768824E+03 -0.26149517883E+04  0.27220658459E+04  0.46999998093E+01 0. -1.
</event>
<event>
 5   0  0.1740290E-08  0.3702100E+04  0.7818609E-02  0.8067497E-01
        2   -1    0    0  501    0  0.00000000000E+00  0.00000000000E+00  0.19632878996E+04  0.19632878996E+04  0.25500000920E-02 0.  1.
       -2   -1    0    0    0  501  0.00000000000E+00  0.00000000000E+00 -0.17452281418E+04  0.17452281418E+04  0.25500000920E-02 0. -1.
    10030    2    1    2    0    0  0.00000000000E+00  0.00000000000E+00  0.21805975789E+03  0.37085160414E+04  0.37020995626E+04 0.  0.
        5    1    3    3  502    0  0.23070996922E+03 -0.18212001054E+04  0.34685722465E+03  0.18682422054E+04  0.46999998093E+01 0. -1.
       -5    1    3    3    0  502 -0.23070996922E+03  0.18212001054E+04 -0.12879746676E+03  0.18402738360E+04  0.46999998093E+01 0.  1.
</event>
<event>
 5   0  0.5714125E-09  0.3701426E+04  0.7818609E-02  0.8067646E-01
       -1   -1    0    0    0  501  0.00000000000E+00  0.00000000000E+00  0.15125270885E+04  0.15125270886E+04  0.50400001928E-02 0. -1.
        1   -1    0    0  501    0  0.00000000000E+00  0.00000000000E+00 -0.22645143200E+04  0.22645143200E+04  0.50400001928E-02 0.  1.
    10030    2    1    2    0    0  0.00000000000E+00  0.00000000000E+00 -0.75198723144E+03  0.37770414085E+04  0.37014263475E+04 0.  0.
        4    1    3    3  502    0 -0.43424507312E+03  0.11594379278E+04 -0.17796941926E+04  0.21679894197E+04  0.12699999809E+01 0.  1.
       -4    1    3    3    0  502  0.43424507312E+03 -0.11594379278E+04  0.10277069612E+04  0.16090519888E+04  0.12699999809E+01 0. -1.
</event>
<event>
 5   0  0.1856107E-08  0.3698442E+04  0.7818609E-02  0.8068307E-01
       -2   -1    0    0    0  501  0.00000000000E+00  0.00000000000E+00  0.13859641875E+04  0.13859641875E+04  0.25500000920E-02 0.  1.
        2   -1    0    0  501    0  0.00000000000E+00  0.00000000000E+00 -0.24673212837E+04  0.24673212837E+04  0.25500000920E-02 0. -1.
    10030    2    1    2    0    0  0.00000000000E+00  0.00000000000E+00 -0.10813570962E+04  0.38532854712E+04  0.36984423414E+04 0.  0.
        2    1    3    3  502    0 -0.21951123643E+03 -0.43009534498E+03  0.13191204346E+04  0.14047227163E+04  0.25500000920E-02 0.  1.
       -2    1    3    3    0  502  0.21951123643E+03  0.43009534498E+03 -0.24004775308E+04  0.24485627549E+04  0.25500000920E-02 0. -1.
</event>
<event>
 5   0  0.1757996E-08  0.3701236E+04  0.7818609E-02  0.8067688E-01
       -2   -1    0    0    0  501  0.00000000000E+00  0.00000000000E+00  0.17036724641E+04  0.17036724641E+04  0.25500000920E-02 0. -1.
        2   -1    0    0  501    0  0.00000000000E+00  0.00000000000E+00 -0.20102383797E+04  0.20102383797E+04  0.25500000920E-02 0.  1.
    10030    2    1    2    0    0  0.00000000000E+00  0.00000000000E+00 -0.30656591559E+03  0.37139108438E+04  0.37012364279E+04 0.  0.
        3    1    3    3  502    0 -0.60898950501E+03  0.54933295079E+03  0.15113593241E+04  0.17195470115E+04  0.10100000352E+00 0. -1.
       -3    1    3    3    0  502  0.60898950501E+03 -0.54933295079E+03 -0.18179252397E+04  0.19943638323E+04  0.10100000352E+00 0.  1.
</event>
<event>
 5   0  0.5714125E-09  0.3699898E+04  0.7818609E-02  0.8067984E-01
       -1   -1    0    0    0  501  0.00000000000E+00  0.00000000000E+00  0.16606365908E+04  0.16606365908E+04  0.50400001928E-02 0. -1.
        1   -1    0    0  501    0  0.00000000000E+00  0.00000000000E+00 -0.20608429251E+04  0.20608429251E+04  0.50400001928E-02 0.  1.
    10030    2    1    2    0    0  0.00000000000E+00  0.00000000000E+00 -0.40020633433E+03  0.37214795159E+04  0.36998979279E+04 0.  0.
        3    1    3    3  502    0  0.84857566541E+03  0.16200965980E+04  0.79940530320E+02  0.18306239771E+04  0.10100000352E+00 0.  1.
       -3    1    3    3    0  502 -0.84857566541E+03 -0.16200965980E+04 -0.48014686465E+03  0.18908555388E+04  0.10100000352E+00 0. -1.
</event>
<event>
 5   0  0.1757996E-08  0.3701670E+04  0.7818609E-02  0.8067592E-01
        2   -1    0    0  501    0  0.00000000000E+00  0.00000000000E+00  0.18918428508E+04  0.18918428508E+04  0.25500000920E-02 0.  1.
       -2   -1    0    0    0  501  0.00000000000E+00  0.00000000000E+00 -0.18107158344E+04  0.18107158344E+04  0.25500000920E-02 0. -1.
    10030    2    1    2    0    0  0.00000000000E+00  0.00000000000E+00  0.81127016363E+02  0.37025586851E+04  0.37016697886E+04 0.  0.
        3    1    3    3  502    0  0.37712861931E+03  0.52761552273E+03 -0.16933422078E+04  0.18132876159E+04  0.10100000352E+00 0. -1.
       -3    1    3    3    0  502 -0.37712861931E+03 -0.52761552273E+03  0.17744692241E+04  0.18892710692E+04  0.10100000352E+00 0.  1.
</event>
<event>
 5   0  0.5714125E-09  0.3698354E+04  0.7818609E-02  0.8068327E-01
       -1   -1    0    0    0  501  0.00000000000E+00  0.00000000000E+00  0.17286189617E+04  0.17286189617E+04  0.50400001928E-02 0.  1.
        1   -1    0    0  501    0  0.00000000000E+00  0.00000000000E+00 -0.19781431903E+04  0.19781431903E+04  0.50400001928E-02 0. -1.
    10030    2    1    2    0    0  0.00000000000E+00  0.00000000000E+00 -0.24952422858E+03  0.37067621520E+04  0.36983541354E+04 0.  0.
        4    1    3    3  502    0  0.63262216804E+03  0.16644899612E+04  0.37508661330E+03  0.18197332823E+04  0.12699999809E+01 0.  1.
       -4    1    3    3    0  502 -0.63262216804E+03 -0.16644899612E+04 -0.62461084188E+03  0.18870288697E+04  0.12699999809E+01 0. -1.
</event>
<event>
 5   0  0.1740290E-08  0.3700483E+04  0.7818609E-02  0.8067855E-01
        2   -1    0    0  501    0  0.00000000000E+00  0.00000000000E+00  0.10810910093E+04  0.10810910093E+04  0.25500000920E-02 0. -1.
       -2   -1    0    0    0  501  0.00000000000E+00  0.00000000000E+00 -0.31666098552E+04  0.31666098552E+04  0.25500000920E-02 0.  1.
    10030    2    1    2    0    0  0.00000000000E+00  0.00000000000E+00 -0.20855188459E+04  0.42477008646E+04  0.37004829115E+04 0.  0.
        5    1    3    3  502    0 -0.93854241353E+03 -0.15693553226E+04 -0.13666833679E+04  0.22828892896E+04  0.46999998093E+01 0.  1.
       -5    1    3    3    0  502  0.93854241353E+03  0.15693553226E+04 -0.71883547801E+03  0.19648115750E+04  0.46999998093E+01 0. -1.
</event>
<event>
 5   0  0.5714125E-09  0.3700123E+04  0.7818609E-02  0.8067935E-01
        1   -1    0    0  501    0  0.00000000000E+00  0.00000000000E+00  0.17936647966E+04  0.17936647966E+04  0.50400001928E-02 0. -1.
       -1   -1    0    0    0  501  0.00000000000E+00  0.00000000000E+00 -0.19082316132E+04  0.19082316132E+04  0.50400001928E-02 0.  1.
    10030    2    1    2    0    0  0.00000000000E+00  0.00000000000E+00 -0.11456681664E+03  0.37018964098E+04  0.37001231701E+04 0.  0.
        3    1    3    3  502    0 -0.66385704825E+03  0.70813216654E+03  0.15184540856E+04  0.18021820568E+04  0.10100000352E+00 0. -1.
       -3    1    3    3    0  502  0.66385704825E+03 -0.70813216654E+03 -0.16330209022E+04  0.18997143530E+04  0.10100000352E+00 0.  1.
</event>
<event>
 5   0  0.1856107E-08  0.3700068E+04  0.7818609E-02  0.8067947E-01
        2   -1    0    0  501    0  0.00000000000E+00  0.00000000000E+00  0.28075311576E+04  0.28075311576E+04  0.25500000920E-02 0.  1.
       -2   -1    0    0    0  501  0.00000000000E+00  0.00000000000E+00 -0.12190874153E+04  0.12190874153E+04  0.25500000920E-02 0. -1.
    10030    2    1    2    0    0  0.00000000000E+00  0.00000000000E+00  0.15884437423E+04  0.40266185730E+04  0.37000680548E+04 0.  0.
        2    1    3    3  502    0 -0.81266111227E+02 -0.92684798097E+03 -0.94595736518E+03  0.13268333345E+04  0.25500000920E-02 0. -1.
       -2    1    3    3    0  502  0.81266111227E+02  0.92684798097E+03  0.25344011074E+04  0.26997852385E+04  0.25500000920E-02 0.  1.
</event>
<event>
 5   0  0.5714125E-09  0.3698469E+04  0.7818609E-02  0.8068301E-01
        1   -1    0    0  501    0  0.00000000000E+00  0.00000000000E+00  0.23032650234E+04  0.23032650234E+04  0.50400001928E-02 0.  1.
       -1   -1    0    0    0  501  0.00000000000E+00  0.00000000000E+00 -0.14847048057E+04  0.14847048057E+04  0.50400001928E-02 0. -1.
    10030    2    1    2    0    0  0.00000000000E+00  0.00000000000E+00  0.81856021771E+03  0.37879698292E+04  0.36984692234E+04 0.  0.
        5    1    3    3  502    0 -0.31231107093E+03 -0.74156454213E+03  0.21145614044E+04  0.22624871708E+04  0.46999998093E+01 0.  1.
       -5    1    3    3    0  502  0.31231107093E+03  0.74156454213E+03 -0.12960011867E+04  0.15254826584E+04  0.46999998093E+01 0. -1.
</event>
<event>
 5   0  0.5714125E-09  0.3698892E+04  0.7818609E-02  0.8068207E-01
       -1   -1    0    0    0  501  0.00000000000E+00  0.00000000000E+00  0.20091257404E+04  0.20091257404E+04  0.50400001928E-02 0. -1.
        1   -1    0    0  501    0  0.00000000000E+00  0.00000000000E+00 -0.17024573281E+04  0.17024573281E+04  0.50400001928E-02 0.  1.
    10030    2    1    2    0    0  0.00000000000E+00  0.00000000000E+00  0.30666841224E+03  0.37115830685E+04  0.36988921800E+04 0.  0.
        2    1    3    3  502    0  0.90787868232E+03 -0.13133673589E+04  0.10899569945E+04  0.19331797048E+04  0.25500000920E-02 0. -1.
       -2    1    3    3    0  502 -0.90787868232E+03  0.13133673589E+04 -0.78328858223E+03  0.17784033637E+04  0.25500000920E-02 0.  1.
</event>
<event>
 5   0  0.5714125E-09  0.3700125E+04  0.7818609E-02  0.8067934E-01
       -1   -1    0    0    0  501  0.00000000000E+00  0.00000000000E+00  0.12318357610E+04  0.12318357610E+04  0.50400001928E-02 0. -1.
        1   -1    0    0  501    0  0.00000000000E+00  0.00000000000E+00 -0.27785608235E+04  0.27785608235E+04  0.50400001928E-02 0.  1.
    10030    2    1    2    0    0  0.00000000000E+00  0.00000000000E+00 -0.15467250625E+04  0.40103965846E+04  0.37001246393E+04 0.  0.
        5    1    3    3  502    0  0.13856918472E+04 -0.88976131630E+03 -0.16872076548E+04  0.23576490103E+04  0.46999998093E+01 0.  1.
       -5    1    3    3    0  502 -0.13856918472E+04  0.88976131630E+03  0.14048259237E+03  0.16527475742E+04  0.46999998093E+01 0. -1.
</event>
<event>
 5   0  0.1740290E-08  0.3699416E+04  0.7818609E-02  0.8068091E-01
        2   -1    0    0  501    0  0.00000000000E+00  0.00000000000E+00  0.13568331183E+04  0.13568331183E+04  0.25500000920E-02 0.  1.
       -2   -1    0    0    0  501  0.00000000000E+00  0.00000000000E+00 -0.25216209174E+04  0.25216209174E+04  0.25500000920E-02 0. -1.
    10030    2    1    2    0    0  0.00000000000E+00  0.00000000000E+00 -0.11647877991E+04  0.38784540357E+04  0.36994155066E+04 0.  0.
        5    1    3    3  502    0  0.71987870895E+03  0.89829384594E+03 -0.21003037723E+04  0.23950898136E+04  0.46999998093E+01 0. -1.
       -5    1    3    3    0  502 -0.71987870895E+03 -0.89829384594E+03  0.93551597322E+03  0.14833642221E+04  0.46999998093E+01 0.  1.
</event>
<event>
 5   0  0.5714125E-09  0.3699422E+04  0.7818609E-02  0.8068090E-01
        1   -1    0    0  501    0  0.00000000000E+00  0.00000000000E+00  0.27216781144E+04  0.27216781144E+04  0.50400001928E-02 0. -1.
       -1   -1    0    0    0  501  0.00000000000E+00  0.00000000000E+00 -0.12571034447E+04  0.12571034447E+04  0.50400001928E-02 0.  1.
    10030    2    1    2    0    0  0.00000000000E+00  0.00000000000E+00  0.14645746697E+04  0.39787815591E+04  0.36994220808E+04 0.  0.
        5    1    3    3  502    0 -0.15162211018E+03  0.11218311959E+02  0.27149401407E+04  0.27191978914E+04  0.46999998093E+01 0. -1.
       -5    1    3    3    0  502  0.15162211018E+03 -0.11218311959E+02 -0.12503654710E+04  0.12595836677E+04  0.46999998093E+01 0.  1.
</event>
<event>
 5   0  0.1725865E-08  0.3700547E+04  0.7818609E-02  0.8067841E-01
        2   -1    0    0  501    0  0.00000000000E+00  0.00000000000E+00  0.28748108396E+04  0.28748108396E+04  0.25500000920E-02 0. -1.
       -2   -1    0    0    0  501  0.00000000000E+00  0.00000000000E+00 -0.11908652208E+04  0.11908652208E+04  0.25500000920E-02 0.  1.
    10030    2    1    2    0    0  0.00000000000E+00  0.00000000000E+00  0.16839456189E+04  0.40656760604E+04  0.37005471191E+04 0.  0.
        1    1    3    3  502    0 -0.11868993262E+04 -0.56646141485E+03  0.22718910046E+04  0.26250899569E+04  0.50400001928E-02 0. -1.
       -1    1    3    3    0  502  0.11868993262E+04  0.56646141485E+03 -0.58794538572E+03  0.14405861035E+04  0.50400001928E-02 0.  1.
</event>
<event>
 5   0  0.1740290E-08  0.3698656E+04  0.7818609E-02  0.8068260E-01
        2   -1    0    0  501    0  0.00000000000E+00  0.00000000000E+00  0.13438351718E+04  0.13438351718E+04  0.25500000920E-02 0. -1.
       -2   -1    0    0    0  501  0.00000000000E+00  0.00000000000E+00 -0.25449648226E+04  0.25449648226E+04  0.25500000920E-02 0.  1.
    10030    2    1    2    0    0  0.00000000000E+00  0.00000000000E+00 -0.12011296508E+04  0.38887999945E+04  0.36986555610E+04 0.  0.
        5    1    3    3  502    0  0.13238942803E+03  0.20396587133E+03 -0.25280767147E+04  0.25397486101E+04  0.46999998093E+01 0.  1.
       -5    1    3    3    0  502 -0.13238942803E+03 -0.20396587133E+03  0.13269470639E+04  0.13490513844E+04  0.46999998093E+01 0. -1.
</event>
<event>
 5   0  0.1740290E-08  0.3696527E+04  0.7818609E-02  0.8068732E-01
        2   -1    0    0  501    0  0.00000000000E+00  0.00000000000E+00  0.25058741976E+04  0.25058741976E+04  0.25500000920E-02 0.  1.
       -2   -1    0    0    0  501  0.00000000000E+00  0.00000000000E+00 -0.13632280882E+04  0.13632280882E+04  0.25500000920E-02 0. -1.
    10030    2    1    2    0    0  0.00000000000E+00  0.00000000000E+00  0.11426461094E+04  0.38691022859E+04  0.36965270684E+04 0.  0.
        5    1    3    3  502    0  0.73950504444E+03  0.95544920337E+03 -0.89265516366E+03  0.15022004601E+04  0.46999998093E+01 0. -1.
       -5    1    3    3    0  502 -0.73950504444E+03 -0.95544920337E+03  0.20353012731E+04  0.23669018258E+04  0.46999998093E+01 0.  1.
</event>
<event>
 5   0  0.5714125E-09  0.3699116E+04  0.7818609E-02  0.8068158E-01
        1   -1    0    0  501    0  0.00000000000E+00  0.00000000000E+00  0.15565605909E+04  0.15565605909E+04  0.50400001928E-02 0. -1.
       -1   -1    0    0    0  501  0.00000000000E+00  0.00000000000E+00 -0.21977069331E+04  0.21977069331E+04  0.50400001928E-02 0.  1.
    10030    2    1    2    0    0  0.00000000000E+00  0.00000000000E+00 -0.64114634221E+03  0.37542675240E+04  0.36991155713E+04 0.  0.
        5    1    3    3  502    0  0.18365140949E+04  0.12783645007E+03 -0.13982883441E+03  0.18462666036E+04  0.46999998093E+01 0.  1.
       -5    1    3    3    0  502 -0.18365140949E+04 -0.12783645007E+03 -0.50131750780E+03  0.19080009204E+04  0.46999998093E+01 0. -1.
</event>
<event>
 5   0  0.5714125E-09  0.3696359E+04  0.7818609E-02  0.8068769E-01
       -1   -1    0    0    0  501  0.00000000000E+00  0.00000000000E+00  0.20499219047E+04  0.20499219047E+04  0.50400001928E-02 0. -1.
        1   -1    0    0  501    0  0.00000000000E+00  0.00000000000E+00 -0.16662912178E+04  0.16662912178E+04  0.50400001928E-02 0.  1.
    10030    2    1    2    0    0  0.00000000000E+00  0.00000000000E+00  0.38363068688E+03  0.37162131224E+04  0.36963586768E+04 0.  0.
        5    1    3    3  502    0  0.10508211673E+04  0.13089797224E+04 -0.58570257688E+03  0.17778421297E+04  0.46999998093E+01 0. -1.
       -5    1    3    3    0  502 -0.10508211673E+04 -0.13089797224E+04  0.96933326377E+03  0.19383709928E+04  0.46999998093E+01 0.  1.
</event>
<event>
 5   0  0.1740290E-08  0.3703533E+04  0.7818609E-02  0.8067179E-01
       -2   -1    0    0    0  501  0.00000000000E+00  0.00000000000E+00  0.15682746014E+04  0.15682746014E+04  0.25500000920E-02 0.  1.
        2   -1    0    0  501    0  0.00000000000E+00  0.00000000000E+00 -0.21865039151E+04  0.21865039151E+04  0.25500000920E-02 0. -1.
    10030    2    1    2    0    0  0.00000000000E+00  0.00000000000E+00 -0.61822931374E+03  0.37547785166E+04  0.37035326681E+04 0.  0.
        5    1    3    3  502    0  0.10059872099E+04  0.91626183920E+03 -0.15824674921E+04  0.20870485087E+04  0.46999998093E+01 0. -1.
       -5    1    3    3    0  502 -0.10059872099E+04 -0.91626183920E+03  0.96423817833E+03  0.16677300078E+04  0.46999998093E+01 0.  1.
</event>
<event>
 5   0  0.5714125E-09  0.3700152E+04  0.7818609E-02  0.8067928E-01
       -1   -1    0    0    0  501  0.00000000000E+00  0.00000000000E+00  0.17771254918E+04  0.17771254919E+04  0.50400001928E-02 0.  1.
        1   -1    0    0  501    0  0.00000000000E+00  0.00000000000E+00 -0.19260211423E+04  0.19260211423E+04  0.50400001928E-02 0. -1.
    10030    2    1    2    0    0  0.00000000000E+00  0.00000000000E+00 -0.14889565047E+03  0.37031466342E+04  0.37001520346E+04 0.  0.
        4    1    3    3  502    0 -0.19367397829E+03  0.55577539675E+03 -0.18298296401E+04  0.19221534866E+04  0.12699999809E+01 0. -1.
       -4    1    3    3    0  502  0.19367397829E+03 -0.55577539675E+03  0.16809339896E+04  0.17809931476E+04  0.12699999809E+01 0.  1.
</event>
<event>
 5   0  0.1725865E-08  0.3700437E+04  0.7818609E-02  0.8067865E-01
        2   -1    0    0  501    0  0.00000000000E+00  0.00000000000E+00  0.27927280552E+04  0.27927280552E+04  0.25500000920E-02 0. -1.
       -2   -1    0    0    0  501  0.00000000000E+00  0.00000000000E+00 -0.12257939431E+04  0.12257939431E+04  0.25500000920E-02 0.  1.
    10030    2    1    2    0    0  0.00000000000E+00  0.00000000000E+00  0.15669341121E+04  0.40185219983E+04  0.37004373443E+04 0.  0.
        1    1    3    3  502    0 -0.35424579676E+03 -0.17996285923E+04  0.51934016322E+03  0.19062705369E+04  0.50400001928E-02 0. -1.
       -1    1    3    3    0  502  0.35424579676E+03  0.17996285923E+04  0.10475939489E+04  0.21122514614E+04  0.50400001928E-02 0.  1.
</event>
<event>
 5   0  0.5714125E-09  0.3701244E+04  0.7818609E-02  0.8067686E-01
        1   -1    0    0  501    0  0.00000000000E+00  0.00000000000E+00  0.30506601951E+04  0.30506601951E+04  0.50400001928E-02 0. -1.
       -1   -1    0    0    0  501  0.00000000000E+00  0.00000000000E+00 -0.11226430997E+04  0.11226430997E+04  0.50400001928E-02 0.  1.
    10030    2    1    2    0    0  0.00000000000E+00  0.00000000000E+00  0.19280170954E+04  0.41733032949E+04  0.37012444490E+04 0.  0.
        5    1    3    3  502    0  0.37338249403E+02  0.18429936416E+04  0.77955717767E+03  0.20014372814E+04  0.46999998093E+01 0.  1.
       -5    1    3    3    0  502 -0.37338249403E+02 -0.18429936416E+04  0.11484599177E+04  0.21718660135E+04  0.46999998093E+01 0. -1.
</event>
<event>
 5   0  0.5714125E-09  0.3698325E+04  0.7818609E-02  0.8068333E-01
       -1   -1    0    0    0  501  0.00000000000E+00  0.00000000000E+00  0.25166728021E+04  0.25166728021E+04  0.50400001928E-02 0.  1.
        1   -1    0    0  501    0  0.00000000000E+00  0.00000000000E+00 -0.13586995337E+04  0.13586995337E+04  0.50400001928E-02 0. -1.
    10030    2    1    2    0    0  0.00000000000E+00  0.00000000000E+00  0.11579732684E+04  0.38753723358E+04  0.36983251143E+04 0.  0.
        1    1    3    3  502    0  0.10202850867E+04 -0.41770017179E+03  0.21346260135E+04  0.24025160373E+04  0.50400001928E-02 0.  1.
       -1    1    3    3    0  502 -0.10202850867E+04  0.41770017179E+03 -0.97665274510E+03  0.14728562986E+04  0.50400001928E-02 0. -1.
</event>
<event>
 5   0  0.5714125E-09  0.3698707E+04  0.7818609E-02  0.8068248E-01
        1   -1    0    0  501    0  0.00000000000E+00  0.00000000000E+00  0.18390728864E+04  0.18390728865E+04  0.50400001928E-02 0. -1.
       -1   -1    0    0    0  501  0.00000000000E+00  0.00000000000E+00 -0.18596918943E+04  0.18596918943E+04  0.50400001928E-02 0.  1.
    10030    2    1    2    0    0  0.00000000000E+00  0.00000000000E+00 -0.20619007893E+02  0.36987647808E+04  0.36987073093E+04 0.  0.
        1    1    3    3  502    0  0.19251710238E+03 -0.39447843433E+03  0.17862241496E+04  0.18393674952E+04  0.50400001928E-02 0. -1.
       -1    1    3    3    0  502 -0.19251710238E+03  0.39447843433E+03 -0.18068431575E+04  0.18593972856E+04  0.50400001928E-02 0.  1.
</event>
<event>
 5   0  0.5714125E-09  0.3698545E+04  0.7818609E-02  0.8068284E-01
       -1   -1    0    0    0  501  0.00000000000E+00  0.00000000000E+00  0.21516322413E+04  0.21516322413E+04  0.50400001928E-02 0.  1.
        1   -1    0    0  501    0  0.00000000000E+00  0.00000000000E+00 -0.15894019637E+04  0.15894019637E+04  0.50400001928E-02 0. -1.
    10030    2    1    2    0    0  0.00000000000E+00  0.00000000000E+00  0.56223027767E+03  0.37410342050E+04  0.36985448541E+04 0.  0.
        4    1    3    3  502    0 -0.12144679890E+04 -0.36599621733E+02 -0.11290077347E+04  0.16585934121E+04  0.12699999809E+01 0. -1.
       -4    1    3    3    0  502  0.12144679890E+04  0.36599621733E+02  0.16912380123E+04  0.20824407929E+04  0.12699999809E+01 0.  1.
</event>
<event>
 5   0  0.1825308E-08  0.3702130E+04  0.7818609E-02  0.8067490E-01
       -2   -1    0    0    0  501  0.00000000000E+00  0.00000000000E+00  0.18241076280E+04  0.18241076280E+04  0.25500000920E-02 0.  1.
        2   -1    0    0  501    0  0.00000000000E+00  0.00000000000E+00 -0.18784205201E+04  0.18784205201E+04  0.25500000920E-02 0. -1.
    10030    2    1    2    0    0  0.00000000000E+00  0.00000000000E+00 -0.54312892165E+02  0.37025281481E+04  0.37021297650E+04 0.  0.
        4    1    3    3  502    0  0.70539080136E+01 -0.63639888320E+02  0.18229993266E+04  0.18241238858E+04  0.12699999809E+01 0.  1.
       -4    1    3    3    0  502 -0.70539080136E+01  0.63639888320E+02 -0.18773122188E+04  0.18784042623E+04  0.12699999809E+01 0. -1.
</event>
<event>
 5   0  0.1725865E-08  0.3701225E+04  0.7818609E-02  0.8067690E-01
        2   -1    0    0  501    0  0.00000000000E+00  0.00000000000E+00  0.13716628204E+04  0.13716628204E+04  0.25500000920E-02 0. -1.
       -2   -1    0    0    0  501  0.00000000000E+00  0.00000000000E+00 -0.24967991046E+04  0.24967991046E+04  0.25500000920E-02 0.  1.
    10030    2    1    2    0    0  0.00000000000E+00  0.00000000000E+00 -0.11251362843E+04  0.38684619250E+04  0.37012249333E+04 0.  0.
        1    1    3    3  502    0  0.15650790508E+04 -0.55201432832E+03  0.29331856850E+03  0.16852976107E+04  0.50400001928E-02 0. -1.
       -1    1    3    3    0  502 -0.15650790508E+04  0.55201432832E+03 -0.14184548528E+04  0.21831643143E+04  0.50400001928E-02 0.  1.
</event>
<event>
 5   0  0.5714125E-09  0.3699848E+04  0.7818609E-02  0.8067996E-01
       -1   -1    0    0    0  501  0.00000000000E+00  0.00000000000E+00  0.29740817383E+04  0.29740817383E+04  0.50400001928E-02 0. -1.
        1   -1    0    0  501    0  0.00000000000E+00  0.00000000000E+00 -0.11506807635E+04  0.11506807635E+04  0.50400001928E-02 0.  1.
    10030    2    1    2    0    0  0.00000000000E+00  0.00000000000E+00  0.18234009749E+04  0.41247625018E+04  0.36998479132E+04 0.  0.
        4    1    3    3  502    0  0.97477068354E+03  0.12228450690E+04  0.20134763208E+04  0.25494345364E+04  0.12699999809E+01 0. -1.
       -4    1    3    3    0  502 -0.97477068354E+03 -0.12228450690E+04 -0.19007534591E+03  0.15753279653E+04  0.12699999809E+01 0.  1.
</event>
<event>
 5   0  0.1740290E-08  0.3704575E+04  0.7818609E-02  0.8066949E-01
       -2   -1    0    0    0  501  0.00000000000E+00  0.00000000000E+00  0.14835098344E+04  0.14835098344E+04  0.25500000920E-02 0.  1.
        2   -1    0    0  501    0  0.00000000000E+00  0.00000000000E+00 -0.23127381154E+04  0.23127381154E+04  0.25500000920E-02 0. -1.
    10030    2    1    2    0    0  0.00000000000E+00  0.00000000000E+00 -0.82922828098E+03  0.37962479498E+04  0.37045754081E+04 0.  0.
        5    1    3    3  502    0 -0.36287174541E+03  0.14538568051E+03  0.14407515940E+04  0.14928496727E+04  0.46999998093E+01 0.  1.
       -5    1    3    3    0  502  0.36287174541E+03 -0.14538568051E+03 -0.22699798750E+04  0.23033982770E+04  0.46999998093E+01 0. -1.
</event>
<event>
 5   0  0.1757996E-08  0.3699408E+04  0.7818609E-02  0.8068093E-01
       -2   -1    0    0    0  501  0.00000000000E+00  0.00000000000E+00  0.21982426963E+04  0.21982426963E+04  0.25500000920E-02 0. -1.
        2   -1    0    0  501    0  0.00000000000E+00  0.00000000000E+00 -0.15564275098E+04  0.15564275098E+04  0.25500000920E-02 0.  1.
    10030    2    1    2    0    0  0.00000000000E+00  0.00000000000E+00  0.64181518649E+03  0.37546702062E+04  0.36994082802E+04 0.  0.
        3    1    3    3  502    0  0.60071162177E+03 -0.10018189034E+04 -0.11347095402E+04  0.16285150655E+04  0.10100000352E+00 0.  1.
       -3    1    3    3    0  502 -0.60071162177E+03  0.10018189034E+04  0.17765247267E+04  0.21261551407E+04  0.10100000352E+00 0. -1.
</event>
<event>
 5   0  0.1825308E-08  0.3702659E+04  0.7818609E-02  0.8067373E-01
        2   -1    0    0  501    0  0.00000000000E+00  0.00000000000E+00  0.17329545642E+04  0.17329545642E+04  0.25500000920E-02 0.  1.
       -2   -1    0    0    0  501  0.00000000000E+00  0.00000000000E+00 -0.19777904553E+04  0.19777904553E+04  0.25500000920E-02 0. -1.
    10030    2    1    2    0    0  0.00000000000E+00  0.00000000000E+00 -0.24483589104E+03  0.37107450195E+04  0.37026590427E+04 0.  0.
        4    1    3    3  502    0  0.11473654100E+04  0.78667978693E+03  0.11017679241E+04  0.17746004177E+04  0.12699999809E+01 0.  1.
       -4    1    3    3    0  502 -0.11473654100E+04 -0.78667978693E+03 -0.13466038152E+04  0.19361446018E+04  0.12699999809E+01 0. -1.
</event>
<event>
 5   0  0.1856107E-08  0.3701101E+04  0.7818609E-02  0.8067718E-01
       -2   -1    0    0    0  501  0.00000000000E+00  0.00000000000E+00  0.14208205618E+04  0.14208205618E+04  0.25500000920E-02 0. -1.
        2   -1    0    0  501    0  0.00000000000E+00  0.00000000000E+00 -0.24102532285E+04  0.24102532285E+04  0.25500000920E-02 0.  1.
    10030    2    1    2    0    0  0.00000000000E+00  0.00000000000E+00 -0.98943266669E+03  0.38310737904E+04  0.37011011045E+04 0.  0.
        2    1    3    3  502    0 -0.14356012155E+04  0.11675795742E+04 -0.47550565108E+03  0.19105754464E+04  0.25500000920E-02 0.  1.
       -2    1    3    3    0  502  0.14356012155E+04 -0.11675795742E+04 -0.51392701561E+03  0.19204983440E+04  0.25500000920E-02 0. -1.
</event>
<event>
 5   0  0.1856107E-08  0.3701008E+04  0.7818609E-02  0.8067739E-01
        2   -1    0    0  501    0  0.00000000000E+00  0.00000000000E+00  0.16989796778E+04  0.16989796778E+04  0.25500000920E-02 0.  1.
       -2   -1    0    0    0  501  0.00000000000E+00  0.00000000000E+00 -0.20155417406E+04  0.20155417406E+04  0.25500000920E-02 0. -1.
    10030    2    1    2    0    0  0.00000000000E+00  0.00000000000E+00 -0.31656206279E+03  0.37145214185E+04  0.37010076775E+04 0.  0.
        2    1    3    3  502    0  0.29498955883E+03  0.16601963743E+03 -0.19842048242E+04  0.20128711196E+04  0.25500000920E-02 0. -1.
       -2    1    3    3    0  502 -0.29498955883E+03 -0.16601963743E+03  0.16676427614E+04  0.17016502988E+04  0.25500000920E-02 0.  1.
</event>
<event>
 5   0  0.1856107E-08  0.3699443E+04  0.7818609E-02  0.8068085E-01
       -2   -1    0    0    0  501  0.00000000000E+00  0.00000000000E+00  0.14694357276E+04  0.14694357276E+04  0.25500000920E-02 0.  1.
        2   -1    0    0  501    0  0.00000000000E+00  0.00000000000E+00 -0.23284243118E+04  0.23284243118E+04  0.25500000920E-02 0. -1.
    10030    2    1    2    0    0  0.00000000000E+00  0.00000000000E+00 -0.85898858419E+03  0.37978600394E+04  0.36994431326E+04 0.  0.
        2    1    3    3  502    0 -0.18107972334E+04  0.32517884613E+03 -0.62627559023E+03  0.19434374231E+04  0.25500000920E-02 0. -1.
       -2    1    3    3    0  502  0.18107972334E+04 -0.32517884613E+03 -0.23271299396E+03  0.18544226164E+04  0.25500000920E-02 0.  1.
</event>
<event>
 5   0  0.1757996E-08  0.3698499E+04  0.7818609E-02  0.8068295E-01
        2   -1    0    0  501    0  0.00000000000E+00  0.00000000000E+00  0.16020562812E+04  0.16020562812E+04  0.25500000920E-02 0.  1.
       -2   -1    0    0    0  501  0.00000000000E+00  0.00000000000E+00 -0.21345839256E+04  0.21345839256E+04  0.25500000920E-02 0. -1.
    10030    2    1    2    0    0  0.00000000000E+00  0.00000000000E+00 -0.53252764442E+03  0.37366402068E+04  0.36984989310E+04 0.  0.
        3    1    3    3  502    0  0.55299441263E+03  0.48690489853E+03  0.14473539970E+04  0.16241036923E+04  0.10100000352E+00 0.  1.
       -3    1    3    3    0  502 -0.55299441263E+03 -0.48690489853E+03 -0.19798816414E+04  0.21125365144E+04  0.10100000352E+00 0. -1.
</event>
<event>
 5   0  0.1825308E-08  0.3699973E+04  0.7818609E-02  0.8067968E-01
       -2   -1    0    0    0  501  0.00000000000E+00  0.00000000000E+00  0.19439373151E+04  0.19439373151E+04  0.25500000920E-02 0.  1.
        2   -1    0    0  501    0  0.00000000000E+00  0.00000000000E+00 -0.17605761229E+04  0.17605761229E+04  0.25500000920E-02 0. -1.
    10030    2    1    2    0    0  0.00000000000E+00  0.00000000000E+00  0.18336119215E+03  0.37045134380E+04  0.36999727682E+04 0.  0.
        4    1    3    3  502    0 -0.14260134895E+04  0.69440136426E+03  0.10450782997E+04  0.18994467596E+04  0.12699999809E+01 0.  1.
       -4    1    3    3    0  502  0.14260134895E+04 -0.69440136426E+03 -0.86171710759E+03  0.18050666784E+04  0.12699999809E+01 0. -1.
</event>
<event>
 5   0  0.1725865E-08  0.3700438E+04  0.7818609E-02  0.8067865E-01
       -2   -1    0    0    0  501  0.00000000000E+00  0.00000000000E+00  0.15677470490E+04  0.15677470490E+04  0.25500000920E-02 0. -1.
        2   -1    0    0  501    0  0.00000000000E+00  0.00000000000E+00 -0.21835854248E+04  0.21835854248E+04  0.25500000920E-02 0.  1.
    10030    2    1    2    0    0  0.00000000000E+00  0.00000000000E+00 -0.61583837582E+03  0.37513324738E+04  0.37004375990E+04 0.  0.
        1    1    3    3  502    0  0.66074040648E+03 -0.65705483816E+03 -0.19283437960E+04  0.21416836229E+04  0.50400001928E-02 0.  1.
       -1    1    3    3    0  502 -0.66074040648E+03  0.65705483816E+03  0.13125054202E+04  0.16096488509E+04  0.50400001928E-02 0. -1.
</event>
<event>
 5   0  0.5714125E-09  0.3702415E+04  0.7818609E-02  0.8067427E-01
        1   -1    0    0  501    0  0.00000000000E+00  0.00000000000E+00  0.14430992072E+04  0.14430992072E+04  0.50400001928E-02 0. -1.
       -1   -1    0    0    0  501  0.00000000000E+00  0.00000000000E+00 -0.23747285521E+04  0.23747285521E+04  0.50400001928E-02 0.  1.
    10030    2    1    2    0    0  0.00000000000E+00  0.00000000000E+00 -0.93162934489E+03  0.38178277593E+04  0.37024148287E+04 0.  0.
        1    1    3    3  502    0 -0.11331712397E+04  0.11565049883E+04  0.45959459391E+03  0.16830947797E+04  0.50400001928E-02 0. -1.
       -1    1    3    3    0  502  0.11331712397E+04 -0.11565049883E+04 -0.13912239388E+04  0.21347329797E+04  0.50400001928E-02 0.  1.
</event>
<event>
 5   0  0.5714125E-09  0.3699156E+04  0.7818609E-02  0.8068149E-01
        1   -1    0    0  501    0  0.00000000000E+00  0.00000000000E+00  0.15810348571E+04  0.15810348571E+04  0.50400001928E-02 0.  1.
       -1   -1    0    0    0  501  0.00000000000E+00  0.00000000000E+00 -0.21637343437E+04  0.21637343437E+04  0.50400001928E-02 0. -1.
    10030    2    1    2    0    0  0.00000000000E+00  0.00000000000E+00 -0.58269948663E+03  0.37447692009E+04  0.36991563465E+04 0.  0.
        3    1    3    3  502    0  0.12594465407E+04 -0.13443338322E+04 -0.12347258230E+03  0.18462623135E+04  0.10100000352E+00 0.  1.
       -3    1    3    3    0  502 -0.12594465407E+04  0.13443338322E+04 -0.45922690432E+03  0.18985068874E+04  0.10100000352E+00 0. -1.
</event>
<event>
 5   0  0.5714125E-09  0.3700432E+04  0.7818609E-02  0.8067866E-01
        1   -1    0    0  501    0  0.00000000000E+00  0.00000000000E+00  0.21070221929E+04  0.21070221929E+04  0.50400001928E-02 0. -1.
       -1   -1    0    0    0  501  0.00000000000E+00  0.00000000000E+00 -0.16247093181E+04  0.16247093182E+04  0.50400001928E-02 0.  1.
    10030    2    1    2    0    0  0.00000000000E+00  0.00000000000E+00  0.48231287471E+03  0.37317315110E+04  0.37004316452E+04 0.  0.
        1    1    3    3  502    0  0.11907917029E+04  0.85931776497E+03  0.13762375313E+04  0.20125709040E+04  0.50400001928E-02 0. -1.
       -1    1    3    3    0  502 -0.11907917029E+04 -0.85931776497E+03 -0.89392465661E+03  0.17191606070E+04  0.50400001928E-02 0.  1.
</event>
<event>
 5   0  0.1825308E-08  0.3699785E+04  0.7818609E-02  0.8068009E-01
        2   -1    0    0  501    0  0.00000000000E+00  0.00000000000E+00  0.26245070258E+04  0.26245070259E+04  0.25500000920E-02 0.  1.
       -2   -1    0    0    0  501  0.00000000000E+00  0.00000000000E+00 -0.13039030886E+04  0.13039030886E+04  0.25500000920E-02 0. -1.
    10030    2    1    2    0    0  0.00000000000E+00  0.00000000000E+00  0.13206039373E+04  0.39284101144E+04  0.36997853003E+04 0.  0.
        4    1    3    3  502    0  0.13234567051E+04  0.73123903455E+02 -0.70987178469E+03  0.15035971266E+04  0.12699999809E+01 0. -1.
       -4    1    3    3    0  502 -0.13234567051E+04 -0.73123903455E+02  0.20304757220E+04  0.24248129878E+04  0.12699999809E+01 0.  1.
</event>
<event>
 5   0  0.1856107E-08  0.3702070E+04  0.7818609E-02  0.8067503E-01
        2   -1    0    0  501    0  0.00000000000E+00  0.00000000000E+00  0.16753279197E+04  0.16753279197E+04  0.25500000920E-02 0. -1.
       -2   -1    0    0    0  501  0.00000000000E+00  0.00000000000E+00 -0.20451700765E+04  0.20451700765E+04  0.25500000920E-02 0.  1.
    10030    2    1    2    0    0  0.00000000000E+00  0.00000000000E+00 -0.36984215685E+03  0.37204979962E+04  0.37020699775E+04 0.  0.
        2    1    3    3  502    0  0.71823621695E+02 -0.12738022066E+04 -0.15327157218E+04  0.19942287176E+04  0.25500000920E-02 0. -1.
       -2    1    3    3    0  502 -0.71823621695E+02  0.12738022066E+04  0.11628735649E+04  0.17262692786E+04  0.25500000920E-02 0.  1.
</event>
<event>
 5   0  0.1856107E-08  0.3699977E+04  0.7818609E-02  0.8067967E-01
        2   -1    0    0  501    0  0.00000000000E+00  0.00000000000E+00  0.15727898781E+04  0.15727898781E+04  0.25500000920E-02 0.  1.
       -2   -1    0    0    0  501  0.00000000000E+00  0.00000000000E+00 -0.21760420729E+04  0.21760420729E+04  0.25500000920E-02 0. -1.
    10030    2    1    2    0    0  0.00000000000E+00  0.00000000000E+00 -0.60325219479E+03  0.37488319509E+04  0.36999767277E+04 0.  0.
        2    1    3    3  502    0 -0.17178888258E+04  0.57150215658E+03  0.83791523814E+02  0.18123955838E+04  0.25500000920E-02 0.  1.
       -2    1    3    3    0  502  0.17178888258E+04 -0.57150215658E+03 -0.68704371861E+03  0.19364363671E+04  0.25500000920E-02 0. -1.
</event>
<event>
 5   0  0.1725865E-08  0.3693800E+04  0.7818609E-02  0.8069337E-01
        2   -1    0    0  501    0  0.00000000000E+00  0.00000000000E+00  0.23245167352E+04  0.23245167352E+04  0.25500000920E-02 0. -1.
       -2   -1    0    0    0  501  0.00000000000E+00  0.00000000000E+00 -0.14674191790E+04  0.14674191790E+04  0.25500000920E-02 0.  1.
    10030    2    1    2    0    0  0.00000000000E+00  0.00000000000E+00  0.85709755618E+03  0.37919359141E+04  0.36938004489E+04 0.  0.
        1    1    3    3  502    0  0.18107118179E+04 -0.16269332268E+03  0.76260787764E+03  0.19714758887E+04  0.50400001928E-02 0. -1.
       -1    1    3    3    0  502 -0.18107118179E+04  0.16269332268E+03  0.94489678540E+02  0.18204600254E+04  0.50400001928E-02 0.  1.
</event>
<event>
 5   0  0.1740290E-08  0.3702792E+04  0.7818609E-02  0.8067343E-01
       -2   -1    0    0    0  501  0.00000000000E+00  0.00000000000E+00  0.14311155873E+04  0.14311155873E+04  0.25500000920E-02 0.  1.
        2   -1    0    0  501    0  0.00000000000E+00  0.00000000000E+00 -0.23951013014E+04  0.23951013014E+04  0.25500000920E-02 0. -1.
    10030    2    1    2    0    0  0.00000000000E+00  0.00000000000E+00 -0.96398571410E+03  0.38262168888E+04  0.37027918147E+04 0.  0.
        5    1    3    3  502    0 -0.15142281025E+03  0.42175998099E+02  0.14242017912E+04  0.14328574647E+04  0.46999998093E+01 0.  1.
       -5    1    3    3    0  502  0.15142281025E+03 -0.42175998099E+02 -0.23881875053E+04  0.23933594240E+04  0.46999998093E+01 0. -1.
</event>
<event>
 5   0  0.5714125E-09  0.3700483E+04  0.7818609E-02  0.8067855E-01
        1   -1    0    0  501    0  0.00000000000E+00  0.00000000000E+00  0.18994807454E+04  0.18994807455E+04  0.50400001928E-02 0.  1.
       -1   -1    0    0    0  501  0.00000000000E+00  0.00000000000E+00 -0.18022786990E+04  0.18022786990E+04  0.50400001928E-02 0. -1.
    10030    2    1    2    0    0  0.00000000000E+00  0.00000000000E+00  0.97202046427E+02  0.37017594445E+04  0.37004830424E+04 0.  0.
        2    1    3    3  502    0 -0.15916775855E+04 -0.23863739996E+03 -0.86440669724E+03  0.18269056580E+04  0.25500000920E-02 0. -1.
       -2    1    3    3    0  502  0.15916775855E+04  0.23863739996E+03  0.96160874367E+03  0.18748537865E+04  0.25500000920E-02 0.  1.
</event>
<event>
 5   0  0.5714125E-09  0.3700771E+04  0.7818609E-02  0.8067791E-01
       -1   -1    0    0    0  501  0.00000000000E+00  0.00000000000E+00  0.21091602661E+04  0.21091602661E+04  0.50400001928E-02 0. -1.
        1   -1    0    0  501    0  0.00000000000E+00  0.00000000000E+00 -0.16233603340E+04  0.16233603340E+04  0.50400001928E-02 0.  1.
    10030    2    1    2    0    0  0.00000000000E+00  0.00000000000E+00  0.48579993209E+03  0.37325206002E+04  0.37007713327E+04 0.  0.
        3    1    3    3  502    0  0.12492089511E+04 -0.10622032795E+04  0.11076518784E+04  0.19788106287E+04  0.10100000352E+00 0. -1.
       -3    1    3    3    0  502 -0.12492089511E+04  0.10622032795E+04 -0.62185194630E+03  0.17537099714E+04  0.10100000352E+00 0.  1.
</event>
<event>
 5   0  0.5714125E-09  0.3700178E+04  0.7818609E-02  0.8067922E-01
       -1   -1    0    0    0  501  0.00000000000E+00  0.00000000000E+00  0.15955688512E+04  0.15955688512E+04  0.50400001928E-02 0. -1.
        1   -1    0    0  501    0  0.00000000000E+00  0.00000000000E+00 -0.21452096172E+04  0.21452096172E+04  0.50400001928E-02 0.  1.
    10030    2    1    2    0    0  0.00000000000E+00  0.00000000000E+00 -0.54964076606E+03  0.37407784684E+04  0.37001781819E+04 0.  0.
        1    1    3    3  502    0  0.19664932344E+03  0.17758677801E+04  0.21050151790E+03  0.17990798253E+04  0.50400001928E-02 0. -1.
       -1    1    3    3    0  502 -0.19664932344E+03 -0.17758677801E+04 -0.76014228396E+03  0.19416986431E+04  0.50400001928E-02 0.  1.
</event>
<event>
 5   0  0.5714125E-09  0.3699950E+04  0.7818609E-02  0.8067973E-01
        1   -1    0    0  501    0  0.00000000000E+00  0.00000000000E+00  0.17746946996E+04  0.17746946996E+04  0.50400001928E-02 0. -1.
       -1   -1    0    0    0  501  0.00000000000E+00  0.00000000000E+00 -0.19284486522E+04  0.19284486522E+04  0.50400001928E-02 0.  1.
    10030    2    1    2    0    0  0.00000000000E+00  0.00000000000E+00 -0.15375395264E+03  0.37031433518E+04  0.36999500545E+04 0.  0.
        2    1    3    3  502    0  0.15990208220E+04 -0.66593092121E+03 -0.72711146698E+03  0.18785693137E+04  0.25500000920E-02 0.  1.
       -2    1    3    3    0  502 -0.15990208220E+04  0.66593092121E+03  0.57335751434E+03  0.18245740381E+04  0.25500000920E-02 0. -1.
</event>
<event>
 5   0  0.1757996E-08  0.3700499E+04  0.7818609E-02  0.8067851E-01
        2   -1    0    0  501    0  0.00000000000E+00  0.00000000000E+00  0.22547198644E+04  0.22547198644E+04  0.25500000920E-02 0.  1.
       -2   -1    0    0    0  501  0.00000000000E+00  0.00000000000E+00 -0.15183367039E+04  0.15183367039E+04  0.25500000920E-02 0. -1.
    10030    2    1    2    0    0  0.00000000000E+00  0.00000000000E+00  0.73638316048E+03  0.37730565683E+04  0.37004993864E+04 0.  0.
        3    1    3    3  502    0 -0.17809341222E+04 -0.67883647696E+02 -0.13863574263E+03  0.17876113718E+04  0.10100000352E+00 0. -1.
       -3    1    3    3    0  502  0.17809341222E+04  0.67883647696E+02  0.87501890312E+03  0.19854451965E+04  0.10100000352E+00 0.  1.
</event>
<event>
 5   0  0.5714125E-09  0.3700369E+04  0.7818609E-02  0.8067880E-01
        1   -1    0    0  501    0  0.00000000000E+00  0.00000000000E+00  0.16362255228E+04  0.16362255228E+04  0.50400001928E-02 0. -1.
       -1   -1    0    0    0  501  0.00000000000E+00  0.00000000000E+00 -0.20921216179E+04  0.20921216179E+04  0.50400001928E-02 0.  1.
    10030    2    1    2    0    0  0.00000000000E+00  0.00000000000E+00 -0.45589609503E+03  0.37283471407E+04  0.37003690562E+04 0.  0.
        2    1    3    3  502    0  0.16143469484E+01  0.13368380922E+04  0.10608023259E+04  0.17065873155E+04  0.25500000920E-02 0. -1.
       -2    1    3    3    0  502 -0.16143469484E+01 -0.13368380922E+04 -0.15166984209E+04  0.20217598252E+04  0.25500000920E-02 0.  1.
</event>
<event>
 5   0  0.1740290E-08  0.3698230E+04  0.7818609E-02  0.8068354E-01
       -2   -1    0    0    0  501  0.00000000000E+00  0.00000000000E+00  0.13989036623E+04  0.13989036624E+04  0.25500000920E-02 0. -1.
        2   -1    0    0  501    0  0.00000000000E+00  0.00000000000E+00 -0.24442191066E+04  0.24442191066E+04  0.25500000920E-02 0.  1.
    10030    2    1    2    0    0  0.00000000000E+00  0.00000000000E+00 -0.10453154443E+04  0.38431227690E+04  0.36982304200E+04 0.  0.
        5    1    3    3  502    0  0.75099731615E+02 -0.18446652244E+04 -0.63052834024E+03  0.19509018011E+04  0.46999998093E+01 0. -1.
       -5    1    3    3    0  502 -0.75099731615E+02  0.18446652244E+04 -0.41478710405E+03  0.18922209679E+04  0.46999998093E+01 0.  1.
</event>
<event>
 5   0  0.1725865E-08  0.3728602E+04  0.7818609E-02  0.8061653E-01
       -2   -1    0    0    0  501  0.00000000000E+00  0.00000000000E+00  0.16235383629E+04  0.16235383629E+04  0.25500000920E-02 0. -1.
        2   -1    0    0  501    0  0.00000000000E+00  0.00000000000E+00 -0.21407672527E+04  0.21407672527E+04  0.25500000920E-02 0.  1.
    10030    2    1    2    0    0  0.00000000000E+00  0.00000000000E+00 -0.51722888976E+03  0.37643056155E+04  0.37286017544E+04 0.  0.
        1    1    3    3  502    0 -0.17993421393E+04 -0.47982096165E+03 -0.16969454625E+03  0.18699348996E+04  0.50400001928E-02 0. -1.
       -1    1    3    3    0  502  0.17993421393E+04  0.47982096165E+03 -0.34753434351E+03  0.18943707160E+04  0.50400001928E-02 0.  1.
</event>
<event>
 5   0  0.5714125E-09  0.3702524E+04  0.7818609E-02  0.8067403E-01
       -1   -1    0    0    0  501  0.00000000000E+00  0.00000000000E+00  0.24084980954E+04  0.24084980954E+04  0.50400001928E-02 0. -1.
        1   -1    0    0  501    0  0.00000000000E+00  0.00000000000E+00 -0.14229491426E+04  0.14229491426E+04  0.50400001928E-02 0.  1.
    10030    2    1    2    0    0  0.00000000000E+00  0.00000000000E+00  0.98554895289E+03  0.38314472380E+04  0.37025236257E+04 0.  0.
        5    1    3    3  502    0  0.39133905074E+03 -0.15830114790E+03  0.23580201322E+04  0.23955138363E+04  0.46999998093E+01 0. -1.
       -5    1    3    3    0  502 -0.39133905074E+03  0.15830114790E+03 -0.13724711793E+04  0.14359334017E+04  0.46999998093E+01 0.  1.
</event>
<event>
 5   0  0.5714125E-09  0.3699882E+04  0.7818609E-02  0.8067988E-01
        1   -1    0    0  501    0  0.00000000000E+00  0.00000000000E+00  0.18540810482E+04  0.18540810482E+04  0.50400001928E-02 0.  1.
       -1   -1    0    0    0  501  0.00000000000E+00  0.00000000000E+00 -0.18458098772E+04  0.18458098772E+04  0.50400001928E-02 0. -1.
    10030    2    1    2    0    0  0.00000000000E+00  0.00000000000E+00  0.82711710573E+01  0.36998909254E+04  0.36998816802E+04 0.  0.
        3    1    3    3  502    0 -0.16354451102E+04 -0.49185575295E+03 -0.70697680979E+03  0.18483557585E+04  0.10100000352E+00 0. -1.
       -3    1    3    3    0  502  0.16354451102E+04  0.49185575295E+03  0.71524798084E+03  0.18515351669E+04  0.10100000352E+00 0.  1.
</event>
<event>
 5   0  0.5714125E-09  0.3699738E+04  0.7818609E-02  0.8068020E-01
        1   -1    0    0  501    0  0.00000000000E+00  0.00000000000E+00  0.14210370955E+04  0.14210370955E+04  0.50400001928E-02 0. -1.
       -1   -1    0    0    0  501  0.00000000000E+00  0.00000000000E+00 -0.24081110822E+04  0.24081110822E+04  0.50400001928E-02 0.  1.
    10030    2    1    2    0    0  0.00000000000E+00  0.00000000000E+00 -0.98707398670E+03  0.38291481777E+04  0.36997379247E+04 0.  0.
        1    1    3    3  502    0 -0.82689991601E+03  0.45211969084E+03  0.11539453229E+04  0.14898877455E+04  0.50400001928E-02 0. -1.
       -1    1    3    3    0  502  0.82689991601E+03 -0.45211969084E+03 -0.21410193096E+04  0.23392604322E+04  0.50400001928E-02 0.  1.
</event>
<event>
 5   0  0.5714125E-09  0.3701356E+04  0.7818609E-02  0.8067661E-01
       -1   -1    0    0    0  501  0.00000000000E+00  0.00000000000E+00  0.16751502119E+04  0.16751502120E+04  0.50400001928E-02 0.  1.
        1   -1    0    0  501    0  0.00000000000E+00  0.00000000000E+00 -0.20445987154E+04  0.20445987154E+04  0.50400001928E-02 0. -1.
    10030    2    1    2    0    0  0.00000000000E+00  0.00000000000E+00 -0.36944850342E+03  0.37197489273E+04  0.37013564926E+04 0.  0.
        5    1    3    3  502    0  0.63847829611E+03  0.11556082441E+04  0.11186020974E+04  0.17304270255E+04  0.46999998093E+01 0.  1.
       -5    1    3    3    0  502 -0.63847829611E+03 -0.11556082441E+04 -0.14880506008E+04  0.19893219018E+04  0.46999998093E+01 0. -1.
</event>
<event>
 5   0  0.1856107E-08  0.3705973E+04  0.7818609E-02  0.8066639E-01
       -2   -1    0    0    0  501  0.00000000000E+00  0.00000000000E+00  0.14774154588E+04  0.14774154588E+04  0.25500000920E-02 0.  1.
        2   -1    0    0  501    0  0.00000000000E+00  0.00000000000E+00 -0.23240304852E+04  0.23240304852E+04  0.25500000920E-02 0. -1.
    10030    2    1    2    0    0  0.00000000000E+00  0.00000000000E+00 -0.84661502644E+03  0.38014459440E+04  0.37059727821E+04 0.  0.
        2    1    3    3  502    0 -0.15423925847E+04  0.27680834364E+03 -0.14377030322E+04  0.21266376639E+04  0.25500000920E-02 0. -1.
       -2    1    3    3    0  502  0.15423925847E+04 -0.27680834364E+03  0.59108800575E+03  0.16748082801E+04  0.25500000920E-02 0.  1.
</event>
<event>
 5   0  0.5714125E-09  0.3701545E+04  0.7818609E-02  0.8067619E-01
        1   -1    0    0  501    0  0.00000000000E+00  0.00000000000E+00  0.11094167298E+04  0.11094167298E+04  0.50400001928E-02 0. -1.
       -1   -1    0    0    0  501  0.00000000000E+00  0.00000000000E+00 -0.30875319488E+04  0.30875319488E+04  0.50400001928E-02 0.  1.
    10030    2    1    2    0    0  0.00000000000E+00  0.00000000000E+00 -0.19781152190E+04  0.41969486786E+04  0.37015454058E+04 0.  0.
        2    1    3    3  502    0  0.17190137806E+04  0.43730038200E+03 -0.15880837039E+04  0.23808086552E+04  0.25500000920E-02 0.  1.
       -2    1    3    3    0  502 -0.17190137806E+04 -0.43730038200E+03 -0.39003151505E+03  0.18161400234E+04  0.25500000920E-02 0. -1.
</event>
<event>
 5   0  0.1740290E-08  0.3694625E+04  0.7818609E-02  0.8069154E-01
       -2   -1    0    0    0  501  0.00000000000E+00  0.00000000000E+00  0.18901991442E+04  0.18901991442E+04  0.25500000920E-02 0.  1.
        2   -1    0    0  501    0  0.00000000000E+00  0.00000000000E+00 -0.18053991782E+04  0.18053991782E+04  0.25500000920E-02 0. -1.
    10030    2    1    2    0    0  0.00000000000E+00  0.00000000000E+00  0.84799966000E+02  0.36955983224E+04  0.36946252755E+04 0.  0.
        5    1    3    3  502    0  0.11659373021E+04 -0.13002714968E+04 -0.55977695283E+03  0.18339814843E+04  0.46999998093E+01 0.  1.
       -5    1    3    3    0  502 -0.11659373021E+04  0.13002714968E+04  0.64457691883E+03  0.18616168381E+04  0.46999998093E+01 0. -1.
</event>
<event>
 5   0  0.5714125E-09  0.3702256E+04  0.7818609E-02  0.8067462E-01
       -1   -1    0    0    0  501  0.00000000000E+00  0.00000000000E+00  0.33727314373E+04  0.33727314374E+04  0.50400001928E-02 0.  1.
        1   -1    0    0  501    0  0.00000000000E+00  0.00000000000E+00 -0.10159941720E+04  0.10159941720E+04  0.50400001928E-02 0. -1.
    10030    2    1    2    0    0  0.00000000000E+00  0.00000000000E+00  0.23567372654E+04  0.43887256094E+04  0.37022563305E+04 0.  0.
        1    1    3    3  502    0 -0.13618667726E+04  0.12448702825E+04  0.10013781372E+04  0.20993192468E+04  0.50400001928E-02 0. -1.
       -1    1    3    3    0  502  0.13618667726E+04 -0.12448702825E+04  0.13553591282E+04  0.22894063625E+04  0.50400001928E-02 0.  1.
</event>
<event>
 5   0  0.1757996E-08  0.3705421E+04  0.7818609E-02  0.8066761E-01
        2   -1    0    0  501    0  0.00000000000E+00  0.00000000000E+00  0.17830768785E+04  0.17830768785E+04  0.25500000920E-02 0. -1.
       -2   -1    0    0    0  501  0.00000000000E+00  0.00000000000E+00 -0.19250637244E+04  0.19250637244E+04  0.25500000920E-02 0.  1.
    10030    2    1    2    0    0  0.00000000000E+00  0.00000000000E+00 -0.14198684590E+03  0.37081406030E+04  0.37054212267E+04 0.  0.
        3    1    3    3  502    0 -0.15961876715E+04  0.68073818198E+03 -0.72055918587E+03  0.18789425498E+04  0.10100000352E+00 0.  1.
       -3    1    3    3    0  502  0.15961876715E+04 -0.68073818198E+03  0.57857233997E+03  0.18291980532E+04  0.10100000352E+00 0. -1.
</event>
<event>
 5   0  0.1740290E-08  0.3701069E+04  0.7818609E-02  0.8067725E-01
       -2   -1    0    0    0  501  0.00000000000E+00  0.00000000000E+00  0.12700605688E+04  0.12700605688E+04  0.25500000920E-02 0.  1.
        2   -1    0    0  501    0  0.00000000000E+00  0.00000000000E+00 -0.26963102631E+04  0.26963102631E+04  0.25500000920E-02 0. -1.
    10030    2    1    2    0    0  0.00000000000E+00  0.00000000000E+00 -0.14262496943E+04  0.39663708319E+04  0.37010686816E+04 0.  0.
        5    1    3    3  502    0 -0.14866680424E+04  0.96708255831E+03 -0.14703220929E+03  0.17796266753E+04  0.46999998093E+01 0.  1.
       -5    1    3    3    0  502  0.14866680424E+04 -0.96708255831E+03 -0.12792174850E+04  0.21867441567E+04  0.46999998093E+01 0. -1.
</event>
<event>
 5   0  0.1740290E-08  0.3699524E+04  0.7818609E-02  0.8068067E-01
       -2   -1    0    0    0  501  0.00000000000E+00  0.00000000000E+00  0.14996754270E+04  0.14996754270E+04  0.25500000920E-02 0.  1.
        2   -1    0    0  501    0  0.00000000000E+00  0.00000000000E+00 -0.22815735336E+04  0.22815735336E+04  0.25500000920E-02 0. -1.
    10030    2    1    2    0    0  0.00000000000E+00  0.00000000000E+00 -0.78189810657E+03  0.37812489606E+04  0.36995241657E+04 0.  0.
        5    1    3    3  502    0  0.14868574805E+04 -0.10782056785E+04 -0.16626335556E+03  0.18441632916E+04  0.46999998093E+01 0. -1.
       -5    1    3    3    0  502 -0.14868574805E+04  0.10782056785E+04 -0.61563475101E+03  0.19370856690E+04  0.46999998093E+01 0.  1.
</event>
<event>
 5   0  0.1757996E-08  0.3715440E+04  0.7818609E-02  0.8064549E-01
       -2   -1    0    0    0  501  0.00000000000E+00  0.00000000000E+00  0.28071902005E+04  0.28071902005E+04  0.25500000920E-02 0.  1.
        2   -1    0    0  501    0  0.00000000000E+00  0.00000000000E+00 -0.12293869978E+04  0.12293869978E+04  0.25500000920E-02 0. -1.
    10030    2    1    2    0    0  0.00000000000E+00  0.00000000000E+00  0.15778032027E+04  0.40365771984E+04  0.37154397495E+04 0.  0.
        3    1    3    3  502    0 -0.83881923292E+03 -0.11864269570E+04 -0.46868720990E+03  0.15267266752E+04  0.10100000352E+00 0. -1.
       -3    1    3    3    0  502  0.83881923292E+03  0.11864269570E+04  0.20464904126E+04  0.25098505232E+04  0.10100000352E+00 0.  1.
</event>
<event>
 5   0  0.5714125E-09  0.3700068E+04  0.7818609E-02  0.8067947E-01
        1   -1    0    0  501    0  0.00000000000E+00  0.00000000000E+00  0.19328530828E+04  0.19328530828E+04  0.50400001928E-02 0. -1.
       -1   -1    0    0    0  501  0.00000000000E+00  0.00000000000E+00 -0.17707637768E+04  0.17707637768E+04  0.50400001928E-02 0.  1.
    10030    2    1    2    0    0  0.00000000000E+00  0.00000000000E+00  0.16208930600E+03  0.37036168596E+04  0.37000682290E+04 0.  0.
        1    1    3    3  502    0  0.76635898389E+03  0.77401301836E+03  0.15778797926E+04  0.19173176275E+04  0.50400001928E-02 0. -1.
       -1    1    3    3    0  502 -0.76635898389E+03 -0.77401301836E+03 -0.14157904866E+04  0.17862992321E+04  0.50400001928E-02 0.  1.
</event>
<event>
 5   0  0.5714125E-09  0.3704824E+04  0.7818609E-02  0.8066894E-01
        1   -1    0    0  501    0  0.00000000000E+00  0.00000000000E+00  0.19755763800E+04  0.19755763800E+04  0.50400001928E-02 0. -1.
       -1   -1    0    0    0  501  0.00000000000E+00  0.00000000000E+00 -0.17369263640E+04  0.17369263640E+04  0.50400001928E-02 0.  1.
    10030    2    1    2    0    0  0.00000000000E+00  0.00000000000E+00  0.23865001600E+03  0.37125027440E+04  0.37048242596E+04 0.  0.
        4    1    3    3  502    0 -0.31152037916E+03 -0.13297620765E+04 -0.11347146408E+04  0.17756382108E+04  0.12699999809E+01 0.  1.
       -4    1    3    3    0  502  0.31152037916E+03  0.13297620765E+04  0.13733646568E+04  0.19368645332E+04  0.12699999809E+01 0. -1.
</event>
<event>
 5   0  0.5714125E-09  0.3698236E+04  0.7818609E-02  0.8068353E-01
        1   -1    0    0  501    0  0.00000000000E+00  0.00000000000E+00  0.15559357390E+04  0.15559357390E+04  0.50400001928E-02 0. -1.
       -1   -1    0    0    0  501  0.00000000000E+00  0.00000000000E+00 -0.21975437006E+04  0.21975437006E+04  0.50400001928E-02 0.  1.
    10030    2    1    2    0    0  0.00000000000E+00  0.00000000000E+00 -0.64160796166E+03  0.37534794396E+04  0.36982356776E+04 0.  0.
        5    1    3    3  502    0 -0.11300352469E+04 -0.12142668965E+04  0.50858778136E+03  0.17349661024E+04  0.46999998093E+01 0. -1.
       -5    1    3    3    0  502  0.11300352469E+04  0.12142668965E+04 -0.11501957430E+04  0.20185133372E+04  0.46999998093E+01 0.  1.
</event>
<event>
 5   0  0.1856107E-08  0.3697907E+04  0.7818609E-02  0.8068426E-01
        2   -1    0    0  501    0  0.00000000000E+00  0.00000000000E+00  0.14413696583E+04  0.14413696583E+04  0.25500000920E-02 0.  1.
       -2   -1    0    0    0  501  0.00000000000E+00  0.00000000000E+00 -0.23717921895E+04  0.23717921895E+04  0.25500000920E-02 0. -1.
    10030    2    1    2    0    0  0.00000000000E+00  0.00000000000E+00 -0.93042253121E+03  0.38131618478E+04  0.36979071366E+04 0.  0.
        2    1    3    3  502    0  0.12988849247E+04 -0.24364144595E+03 -0.17986373457E+04  0.22319407481E+04  0.25500000920E-02 0. -1.
       -2    1    3    3    0  502 -0.12988849247E+04  0.24364144595E+03  0.86821481446E+03  0.15812210996E+04  0.25500000920E-02 0.  1.
</event>
<event>
 5   0  0.5714125E-09  0.3701152E+04  0.7818609E-02  0.8067707E-01
        1   -1    0    0  501    0  0.00000000000E+00  0.00000000000E+00  0.26165124881E+04  0.26165124882E+04  0.50400001928E-02 0.  1.
       -1   -1    0    0    0  501  0.00000000000E+00  0.00000000000E+00 -0.13088537328E+04  0.13088537328E+04  0.50400001928E-02 0. -1.
    10030    2    1    2    0    0  0.00000000000E+00  0.00000000000E+00  0.13076587554E+04  0.39253662209E+04  0.37011523270E+04 0.  0.
        3    1    3    3  502    0  0.14757151298E+04 -0.10260473993E+04  0.18654364611E+03  0.18070160354E+04  0.10100000352E+00 0. -1.
       -3    1    3    3    0  502 -0.14757151298E+04  0.10260473993E+04  0.11211151093E+04  0.21183501855E+04  0.10100000352E+00 0.  1.
</event>
<event>
 5   0  0.5714125E-09  0.3699778E+04  0.7818609E-02  0.8068011E-01
       -1   -1    0    0    0  501  0.00000000000E+00  0.00000000000E+00  0.21817749326E+04  0.21817749326E+04  0.50400001928E-02 0. -1.
        1   -1    0    0  501    0  0.00000000000E+00  0.00000000000E+00 -0.15684884006E+04  0.15684884006E+04  0.50400001928E-02 0.  1.
    10030    2    1    2    0    0  0.00000000000E+00  0.00000000000E+00  0.61328653201E+03  0.37502633332E+04  0.36997776552E+04 0.  0.
        4    1    3    3  502    0 -0.12991679546E+04 -0.23249209137E+03 -0.10072686640E+04  0.16602655574E+04  0.12699999809E+01 0.  1.
       -4    1    3    3    0  502  0.12991679546E+04  0.23249209137E+03  0.16205551960E+04  0.20899977758E+04  0.12699999809E+01 0. -1.
</event>
<event>
 5   0  0.1825308E-08  0.3704922E+04  0.7818609E-02  0.8066872E-01
       -2   -1    0    0    0  501  0.00000000000E+00  0.00000000000E+00  0.21541728772E+04  0.21541728772E+04  0.25500000920E-02 0. -1.
        2   -1    0    0  501    0  0.00000000000E+00  0.00000000000E+00 -0.15930070727E+04  0.15930070727E+04  0.25500000920E-02 0.  1.
    10030    2    1    2    0    0  0.00000000000E+00  0.00000000000E+00  0.56116580444E+03  0.37471799499E+04  0.37049224711E+04 0.  0.
        4    1    3    3  502    0 -0.17326457974E+04 -0.43336632565E+03 -0.21669887519E+03  0.17991186305E+04  0.12699999809E+01 0.  1.
       -4    1    3    3    0  502  0.17326457974E+04  0.43336632565E+03  0.77786467963E+03  0.19480613194E+04  0.12699999809E+01 0. -1.
</event>
<event>
 5   0  0.5714125E-09  0.3701543E+04  0.7818609E-02  0.8067620E-01
       -1   -1    0    0    0  501  0.00000000000E+00  0.00000000000E+00  0.13801627696E+04  0.13801627696E+04  0.50400001928E-02 0. -1.
        1   -1    0    0  501    0  0.00000000000E+00  0.00000000000E+00 -0.24818490499E+04  0.24818490499E+04  0.50400001928E-02 0.  1.
    10030    2    1    2    0    0  0.00000000000E+00  0.00000000000E+00 -0.11016862803E+04  0.38620118195E+04  0.37015432773E+04 0.  0.
        4    1    3    3  502    0 -0.13172025238E+04  0.62747440965E+03 -0.17388939613E+04  0.22699119906E+04  0.12699999809E+01 0.  1.
       -4    1    3    3    0  502  0.13172025238E+04 -0.62747440965E+03  0.63720768103E+03  0.15920998289E+04  0.12699999809E+01 0. -1.
</event>
<event>
 5   0  0.5714125E-09  0.3700728E+04  0.7818609E-02  0.8067801E-01
        1   -1    0    0  501    0  0.00000000000E+00  0.00000000000E+00  0.14319698216E+04  0.14319698216E+04  0.50400001928E-02 0. -1.
       -1   -1    0    0    0  501  0.00000000000E+00  0.00000000000E+00 -0.23910049817E+04  0.23910049817E+04  0.50400001928E-02 0.  1.
    10030    2    1    2    0    0  0.00000000000E+00  0.00000000000E+00 -0.95903516018E+03  0.38229748033E+04  0.37007280241E+04 0.  0.
        4    1    3    3  502    0 -0.66877792901E+03  0.12294292457E+03 -0.22572552605E+04  0.23574523972E+04  0.12699999809E+01 0.  1.
       -4    1    3    3    0  502  0.66877792901E+03 -0.12294292457E+03  0.12982201003E+04  0.14655224061E+04  0.12699999809E+01 0. -1.
</event>
<event>
 5   0  0.5714125E-09  0.3699373E+04  0.7818609E-02  0.8068101E-01
        1   -1    0    0  501    0  0.00000000000E+00  0.00000000000E+00  0.14607941766E+04  0.14607941766E+04  0.50400001928E-02 0. -1.
       -1   -1    0    0    0  501  0.00000000000E+00  0.00000000000E+00 -0.23421091355E+04  0.23421091355E+04  0.50400001928E-02 0.  1.
    10030    2    1    2    0    0  0.00000000000E+00  0.00000000000E+00 -0.88131495897E+03  0.38029033121E+04  0.36993725879E+04 0.  0.
        1    1    3    3  502    0 -0.16582083265E+04 -0.22223997913E+03  0.37027555022E+03  0.17135196075E+04  0.50400001928E-02 0. -1.
       -1    1    3    3    0  502  0.16582083265E+04  0.22223997913E+03 -0.12515905092E+04  0.20893837046E+04  0.50400001928E-02 0.  1.
</event>
<event>
 5   0  0.1725865E-08  0.3700242E+04  0.7818609E-02  0.8067908E-01
        2   -1    0    0  501    0  0.00000000000E+00  0.00000000000E+00  0.20686365869E+04  0.20686365869E+04  0.25500000920E-02 0. -1.
       -2   -1    0    0    0  501  0.00000000000E+00  0.00000000000E+00 -0.16546874590E+04  0.16546874590E+04  0.25500000920E-02 0.  1.
    10030    2    1    2    0    0  0.00000000000E+00  0.00000000000E+00  0.41394912790E+03  0.37233240459E+04  0.37002416232E+04 0.  0.
        1    1    3    3  502    0  0.16567358532E+04 -0.78723519210E+03 -0.36264803670E+02  0.18346193259E+04  0.50400001928E-02 0.  1.
       -1    1    3    3    0  502 -0.16567358532E+04  0.78723519210E+03  0.45021393157E+03  0.18887047200E+04  0.50400001928E-02 0. -1.
</event>
<event>
 5   0  0.5714125E-09  0.3701421E+04  0.7818609E-02  0.8067647E-01
        1   -1    0    0  501    0  0.00000000000E+00  0.00000000000E+00  0.11296198153E+04  0.11296198153E+04  0.50400001928E-02 0.  1.
       -1   -1    0    0    0  501  0.00000000000E+00  0.00000000000E+00 -0.30321074490E+04  0.30321074490E+04  0.50400001928E-02 0. -1.
    10030    2    1    2    0    0  0.00000000000E+00  0.00000000000E+00 -0.19024876336E+04  0.41617272643E+04  0.37014206227E+04 0.  0.
        3    1    3    3  502    0 -0.14581024435E+04  0.37937934763E+03  0.25718747978E+03  0.15284426175E+04  0.10100000352E+00 0.  1.
       -3    1    3    3    0  502  0.14581024435E+04 -0.37937934763E+03 -0.21596751134E+04  0.26332846468E+04  0.10100000352E+00 0. -1.
</event>
<event>
 5   0  0.1856107E-08  0.3701309E+04  0.7818609E-02  0.8067672E-01
        2   -1    0    0  501    0  0.00000000000E+00  0.00000000000E+00  0.21653359986E+04  0.21653359986E+04  0.25500000920E-02 0. -1.
       -2   -1    0    0    0  501  0.00000000000E+00  0.00000000000E+00 -0.15817048455E+04  0.15817048455E+04  0.25500000920E-02 0.  1.
    10030    2    1    2    0    0  0.00000000000E+00  0.00000000000E+00  0.58363115310E+03  0.37470408440E+04  0.37013091959E+04 0.  0.
        2    1    3    3  502    0  0.13360329363E+03 -0.16608877268E+04 -0.52344468641E+03  0.17465372085E+04  0.25500000920E-02 0.  1.
       -2    1    3    3    0  502 -0.13360329363E+03  0.16608877268E+04  0.11070758395E+04  0.20005036355E+04  0.25500000920E-02 0. -1.
</event>
<event>
 5   0  0.1757996E-08  0.3700687E+04  0.7818609E-02  0.8067810E-01
       -2   -1    0    0    0  501  0.00000000000E+00  0.00000000000E+00  0.15469255688E+04  0.15469255688E+04  0.25500000920E-02 0. -1.
        2   -1    0    0  501    0  0.00000000000E+00  0.00000000000E+00 -0.22132740390E+04  0.22132740390E+04  0.25500000920E-02 0.  1.
    10030    2    1    2    0    0  0.00000000000E+00  0.00000000000E+00 -0.66634847020E+03  0.37601996078E+04  0.37006865318E+04 0.  0.
        3    1    3    3  502    0  0.14564631099E+04  0.50556680704E+03  0.70645534811E+03  0.16958660784E+04  0.10100000352E+00 0. -1.
       -3    1    3    3    0  502 -0.14564631099E+04 -0.50556680704E+03 -0.13728038183E+04  0.20643335294E+04  0.10100000352E+00 0.  1.
</event>
<event>
 5   0  0.5714125E-09  0.3700383E+04  0.7818609E-02  0.8067877E-01
       -1   -1    0    0    0  501  0.00000000000E+00  0.00000000000E+00  0.16666422252E+04  0.16666422252E+04  0.50400001928E-02 0.  1.
        1   -1    0    0  501    0  0.00000000000E+00  0.00000000000E+00 -0.20539554183E+04  0.20539554183E+04  0.50400001928E-02 0. -1.
    10030    2    1    2    0    0  0.00000000000E+00  0.00000000000E+00 -0.38731319310E+03  0.37205976434E+04  0.37003831308E+04 0.  0.
        5    1    3    3  502    0 -0.87742282711E+03  0.38123934042E+03  0.13986525805E+04  0.16945398736E+04  0.46999998093E+01 0.  1.
       -5    1    3    3    0  502  0.87742282711E+03 -0.38123934042E+03 -0.17859657736E+04  0.20260577698E+04  0.46999998093E+01 0. -1.
</event>
<event>
 5   0  0.1825308E-08  0.3714404E+04  0.7818609E-02  0.8064777E-01
        2   -1    0    0  501    0  0.00000000000E+00  0.00000000000E+00  0.14478850600E+04  0.14478850600E+04  0.25500000920E-02 0. -1.
       -2   -1    0    0    0  501  0.00000000000E+00  0.00000000000E+00 -0.23822328218E+04  0.23822328218E+04  0.25500000920E-02 0.  1.
    10030    2    1    2    0    0  0.00000000000E+00  0.00000000000E+00 -0.93434776181E+03  0.38301178819E+04  0.37144040234E+04 0.  0.
        4    1    3    3  502    0  0.68518036915E+03 -0.20488521043E+03 -0.22345551198E+04  0.23462072126E+04  0.12699999809E+01 0.  1.
       -4    1    3    3    0  502 -0.68518036915E+03  0.20488521043E+03  0.13002073580E+04  0.14839106693E+04  0.12699999809E+01 0. -1.
</event>
<event>
 5   0  0.1825308E-08  0.3698346E+04  0.7818609E-02  0.8068328E-01
       -2   -1    0    0    0  501  0.00000000000E+00  0.00000000000E+00  0.16160866221E+04  0.16160866221E+04  0.25500000920E-02 0.  1.
        2   -1    0    0  501    0  0.00000000000E+00  0.00000000000E+00 -0.21158772626E+04  0.21158772626E+04  0.25500000920E-02 0. -1.
    10030    2    1    2    0    0  0.00000000000E+00  0.00000000000E+00 -0.49979064058E+03  0.37319638847E+04  0.36983460834E+04 0.  0.
        4    1    3    3  502    0 -0.98260260835E+03 -0.29169507632E+03 -0.18029911164E+04  0.20739750438E+04  0.12699999809E+01 0. -1.
       -4    1    3    3    0  502  0.98260260835E+03  0.29169507632E+03  0.13032004758E+04  0.16579888409E+04  0.12699999809E+01 0.  1.
</event>
<event>
 5   0  0.1856107E-08  0.3700183E+04  0.7818609E-02  0.8067921E-01
       -2   -1    0    0    0  501  0.00000000000E+00  0.00000000000E+00  0.16720522645E+04  0.16720522645E+04  0.25500000920E-02 0. -1.
        2   -1    0    0  501    0  0.00000000000E+00  0.00000000000E+00 -0.20470883798E+04  0.20470883798E+04  0.25500000920E-02 0.  1.
    10030    2    1    2    0    0  0.00000000000E+00  0.00000000000E+00 -0.37503611530E+03  0.37191406442E+04  0.37001831095E+04 0.  0.
        2    1    3    3  502    0  0.15133412273E+04  0.64365868217E+03 -0.10394101554E+04  0.19454746569E+04  0.25500000920E-02 0.  1.
       -2    1    3    3    0  502 -0.15133412273E+04 -0.64365868217E+03  0.66437404012E+03  0.17736659873E+04  0.25500000920E-02 0. -1.
</event>
<event>
 5   0  0.5714125E-09  0.3695842E+04  0.7818609E-02  0.8068884E-01
        1   -1    0    0  501    0  0.00000000000E+00  0.00000000000E+00  0.28111076249E+04  0.28111076249E+04  0.50400001928E-02 0.  1.
       -1   -1    0    0    0  501  0.00000000000E+00  0.00000000000E+00 -0.12147565359E+04  0.12147565359E+04  0.50400001928E-02 0. -1.
    10030    2    1    2    0    0  0.00000000000E+00  0.00000000000E+00  0.15963510890E+04  0.40258641608E+04  0.36958416418E+04 0.  0.
        5    1    3    3  502    0  0.20441233247E+03  0.46943557998E+02  0.27980941956E+04  0.28059474900E+04  0.46999998093E+01 0.  1.
       -5    1    3    3    0  502 -0.20441233247E+03 -0.46943557998E+02 -0.12017431066E+04  0.12199166707E+04  0.46999998093E+01 0. -1.
</event>
<event>
 5   0  0.1757996E-08  0.3698416E+04  0.7818609E-02  0.8068313E-01
       -2   -1    0    0    0  501  0.00000000000E+00  0.00000000000E+00  0.15941082519E+04  0.15941082519E+04  0.25500000920E-02 0. -1.
        2   -1    0    0  501    0  0.00000000000E+00  0.00000000000E+00 -0.21451304690E+04  0.21451304690E+04  0.25500000920E-02 0.  1.
    10030    2    1    2    0    0  0.00000000000E+00  0.00000000000E+00 -0.55102221708E+03  0.37392387209E+04  0.36984159755E+04 0.  0.
        3    1    3    3  502    0  0.15921342716E+04 -0.89405188812E+03 -0.57088277124E+03  0.19131459605E+04  0.10100000352E+00 0.  1.
       -3    1    3    3    0  502 -0.15921342716E+04  0.89405188812E+03  0.19860554153E+02  0.18260927604E+04  0.10100000352E+00 0. -1.
</event>
<event>
 5   0  0.5714125E-09  0.3700863E+04  0.7818609E-02  0.8067771E-01
        3   -1    0    0  501    0  0.00000000000E+00  0.00000000000E+00  0.13122323080E+04  0.13122323119E+04  0.10100000352E+00 0. -1.
       -3   -1    0    0    0  501  0.00000000000E+00  0.00000000000E+00 -0.26093677204E+04  0.26093677224E+04  0.10100000352E+00 0.  1.
    10030    2    1    2    0    0  0.00000000000E+00  0.00000000000E+00 -0.12971354124E+04  0.39216000342E+04  0.37008629467E+04 0.  0.
        3    1    3    3  502    0  0.15326144024E+04  0.10062932970E+04 -0.38352192990E+03  0.18731316523E+04  0.10100000352E+00 0. -1.
       -3    1    3    3    0  502 -0.15326144024E+04 -0.10062932970E+04 -0.91361348255E+03  0.20484683819E+04  0.10100000352E+00 0.  1.
</event>
<event>
 5   0  0.5714125E-09  0.3700540E+04  0.7818609E-02  0.8067842E-01
       -1   -1    0    0    0  501  0.00000000000E+00  0.00000000000E+00  0.19389466701E+04  0.19389466701E+04  0.50400001928E-02 0.  1.
        1   -1    0    0  501    0  0.00000000000E+00  0.00000000000E+00 -0.17656488487E+04  0.17656488487E+04  0.50400001928E-02 0. -1.
    10030    2    1    2    0    0  0.00000000000E+00  0.00000000000E+00  0.17329782134E+03  0.37045955188E+04  0.37005399367E+04 0.  0.
        3    1    3    3  502    0 -0.18162474115E+04 -0.34786204175E+03  0.25456757071E+02  0.18494352426E+04  0.10100000352E+00 0.  1.
       -3    1    3    3    0  502  0.18162474115E+04  0.34786204175E+03  0.14784106427E+03  0.18551602762E+04  0.10100000352E+00 0. -1.
</event>
<event>
 5   0  0.5714125E-09  0.3698703E+04  0.7818609E-02  0.8068249E-01
        3   -1    0    0  501    0  0.00000000000E+00  0.00000000000E+00  0.19884890440E+04  0.19884890466E+04  0.10100000352E+00 0. -1.
       -3   -1    0    0    0  501  0.00000000000E+00  0.00000000000E+00 -0.17199499585E+04  0.17199499615E+04  0.10100000352E+00 0.  1.
    10030    2    1    2    0    0  0.00000000000E+00  0.00000000000E+00  0.26853908547E+03  0.37084390080E+04  0.36987033723E+04 0.  0.
        5    1    3    3  502    0  0.17651312959E+04 -0.22315899456E+03 -0.37162882783E+03  0.18175859001E+04  0.46999998093E+01 0.  1.
       -5    1    3    3    0  502 -0.17651312959E+04  0.22315899456E+03  0.64016791331E+03  0.18908531079E+04  0.46999998093E+01 0. -1.
</event>
<event>
 5   0  0.1825308E-08  0.3699346E+04  0.7818609E-02  0.8068107E-01
        2   -1    0    0  501    0  0.00000000000E+00  0.00000000000E+00  0.18465521299E+04  0.18465521299E+04  0.25500000920E-02 0.  1.
       -2   -1    0    0    0  501  0.00000000000E+00  0.00000000000E+00 -0.18527988015E+04  0.18527988016E+04  0.25500000920E-02 0. -1.
    10030    2    1    2    0    0  0.00000000000E+00  0.00000000000E+00 -0.62466716306E+01  0.36993509315E+04  0.36993456574E+04 0.  0.
        4    1    3    3  502    0 -0.23037938758E+03 -0.13355864781E+04 -0.12618634105E+04  0.18518009564E+04  0.12699999809E+01 0. -1.
       -4    1    3    3    0  502  0.23037938758E+03  0.13355864781E+04  0.12556167388E+04  0.18475499751E+04  0.12699999809E+01 0.  1.
</event>
<event>
 5   0  0.5714125E-09  0.3698940E+04  0.7818609E-02  0.8068197E-01
        1   -1    0    0  501    0  0.00000000000E+00  0.00000000000E+00  0.24076388070E+04  0.24076388070E+04  0.50400001928E-02 0. -1.
       -1   -1    0    0    0  501  0.00000000000E+00  0.00000000000E+00 -0.14207026820E+04  0.14207026820E+04  0.50400001928E-02 0.  1.
    10030    2    1    2    0    0  0.00000000000E+00  0.00000000000E+00  0.98693612501E+03  0.38283414890E+04  0.36989397997E+04 0.  0.
        4    1    3    3  502    0  0.16847356061E+04  0.74037161525E+03  0.30247755918E+03  0.18649339071E+04  0.12699999809E+01 0.  1.
       -4    1    3    3    0  502 -0.16847356061E+04 -0.74037161525E+03  0.68445856584E+03  0.19634075819E+04  0.12699999809E+01 0. -1.
</event>
<event>
 5   0  0.5714125E-09  0.3698737E+04  0.7818609E-02  0.8068242E-01
        1   -1    0    0  501    0  0.00000000000E+00  0.00000000000E+00  0.10707560454E+04  0.10707560454E+04  0.50400001928E-02 0.  1.
       -1   -1    0    0    0  501  0.00000000000E+00  0.00000000000E+00 -0.31941579339E+04  0.31941579339E+04  0.50400001928E-02 0. -1.
    10030    2    1    2    0    0  0.00000000000E+00  0.00000000000E+00 -0.21234018886E+04  0.42649139793E+04  0.36987370372E+04 0.  0.
        3    1    3    3  502    0  0.15504482283E+04 -0.55387053185E+03 -0.90445380558E+02  0.16488913402E+04  0.10100000352E+00 0.  1.
       -3    1    3    3    0  502 -0.15504482283E+04  0.55387053185E+03 -0.20329565080E+04  0.26160226391E+04  0.10100000352E+00 0. -1.
</event>
<event>
 5   0  0.1856107E-08  0.3701410E+04  0.7818609E-02  0.8067650E-01
       -2   -1    0    0    0  501  0.00000000000E+00  0.00000000000E+00  0.19292112061E+04  0.19292112061E+04  0.25500000920E-02 0. -1.
        2   -1    0    0  501    0  0.00000000000E+00  0.00000000000E+00 -0.17753931215E+04  0.17753931215E+04  0.25500000920E-02 0.  1.
    10030    2    1    2    0    0  0.00000000000E+00  0.00000000000E+00  0.15381808459E+03  0.37046043276E+04  0.37014096262E+04 0.  0.
        2    1    3    3  502    0 -0.35684363754E+02  0.78036119192E+03  0.17561149534E+04  0.19220241136E+04  0.25500000920E-02 0. -1.
       -2    1    3    3    0  502  0.35684363754E+02 -0.78036119192E+03 -0.16022968688E+04  0.17825802140E+04  0.25500000920E-02 0.  1.
</event>
<event>
 5   0  0.5714125E-09  0.3700210E+04  0.7818609E-02  0.8067915E-01
        1   -1    0    0  501    0  0.00000000000E+00  0.00000000000E+00  0.17846848233E+04  0.17846848233E+04  0.50400001928E-02 0. -1.
       -1   -1    0    0    0  501  0.00000000000E+00  0.00000000000E+00 -0.19179233846E+04  0.19179233846E+04  0.50400001928E-02 0.  1.
    10030    2    1    2    0    0  0.00000000000E+00  0.00000000000E+00 -0.13323856130E+03  0.37026082079E+04  0.37002101328E+04 0.  0.
        3    1    3    3  502    0 -0.21302712112E+03  0.37778041520E+03 -0.18663371445E+04  0.19160670509E+04  0.10100000352E+00 0.  1.
       -3    1    3    3    0  502  0.21302712112E+03 -0.37778041520E+03  0.17330985832E+04  0.17865411570E+04  0.10100000352E+00 0. -1.
</event>
<event>
 5   0  0.1825308E-08  0.3699853E+04  0.7818609E-02  0.8067994E-01
       -2   -1    0    0    0  501  0.00000000000E+00  0.00000000000E+00  0.18797369063E+04  0.18797369063E+04  0.25500000920E-02 0.  1.
        2   -1    0    0  501    0  0.00000000000E+00  0.00000000000E+00 -0.18205884744E+04  0.18205884744E+04  0.25500000920E-02 0. -1.
    10030    2    1    2    0    0  0.00000000000E+00  0.00000000000E+00  0.59148431922E+02  0.37003253808E+04  0.36998526169E+04 0.  0.
        4    1    3    3  502    0 -0.10538548914E+04 -0.49967755036E+03 -0.14065542345E+04  0.18272066697E+04  0.12699999809E+01 0. -1.
       -4    1    3    3    0  502  0.10538548914E+04  0.49967755036E+03  0.14657026664E+04  0.18731187110E+04  0.12699999809E+01 0.  1.
</event>
<event>
 5   0  0.1725865E-08  0.3705649E+04  0.7818609E-02  0.8066711E-01
       -2   -1    0    0    0  501  0.00000000000E+00  0.00000000000E+00  0.14082827136E+04  0.14082827136E+04  0.25500000920E-02 0.  1.
        2   -1    0    0  501    0  0.00000000000E+00  0.00000000000E+00 -0.24376913965E+04  0.24376913965E+04  0.25500000920E-02 0. -1.
    10030    2    1    2    0    0  0.00000000000E+00  0.00000000000E+00 -0.10294086828E+04  0.38459741101E+04  0.37056490146E+04 0.  0.
        1    1    3    3  502    0  0.79593903058E+03 -0.15725643472E+04 -0.11077267290E+04  0.20817146953E+04  0.50400001928E-02 0. -1.
       -1    1    3    3    0  502 -0.79593903058E+03  0.15725643472E+04  0.78318046161E+02  0.17642594148E+04  0.50400001928E-02 0.  1.
</event>
<event>
 5   0  0.1725865E-08  0.3700565E+04  0.7818609E-02  0.8067837E-01
       -2   -1    0    0    0  501  0.00000000000E+00  0.00000000000E+00  0.26448768851E+04  0.26448768851E+04  0.25500000920E-02 0. -1.
        2   -1    0    0  501    0  0.00000000000E+00  0.00000000000E+00 -0.12944061057E+04  0.12944061057E+04  0.25500000920E-02 0.  1.
    10030    2    1    2    0    0  0.00000000000E+00  0.00000000000E+00  0.13504707794E+04  0.39392829907E+04  0.37005647076E+04 0.  0.
        1    1    3    3  502    0  0.13076053514E+04 -0.46632553143E+03  0.19773576775E+04  0.24160369701E+04  0.50400001928E-02 0. -1.
       -1    1    3    3    0  502 -0.13076053514E+04  0.46632553143E+03 -0.62688689812E+03  0.15232460206E+04  0.50400001928E-02 0.  1.
</event>
<event>
 5   0  0.1757996E-08  0.3700509E+04  0.7818609E-02  0.8067849E-01
        2   -1    0    0  501    0  0.00000000000E+00  0.00000000000E+00  0.20565908050E+04  0.20565908050E+04  0.25500000920E-02 0.  1.
       -2   -1    0    0    0  501  0.00000000000E+00  0.00000000000E+00 -0.16646199914E+04  0.16646199914E+04  0.25500000920E-02 0. -1.
    10030    2    1    2    0    0  0.00000000000E+00  0.00000000000E+00  0.39197081357E+03  0.37212107965E+04  0.37005092451E+04 0.  0.
        3    1    3    3  502    0  0.14830995970E+04 -0.73970819479E+03 -0.63122789102E+03  0.17734715359E+04  0.10100000352E+00 0. -1.
       -3    1    3    3    0  502 -0.14830995970E+04  0.73970819479E+03  0.10231987046E+04  0.19477392606E+04  0.10100000352E+00 0.  1.
</event>
<event>
 5   0  0.1740290E-08  0.3700281E+04  0.7818609E-02  0.8067900E-01
        2   -1    0    0  501    0  0.00000000000E+00  0.00000000000E+00  0.15955067366E+04  0.15955067366E+04  0.25500000920E-02 0.  1.
       -2   -1    0    0    0  501  0.00000000000E+00  0.00000000000E+00 -0.21454118615E+04  0.21454118616E+04  0.25500000920E-02 0. -1.
    10030    2    1    2    0    0  0.00000000000E+00  0.00000000000E+00 -0.54990512494E+03  0.37409185982E+04  0.37002805720E+04 0.  0.
        5    1    3    3  502    0  0.17313905759E+04 -0.36974245102E+03  0.26813810379E+03  0.17906264097E+04  0.46999998093E+01 0.  1.
       -5    1    3    3    0  502 -0.17313905759E+04  0.36974245102E+03 -0.81804322874E+03  0.19502921885E+04  0.46999998093E+01 0. -1.
</event>
<event>
 5   0  0.5714125E-09  0.3698295E+04  0.7818609E-02  0.8068340E-01
        1   -1    0    0  501    0  0.00000000000E+00  0.00000000000E+00  0.17612371949E+04  0.17612371949E+04  0.50400001928E-02 0. -1.
       -1   -1    0    0    0  501  0.00000000000E+00  0.00000000000E+00 -0.19414461232E+04  0.19414461232E+04  0.50400001928E-02 0.  1.
    10030    2    1    2    0    0  0.00000000000E+00  0.00000000000E+00 -0.18020892836E+03  0.37026833181E+04  0.36982953501E+04 0.  0.
        3    1    3    3  502    0 -0.17493505299E+04  0.30343093124E+03  0.42727700371E+03  0.18261607965E+04  0.10100000352E+00 0. -1.
       -3    1    3    3    0  502  0.17493505299E+04 -0.30343093124E+03 -0.60748593207E+03  0.18765225217E+04  0.10100000352E+00 0.  1.
</event>
<event>
 5   0  0.5714125E-09  0.3699987E+04  0.7818609E-02  0.8067965E-01
       -1   -1    0    0    0  501  0.00000000000E+00  0.00000000000E+00  0.15436375104E+04  0.15436375104E+04  0.50400001928E-02 0.  1.
        1   -1    0    0  501    0  0.00000000000E+00  0.00000000000E+00 -0.22171505827E+04  0.22171505827E+04  0.50400001928E-02 0. -1.
    10030    2    1    2    0    0  0.00000000000E+00  0.00000000000E+00 -0.67351307230E+03  0.37607880931E+04  0.36999874624E+04 0.  0.
        4    1    3    3  502    0  0.34529800524E+03 -0.10013122422E+04  0.12049470878E+04  0.16042929957E+04  0.12699999809E+01 0.  1.
       -4    1    3    3    0  502 -0.34529800524E+03  0.10013122422E+04 -0.18784601601E+04  0.21564950973E+04  0.12699999809E+01 0. -1.
</event>
<event>
 5   0  0.1825308E-08  0.3709639E+04  0.7818609E-02  0.8065829E-01
       -2   -1    0    0    0  501  0.00000000000E+00  0.00000000000E+00  0.14301251175E+04  0.14301251176E+04  0.25500000920E-02 0. -1.
        2   -1    0    0  501    0  0.00000000000E+00  0.00000000000E+00 -0.24056326558E+04  0.24056326558E+04  0.25500000920E-02 0.  1.
    10030    2    1    2    0    0  0.00000000000E+00  0.00000000000E+00 -0.97550753827E+03  0.38357577734E+04  0.37096391656E+04 0.  0.
        4    1    3    3  502    0  0.11428644024E+04 -0.12634057638E+04  0.27068247923E+03  0.17249938503E+04  0.12699999809E+01 0.  1.
       -4    1    3    3    0  502 -0.11428644024E+04  0.12634057638E+04 -0.12461900175E+04  0.21107639230E+04  0.12699999809E+01 0. -1.
</event>
<event>
 5   0  0.5714125E-09  0.3698468E+04  0.7818609E-02  0.8068301E-01
        1   -1    0    0  501    0  0.00000000000E+00  0.00000000000E+00  0.12373754012E+04  0.12373754012E+04  0.50400001928E-02 0. -1.
       -1   -1    0    0    0  501  0.00000000000E+00  0.00000000000E+00 -0.27636457715E+04  0.27636457715E+04  0.50400001928E-02 0.  1.
    10030    2    1    2    0    0  0.00000000000E+00  0.00000000000E+00 -0.15262703703E+04  0.40010211727E+04  0.36984684913E+04 0.  0.
        3    1    3    3  502    0  0.34992275351E+02  0.15687850368E+04 -0.18216226860E+04  0.24042920312E+04  0.10100000352E+00 0.  1.
       -3    1    3    3    0  502 -0.34992275351E+02 -0.15687850368E+04  0.29535231568E+03  0.15967291416E+04  0.10100000352E+00 0. -1.
</event>
<event>
 5   0  0.5714125E-09  0.3699165E+04  0.7818609E-02  0.8068147E-01
       -1   -1    0    0    0  501  0.00000000000E+00  0.00000000000E+00  0.23276363237E+04  0.23276363237E+04  0.50400001928E-02 0. -1.
        1   -1    0    0  501    0  0.00000000000E+00  0.00000000000E+00 -0.14697121172E+04  0.14697121172E+04  0.50400001928E-02 0.  1.
    10030    2    1    2    0    0  0.00000000000E+00  0.00000000000E+00  0.85792420650E+03  0.37973484409E+04  0.36991649379E+04 0.  0.
        2    1    3    3  502    0  0.89436859743E+03 -0.11775201452E+04  0.15695360087E+04  0.21563608610E+04  0.25500000920E-02 0. -1.
       -2    1    3    3    0  502 -0.89436859743E+03  0.11775201452E+04 -0.71161180215E+03  0.16409875799E+04  0.25500000920E-02 0.  1.
</event>
<event>
 5   0  0.5714125E-09  0.3699076E+04  0.7818609E-02  0.8068167E-01
        1   -1    0    0  501    0  0.00000000000E+00  0.00000000000E+00  0.12076977823E+04  0.12076977823E+04  0.50400001928E-02 0. -1.
       -1   -1    0    0    0  501  0.00000000000E+00  0.00000000000E+00 -0.28324898123E+04  0.28324898123E+04  0.50400001928E-02 0.  1.
    10030    2    1    2    0    0  0.00000000000E+00  0.00000000000E+00 -0.16247920300E+04  0.40401875946E+04  0.36990764602E+04 0.  0.
        3    1    3    3  502    0  0.13199417733E+04 -0.55819966185E+03 -0.20893812874E+04  0.25336430928E+04  0.10100000352E+00 0.  1.
       -3    1    3    3    0  502 -0.13199417733E+04  0.55819966185E+03  0.46458925739E+03  0.15065445018E+04  0.10100000352E+00 0. -1.
</event>
<event>
 5   0  0.5714125E-09  0.3702059E+04  0.7818609E-02  0.8067506E-01
        1   -1    0    0  501    0  0.00000000000E+00  0.00000000000E+00  0.12903838940E+04  0.12903838941E+04  0.50400001928E-02 0. -1.
       -1   -1    0    0    0  501  0.00000000000E+00  0.00000000000E+00 -0.26552648739E+04  0.26552648739E+04  0.50400001928E-02 0.  1.
    10030    2    1    2    0    0  0.00000000000E+00  0.00000000000E+00 -0.13648809799E+04  0.39456487680E+04  0.37020594419E+04 0.  0.
        3    1    3    3  502    0  0.41062904173E+03  0.47536467072E+03  0.11733109721E+04  0.13308818233E+04  0.10100000352E+00 0. -1.
       -3    1    3    3    0  502 -0.41062904173E+03 -0.47536467072E+03 -0.25381919520E+04  0.26147669447E+04  0.10100000352E+00 0.  1.
</event>
<event>
 5   0  0.5714125E-09  0.3698415E+04  0.7818609E-02  0.8068313E-01
       -1   -1    0    0    0  501  0.00000000000E+00  0.00000000000E+00  0.13064313508E+04  0.13064313508E+04  0.50400001928E-02 0. -1.
        1   -1    0    0  501    0  0.00000000000E+00  0.00000000000E+00 -0.26174877906E+04  0.26174877906E+04  0.50400001928E-02 0.  1.
    10030    2    1    2    0    0  0.00000000000E+00  0.00000000000E+00 -0.13110564398E+04  0.39239191414E+04  0.36984148551E+04 0.  0.
        5    1    3    3  502    0 -0.76598738316E+02 -0.89199330354E+03 -0.23722165388E+04  0.25355379740E+04  0.46999998093E+01 0.  1.
       -5    1    3    3    0  502  0.76598738316E+02  0.89199330354E+03  0.10611600991E+04  0.13883811675E+04  0.46999998093E+01 0. -1.
</event>
<event>
 5   0  0.5714125E-09  0.3698146E+04  0.7818609E-02  0.8068373E-01
        1   -1    0    0  501    0  0.00000000000E+00  0.00000000000E+00  0.24456119078E+04  0.24456119078E+04  0.50400001928E-02 0.  1.
       -1   -1    0    0    0  501  0.00000000000E+00  0.00000000000E+00 -0.13980427851E+04  0.13980427851E+04  0.50400001928E-02 0. -1.
    10030    2    1    2    0    0  0.00000000000E+00  0.00000000000E+00  0.10475691227E+04  0.38436546930E+04  0.36981455261E+04 0.  0.
        2    1    3    3  502    0  0.12629767200E+04  0.10787328335E+04 -0.32077345914E+03  0.16916472249E+04  0.25500000920E-02 0. -1.
       -2    1    3    3    0  502 -0.12629767200E+04 -0.10787328335E+04  0.13683425818E+04  0.21520074681E+04  0.25500000920E-02 0.  1.
</event>
<event>
 5   0  0.5714125E-09  0.3698482E+04  0.7818609E-02  0.8068298E-01
        1   -1    0    0  501    0  0.00000000000E+00  0.00000000000E+00  0.13079223115E+04  0.13079223115E+04  0.50400001928E-02 0.  1.
       -1   -1    0    0    0  501  0.00000000000E+00  0.00000000000E+00 -0.26145987452E+04  0.26145987452E+04  0.50400001928E-02 0. -1.
    10030    2    1    2    0    0  0.00000000000E+00  0.00000000000E+00 -0.13066764337E+04  0.39225210568E+04  0.36984818694E+04 0.  0.
        2    1    3    3  502    0  0.17174552659E+04 -0.69865742277E+02  0.70001214683E+02  0.17203005501E+04  0.25500000920E-02 0.  1.
       -2    1    3    3    0  502 -0.17174552659E+04  0.69865742277E+02 -0.13766776484E+04  0.22022205067E+04  0.25500000920E-02 0. -1.
</event>
<event>
 5   0  0.1740290E-08  0.3705198E+04  0.7818609E-02  0.8066811E-01
        2   -1    0    0  501    0  0.00000000000E+00  0.00000000000E+00  0.30685484926E+04  0.30685484926E+04  0.25500000920E-02 0. -1.
       -2   -1    0    0    0  501  0.00000000000E+00  0.00000000000E+00 -0.11184841893E+04  0.11184841893E+04  0.25500000920E-02 0.  1.
    10030    2    1    2    0    0  0.00000000000E+00  0.00000000000E+00  0.19500643034E+04  0.41870326819E+04  0.37051979558E+04 0.  0.
        5    1    3    3  502    0  0.23026773915E+03  0.10906694251E+04  0.26471588482E+04  0.28722909122E+04  0.46999998093E+01 0. -1.
       -5    1    3    3    0  502 -0.23026773915E+03 -0.10906694251E+04 -0.69709454484E+03  0.13147417697E+04  0.46999998093E+01 0.  1.
</event>
<event>
 5   0  0.5714125E-09  0.3700318E+04  0.7818609E-02  0.8067891E-01
        1   -1    0    0  501    0  0.00000000000E+00  0.00000000000E+00  0.18552700587E+04  0.18552700587E+04  0.50400001928E-02 0. -1.
       -1   -1    0    0    0  501  0.00000000000E+00  0.00000000000E+00 -0.18450617101E+04  0.18450617101E+04  0.50400001928E-02 0.  1.
    10030    2    1    2    0    0  0.00000000000E+00  0.00000000000E+00  0.10208348620E+02  0.37003317688E+04  0.37003176875E+04 0.  0.
        3    1    3    3  502    0 -0.68092521564E+03 -0.15014852122E+04  0.84473272956E+03  0.18524822229E+04  0.10100000352E+00 0. -1.
       -3    1    3    3    0  502  0.68092521564E+03  0.15014852122E+04 -0.83452438094E+03  0.18478495459E+04  0.10100000352E+00 0.  1.
</event>
<event>
 5   0  0.1740290E-08  0.3701270E+04  0.7818609E-02  0.8067680E-01
       -2   -1    0    0    0  501  0.00000000000E+00  0.00000000000E+00  0.17091854600E+04  0.17091854600E+04  0.25500000920E-02 0.  1.
        2   -1    0    0  501    0  0.00000000000E+00  0.00000000000E+00 -0.20037908160E+04  0.20037908160E+04  0.25500000920E-02 0. -1.
    10030    2    1    2    0    0  0.00000000000E+00  0.00000000000E+00 -0.29460535591E+03  0.37129762760E+04  0.37012701212E+04 0.  0.
        5    1    3    3  502    0  0.59435743086E+02 -0.17141785304E+04  0.54979611051E+03  0.18011769748E+04  0.46999998093E+01 0.  1.
       -5    1    3    3    0  502 -0.59435743086E+02  0.17141785304E+04 -0.84440146642E+03  0.19117993012E+04  0.46999998093E+01 0. -1.
</event>
<event>
 5   0  0.5714125E-09  0.3698976E+04  0.7818609E-02  0.8068189E-01
       -1   -1    0    0    0  501  0.00000000000E+00  0.00000000000E+00  0.18778530962E+04  0.18778530962E+04  0.50400001928E-02 0.  1.
        1   -1    0    0  501    0  0.00000000000E+00  0.00000000000E+00 -0.18215516082E+04  0.18215516082E+04  0.50400001928E-02 0. -1.
    10030    2    1    2    0    0  0.00000000000E+00  0.00000000000E+00  0.56301488025E+02  0.36994047044E+04  0.36989762515E+04 0.  0.
        3    1    3    3  502    0  0.17903147942E+04  0.26724365223E+02 -0.43522253476E+03  0.18426502432E+04  0.10100000352E+00 0. -1.
       -3    1    3    3    0  502 -0.17903147942E+04 -0.26724365223E+02  0.49152402278E+03  0.18567544612E+04  0.10100000352E+00 0.  1.
</event>
<event>
 5   0  0.1825308E-08  0.3699128E+04  0.7818609E-02  0.8068155E-01
       -2   -1    0    0    0  501  0.00000000000E+00  0.00000000000E+00  0.11526368683E+04  0.11526368683E+04  0.25500000920E-02 0. -1.
        2   -1    0    0  501    0  0.00000000000E+00  0.00000000000E+00 -0.29678793131E+04  0.29678793131E+04  0.25500000920E-02 0.  1.
    10030    2    1    2    0    0  0.00000000000E+00  0.00000000000E+00 -0.18152424447E+04  0.41205161814E+04  0.36991280686E+04 0.  0.
        4    1    3    3  502    0 -0.47629197159E+03 -0.10536254474E+04 -0.25156403196E+04  0.27686510174E+04  0.12699999809E+01 0.  1.
       -4    1    3    3    0  502  0.47629197159E+03  0.10536254474E+04  0.70039787491E+03  0.13518651640E+04  0.12699999809E+01 0. -1.
</event>
<event>
 5   0  0.5714125E-09  0.3699408E+04  0.7818609E-02  0.8068093E-01
        1   -1    0    0  501    0  0.00000000000E+00  0.00000000000E+00  0.30342210806E+04  0.30342210806E+04  0.50400001928E-02 0.  1.
       -1   -1    0    0    0  501  0.00000000000E+00  0.00000000000E+00 -0.11276056828E+04  0.11276056829E+04  0.50400001928E-02 0. -1.
    10030    2    1    2    0    0  0.00000000000E+00  0.00000000000E+00  0.19066153978E+04  0.41618267635E+04  0.36994080248E+04 0.  0.
        4    1    3    3  502    0  0.99045596931E+03  0.14601469365E+04  0.15780324060E+04  0.23671121626E+04  0.12699999809E+01 0.  1.
       -4    1    3    3    0  502 -0.99045596931E+03 -0.14601469365E+04  0.32858299180E+03  0.17947146009E+04  0.12699999809E+01 0. -1.
</event>
<event>
 5   0  0.1825308E-08  0.3700600E+04  0.7818609E-02  0.8067829E-01
       -2   -1    0    0    0  501  0.00000000000E+00  0.00000000000E+00  0.26799096407E+04  0.26799096407E+04  0.25500000920E-02 0.  1.
        2   -1    0    0  501    0  0.00000000000E+00  0.00000000000E+00 -0.12775097933E+04  0.12775097933E+04  0.25500000920E-02 0. -1.
    10030    2    1    2    0    0  0.00000000000E+00  0.00000000000E+00  0.14023998473E+04  0.39574194340E+04  0.37006003898E+04 0.  0.
        4    1    3    3  502    0 -0.44848766322E+03 -0.17943222963E+04  0.75854517068E+03  0.19990312844E+04  0.12699999809E+01 0.  1.
       -4    1    3    3    0  502  0.44848766322E+03  0.17943222963E+04  0.64385467664E+03  0.19583881496E+04  0.12699999809E+01 0. -1.
</event>
<event>
 5   0  0.1856107E-08  0.3697853E+04  0.7818609E-02  0.8068438E-01
        2   -1    0    0  501    0  0.00000000000E+00  0.00000000000E+00  0.20537337918E+04  0.20537337918E+04  0.25500000920E-02 0.  1.
       -2   -1    0    0    0  501  0.00000000000E+00  0.00000000000E+00 -0.16645433961E+04  0.16645433961E+04  0.25500000920E-02 0. -1.
    10030    2    1    2    0    0  0.00000000000E+00  0.00000000000E+00  0.38919039573E+03  0.37182771879E+04  0.36978529017E+04 0.  0.
        2    1    3    3  502    0  0.11986493098E+04 -0.32781475238E+03  0.15712099467E+04  0.20032282387E+04  0.25500000920E-02 0.  1.
       -2    1    3    3    0  502 -0.11986493098E+04  0.32781475238E+03 -0.11820195509E+04  0.17150489493E+04  0.25500000920E-02 0. -1.
</event>
<event>
 5   0  0.5714125E-09  0.3698686E+04  0.7818609E-02  0.8068253E-01
       -1   -1    0    0    0  501  0.00000000000E+00  0.00000000000E+00  0.16858484241E+04  0.16858484241E+04  0.50400001928E-02 0.  1.
        1   -1    0    0  501    0  0.00000000000E+00  0.00000000000E+00 -0.20286935033E+04  0.20286935033E+04  0.50400001928E-02 0. -1.
    10030    2    1    2    0    0  0.00000000000E+00  0.00000000000E+00 -0.34284507913E+03  0.37145419274E+04  0.36986861156E+04 0.  0.
        1    1    3    3  502    0 -0.16344749978E+04  0.73231033627E+02  0.69436271162E+03  0.17773606494E+04  0.50400001928E-02 0.  1.
       -1    1    3    3    0  502  0.16344749978E+04 -0.73231033627E+02 -0.10372077908E+04  0.19371812780E+04  0.50400001928E-02 0. -1.
</event>
<event>
 5   0  0.5714125E-09  0.3700707E+04  0.7818609E-02  0.8067805E-01
       -1   -1    0    0    0  501  0.00000000000E+00  0.00000000000E+00  0.19674217900E+04  0.19674217900E+04  0.50400001928E-02 0. -1.
        1   -1    0    0  501    0  0.00000000000E+00  0.00000000000E+00 -0.17402510706E+04  0.17402510707E+04  0.50400001928E-02 0.  1.
    10030    2    1    2    0    0  0.00000000000E+00  0.00000000000E+00  0.22717071934E+03  0.37076728606E+04  0.37007068927E+04 0.  0.
        1    1    3    3  502    0 -0.24669014088E+03  0.16777139812E+04 -0.62823233099E+03  0.18083849397E+04  0.50400001928E-02 0.  1.
       -1    1    3    3    0  502  0.24669014088E+03 -0.16777139812E+04  0.85540305033E+03  0.18992879210E+04  0.50400001928E-02 0. -1.
</event>
<event>
 5   0  0.1740290E-08  0.3702734E+04  0.7818609E-02  0.8067356E-01
       -2   -1    0    0    0  501  0.00000000000E+00  0.00000000000E+00  0.13737081368E+04  0.13737081368E+04  0.25500000920E-02 0. -1.
        2   -1    0    0  501    0  0.00000000000E+00  0.00000000000E+00 -0.24951147865E+04  0.24951147865E+04  0.25500000920E-02 0.  1.
    10030    2    1    2    0    0  0.00000000000E+00  0.00000000000E+00 -0.11214066498E+04  0.38688229233E+04  0.37027338465E+04 0.  0.
        5    1    3    3  502    0 -0.17493883779E+04  0.54309562473E+03 -0.84150497220E+03  0.20158038750E+04  0.46999998093E+01 0.  1.
       -5    1    3    3    0  502  0.17493883779E+04 -0.54309562473E+03 -0.27990167757E+03  0.18530190483E+04  0.46999998093E+01 0. -1.
</event>
<event>
 5   0  0.1757996E-08  0.3700868E+04  0.7818609E-02  0.8067769E-01
        2   -1    0    0  501    0  0.00000000000E+00  0.00000000000E+00  0.16431783007E+04  0.16431783007E+04  0.25500000920E-02 0.  1.
       -2   -1    0    0    0  501  0.00000000000E+00  0.00000000000E+00 -0.20838314775E+04  0.20838314775E+04  0.25500000920E-02 0. -1.
    10030    2    1    2    0    0  0.00000000000E+00  0.00000000000E+00 -0.44065317684E+03  0.37270097781E+04  0.37008683662E+04 0.  0.
        3    1    3    3  502    0 -0.92619829922E+03  0.30241622530E+03 -0.18045908721E+04  0.20508162006E+04  0.10100000352E+00 0. -1.
       -3    1    3    3    0  502  0.92619829922E+03 -0.30241622530E+03  0.13639376952E+04  0.16761935776E+04  0.10100000352E+00 0.  1.
</event>
<event>
 5   0  0.1757996E-08  0.3700718E+04  0.7818609E-02  0.8067803E-01
        2   -1    0    0  501    0  0.00000000000E+00  0.00000000000E+00  0.17165560739E+04  0.17165560739E+04  0.25500000920E-02 0. -1.
       -2   -1    0    0    0  501  0.00000000000E+00  0.00000000000E+00 -0.19945912788E+04  0.19945912788E+04  0.25500000920E-02 0.  1.
    10030    2    1    2    0    0  0.00000000000E+00  0.00000000000E+00 -0.27803520489E+03  0.37111473526E+04  0.37007176463E+04 0.  0.
        3    1    3    3  502    0  0.70423732015E+03 -0.11662347437E+04  0.11166190605E+04  0.17615027156E+04  0.10100000352E+00 0. -1.
       -3    1    3    3    0  502 -0.70423732015E+03  0.11662347437E+04 -0.13946542654E+04  0.19496446370E+04  0.10100000352E+00 0.  1.
</event>
<event>
 5   0  0.5714125E-09  0.3700680E+04  0.7818609E-02  0.8067811E-01
        1   -1    0    0  501    0  0.00000000000E+00  0.00000000000E+00  0.19477810360E+04  0.19477810360E+04  0.50400001928E-02 0. -1.
       -1   -1    0    0    0  501  0.00000000000E+00  0.00000000000E+00 -0.17577733800E+04  0.17577733800E+04  0.50400001928E-02 0.  1.
    10030    2    1    2    0    0  0.00000000000E+00  0.00000000000E+00  0.19000765603E+03  0.37055544160E+04  0.37006797511E+04 0.  0.
        2    1    3    3  502    0  0.16524726956E+04 -0.21630347272E+03  0.89999342055E+03  0.18940542123E+04  0.25500000920E-02 0.  1.
       -2    1    3    3    0  502 -0.16524726956E+04  0.21630347272E+03 -0.70998576452E+03  0.18115002037E+04  0.25500000920E-02 0. -1.
</event>
<event>
 5   0  0.1825308E-08  0.3699833E+04  0.7818609E-02  0.8067999E-01
        2   -1    0    0  501    0  0.00000000000E+00  0.00000000000E+00  0.17062946314E+04  0.17062946314E+04  0.25500000920E-02 0.  1.
       -2   -1    0    0    0  501  0.00000000000E+00  0.00000000000E+00 -0.20056274005E+04  0.20056274005E+04  0.25500000920E-02 0. -1.
    10030    2    1    2    0    0  0.00000000000E+00  0.00000000000E+00 -0.29933276910E+03  0.37119220319E+04  0.36998331130E+04 0.  0.
        4    1    3    3  502    0  0.10808945806E+04  0.10501281854E+04 -0.12260593518E+04  0.19427623239E+04  0.12699999809E+01 0. -1.
       -4    1    3    3    0  502 -0.10808945806E+04 -0.10501281854E+04  0.92672658274E+03  0.17691597079E+04  0.12699999809E+01 0.  1.
</event>
<event>
 5   0  0.5714125E-09  0.3698860E+04  0.7818609E-02  0.8068214E-01
       -1   -1    0    0    0  501  0.00000000000E+00  0.00000000000E+00  0.22988051399E+04  0.22988051399E+04  0.50400001928E-02 0.  1.
        1   -1    0    0  501    0  0.00000000000E+00  0.00000000000E+00 -0.14878997130E+04  0.14878997130E+04  0.50400001928E-02 0. -1.
    10030    2    1    2    0    0  0.00000000000E+00  0.00000000000E+00  0.81090542688E+03  0.37867048529E+04  0.36988600989E+04 0.  0.
        1    1    3    3  502    0 -0.21091695704E+03  0.17834657897E+04  0.85770810255E+03  0.19902008378E+04  0.50400001928E-02 0.  1.
       -1    1    3    3    0  502  0.21091695704E+03 -0.17834657897E+04 -0.46802675668E+02  0.17965040151E+04  0.50400001928E-02 0. -1.
</event>
<event>
 5   0  0.1757996E-08  0.3701611E+04  0.7818609E-02  0.8067605E-01
        2   -1    0    0  501    0  0.00000000000E+00  0.00000000000E+00  0.16023603438E+04  0.16023603438E+04  0.25500000920E-02 0.  1.
       -2   -1    0    0    0  501  0.00000000000E+00  0.00000000000E+00 -0.21377725059E+04  0.21377725059E+04  0.25500000920E-02 0. -1.
    10030    2    1    2    0    0  0.00000000000E+00  0.00000000000E+00 -0.53541216219E+03  0.37401328497E+04  0.37016114802E+04 0.  0.
        3    1    3    3  502    0 -0.90471251956E+03 -0.11863415543E+04 -0.13743531733E+04  0.20284865496E+04  0.10100000352E+00 0. -1.
       -3    1    3    3    0  502  0.90471251956E+03  0.11863415543E+04  0.83894101114E+03  0.17116463002E+04  0.10100000352E+00 0.  1.
</event>
<event>
 5   0  0.5714125E-09  0.3699692E+04  0.7818609E-02  0.8068030E-01
       -1   -1    0    0    0  501  0.00000000000E+00  0.00000000000E+00  0.22267152359E+04  0.22267152359E+04  0.50400001928E-02 0.  1.
        1   -1    0    0  501    0  0.00000000000E+00  0.00000000000E+00 -0.15367610855E+04  0.15367610855E+04  0.50400001928E-02 0. -1.
    10030    2    1    2    0    0  0.00000000000E+00  0.00000000000E+00  0.68995415047E+03  0.37634763214E+04  0.36996915131E+04 0.  0.
        1    1    3    3  502    0  0.11964819172E+04 -0.89413643420E+03  0.14550659369E+04  0.20852495826E+04  0.50400001928E-02 0. -1.
       -1    1    3    3    0  502 -0.11964819172E+04  0.89413643420E+03 -0.76511178640E+03  0.16782267388E+04  0.50400001928E-02 0.  1.
</event>
<event>
 5   0  0.1740290E-08  0.3700480E+04  0.7818609E-02  0.8067855E-01
       -2   -1    0    0    0  501  0.00000000000E+00  0.00000000000E+00  0.14727373463E+04  0.14727373463E+04  0.25500000920E-02 0.  1.
        2   -1    0    0  501    0  0.00000000000E+00  0.00000000000E+00 -0.23245070143E+04  0.23245070143E+04  0.25500000920E-02 0. -1.
    10030    2    1    2    0    0  0.00000000000E+00  0.00000000000E+00 -0.85176966799E+03  0.37972443605E+04  0.37004801264E+04 0.  0.
        5    1    3    3  502    0  0.16368132857E+04 -0.80405907230E+03 -0.74662411019E+03  0.19705680338E+04  0.46999998093E+01 0. -1.
       -5    1    3    3    0  502 -0.16368132857E+04  0.80405907230E+03 -0.10514555780E+03  0.18266763267E+04  0.46999998093E+01 0.  1.
</event>
<event>
 5   0  0.5714125E-09  0.3690343E+04  0.7818609E-02  0.8070105E-01
        1   -1    0    0  501    0  0.00000000000E+00  0.00000000000E+00  0.16768666152E+04  0.16768666152E+04  0.50400001928E-02 0.  1.
       -1   -1    0    0    0  501  0.00000000000E+00  0.00000000000E+00 -0.20303685123E+04  0.20303685123E+04  0.50400001928E-02 0. -1.
    10030    2    1    2    0    0  0.00000000000E+00  0.00000000000E+00 -0.35350189711E+03  0.37072351275E+04  0.36903426263E+04 0.  0.
        4    1    3    3  502    0 -0.31509907563E+03  0.15531923612E+04  0.77254109161E+03  0.17630982075E+04  0.12699999809E+01 0.  1.
       -4    1    3    3    0  502  0.31509907563E+03 -0.15531923612E+04 -0.11260429887E+04  0.19441369200E+04  0.12699999809E+01 0. -1.
</event>
<event>
 5   0  0.1856107E-08  0.3699214E+04  0.7818609E-02  0.8068136E-01
        2   -1    0    0  501    0  0.00000000000E+00  0.00000000000E+00  0.25273065014E+04  0.25273065014E+04  0.25500000920E-02 0.  1.
       -2   -1    0    0    0  501  0.00000000000E+00  0.00000000000E+00 -0.13536328961E+04  0.13536328961E+04  0.25500000920E-02 0. -1.
    10030    2    1    2    0    0  0.00000000000E+00  0.00000000000E+00  0.11736736053E+04  0.38809393976E+04  0.36992135483E+04 0.  0.
        2    1    3    3  502    0 -0.12448152018E+04 -0.11618419623E+04  0.13445375974E+04  0.21696135561E+04  0.25500000920E-02 0.  1.
       -2    1    3    3    0  502  0.12448152018E+04  0.11618419623E+04 -0.17086399209E+03  0.17113258415E+04  0.25500000920E-02 0. -1.
</event>
<event>
 5   0  0.1757996E-08  0.3701496E+04  0.7818609E-02  0.8067630E-01
       -2   -1    0    0    0  501  0.00000000000E+00  0.00000000000E+00  0.13247578920E+04  0.13247578920E+04  0.25500000920E-02 0.  1.
        2   -1    0    0  501    0  0.00000000000E+00  0.00000000000E+00 -0.25855808893E+04  0.25855808893E+04  0.25500000920E-02 0. -1.
    10030    2    1    2    0    0  0.00000000000E+00  0.00000000000E+00 -0.12608229974E+04  0.39103387813E+04  0.37014962858E+04 0.  0.
        3    1    3    3  502    0  0.16034787159E+04  0.50388693985E+03  0.18804057378E+03  0.16912732801E+04  0.10100000352E+00 0.  1.
       -3    1    3    3    0  502 -0.16034787159E+04 -0.50388693985E+03 -0.14488635711E+04  0.22190655012E+04  0.10100000352E+00 0. -1.
</event>
<event>
 5   0  0.5714125E-09  0.3700364E+04  0.7818609E-02  0.8067881E-01
        1   -1    0    0  501    0  0.00000000000E+00  0.00000000000E+00  0.21312989685E+04  0.21312989685E+04  0.50400001928E-02 0.  1.
       -1   -1    0    0    0  501  0.00000000000E+00  0.00000000000E+00 -0.16061438932E+04  0.16061438932E+04  0.50400001928E-02 0. -1.
    10030    2    1    2    0    0  0.00000000000E+00  0.00000000000E+00  0.52515507533E+03  0.37374428617E+04  0.37003636701E+04 0.  0.
        5    1    3    3  502    0 -0.12639687292E+04  0.72010209697E+03 -0.89211337118E+03  0.17064736551E+04  0.46999998093E+01 0. -1.
       -5    1    3    3    0  502  0.12639687292E+04 -0.72010209697E+03  0.14172684465E+04  0.20309692066E+04  0.46999998093E+01 0.  1.
</event>
<event>
 5   0  0.1740290E-08  0.3700748E+04  0.7818609E-02  0.8067796E-01
        2   -1    0    0  501    0  0.00000000000E+00  0.00000000000E+00  0.20542441444E+04  0.20542441444E+04  0.25500000920E-02 0.  1.
       -2   -1    0    0    0  501  0.00000000000E+00  0.00000000000E+00 -0.16667370293E+04  0.16667370293E+04  0.25500000920E-02 0. -1.
    10030    2    1    2    0    0  0.00000000000E+00  0.00000000000E+00  0.38750711509E+03  0.37209811737E+04  0.37007484555E+04 0.  0.
        5    1    3    3  502    0 -0.17210993180E+04 -0.55860734692E+03  0.58269871058E+03  0.19009957674E+04  0.46999998093E+01 0.  1.
       -5    1    3    3    0  502  0.17210993180E+04  0.55860734692E+03 -0.19519159548E+03  0.18199854063E+04  0.46999998093E+01 0. -1.
</event>
<event>
 5   0  0.1725865E-08  0.3699707E+04  0.7818609E-02  0.8068027E-01
       -2   -1    0    0    0  501  0.00000000000E+00  0.00000000000E+00  0.21536544496E+04  0.21536544496E+04  0.25500000920E-02 0.  1.
        2   -1    0    0  501    0  0.00000000000E+00  0.00000000000E+00 -0.15889075577E+04  0.15889075577E+04  0.25500000920E-02 0. -1.
    10030    2    1    2    0    0  0.00000000000E+00  0.00000000000E+00  0.56474689191E+03  0.37425620073E+04  0.36997069244E+04 0.  0.
        1    1    3    3  502    0 -0.98895656112E+03  0.91488729550E+03 -0.99994723483E+03  0.16777807711E+04  0.50400001928E-02 0. -1.
       -1    1    3    3    0  502  0.98895656112E+03 -0.91488729550E+03  0.15646941267E+04  0.20647812362E+04  0.50400001928E-02 0.  1.
</event>
<event>
 5   0  0.1856107E-08  0.3701516E+04  0.7818609E-02  0.8067626E-01
       -2   -1    0    0    0  501  0.00000000000E+00  0.00000000000E+00  0.14033982856E+04  0.14033982856E+04  0.25500000920E-02 0.  1.
        2   -1    0    0  501    0  0.00000000000E+00  0.00000000000E+00 -0.24407217934E+04  0.24407217934E+04  0.25500000920E-02 0. -1.
    10030    2    1    2    0    0  0.00000000000E+00  0.00000000000E+00 -0.10373235078E+04  0.38441200790E+04  0.37015157871E+04 0.  0.
        2    1    3    3  502    0 -0.56692456030E+03  0.81935115334E+02 -0.23463457983E+04  0.24152547330E+04  0.25500000920E-02 0. -1.
       -2    1    3    3    0  502  0.56692456030E+03 -0.81935115334E+02  0.13090222904E+04  0.14288653460E+04  0.25500000920E-02 0.  1.
</event>
<event>
 5   0  0.5714125E-09  0.3700144E+04  0.7818609E-02  0.8067930E-01
       -1   -1    0    0    0  501  0.00000000000E+00  0.00000000000E+00  0.16714706084E+04  0.16714706084E+04  0.50400001928E-02 0.  1.
        1   -1    0    0  501    0  0.00000000000E+00  0.00000000000E+00 -0.20477578713E+04  0.20477578713E+04  0.50400001928E-02 0. -1.
    10030    2    1    2    0    0  0.00000000000E+00  0.00000000000E+00 -0.37628726289E+03  0.37192284797E+04  0.37001443729E+04 0.  0.
        2    1    3    3  502    0  0.28409231051E+03 -0.17558148047E+04  0.32357247684E+03  0.18078421439E+04  0.25500000920E-02 0.  1.
       -2    1    3    3    0  502 -0.28409231051E+03  0.17558148047E+04 -0.69985973974E+03  0.19113863358E+04  0.25500000920E-02 0. -1.
</event>
<event>
 5   0  0.1825308E-08  0.3694381E+04  0.7818609E-02  0.8069208E-01
        2   -1    0    0  501    0  0.00000000000E+00  0.00000000000E+00  0.17019564833E+04  0.17019564833E+04  0.25500000920E-02 0.  1.
       -2   -1    0    0    0  501  0.00000000000E+00  0.00000000000E+00 -0.20048182925E+04  0.20048182925E+04  0.25500000920E-02 0. -1.
    10030    2    1    2    0    0  0.00000000000E+00  0.00000000000E+00 -0.30286180921E+03  0.37067747758E+04  0.36943814046E+04 0.  0.
        4    1    3    3  502    0 -0.64901677915E+03  0.92861816490E+03  0.13124210357E+04  0.17337834535E+04  0.12699999809E+01 0.  1.
       -4    1    3    3    0  502  0.64901677915E+03 -0.92861816490E+03 -0.16152828449E+04  0.19729913223E+04  0.12699999809E+01 0. -1.
</event>
<event>
 5   0  0.1740290E-08  0.3703689E+04  0.7818609E-02  0.8067145E-01
        2   -1    0    0  501    0  0.00000000000E+00  0.00000000000E+00  0.28155115366E+04  0.28155115366E+04  0.25500000920E-02 0.  1.
       -2   -1    0    0    0  501  0.00000000000E+00  0.00000000000E+00 -0.12180121141E+04  0.12180121141E+04  0.25500000920E-02 0. -1.
    10030    2    1    2    0    0  0.00000000000E+00  0.00000000000E+00  0.15974994225E+04  0.40335236507E+04  0.37036885177E+04 0.  0.
        5    1    3    3  502    0  0.10499373642E+04 -0.55334399898E+03  0.23468750753E+04  0.26299054658E+04  0.46999998093E+01 0.  1.
       -5    1    3    3    0  502 -0.10499373642E+04  0.55334399898E+03 -0.74937565282E+03  0.14036181849E+04  0.46999998093E+01 0. -1.
</event>
<event>
 5   0  0.1825308E-08  0.3700862E+04  0.7818609E-02  0.8067771E-01
        2   -1    0    0  501    0  0.00000000000E+00  0.00000000000E+00  0.19944019274E+04  0.19944019274E+04  0.25500000920E-02 0.  1.
       -2   -1    0    0    0  501  0.00000000000E+00  0.00000000000E+00 -0.17168525562E+04  0.17168525562E+04  0.25500000920E-02 0. -1.
    10030    2    1    2    0    0  0.00000000000E+00  0.00000000000E+00  0.27754937115E+03  0.37112544836E+04  0.37008615468E+04 0.  0.
        4    1    3    3  502    0 -0.61054601956E+03 -0.16966640017E+04 -0.27791266479E+03  0.18244649185E+04  0.12699999809E+01 0. -1.
       -4    1    3    3    0  502  0.61054601956E+03  0.16966640017E+04  0.55546203594E+03  0.18867895651E+04  0.12699999809E+01 0.  1.
</event>
<event>
 5   0  0.1856107E-08  0.3698275E+04  0.7818609E-02  0.8068344E-01
       -2   -1    0    0    0  501  0.00000000000E+00  0.00000000000E+00  0.17808855663E+04  0.17808855663E+04  0.25500000920E-02 0. -1.
        2   -1    0    0  501    0  0.00000000000E+00  0.00000000000E+00 -0.19200048081E+04  0.19200048081E+04  0.25500000920E-02 0.  1.
    10030    2    1    2    0    0  0.00000000000E+00  0.00000000000E+00 -0.13911924181E+03  0.37008903744E+04  0.36982746518E+04 0.  0.
        2    1    3    3  502    0 -0.44159857037E+03 -0.90323090890E+03  0.14834637601E+04  0.17920658748E+04  0.25500000920E-02 0. -1.
       -2    1    3    3    0  502  0.44159857037E+03  0.90323090890E+03 -0.16225830019E+04  0.19088244996E+04  0.25500000920E-02 0.  1.
</event>
<event>
 5   0  0.1740290E-08  0.3699595E+04  0.7818609E-02  0.8068052E-01
        2   -1    0    0  501    0  0.00000000000E+00  0.00000000000E+00  0.25149220023E+04  0.25149220023E+04  0.25500000920E-02 0.  1.
       -2   -1    0    0    0  501  0.00000000000E+00  0.00000000000E+00 -0.13605791595E+04  0.13605791595E+04  0.25500000920E-02 0. -1.
    10030    2    1    2    0    0  0.00000000000E+00  0.00000000000E+00  0.11543428428E+04  0.38755011618E+04  0.36995948233E+04 0.  0.
        5    1    3    3  502    0  0.13146343302E+04 -0.38362341569E+03  0.18797991217E+04  0.23257465845E+04  0.46999998093E+01 0.  1.
       -5    1    3    3    0  502 -0.13146343302E+04  0.38362341569E+03 -0.72545627897E+03  0.15497545773E+04  0.46999998093E+01 0. -1.
</event>
<event>
 5   0  0.5714125E-09  0.3700534E+04  0.7818609E-02  0.8067844E-01
        1   -1    0    0  501    0  0.00000000000E+00  0.00000000000E+00  0.33073478110E+04  0.33073478110E+04  0.50400001928E-02 0.  1.
       -1   -1    0    0    0  501  0.00000000000E+00  0.00000000000E+00 -0.10351157853E+04  0.10351157853E+04  0.50400001928E-02 0. -1.
    10030    2    1    2    0    0  0.00000000000E+00  0.00000000000E+00  0.22722320257E+04  0.43424635963E+04  0.37005339759E+04 0.  0.
        1    1    3    3  502    0 -0.13054941627E+04  0.92571331609E+03  0.46476622579E+02  0.16010684648E+04  0.50400001928E-02 0. -1.
       -1    1    3    3    0  502  0.13054941627E+04 -0.92571331609E+03  0.22257554032E+04  0.27413951315E+04  0.50400001928E-02 0.  1.
</event>
<event>
 5   0  0.1757996E-08  0.3698729E+04  0.7818609E-02  0.8068244E-01
       -2   -1    0    0    0  501  0.00000000000E+00  0.00000000000E+00  0.15714015102E+04  0.15714015102E+04  0.25500000920E-02 0.  1.
        2   -1    0    0  501    0  0.00000000000E+00  0.00000000000E+00 -0.21764956822E+04  0.21764956822E+04  0.25500000920E-02 0. -1.
    10030    2    1    2    0    0  0.00000000000E+00  0.00000000000E+00 -0.60509417195E+03  0.37478971924E+04  0.36987287556E+04 0.  0.
        3    1    3    3  502    0 -0.56027024075E+03 -0.90517141438E+03  0.12298092752E+04  0.16265512275E+04  0.10100000352E+00 0.  1.
       -3    1    3    3    0  502  0.56027024075E+03  0.90517141438E+03 -0.18349034472E+04  0.21213459649E+04  0.10100000352E+00 0. -1.
</event>
<event>
 5   0  0.5714125E-09  0.3700727E+04  0.7818609E-02  0.8067801E-01
       -1   -1    0    0    0  501  0.00000000000E+00  0.00000000000E+00  0.23909087426E+04  0.23909087427E+04  0.50400001928E-02 0. -1.
        1   -1    0    0  501    0  0.00000000000E+00  0.00000000000E+00 -0.14320264271E+04  0.14320264271E+04  0.50400001928E-02 0.  1.
    10030    2    1    2    0    0  0.00000000000E+00  0.00000000000E+00  0.95888231559E+03  0.38229351697E+04  0.37007266877E+04 0.  0.
        1    1    3    3  502    0  0.13223553391E+04 -0.12631361968E+04  0.18779224703E+03  0.18383151587E+04  0.50400001928E-02 0. -1.
       -1    1    3    3    0  502 -0.13223553391E+04  0.12631361968E+04  0.77109006856E+03  0.19846200111E+04  0.50400001928E-02 0.  1.
</event>
<event>
 5   0  0.1856107E-08  0.3699449E+04  0.7818609E-02  0.8068084E-01
       -2   -1    0    0    0  501  0.00000000000E+00  0.00000000000E+00  0.18141542843E+04  0.18141542843E+04  0.25500000920E-02 0.  1.
        2   -1    0    0  501    0  0.00000000000E+00  0.00000000000E+00 -0.18859924166E+04  0.18859924166E+04  0.25500000920E-02 0. -1.
    10030    2    1    2    0    0  0.00000000000E+00  0.00000000000E+00 -0.71838132244E+02  0.37001467009E+04  0.36994492686E+04 0.  0.
        2    1    3    3  502    0  0.25313885477E+02  0.12271669272E+04  0.13481415676E+04  0.18232018940E+04  0.25500000920E-02 0.  1.
       -2    1    3    3    0  502 -0.25313885477E+02 -0.12271669272E+04 -0.14199796998E+04  0.18769448069E+04  0.25500000920E-02 0. -1.
</event>
<event>
 5   0  0.1740290E-08  0.3700267E+04  0.7818609E-02  0.8067903E-01
       -2   -1    0    0    0  501  0.00000000000E+00  0.00000000000E+00  0.17227102605E+04  0.17227102605E+04  0.25500000920E-02 0. -1.
        2   -1    0    0  501    0  0.00000000000E+00  0.00000000000E+00 -0.19869822284E+04  0.19869822284E+04  0.25500000920E-02 0.  1.
    10030    2    1    2    0    0  0.00000000000E+00  0.00000000000E+00 -0.26427196790E+03  0.37096924889E+04  0.37002673807E+04 0.  0.
        5    1    3    3  502    0  0.10973483730E+04 -0.95826042416E+03  0.10111792959E+04  0.17733984749E+04  0.46999998093E+01 0. -1.
       -5    1    3    3    0  502 -0.10973483730E+04  0.95826042416E+03 -0.12754512638E+04  0.19362940140E+04  0.46999998093E+01 0.  1.
</event>
<event>
 5   0  0.5714125E-09  0.3698984E+04  0.7818609E-02  0.8068187E-01
        1   -1    0    0  501    0  0.00000000000E+00  0.00000000000E+00  0.27901201586E+04  0.27901201586E+04  0.50400001928E-02 0. -1.
       -1   -1    0    0    0  501  0.00000000000E+00  0.00000000000E+00 -0.12259759817E+04  0.12259759818E+04  0.50400001928E-02 0.  1.
    10030    2    1    2    0    0  0.00000000000E+00  0.00000000000E+00  0.15641441768E+04  0.40160961403E+04  0.36989838067E+04 0.  0.
        3    1    3    3  502    0 -0.74765222593E+03 -0.10002087445E+04  0.22632949227E+04  0.25849381619E+04  0.10100000352E+00 0. -1.
       -3    1    3    3    0  502  0.74765222593E+03  0.10002087445E+04 -0.69915074587E+03  0.14311579784E+04  0.10100000352E+00 0.  1.
</event>
<event>
 5   0  0.5714125E-09  0.3699377E+04  0.7818609E-02  0.8068100E-01
       -1   -1    0    0    0  501  0.00000000000E+00  0.00000000000E+00  0.14764378688E+04  0.14764378688E+04  0.50400001928E-02 0.  1.
        1   -1    0    0  501    0  0.00000000000E+00  0.00000000000E+00 -0.23172984808E+04  0.23172984808E+04  0.50400001928E-02 0. -1.
    10030    2    1    2    0    0  0.00000000000E+00  0.00000000000E+00 -0.84086061196E+03  0.37937363496E+04  0.36993768288E+04 0.  0.
        4    1    3    3  502    0  0.25776054820E+03  0.10850782753E+04  0.10928475539E+04  0.15614585337E+04  0.12699999809E+01 0.  1.
       -4    1    3    3    0  502 -0.25776054820E+03 -0.10850782753E+04 -0.19337081658E+04  0.22322778159E+04  0.12699999809E+01 0. -1.
</event>
<event>
 5   0  0.5714125E-09  0.3710239E+04  0.7818609E-02  0.8065697E-01
       -1   -1    0    0    0  501  0.00000000000E+00  0.00000000000E+00  0.13863065873E+04  0.13863065873E+04  0.50400001928E-02 0.  1.
        1   -1    0    0  501    0  0.00000000000E+00  0.00000000000E+00 -0.24824723342E+04  0.24824723342E+04  0.50400001928E-02 0. -1.
    10030    2    1    2    0    0  0.00000000000E+00  0.00000000000E+00 -0.10961657470E+04  0.38687789215E+04  0.37102386714E+04 0.  0.
        5    1    3    3  502    0 -0.97277736696E+03  0.28552583593E+03 -0.21680527902E+04  0.23933858443E+04  0.46999998093E+01 0. -1.
       -5    1    3    3    0  502  0.97277736696E+03 -0.28552583593E+03  0.10718870433E+04  0.14753930772E+04  0.46999998093E+01 0.  1.
</event>
<event>
 5   0  0.5714125E-09  0.3698338E+04  0.7818609E-02  0.8068330E-01
        3   -1    0    0  501    0  0.00000000000E+00  0.00000000000E+00  0.35875578281E+04  0.35875578295E+04  0.10100000352E+00 0.  1.
       -3   -1    0    0    0  501  0.00000000000E+00  0.00000000000E+00 -0.95313481256E+03  0.95313481791E+03  0.10100000352E+00 0. -1.
    10030    2    1    2    0    0  0.00000000000E+00  0.00000000000E+00  0.26344230155E+04  0.45406926474E+04  0.36983381529E+04 0.  0.
        3    1    3    3  502    0 -0.10734996042E+04 -0.14826880035E+04  0.16389262900E+04  0.24569990863E+04  0.10100000352E+00 0.  1.
       -3    1    3    3    0  502  0.10734996042E+04  0.14826880035E+04  0.99549672552E+03  0.20836935611E+04  0.10100000352E+00 0. -1.
</event>
<event>
 5   0  0.5714125E-09  0.3698568E+04  0.7818609E-02  0.8068279E-01
        1   -1    0    0  501    0  0.00000000000E+00  0.00000000000E+00  0.14964352944E+04  0.14964352944E+04  0.50400001928E-02 0.  1.
       -1   -1    0    0    0  501  0.00000000000E+00  0.00000000000E+00 -0.22853317875E+04  0.22853317875E+04  0.50400001928E-02 0. -1.
    10030    2    1    2    0    0  0.00000000000E+00  0.00000000000E+00 -0.78889649317E+03  0.37817670819E+04  0.36985679100E+04 0.  0.
        3    1    3    3  502    0 -0.68616934505E+03 -0.15831974215E+04  0.28572897240E+03  0.17489949975E+04  0.10100000352E+00 0.  1.
       -3    1    3    3    0  502  0.68616934505E+03  0.15831974215E+04 -0.10746254656E+04  0.20327720844E+04  0.10100000352E+00 0. -1.
</event>
<event>
 5   0  0.1740290E-08  0.3701008E+04  0.7818609E-02  0.8067738E-01
       -2   -1    0    0    0  501  0.00000000000E+00  0.00000000000E+00  0.19542625005E+04  0.19542625005E+04  0.25500000920E-02 0. -1.
        2   -1    0    0  501    0  0.00000000000E+00  0.00000000000E+00 -0.17522545254E+04  0.17522545254E+04  0.25500000920E-02 0.  1.
    10030    2    1    2    0    0  0.00000000000E+00  0.00000000000E+00  0.20200797515E+03  0.37065170259E+04  0.37010081385E+04 0.  0.
        5    1    3    3  502    0  0.64489670057E+03  0.15467505311E+04  0.88703800629E+03  0.18960979602E+04  0.46999998093E+01 0. -1.
       -5    1    3    3    0  502 -0.64489670057E+03 -0.15467505311E+04 -0.68503003114E+03  0.18104190657E+04  0.46999998093E+01 0.  1.
</event>
<event>
 5   0  0.5714125E-09  0.3699015E+04  0.7818609E-02  0.8068180E-01
       -3   -1    0    0    0  501  0.00000000000E+00  0.00000000000E+00  0.24618923534E+04  0.24618923554E+04  0.10100000352E+00 0. -1.
        3   -1    0    0  501    0  0.00000000000E+00  0.00000000000E+00 -0.13894506335E+04  0.13894506372E+04  0.10100000352E+00 0.  1.
    10030    2    1    2    0    0  0.00000000000E+00  0.00000000000E+00  0.10724417199E+04  0.38513429926E+04  0.36990149505E+04 0.  0.
        3    1    3    3  502    0  0.16364853833E+04  0.77136885548E+03  0.13623455975E+03  0.18142916487E+04  0.10100000352E+00 0.  1.
       -3    1    3    3    0  502 -0.16364853833E+04 -0.77136885548E+03  0.93620716011E+03  0.20370513439E+04  0.10100000352E+00 0. -1.
</event>
<event>
 5   0  0.1740290E-08  0.3698880E+04  0.7818609E-02  0.8068210E-01
       -2   -1    0    0    0  501  0.00000000000E+00  0.00000000000E+00  0.15159769556E+04  0.15159769556E+04  0.25500000920E-02 0.  1.
        2   -1    0    0  501    0  0.00000000000E+00  0.00000000000E+00 -0.22562532610E+04  0.22562532610E+04  0.25500000920E-02 0. -1.
    10030    2    1    2    0    0  0.00000000000E+00  0.00000000000E+00 -0.74027630537E+03  0.37722302166E+04  0.36988798032E+04 0.  0.
        5    1    3    3  502    0  0.83542073441E+03 -0.10523814909E+04 -0.16661541695E+04  0.21404500491E+04  0.46999998093E+01 0. -1.
       -5    1    3    3    0  502 -0.83542073441E+03  0.10523814909E+04  0.92587786416E+03  0.16317801675E+04  0.46999998093E+01 0.  1.
</event>
<event>
 5   0  0.5714125E-09  0.3698028E+04  0.7818609E-02  0.8068399E-01
        1   -1    0    0  501    0  0.00000000000E+00  0.00000000000E+00  0.23958132786E+04  0.23958132786E+04  0.50400001928E-02 0.  1.
       -1   -1    0    0    0  501  0.00000000000E+00  0.00000000000E+00 -0.14270116633E+04  0.14270116633E+04  0.50400001928E-02 0. -1.
    10030    2    1    2    0    0  0.00000000000E+00  0.00000000000E+00  0.96880161530E+03  0.38228249418E+04  0.36980283890E+04 0.  0.
        1    1    3    3  502    0 -0.46576785765E+03 -0.97774227777E+03 -0.10648176005E+04  0.15188009025E+04  0.50400001928E-02 0. -1.
       -1    1    3    3    0  502  0.46576785765E+03  0.97774227777E+03  0.20336192158E+04  0.23040240394E+04  0.50400001928E-02 0.  1.
</event>
<event>
 5   0  0.5714125E-09  0.3699139E+04  0.7818609E-02  0.8068153E-01
       -1   -1    0    0    0  501  0.00000000000E+00  0.00000000000E+00  0.16424863453E+04  0.16424863453E+04  0.50400001928E-02 0. -1.
        1   -1    0    0  501    0  0.00000000000E+00  0.00000000000E+00 -0.20827614670E+04  0.20827614670E+04  0.50400001928E-02 0.  1.
    10030    2    1    2    0    0  0.00000000000E+00  0.00000000000E+00 -0.44027512175E+03  0.37252478123E+04  0.36991389647E+04 0.  0.
        5    1    3    3  502    0  0.82835680528E+03  0.76696629245E+03  0.12552877363E+04  0.16882481102E+04  0.46999998093E+01 0. -1.
       -5    1    3    3    0  502 -0.82835680528E+03 -0.76696629245E+03 -0.16955628581E+04  0.20369997021E+04  0.46999998093E+01 0.  1.
</event>
<event>
 5   0  0.1757996E-08  0.3691838E+04  0.7818609E-02  0.8069773E-01
        2   -1    0    0  501    0  0.00000000000E+00  0.00000000000E+00  0.22180960732E+04  0.22180960732E+04  0.25500000920E-02 0.  1.
       -2   -1    0    0    0  501  0.00000000000E+00  0.00000000000E+00 -0.15361895741E+04  0.15361895741E+04  0.25500000920E-02 0. -1.
    10030    2    1    2    0    0  0.00000000000E+00  0.00000000000E+00  0.68190649913E+03  0.37542856472E+04  0.36918375164E+04 0.  0.
        3    1    3    3  502    0  0.30482350563E+03  0.16885209178E+04  0.10331997635E+04  0.20028784339E+04  0.10100000352E+00 0.  1.
       -3    1    3    3    0  502 -0.30482350563E+03 -0.16885209178E+04 -0.35129326436E+03  0.17514072134E+04  0.10100000352E+00 0. -1.
</event>
<event>
 5   0  0.1740290E-08  0.3698607E+04  0.7818609E-02  0.8068271E-01
       -2   -1    0    0    0  501  0.00000000000E+00  0.00000000000E+00  0.13170486876E+04  0.13170486876E+04  0.25500000920E-02 0. -1.
        2   -1    0    0  501    0  0.00000000000E+00  0.00000000000E+00 -0.25966565213E+04  0.25966565213E+04  0.25500000920E-02 0.  1.
    10030    2    1    2    0    0  0.00000000000E+00  0.00000000000E+00 -0.12796078338E+04  0.39137052089E+04  0.36986067991E+04 0.  0.
        5    1    3    3  502    0 -0.43423158330E+03  0.17884370175E+04 -0.83155211252E+03  0.20195457508E+04  0.46999998093E+01 0.  1.
       -5    1    3    3    0  502  0.43423158330E+03 -0.17884370175E+04 -0.44805572124E+03  0.18941594582E+04  0.46999998093E+01 0. -1.
</event>
<event>
 5   0  0.5714125E-09  0.3703242E+04  0.7818609E-02  0.8067244E-01
        3   -1    0    0  501    0  0.00000000000E+00  0.00000000000E+00  0.23107643641E+04  0.23107643663E+04  0.10100000352E+00 0. -1.
       -3   -1    0    0    0  501  0.00000000000E+00  0.00000000000E+00 -0.14837086106E+04  0.14837086141E+04  0.10100000352E+00 0.  1.
    10030    2    1    2    0    0  0.00000000000E+00  0.00000000000E+00  0.82705575350E+03  0.37944729804E+04  0.37032423604E+04 0.  0.
        5    1    3    3  502    0  0.16186180293E+04 -0.54620350191E+03  0.11454190335E+04  0.20567618829E+04  0.46999998093E+01 0. -1.
       -5    1    3    3    0  502 -0.16186180293E+04  0.54620350191E+03 -0.31836328003E+03  0.17377110975E+04  0.46999998093E+01 0.  1.
</event>
<event>
 5   0  0.1825308E-08  0.3702822E+04  0.7818609E-02  0.8067337E-01
        2   -1    0    0  501    0  0.00000000000E+00  0.00000000000E+00  0.22626205846E+04  0.22626205846E+04  0.25500000920E-02 0. -1.
       -2   -1    0    0    0  501  0.00000000000E+00  0.00000000000E+00 -0.15149351025E+04  0.15149351026E+04  0.25500000920E-02 0.  1.
    10030    2    1    2    0    0  0.00000000000E+00  0.00000000000E+00  0.74768548201E+03  0.37775556871E+04  0.37028223545E+04 0.  0.
        4    1    3    3  502    0  0.16880732966E+04 -0.49007906669E+03 -0.21922733955E+03  0.17713924426E+04  0.12699999809E+01 0. -1.
       -4    1    3    3    0  502 -0.16880732966E+04  0.49007906669E+03  0.96691282156E+03  0.20061632445E+04  0.12699999809E+01 0.  1.
</event>
<event>
 5   0  0.5714125E-09  0.3699477E+04  0.7818609E-02  0.8068078E-01
       -1   -1    0    0    0  501  0.00000000000E+00  0.00000000000E+00  0.14544196629E+04  0.14544196629E+04  0.50400001928E-02 0. -1.
        1   -1    0    0  501    0  0.00000000000E+00  0.00000000000E+00 -0.23525067259E+04  0.23525067259E+04  0.50400001928E-02 0.  1.
    10030    2    1    2    0    0  0.00000000000E+00  0.00000000000E+00 -0.89808706299E+03  0.38069263888E+04  0.36994767410E+04 0.  0.
        3    1    3    3  502    0 -0.14481849485E+04 -0.83240479942E+03 -0.12667258776E+04  0.20963615753E+04  0.10100000352E+00 0.  1.
       -3    1    3    3    0  502  0.14481849485E+04  0.83240479942E+03  0.36863881459E+03  0.17105648135E+04  0.10100000352E+00 0. -1.
</event>
<event>
 5   0  0.5714125E-09  0.3704980E+04  0.7818609E-02  0.8066859E-01
        1   -1    0    0  501    0  0.00000000000E+00  0.00000000000E+00  0.23048797044E+04  0.23048797044E+04  0.50400001928E-02 0.  1.
       -1   -1    0    0    0  501  0.00000000000E+00  0.00000000000E+00 -0.14888933409E+04  0.14888933409E+04  0.50400001928E-02 0. -1.
    10030    2    1    2    0    0  0.00000000000E+00  0.00000000000E+00  0.81598636352E+03  0.37937730453E+04  0.37049804552E+04 0.  0.
        4    1    3    3  502    0  0.12836480379E+04  0.66115678131E+03  0.15963396576E+04  0.21524828664E+04  0.12699999809E+01 0.  1.
       -4    1    3    3    0  502 -0.12836480379E+04 -0.66115678131E+03 -0.78035329410E+03  0.16412901789E+04  0.12699999809E+01 0. -1.
</event>
<event>
 5   0  0.5714125E-09  0.3704038E+04  0.7818609E-02  0.8067068E-01
       -1   -1    0    0    0  501  0.00000000000E+00  0.00000000000E+00  0.12835435452E+04  0.12835435452E+04  0.50400001928E-02 0. -1.
        1   -1    0    0  501    0  0.00000000000E+00  0.00000000000E+00 -0.26722696027E+04  0.26722696027E+04  0.50400001928E-02 0.  1.
    10030    2    1    2    0    0  0.00000000000E+00  0.00000000000E+00 -0.13887260575E+04  0.39558131479E+04  0.37040380126E+04 0.  0.
        4    1    3    3  502    0  0.18202930575E+04  0.29003999501E+03 -0.88654708317E+03  0.20453746252E+04  0.12699999809E+01 0. -1.
       -4    1    3    3    0  502 -0.18202930575E+04 -0.29003999501E+03 -0.50217897433E+03  0.19104385227E+04  0.12699999809E+01 0.  1.
</event>
<event>
 5   0  0.5714125E-09  0.3699574E+04  0.7818609E-02  0.8068056E-01
       -1   -1    0    0    0  501  0.00000000000E+00  0.00000000000E+00  0.15667110526E+04  0.15667110526E+04  0.50400001928E-02 0.  1.
        1   -1    0    0  501    0  0.00000000000E+00  0.00000000000E+00 -0.21840097246E+04  0.21840097246E+04  0.50400001928E-02 0. -1.
    10030    2    1    2    0    0  0.00000000000E+00  0.00000000000E+00 -0.61729867197E+03  0.37507207773E+04  0.36995741240E+04 0.  0.
        4    1    3    3  502    0  0.16773840037E+03  0.85154393866E+03  0.13474726286E+04  0.16027936075E+04  0.12699999809E+01 0.  1.
       -4    1    3    3    0  502 -0.16773840037E+03 -0.85154393866E+03 -0.19647713006E+04  0.21479271698E+04  0.12699999809E+01 0. -1.
</event>
<event>
 5   0  0.5714125E-09  0.3698621E+04  0.7818609E-02  0.8068267E-01
       -1   -1    0    0    0  501  0.00000000000E+00  0.00000000000E+00  0.16222977829E+04  0.16222977829E+04  0.50400001928E-02 0.  1.
        1   -1    0    0  501    0  0.00000000000E+00  0.00000000000E+00 -0.21080899278E+04  0.21080899278E+04  0.50400001928E-02 0. -1.
    10030    2    1    2    0    0  0.00000000000E+00  0.00000000000E+00 -0.48579214492E+03  0.37303877107E+04  0.36986211571E+04 0.  0.
        1    1    3    3  502    0  0.16107671678E+04 -0.75436793898E+03 -0.75351275472E+03  0.19316892420E+04  0.50400001928E-02 0. -1.
       -1    1    3    3    0  502 -0.16107671678E+04  0.75436793898E+03  0.26772060981E+03  0.17986984687E+04  0.50400001928E-02 0.  1.
</event>
<event>
 5   0  0.5714125E-09  0.3688930E+04  0.7818609E-02  0.8070419E-01
        1   -1    0    0  501    0  0.00000000000E+00  0.00000000000E+00  0.18484337062E+04  0.18484337062E+04  0.50400001928E-02 0. -1.
       -1   -1    0    0    0  501  0.00000000000E+00  0.00000000000E+00 -0.18405050407E+04  0.18405050407E+04  0.50400001928E-02 0.  1.
    10030    2    1    2    0    0  0.00000000000E+00  0.00000000000E+00  0.79286654891E+01  0.36889387469E+04  0.36889302263E+04 0.  0.
        5    1    3    3  502    0  0.13514441482E+04 -0.47299302783E+03 -0.11587531819E+04  0.18419703354E+04  0.46999998093E+01 0.  1.
       -5    1    3    3    0  502 -0.13514441482E+04  0.47299302783E+03  0.11666818474E+04  0.18469684115E+04  0.46999998093E+01 0. -1.
</event>
<event>
 5   0  0.1825308E-08  0.3700604E+04  0.7818609E-02  0.8067828E-01
        2   -1    0    0  501    0  0.00000000000E+00  0.00000000000E+00  0.20891716135E+04  0.20891716135E+04  0.25500000920E-02 0.  1.
       -2   -1    0    0    0  501  0.00000000000E+00  0.00000000000E+00 -0.16387440673E+04  0.16387440673E+04  0.25500000920E-02 0. -1.
    10030    2    1    2    0    0  0.00000000000E+00  0.00000000000E+00  0.45042754624E+03  0.37279156808E+04  0.37006040519E+04 0.  0.
        4    1    3    3  502    0 -0.35386218404E+03  0.13284547540E+04 -0.10223141895E+04  0.17132245602E+04  0.12699999809E+01 0. -1.
       -4    1    3    3    0  502  0.35386218404E+03 -0.13284547540E+04  0.14727417357E+04  0.20146911207E+04  0.12699999809E+01 0.  1.
</event>
<event>
 5   0  0.5714125E-09  0.3699149E+04  0.7818609E-02  0.8068151E-01
        1   -1    0    0  501    0  0.00000000000E+00  0.00000000000E+00  0.95755539359E+03  0.95755539361E+03  0.50400001928E-02 0. -1.
       -1   -1    0    0    0  501  0.00000000000E+00  0.00000000000E+00 -0.35725608900E+04  0.35725608900E+04  0.50400001928E-02 0.  1.
    10030    2    1    2    0    0  0.00000000000E+00  0.00000000000E+00 -0.26150054964E+04  0.45301162836E+04  0.36991485232E+04 0.  0.
        5    1    3    3  502    0  0.76190487995E+03 -0.65806393345E+03  0.59260273374E+03  0.11682239839E+04  0.46999998093E+01 0. -1.
       -5    1    3    3    0  502 -0.76190487995E+03  0.65806393345E+03 -0.32076082301E+04  0.33618922997E+04  0.46999998093E+01 0.  1.
</event>
<event>
 5   0  0.1825308E-08  0.3683819E+04  0.7818609E-02  0.8071557E-01
       -2   -1    0    0    0  501  0.00000000000E+00  0.00000000000E+00  0.22766648307E+04  0.22766648307E+04  0.25500000920E-02 0.  1.
        2   -1    0    0  501    0  0.00000000000E+00  0.00000000000E+00 -0.14901754840E+04  0.14901754840E+04  0.25500000920E-02 0. -1.
    10030    2    1    2    0    0  0.00000000000E+00  0.00000000000E+00  0.78648934669E+03  0.37668403147E+04  0.36838187339E+04 0.  0.
        4    1    3    3  502    0 -0.68550512512E+03 -0.28936080156E+02 -0.13546276051E+04  0.15184769128E+04  0.12699999809E+01 0. -1.
       -4    1    3    3    0  502  0.68550512512E+03  0.28936080156E+02  0.21411169518E+04  0.22483634020E+04  0.12699999809E+01 0.  1.
</event>
<event>
 5   0  0.5714125E-09  0.3697921E+04  0.7818609E-02  0.8068423E-01
        1   -1    0    0  501    0  0.00000000000E+00  0.00000000000E+00  0.13247139894E+04  0.13247139894E+04  0.50400001928E-02 0.  1.
       -1   -1    0    0    0  501  0.00000000000E+00  0.00000000000E+00 -0.25806738638E+04  0.25806738638E+04  0.50400001928E-02 0. -1.
    10030    2    1    2    0    0  0.00000000000E+00  0.00000000000E+00 -0.12559598745E+04  0.39053878532E+04  0.36979209129E+04 0.  0.
        1    1    3    3  502    0 -0.60034206739E+03  0.17088185200E+04 -0.23539417199E+03  0.18264396372E+04  0.50400001928E-02 0. -1.
       -1    1    3    3    0  502  0.60034206739E+03 -0.17088185200E+04 -0.10205657025E+04  0.20789482161E+04  0.50400001928E-02 0.  1.
</event>
<event>
 5   0  0.1725865E-08  0.3696716E+04  0.7818609E-02  0.8068690E-01
        2   -1    0    0  501    0  0.00000000000E+00  0.00000000000E+00  0.26395090228E+04  0.26395090228E+04  0.25500000920E-02 0.  1.
       -2   -1    0    0    0  501  0.00000000000E+00  0.00000000000E+00 -0.12943419647E+04  0.12943419647E+04  0.25500000920E-02 0. -1.
    10030    2    1    2    0    0  0.00000000000E+00  0.00000000000E+00  0.13451670581E+04  0.39338509875E+04  0.36967159991E+04 0.  0.
        1    1    3    3  502    0  0.13298872168E+04  0.51447679413E+03 -0.57892851059E+03  0.15389751789E+04  0.50400001928E-02 0. -1.
       -1    1    3    3    0  502 -0.13298872168E+04 -0.51447679413E+03  0.19240955687E+04  0.23948758085E+04  0.50400001928E-02 0.  1.
</event>
<event>
 5   0  0.5714125E-09  0.3700250E+04  0.7818609E-02  0.8067906E-01
       -1   -1    0    0    0  501  0.00000000000E+00  0.00000000000E+00  0.17887447234E+04  0.17887447234E+04  0.50400001928E-02 0.  1.
        1   -1    0    0  501    0  0.00000000000E+00  0.00000000000E+00 -0.19136119502E+04  0.19136119502E+04  0.50400001928E-02 0. -1.
    10030    2    1    2    0    0  0.00000000000E+00  0.00000000000E+00 -0.12486722685E+03  0.37023566736E+04  0.37002504124E+04 0.  0.
        3    1    3    3  502    0 -0.13910822889E+04 -0.10092982672E+04  0.62291638264E+03  0.18280639367E+04  0.10100000352E+00 0. -1.
       -3    1    3    3    0  502  0.13910822889E+04  0.10092982672E+04 -0.74778360949E+03  0.18742927369E+04  0.10100000352E+00 0.  1.
</event>
<event>
 5   0  0.1856107E-08  0.3699554E+04  0.7818609E-02  0.8068061E-01
        2   -1    0    0  501    0  0.00000000000E+00  0.00000000000E+00  0.26147198548E+04  0.26147198548E+04  0.25500000920E-02 0. -1.
       -2   -1    0    0    0  501  0.00000000000E+00  0.00000000000E+00 -0.13086197844E+04  0.13086197844E+04  0.25500000920E-02 0.  1.
    10030    2    1    2    0    0  0.00000000000E+00  0.00000000000E+00  0.13061000704E+04  0.39233396392E+04  0.36995535582E+04 0.  0.
        2    1    3    3  502    0  0.27692663043E+03  0.97076811781E+03  0.22968420820E+04  0.25088966991E+04  0.25500000920E-02 0. -1.
       -2    1    3    3    0  502 -0.27692663043E+03 -0.97076811781E+03 -0.99074201157E+03  0.14144429401E+04  0.25500000920E-02 0.  1.
</event>
<event>
 5   0  0.5714125E-09  0.3693637E+04  0.7818609E-02  0.8069373E-01
       -1   -1    0    0    0  501  0.00000000000E+00  0.00000000000E+00  0.27247452947E+04  0.27247452947E+04  0.50400001928E-02 0.  1.
        1   -1    0    0  501    0  0.00000000000E+00  0.00000000000E+00 -0.12517642885E+04  0.12517642885E+04  0.50400001928E-02 0. -1.
    10030    2    1    2    0    0  0.00000000000E+00  0.00000000000E+00  0.14729810062E+04  0.39765095832E+04  0.36936371534E+04 0.  0.
        1    1    3    3  502    0  0.18062800235E+03  0.92105381034E+03  0.24488246458E+04  0.26225386065E+04  0.50400001928E-02 0.  1.
       -1    1    3    3    0  502 -0.18062800235E+03 -0.92105381034E+03 -0.97584363960E+03  0.13539709767E+04  0.50400001928E-02 0. -1.
</event>
<event>
 5   0  0.5714125E-09  0.3700872E+04  0.7818609E-02  0.8067769E-01
        1   -1    0    0  501    0  0.00000000000E+00  0.00000000000E+00  0.11595585682E+04  0.11595585682E+04  0.50400001928E-02 0. -1.
       -1   -1    0    0    0  501  0.00000000000E+00  0.00000000000E+00 -0.29529455814E+04  0.29529455814E+04  0.50400001928E-02 0.  1.
    10030    2    1    2    0    0  0.00000000000E+00  0.00000000000E+00 -0.17933870132E+04  0.41125041496E+04  0.37008719785E+04 0.  0.
        3    1    3    3  502    0 -0.15688321951E+04  0.59847293803E+03 -0.32570610324E+02  0.16794240587E+04  0.10100000352E+00 0. -1.
       -3    1    3    3    0  502  0.15688321951E+04 -0.59847293803E+03 -0.17608164028E+04  0.24330800909E+04  0.10100000352E+00 0.  1.
</event>
<event>
 5   0  0.5714125E-09  0.3701728E+04  0.7818609E-02  0.8067579E-01
       -1   -1    0    0    0  501  0.00000000000E+00  0.00000000000E+00  0.16759229583E+04  0.16759229583E+04  0.50400001928E-02 0.  1.
        1   -1    0    0  501    0  0.00000000000E+00  0.00000000000E+00 -0.20440667085E+04  0.20440667085E+04  0.50400001928E-02 0. -1.
    10030    2    1    2    0    0  0.00000000000E+00  0.00000000000E+00 -0.36814375027E+03  0.37199896668E+04  0.37017284207E+04 0.  0.
        1    1    3    3  502    0  0.45947334373E+03  0.12678723892E+04  0.10898893869E+04  0.17339189787E+04  0.50400001928E-02 0.  1.
       -1    1    3    3    0  502 -0.45947334373E+03 -0.12678723892E+04 -0.14580331372E+04  0.19860706881E+04  0.50400001928E-02 0. -1.
</event>
<event>
 5   0  0.1740290E-08  0.3700839E+04  0.7818609E-02  0.8067776E-01
       -2   -1    0    0    0  501  0.00000000000E+00  0.00000000000E+00  0.17597986909E+04  0.17597986909E+04  0.25500000920E-02 0.  1.
        2   -1    0    0  501    0  0.00000000000E+00  0.00000000000E+00 -0.19457071523E+04  0.19457071523E+04  0.25500000920E-02 0. -1.
    10030    2    1    2    0    0  0.00000000000E+00  0.00000000000E+00 -0.18590846135E+03  0.37055058432E+04  0.37008393099E+04 0.  0.
        5    1    3    3  502    0  0.17579100979E+04  0.11192011096E+03 -0.66046411363E+03  0.18812253876E+04  0.46999998093E+01 0.  1.
       -5    1    3    3    0  502 -0.17579100979E+04 -0.11192011096E+03  0.47455565229E+03  0.18242804556E+04  0.46999998093E+01 0. -1.
</event>
<event>
 5   0  0.1757996E-08  0.3699916E+04  0.7818609E-02  0.8067980E-01
       -2   -1    0    0    0  501  0.00000000000E+00  0.00000000000E+00  0.18927448871E+04  0.18927448871E+04  0.25500000920E-02 0.  1.
        2   -1    0    0  501    0  0.00000000000E+00  0.00000000000E+00 -0.18081384327E+04  0.18081384327E+04  0.25500000920E-02 0. -1.
    10030    2    1    2    0    0  0.00000000000E+00  0.00000000000E+00  0.84606454402E+02  0.37008833199E+04  0.36999160930E+04 0.  0.
        3    1    3    3  502    0 -0.38237855847E+03 -0.97215116218E+03  0.15694811606E+04  0.18853547061E+04  0.10100000352E+00 0.  1.
       -3    1    3    3    0  502  0.38237855847E+03  0.97215116218E+03 -0.14848747062E+04  0.18155286138E+04  0.10100000352E+00 0. -1.
</event>
<event>
 5   0  0.1725865E-08  0.3699227E+04  0.7818609E-02  0.8068133E-01
       -2   -1    0    0    0  501  0.00000000000E+00  0.00000000000E+00  0.22258545485E+04  0.22258545485E+04  0.25500000920E-02 0. -1.
        2   -1    0    0  501    0  0.00000000000E+00  0.00000000000E+00 -0.15369693406E+04  0.15369693406E+04  0.25500000920E-02 0.  1.
    10030    2    1    2    0    0  0.00000000000E+00  0.00000000000E+00  0.68888520790E+03  0.37628238891E+04  0.36992270531E+04 0.  0.
        1    1    3    3  502    0  0.97524796274E+03 -0.13518582777E+04 -0.47086118976E+03  0.17321488538E+04  0.50400001928E-02 0.  1.
       -1    1    3    3    0  502 -0.97524796274E+03  0.13518582777E+04  0.11597463977E+04  0.20306750352E+04  0.50400001928E-02 0. -1.
</event>
<event>
 5   0  0.5714125E-09  0.3699854E+04  0.7818609E-02  0.8067994E-01
        1   -1    0    0  501    0  0.00000000000E+00  0.00000000000E+00  0.12079348949E+04  0.12079348949E+04  0.50400001928E-02 0.  1.
       -1   -1    0    0    0  501  0.00000000000E+00  0.00000000000E+00 -0.28331240930E+04  0.28331240930E+04  0.50400001928E-02 0. -1.
    10030    2    1    2    0    0  0.00000000000E+00  0.00000000000E+00 -0.16251891981E+04  0.40410589879E+04  0.36998537558E+04 0.  0.
        2    1    3    3  502    0  0.27346874122E+03  0.13123138140E+03 -0.28057780170E+04  0.28221263453E+04  0.25500000920E-02 0. -1.
       -2    1    3    3    0  502 -0.27346874122E+03 -0.13123138140E+03  0.11805888189E+04  0.12189326426E+04  0.25500000920E-02 0.  1.
</event>
<event>
 5   0  0.5714125E-09  0.3700054E+04  0.7818609E-02  0.8067950E-01
        1   -1    0    0  501    0  0.00000000000E+00  0.00000000000E+00  0.23055408626E+04  0.23055408626E+04  0.50400001928E-02 0.  1.
       -1   -1    0    0    0  501  0.00000000000E+00  0.00000000000E+00 -0.14845106651E+04  0.14845106651E+04  0.50400001928E-02 0. -1.
    10030    2    1    2    0    0  0.00000000000E+00  0.00000000000E+00  0.82103019744E+03  0.37900515277E+04  0.37000540533E+04 0.  0.
        1    1    3    3  502    0 -0.11703795937E+04 -0.14072542547E+04  0.13480831316E+03  0.18353000332E+04  0.50400001928E-02 0.  1.
       -1    1    3    3    0  502  0.11703795937E+04  0.14072542547E+04  0.68622188428E+03  0.19547514945E+04  0.50400001928E-02 0. -1.
</event>
<event>
 5   0  0.1740290E-08  0.3702366E+04  0.7818609E-02  0.8067438E-01
        2   -1    0    0  501    0  0.00000000000E+00  0.00000000000E+00  0.17885472943E+04  0.17885472943E+04  0.25500000920E-02 0.  1.
       -2   -1    0    0    0  501  0.00000000000E+00  0.00000000000E+00 -0.19160117907E+04  0.19160117908E+04  0.25500000920E-02 0. -1.
    10030    2    1    2    0    0  0.00000000000E+00  0.00000000000E+00 -0.12746449642E+03  0.37045590851E+04  0.37023655704E+04 0.  0.
        5    1    3    3  502    0 -0.32772399319E+03  0.18203920718E+04  0.11314211842E+02  0.18496973839E+04  0.46999998093E+01 0. -1.
       -5    1    3    3    0  502  0.32772399319E+03 -0.18203920718E+04 -0.13877870826E+03  0.18548617012E+04  0.46999998093E+01 0.  1.
</event>
<event>
 5   0  0.5714125E-09  0.3698675E+04  0.7818609E-02  0.8068256E-01
       -1   -1    0    0    0  501  0.00000000000E+00  0.00000000000E+00  0.15348144504E+04  0.15348144504E+04  0.50400001928E-02 0.  1.
        1   -1    0    0  501    0  0.00000000000E+00  0.00000000000E+00 -0.22283145486E+04  0.22283145486E+04  0.50400001928E-02 0. -1.
    10030    2    1    2    0    0  0.00000000000E+00  0.00000000000E+00 -0.69350009813E+03  0.37631289990E+04  0.36986750975E+04 0.  0.
        5    1    3    3  502    0  0.12768684716E+04 -0.67343311674E+03  0.82930048627E+03  0.16648323168E+04  0.46999998093E+01 0.  1.
       -5    1    3    3    0  502 -0.12768684716E+04  0.67343311674E+03 -0.15228005844E+04  0.20982966822E+04  0.46999998093E+01 0. -1.
</event>
<event>
 5   0  0.5714125E-09  0.3698002E+04  0.7818609E-02  0.8068405E-01
       -1   -1    0    0    0  501  0.00000000000E+00  0.00000000000E+00  0.15346431249E+04  0.15346431250E+04  0.50400001928E-02 0. -1.
        1   -1    0    0  501    0  0.00000000000E+00  0.00000000000E+00 -0.22277517999E+04  0.22277517999E+04  0.50400001928E-02 0.  1.
    10030    2    1    2    0    0  0.00000000000E+00  0.00000000000E+00 -0.69310867497E+03  0.37623949249E+04  0.36980016138E+04 0.  0.
        4    1    3    3  502    0 -0.40620632126E+03  0.15701484011E+04  0.55684470014E+03  0.17147732240E+04  0.12699999809E+01 0. -1.
       -4    1    3    3    0  502  0.40620632126E+03 -0.15701484011E+04 -0.12499533751E+04  0.20476217008E+04  0.12699999809E+01 0.  1.
</event>
<event>
 5   0  0.1757996E-08  0.3700146E+04  0.7818609E-02  0.8067929E-01
       -2   -1    0    0    0  501  0.00000000000E+00  0.00000000000E+00  0.17577630985E+04  0.17577630985E+04  0.25500000920E-02 0.  1.
        2   -1    0    0  501    0  0.00000000000E+00  0.00000000000E+00 -0.19472305343E+04  0.19472305344E+04  0.25500000920E-02 0. -1.
    10030    2    1    2    0    0  0.00000000000E+00  0.00000000000E+00 -0.18946743586E+03  0.37049936328E+04  0.37001459309E+04 0.  0.
        3    1    3    3  502    0  0.11818849291E+04 -0.11311482198E+04  0.77035517849E+03  0.18082575569E+04  0.10100000352E+00 0. -1.
       -3    1    3    3    0  502 -0.11818849291E+04  0.11311482198E+04 -0.95982261435E+03  0.18967360760E+04  0.10100000352E+00 0.  1.
</event>
<event>
 5   0  0.5714125E-09  0.3699636E+04  0.7818609E-02  0.8068042E-01
        3   -1    0    0  501    0  0.00000000000E+00  0.00000000000E+00  0.20281154206E+04  0.20281154231E+04  0.10100000352E+00 0.  1.
       -3   -1    0    0    0  501  0.00000000000E+00  0.00000000000E+00 -0.16871952387E+04  0.16871952417E+04  0.10100000352E+00 0. -1.
    10030    2    1    2    0    0  0.00000000000E+00  0.00000000000E+00  0.34092018186E+03  0.37153106648E+04  0.36996360315E+04 0.  0.
        4    1    3    3  502    0 -0.14474595683E+04  0.10968285653E+04 -0.18267300244E+03  0.18252515285E+04  0.12699999809E+01 0.  1.
       -4    1    3    3    0  502  0.14474595683E+04 -0.10968285653E+04  0.52359318430E+03  0.18900591364E+04  0.12699999809E+01 0. -1.
</event>
<event>
 5   0  0.1740290E-08  0.3698762E+04  0.7818609E-02  0.8068236E-01
       -2   -1    0    0    0  501  0.00000000000E+00  0.00000000000E+00  0.11764961704E+04  0.11764961704E+04  0.25500000920E-02 0.  1.
        2   -1    0    0  501    0  0.00000000000E+00  0.00000000000E+00 -0.29071150547E+04  0.29071150547E+04  0.25500000920E-02 0. -1.
    10030    2    1    2    0    0  0.00000000000E+00  0.00000000000E+00 -0.17306188843E+04  0.40836112251E+04  0.36987618083E+04 0.  0.
        5    1    3    3  502    0  0.17189863072E+04 -0.40819617053E+02 -0.11357709521E+03  0.17232243070E+04  0.46999998093E+01 0.  1.
       -5    1    3    3    0  502 -0.17189863072E+04  0.40819617053E+02 -0.16170417891E+04  0.23603869181E+04  0.46999998093E+01 0. -1.
</event>
<event>
 5   0  0.1825308E-08  0.3698314E+04  0.7818609E-02  0.8068336E-01
        2   -1    0    0  501    0  0.00000000000E+00  0.00000000000E+00  0.12328036216E+04  0.12328036216E+04  0.25500000920E-02 0. -1.
       -2   -1    0    0    0  501  0.00000000000E+00  0.00000000000E+00 -0.27736631481E+04  0.27736631481E+04  0.25500000920E-02 0.  1.
    10030    2    1    2    0    0  0.00000000000E+00  0.00000000000E+00 -0.15408595266E+04  0.40064667697E+04  0.36983141965E+04 0.  0.
        4    1    3    3  502    0  0.11771453321E+04 -0.86735413950E+03 -0.19967421674E+04  0.24748646897E+04  0.12699999809E+01 0.  1.
       -4    1    3    3    0  502 -0.11771453321E+04  0.86735413950E+03  0.45588264088E+03  0.15316020800E+04  0.12699999809E+01 0. -1.
</event>
<event>
 5   0  0.1725865E-08  0.3700825E+04  0.7818609E-02  0.8067779E-01
        2   -1    0    0  501    0  0.00000000000E+00  0.00000000000E+00  0.19059495872E+04  0.19059495872E+04  0.25500000920E-02 0. -1.
       -2   -1    0    0    0  501  0.00000000000E+00  0.00000000000E+00 -0.17964934906E+04  0.17964934906E+04  0.25500000920E-02 0.  1.
    10030    2    1    2    0    0  0.00000000000E+00  0.00000000000E+00  0.10945609652E+03  0.37024430778E+04  0.37008247874E+04 0.  0.
        1    1    3    3  502    0  0.91799241766E+03 -0.88634953958E+03 -0.12858953987E+04  0.18115884085E+04  0.50400001928E-02 0. -1.
       -1    1    3    3    0  502 -0.91799241766E+03  0.88634953958E+03  0.13953514952E+04  0.18908546693E+04  0.50400001928E-02 0.  1.
</event>
<event>
 5   0  0.1725865E-08  0.3707314E+04  0.7818609E-02  0.8066343E-01
       -2   -1    0    0    0  501  0.00000000000E+00  0.00000000000E+00  0.20093097070E+04  0.20093097070E+04  0.25500000920E-02 0.  1.
        2   -1    0    0  501    0  0.00000000000E+00  0.00000000000E+00 -0.17100619352E+04  0.17100619352E+04  0.25500000920E-02 0. -1.
    10030    2    1    2    0    0  0.00000000000E+00  0.00000000000E+00  0.29924777187E+03  0.37193716422E+04  0.37073138772E+04 0.  0.
        1    1    3    3  502    0 -0.46232069294E+03  0.59462107766E+03  0.18488650121E+04  0.19964008821E+04  0.50400001928E-02 0.  1.
       -1    1    3    3    0  502  0.46232069294E+03 -0.59462107766E+03 -0.15496172402E+04  0.17229707601E+04  0.50400001928E-02 0. -1.
</event>
<event>
 5   0  0.5714125E-09  0.3703468E+04  0.7818609E-02  0.8067194E-01
        1   -1    0    0  501    0  0.00000000000E+00  0.00000000000E+00  0.16006665440E+04  0.16006665440E+04  0.50400001928E-02 0. -1.
       -1   -1    0    0    0  501  0.00000000000E+00  0.00000000000E+00 -0.21421815058E+04  0.21421815059E+04  0.50400001928E-02 0.  1.
    10030    2    1    2    0    0  0.00000000000E+00  0.00000000000E+00 -0.54151496187E+03  0.37428480498E+04  0.37034677088E+04 0.  0.
        2    1    3    3  502    0 -0.14423582599E+03  0.13603871954E+04  0.99049554246E+03  0.16889460366E+04  0.25500000920E-02 0. -1.
       -2    1    3    3    0  502  0.14423582599E+03 -0.13603871954E+04 -0.15320105043E+04  0.20539020133E+04  0.25500000920E-02 0.  1.
</event>
<event>
 5   0  0.1725865E-08  0.3700362E+04  0.7818609E-02  0.8067882E-01
        2   -1    0    0  501    0  0.00000000000E+00  0.00000000000E+00  0.23494641150E+04  0.23494641150E+04  0.25500000920E-02 0. -1.
       -2   -1    0    0    0  501  0.00000000000E+00  0.00000000000E+00 -0.14570001356E+04  0.14570001356E+04  0.25500000920E-02 0.  1.
    10030    2    1    2    0    0  0.00000000000E+00  0.00000000000E+00  0.89246397943E+03  0.38064642506E+04  0.37003618926E+04 0.  0.
        1    1    3    3  502    0 -0.33127703757E+03  0.16247107490E+04  0.12905843753E+04  0.21011990680E+04  0.50400001928E-02 0. -1.
       -1    1    3    3    0  502  0.33127703757E+03 -0.16247107490E+04 -0.39812039587E+03  0.17052651826E+04  0.50400001928E-02 0.  1.
</event>
<event>
 5   0  0.5714125E-09  0.3677333E+04  0.7818609E-02  0.8073004E-01
       -1   -1    0    0    0  501  0.00000000000E+00  0.00000000000E+00  0.14312272482E+04  0.14312272482E+04  0.50400001928E-02 0.  1.
        1   -1    0    0  501    0  0.00000000000E+00  0.00000000000E+00 -0.23620944229E+04  0.23620944229E+04  0.50400001928E-02 0. -1.
    10030    2    1    2    0    0  0.00000000000E+00  0.00000000000E+00 -0.93086717465E+03  0.37933216711E+04  0.36773326751E+04 0.  0.
        5    1    3    3  502    0  0.36960883414E+03 -0.29550127662E+03 -0.22981959856E+04  0.23464139816E+04  0.46999998093E+01 0. -1.
       -5    1    3    3    0  502 -0.36960883414E+03  0.29550127662E+03  0.13673288109E+04  0.14469076895E+04  0.46999998093E+01 0.  1.
</event>
<event>
 5   0  0.5714125E-09  0.3701659E+04  0.7818609E-02  0.8067594E-01
       -1   -1    0    0    0  501  0.00000000000E+00  0.00000000000E+00  0.13890825405E+04  0.13890825405E+04  0.50400001928E-02 0. -1.
        1   -1    0    0  501    0  0.00000000000E+00  0.00000000000E+00 -0.24660665927E+04  0.24660665927E+04  0.50400001928E-02 0.  1.
    10030    2    1    2    0    0  0.00000000000E+00  0.00000000000E+00 -0.10769840521E+04  0.38551491332E+04  0.37016591133E+04 0.  0.
        3    1    3    3  502    0 -0.11639102378E+04  0.13964427582E+04 -0.17647144514E+03  0.18264395965E+04  0.10100000352E+00 0. -1.
       -3    1    3    3    0  502  0.11639102378E+04 -0.13964427582E+04 -0.90051260698E+03  0.20287095367E+04  0.10100000352E+00 0.  1.
</event>
<event>
 5   0  0.1825308E-08  0.3696211E+04  0.7818609E-02  0.8068802E-01
       -2   -1    0    0    0  501  0.00000000000E+00  0.00000000000E+00  0.14632378334E+04  0.14632378334E+04  0.25500000920E-02 0. -1.
        2   -1    0    0  501    0  0.00000000000E+00  0.00000000000E+00 -0.23342031956E+04  0.23342031956E+04  0.25500000920E-02 0.  1.
    10030    2    1    2    0    0  0.00000000000E+00  0.00000000000E+00 -0.87096536225E+03  0.37974410290E+04  0.36962112638E+04 0.  0.
        4    1    3    3  502    0  0.65309424066E+03 -0.16138374953E+04 -0.10725368494E+04  0.20448326227E+04  0.12699999809E+01 0.  1.
       -4    1    3    3    0  502 -0.65309424066E+03  0.16138374953E+04  0.20157148719E+03  0.17526084063E+04  0.12699999809E+01 0. -1.
</event>
<event>
 5   0  0.5714125E-09  0.3700655E+04  0.7818609E-02  0.8067817E-01
       -1   -1    0    0    0  501  0.00000000000E+00  0.00000000000E+00  0.14161869103E+04  0.14161869103E+04  0.50400001928E-02 0. -1.
        1   -1    0    0  501    0  0.00000000000E+00  0.00000000000E+00 -0.24175564840E+04  0.24175564840E+04  0.50400001928E-02 0.  1.
    10030    2    1    2    0    0  0.00000000000E+00  0.00000000000E+00 -0.10013695737E+04  0.38337433943E+04  0.37006549947E+04 0.  0.
        4    1    3    3  502    0 -0.15262193843E+04  0.32405714741E+03 -0.15311178145E+04  0.21860196748E+04  0.12699999809E+01 0.  1.
       -4    1    3    3    0  502  0.15262193843E+04 -0.32405714741E+03  0.52974824085E+03  0.16477237194E+04  0.12699999809E+01 0. -1.
</event>
<event>
 5   0  0.1757996E-08  0.3700424E+04  0.7818609E-02  0.8067868E-01
        2   -1    0    0  501    0  0.00000000000E+00  0.00000000000E+00  0.17813101461E+04  0.17813101461E+04  0.25500000920E-02 0. -1.
       -2   -1    0    0    0  501  0.00000000000E+00  0.00000000000E+00 -0.19217789845E+04  0.19217789845E+04  0.25500000920E-02 0.  1.
    10030    2    1    2    0    0  0.00000000000E+00  0.00000000000E+00 -0.14046883837E+03  0.37030891307E+04  0.37004239777E+04 0.  0.
        3    1    3    3  502    0  0.24225778200E+03  0.15245975765E+03 -0.18994873796E+04  0.19209333997E+04  0.10100000352E+00 0.  1.
       -3    1    3    3    0  502 -0.24225778200E+03 -0.15245975765E+03  0.17590185412E+04  0.17821557309E+04  0.10100000352E+00 0. -1.
</event>
<event>
 5   0  0.1757996E-08  0.3700728E+04  0.7818609E-02  0.8067800E-01
       -2   -1    0    0    0  501  0.00000000000E+00  0.00000000000E+00  0.15277627184E+04  0.15277627184E+04  0.25500000920E-02 0.  1.
        2   -1    0    0  501    0  0.00000000000E+00  0.00000000000E+00 -0.22410857843E+04  0.22410857843E+04  0.25500000920E-02 0. -1.
    10030    2    1    2    0    0  0.00000000000E+00  0.00000000000E+00 -0.71332306592E+03  0.37688485027E+04  0.37007282040E+04 0.  0.
        3    1    3    3  502    0  0.33061011137E+02 -0.74049340614E+03 -0.20832820185E+04  0.22112185541E+04  0.10100000352E+00 0. -1.
       -3    1    3    3    0  502 -0.33061011137E+02  0.74049340614E+03  0.13699589526E+04  0.15576299487E+04  0.10100000352E+00 0.  1.
</event>
<event>
 5   0  0.1757996E-08  0.3700871E+04  0.7818609E-02  0.8067769E-01
        2   -1    0    0  501    0  0.00000000000E+00  0.00000000000E+00  0.10652488639E+04  0.10652488639E+04  0.25500000920E-02 0.  1.
       -2   -1    0    0    0  501  0.00000000000E+00  0.00000000000E+00 -0.32143768970E+04  0.32143768970E+04  0.25500000920E-02 0. -1.
    10030    2    1    2    0    0  0.00000000000E+00  0.00000000000E+00 -0.21491280331E+04  0.42796257610E+04  0.37008708909E+04 0.  0.
        3    1    3    3  502    0 -0.10039926953E+04 -0.59896468239E+03  0.58409107699E+03  0.13068750589E+04  0.10100000352E+00 0.  1.
       -3    1    3    3    0  502  0.10039926953E+04  0.59896468239E+03 -0.27332191101E+04  0.29727507021E+04  0.10100000352E+00 0. -1.
</event>
<event>
 5   0  0.5714125E-09  0.3699927E+04  0.7818609E-02  0.8067978E-01
       -1   -1    0    0    0  501  0.00000000000E+00  0.00000000000E+00  0.11039733628E+04  0.11039733628E+04  0.50400001928E-02 0.  1.
        1   -1    0    0  501    0  0.00000000000E+00  0.00000000000E+00 -0.31000435911E+04  0.31000435911E+04  0.50400001928E-02 0. -1.
    10030    2    1    2    0    0  0.00000000000E+00  0.00000000000E+00 -0.19960702283E+04  0.42040169540E+04  0.36999273226E+04 0.  0.
        2    1    3    3  502    0 -0.13656597410E+04  0.10434031568E+04 -0.17758836770E+04  0.24713315258E+04  0.25500000920E-02 0. -1.
       -2    1    3    3    0  502  0.13656597410E+04 -0.10434031568E+04 -0.22018655127E+03  0.17326854282E+04  0.25500000920E-02 0.  1.
</event>
<event>
 5   0  0.1740290E-08  0.3699895E+04  0.7818609E-02  0.8067985E-01
        2   -1    0    0  501    0  0.00000000000E+00  0.00000000000E+00  0.20473710845E+04  0.20473710845E+04  0.25500000920E-02 0. -1.
       -2   -1    0    0    0  501  0.00000000000E+00  0.00000000000E+00 -0.16715614047E+04  0.16715614047E+04  0.25500000920E-02 0.  1.
    10030    2    1    2    0    0  0.00000000000E+00  0.00000000000E+00  0.37580967977E+03  0.37189324891E+04  0.36998953963E+04 0.  0.
        5    1    3    3  502    0 -0.81806641883E+03 -0.38393914284E+03  0.18104106492E+04  0.20234254964E+04  0.46999998093E+01 0. -1.
       -5    1    3    3    0  502  0.81806641883E+03  0.38393914284E+03 -0.14346009694E+04  0.16955069927E+04  0.46999998093E+01 0.  1.
</event>
<event>
 5   0  0.1740290E-08  0.3700012E+04  0.7818609E-02  0.8067959E-01
       -2   -1    0    0    0  501  0.00000000000E+00  0.00000000000E+00  0.13540908130E+04  0.13540908130E+04  0.25500000920E-02 0. -1.
        2   -1    0    0  501    0  0.00000000000E+00  0.00000000000E+00 -0.25275423410E+04  0.25275423410E+04  0.25500000920E-02 0.  1.
    10030    2    1    2    0    0  0.00000000000E+00  0.00000000000E+00 -0.11734515280E+04  0.38816331539E+04  0.37000118180E+04 0.  0.
        5    1    3    3  502    0  0.26067438295E+03  0.10348516335E+04 -0.21720726986E+04  0.24200807704E+04  0.46999998093E+01 0.  1.
       -5    1    3    3    0  502 -0.26067438295E+03 -0.10348516335E+04  0.99862117063E+03  0.14615523835E+04  0.46999998093E+01 0. -1.
</event>
<event>
 5   0  0.1825308E-08  0.3701404E+04  0.7818609E-02  0.8067651E-01
        2   -1    0    0  501    0  0.00000000000E+00  0.00000000000E+00  0.26075402022E+04  0.26075402022E+04  0.25500000920E-02 0. -1.
       -2   -1    0    0    0  501  0.00000000000E+00  0.00000000000E+00 -0.13135361687E+04  0.13135361687E+04  0.25500000920E-02 0.  1.
    10030    2    1    2    0    0  0.00000000000E+00  0.00000000000E+00  0.12940040335E+04  0.39210763708E+04  0.37014042561E+04 0.  0.
        4    1    3    3  502    0 -0.17894044084E+04  0.40786590428E+03  0.39458791809E+03  0.18772383894E+04  0.12699999809E+01 0.  1.
       -4    1    3    3    0  502  0.17894044084E+04 -0.40786590428E+03  0.89941611542E+03  0.20438379814E+04  0.12699999809E+01 0. -1.
</event>
<event>
 5   0  0.1825308E-08  0.3700448E+04  0.7818609E-02  0.8067863E-01
       -2   -1    0    0    0  501  0.00000000000E+00  0.00000000000E+00  0.24760184723E+04  0.24760184723E+04  0.25500000920E-02 0.  1.
        2   -1    0    0  501    0  0.00000000000E+00  0.00000000000E+00 -0.13825939289E+04  0.13825939289E+04  0.25500000920E-02 0. -1.
    10030    2    1    2    0    0  0.00000000000E+00  0.00000000000E+00  0.10934245435E+04  0.38586124012E+04  0.37004475987E+04 0.  0.
        4    1    3    3  502    0  0.38387077965E+03 -0.15583381595E+03 -0.13336051375E+04  0.13964760039E+04  0.12699999809E+01 0. -1.
       -4    1    3    3    0  502 -0.38387077965E+03  0.15583381595E+03  0.24270296810E+04  0.24621363973E+04  0.12699999809E+01 0.  1.
</event>
<event>
 5   0  0.5714125E-09  0.3701161E+04  0.7818609E-02  0.8067705E-01
        1   -1    0    0  501    0  0.00000000000E+00  0.00000000000E+00  0.15054180240E+04  0.15054180240E+04  0.50400001928E-02 0.  1.
       -1   -1    0    0    0  501  0.00000000000E+00  0.00000000000E+00 -0.22748820444E+04  0.22748820444E+04  0.50400001928E-02 0. -1.
    10030    2    1    2    0    0  0.00000000000E+00  0.00000000000E+00 -0.76946402037E+03  0.37803000684E+04  0.37011611325E+04 0.  0.
        2    1    3    3  502    0 -0.64470798350E+03  0.61053300971E+03 -0.20431024040E+04  0.22277042832E+04  0.25500000920E-02 0. -1.
       -2    1    3    3    0  502  0.64470798350E+03 -0.61053300971E+03  0.12736383837E+04  0.15525957852E+04  0.25500000920E-02 0.  1.
</event>
<event>
 5   0  0.1757996E-08  0.3702050E+04  0.7818609E-02  0.8067508E-01
        2   -1    0    0  501    0  0.00000000000E+00  0.00000000000E+00  0.16226281113E+04  0.16226281113E+04  0.25500000920E-02 0.  1.
       -2   -1    0    0    0  501  0.00000000000E+00  0.00000000000E+00 -0.21115705822E+04  0.21115705822E+04  0.25500000920E-02 0. -1.
    10030    2    1    2    0    0  0.00000000000E+00  0.00000000000E+00 -0.48894247086E+03  0.37341986934E+04  0.37020501269E+04 0.  0.
        3    1    3    3  502    0 -0.96259732928E+03 -0.63647124167E+03 -0.17043142143E+04  0.20582459063E+04  0.10100000352E+00 0. -1.
       -3    1    3    3    0  502  0.96259732928E+03  0.63647124167E+03  0.12153717434E+04  0.16759527871E+04  0.10100000352E+00 0.  1.
</event>
<event>
 5   0  0.5714125E-09  0.3699107E+04  0.7818609E-02  0.8068160E-01
       -1   -1    0    0    0  501  0.00000000000E+00  0.00000000000E+00  0.14050723141E+04  0.14050723141E+04  0.50400001928E-02 0.  1.
        1   -1    0    0  501    0  0.00000000000E+00  0.00000000000E+00 -0.24346426087E+04  0.24346426088E+04  0.50400001928E-02 0. -1.
    10030    2    1    2    0    0  0.00000000000E+00  0.00000000000E+00 -0.10295702947E+04  0.38397149228E+04  0.36991074190E+04 0.  0.
        4    1    3    3  502    0 -0.10505018834E+04 -0.12028871098E+04 -0.14831754435E+04  0.21795188953E+04  0.12699999809E+01 0. -1.
       -4    1    3    3    0  502  0.10505018834E+04  0.12028871098E+04  0.45360514888E+03  0.16601960275E+04  0.12699999809E+01 0.  1.
</event>
<event>
 5   0  0.1725865E-08  0.3699794E+04  0.7818609E-02  0.8068007E-01
       -2   -1    0    0    0  501  0.00000000000E+00  0.00000000000E+00  0.29935368270E+04  0.29935368270E+04  0.25500000920E-02 0. -1.
        2   -1    0    0  501    0  0.00000000000E+00  0.00000000000E+00 -0.11431693172E+04  0.11431693172E+04  0.25500000920E-02 0.  1.
    10030    2    1    2    0    0  0.00000000000E+00  0.00000000000E+00  0.18503675098E+04  0.41367061442E+04  0.36997942919E+04 0.  0.
        1    1    3    3  502    0  0.10675201416E+04 -0.82183101760E+03  0.23426098774E+04  0.27023742361E+04  0.50400001928E-02 0. -1.
       -1    1    3    3    0  502 -0.10675201416E+04  0.82183101760E+03 -0.49224236758E+03  0.14343319082E+04  0.50400001928E-02 0.  1.
</event>
<event>
 5   0  0.1856107E-08  0.3703543E+04  0.7818609E-02  0.8067177E-01
        2   -1    0    0  501    0  0.00000000000E+00  0.00000000000E+00  0.16198486221E+04  0.16198486221E+04  0.25500000920E-02 0.  1.
       -2   -1    0    0    0  501  0.00000000000E+00  0.00000000000E+00 -0.21169003782E+04  0.21169003782E+04  0.25500000920E-02 0. -1.
    10030    2    1    2    0    0  0.00000000000E+00  0.00000000000E+00 -0.49705175611E+03  0.37367490003E+04  0.37035432552E+04 0.  0.
        2    1    3    3  502    0  0.89965243777E+03  0.11338987362E+04  0.91680021516E+03  0.17133661276E+04  0.25500000920E-02 0.  1.
       -2    1    3    3    0  502 -0.89965243777E+03 -0.11338987362E+04 -0.14138519713E+04  0.20233828727E+04  0.25500000920E-02 0. -1.
</event>
<event>
 5   0  0.5714125E-09  0.3700183E+04  0.7818609E-02  0.8067921E-01
        1   -1    0    0  501    0  0.00000000000E+00  0.00000000000E+00  0.13590382352E+04  0.13590382353E+04  0.50400001928E-02 0.  1.
       -1   -1    0    0    0  501  0.00000000000E+00  0.00000000000E+00 -0.25185739948E+04  0.25185739948E+04  0.50400001928E-02 0. -1.
    10030    2    1    2    0    0  0.00000000000E+00  0.00000000000E+00 -0.11595357596E+04  0.38776122301E+04  0.37001828913E+04 0.  0.
        4    1    3    3  502    0 -0.11994038668E+04 -0.40266027821E+02 -0.20553512363E+04  0.23800548956E+04  0.12699999809E+01 0. -1.
       -4    1    3    3    0  502  0.11994038668E+04  0.40266027821E+02  0.89581547672E+03  0.14975573344E+04  0.12699999809E+01 0.  1.
</event>
<event>
 5   0  0.5714125E-09  0.3699833E+04  0.7818609E-02  0.8067999E-01
        1   -1    0    0  501    0  0.00000000000E+00  0.00000000000E+00  0.24837183366E+04  0.24837183366E+04  0.50400001928E-02 0.  1.
       -1   -1    0    0    0  501  0.00000000000E+00  0.00000000000E+00 -0.13778502663E+04  0.13778502663E+04  0.50400001928E-02 0. -1.
    10030    2    1    2    0    0  0.00000000000E+00  0.00000000000E+00  0.11058680703E+04  0.38615686029E+04  0.36998334944E+04 0.  0.
        2    1    3    3  502    0  0.14096512396E+04  0.46409675652E+03 -0.59973924858E+03  0.16006840984E+04  0.25500000920E-02 0. -1.
       -2    1    3    3    0  502 -0.14096512396E+04 -0.46409675652E+03  0.17056073188E+04  0.22608845045E+04  0.25500000920E-02 0.  1.
</event>
<event>
 5   0  0.1825308E-08  0.3699095E+04  0.7818609E-02  0.8068162E-01
       -2   -1    0    0    0  501  0.00000000000E+00  0.00000000000E+00  0.16313813032E+04  0.16313813032E+04  0.25500000920E-02 0.  1.
        2   -1    0    0  501    0  0.00000000000E+00  0.00000000000E+00 -0.20968896032E+04  0.20968896032E+04  0.25500000920E-02 0. -1.
    10030    2    1    2    0    0  0.00000000000E+00  0.00000000000E+00 -0.46550829998E+03  0.37282709064E+04  0.36990952914E+04 0.  0.
        4    1    3    3  502    0 -0.16024976258E+03  0.11024987814E+04  0.12552510879E+04  0.16783445582E+04  0.12699999809E+01 0.  1.
       -4    1    3    3    0  502  0.16024976258E+03 -0.11024987814E+04 -0.17207593879E+04  0.20499263483E+04  0.12699999809E+01 0. -1.
</event>
<event>
 5   0  0.1825308E-08  0.3700313E+04  0.7818609E-02  0.8067893E-01
        2   -1    0    0  501    0  0.00000000000E+00  0.00000000000E+00  0.16857728222E+04  0.16857728222E+04  0.25500000920E-02 0. -1.
       -2   -1    0    0    0  501  0.00000000000E+00  0.00000000000E+00 -0.20305691630E+04  0.20305691630E+04  0.25500000920E-02 0.  1.
    10030    2    1    2    0    0  0.00000000000E+00  0.00000000000E+00 -0.34479634082E+03  0.37163419852E+04  0.37003125860E+04 0.  0.
        4    1    3    3  502    0  0.10009556478E+04  0.15088843321E+04 -0.55408731819E+03  0.18935835090E+04  0.12699999809E+01 0. -1.
       -4    1    3    3    0  502 -0.10009556478E+04 -0.15088843321E+04  0.20929097737E+03  0.18227584762E+04  0.12699999809E+01 0.  1.
</event>
<event>
 5   0  0.5714125E-09  0.3698590E+04  0.7818609E-02  0.8068274E-01
       -1   -1    0    0    0  501  0.00000000000E+00  0.00000000000E+00  0.13435922541E+04  0.13435922541E+04  0.50400001928E-02 0. -1.
        1   -1    0    0  501    0  0.00000000000E+00  0.00000000000E+00 -0.25453349749E+04  0.25453349750E+04  0.50400001928E-02 0.  1.
    10030    2    1    2    0    0  0.00000000000E+00  0.00000000000E+00 -0.12017427209E+04  0.38889272290E+04  0.36985901943E+04 0.  0.
        4    1    3    3  502    0  0.14309650122E+04  0.84443590788E+03  0.25279530885E+03  0.16806665195E+04  0.12699999809E+01 0.  1.
       -4    1    3    3    0  502 -0.14309650122E+04 -0.84443590788E+03 -0.14545380297E+04  0.22082607096E+04  0.12699999809E+01 0. -1.
</event>
<event>
 5   0  0.5714125E-09  0.3700208E+04  0.7818609E-02  0.8067916E-01
       -1   -1    0    0    0  501  0.00000000000E+00  0.00000000000E+00  0.24129193321E+04  0.24129193321E+04  0.50400001928E-02 0.  1.
        1   -1    0    0  501    0  0.00000000000E+00  0.00000000000E+00 -0.14185657357E+04  0.14185657357E+04  0.50400001928E-02 0. -1.
    10030    2    1    2    0    0  0.00000000000E+00  0.00000000000E+00  0.99435359647E+03  0.38314850678E+04  0.37002079333E+04 0.  0.
        2    1    3    3  502    0 -0.11493629645E+03  0.17085587103E+04  0.12223824224E+04  0.21039491451E+04  0.25500000920E-02 0. -1.
       -2    1    3    3    0  502  0.11493629645E+03 -0.17085587103E+04 -0.22802882596E+03  0.17275359227E+04  0.25500000920E-02 0.  1.
</event>
<event>
 5   0  0.1740290E-08  0.3700567E+04  0.7818609E-02  0.8067836E-01
       -2   -1    0    0    0  501  0.00000000000E+00  0.00000000000E+00  0.17603107530E+04  0.17603107530E+04  0.25500000920E-02 0.  1.
        2   -1    0    0  501    0  0.00000000000E+00  0.00000000000E+00 -0.19448553807E+04  0.19448553807E+04  0.25500000920E-02 0. -1.
    10030    2    1    2    0    0  0.00000000000E+00  0.00000000000E+00 -0.18454462773E+03  0.37051661337E+04  0.37005674374E+04 0.  0.
        5    1    3    3  502    0 -0.67969549170E+03  0.15986152711E+04  0.54567802176E+03  0.18208084303E+04  0.46999998093E+01 0.  1.
       -5    1    3    3    0  502  0.67969549170E+03 -0.15986152711E+04 -0.73022264949E+03  0.18843577034E+04  0.46999998093E+01 0. -1.
</event>
<event>
 5   0  0.1740290E-08  0.3694414E+04  0.7818609E-02  0.8069201E-01
        2   -1    0    0  501    0  0.00000000000E+00  0.00000000000E+00  0.21020140835E+04  0.21020140835E+04  0.25500000920E-02 0. -1.
       -2   -1    0    0    0  501  0.00000000000E+00  0.00000000000E+00 -0.16232873162E+04  0.16232873162E+04  0.25500000920E-02 0.  1.
    10030    2    1    2    0    0  0.00000000000E+00  0.00000000000E+00  0.47872676735E+03  0.37253013997E+04  0.36944135124E+04 0.  0.
        5    1    3    3  502    0 -0.18164999417E+04  0.23478379864E+03 -0.21284570366E+01  0.18316173428E+04  0.46999998093E+01 0.  1.
       -5    1    3    3    0  502  0.18164999417E+04 -0.23478379864E+03  0.48085522439E+03  0.18936840568E+04  0.46999998093E+01 0. -1.
</event>
<event>
 5   0  0.5714125E-09  0.3699923E+04  0.7818609E-02  0.8067979E-01
       -1   -1    0    0    0  501  0.00000000000E+00  0.00000000000E+00  0.18490261038E+04  0.18490261038E+04  0.50400001928E-02 0. -1.
        1   -1    0    0  501    0  0.00000000000E+00  0.00000000000E+00 -0.18508971951E+04  0.18508971951E+04  0.50400001928E-02 0.  1.
    10030    2    1    2    0    0  0.00000000000E+00  0.00000000000E+00 -0.18710912221E+01  0.36999232989E+04  0.36999228258E+04 0.  0.
        5    1    3    3  502    0 -0.81931411913E+03  0.15237352471E+04  0.65426710998E+03  0.18496303064E+04  0.46999998093E+01 0.  1.
       -5    1    3    3    0  502  0.81931411913E+03 -0.15237352471E+04 -0.65613820120E+03  0.18502929925E+04  0.46999998093E+01 0. -1.
</event>
<event>
 5   0  0.1856107E-08  0.3699782E+04  0.7818609E-02  0.8068010E-01
       -2   -1    0    0    0  501  0.00000000000E+00  0.00000000000E+00  0.13031588939E+04  0.13031588939E+04  0.25500000920E-02 0. -1.
        2   -1    0    0  501    0  0.00000000000E+00  0.00000000000E+00 -0.26260010026E+04  0.26260010026E+04  0.25500000920E-02 0.  1.
    10030    2    1    2    0    0  0.00000000000E+00  0.00000000000E+00 -0.13228421087E+04  0.39291598965E+04  0.36997819189E+04 0.  0.
        2    1    3    3  502    0  0.17540953418E+04 -0.18296119299E+03 -0.12544032324E+04  0.21642210459E+04  0.25500000920E-02 0.  1.
       -2    1    3    3    0  502 -0.17540953418E+04  0.18296119299E+03 -0.68438876382E+02  0.17649388505E+04  0.25500000920E-02 0. -1.
</event>
<event>
 5   0  0.5714125E-09  0.3700031E+04  0.7818609E-02  0.8067955E-01
       -1   -1    0    0    0  501  0.00000000000E+00  0.00000000000E+00  0.28554208511E+04  0.28554208511E+04  0.50400001928E-02 0. -1.
        1   -1    0    0  501    0  0.00000000000E+00  0.00000000000E+00 -0.11986173121E+04  0.11986173121E+04  0.50400001928E-02 0.  1.
    10030    2    1    2    0    0  0.00000000000E+00  0.00000000000E+00  0.16568035390E+04  0.40540381632E+04  0.37000307380E+04 0.  0.
        4    1    3    3  502    0 -0.52684365291E+03  0.15622558453E+02 -0.11146096508E+04  0.12329495470E+04  0.12699999809E+01 0.  1.
       -4    1    3    3    0  502  0.52684365291E+03 -0.15622558453E+02  0.27714131898E+04  0.28210886162E+04  0.12699999809E+01 0. -1.
</event>
<event>
 5   0  0.1757996E-08  0.3699623E+04  0.7818609E-02  0.8068045E-01
        2   -1    0    0  501    0  0.00000000000E+00  0.00000000000E+00  0.29092162920E+04  0.29092162920E+04  0.25500000920E-02 0.  1.
       -2   -1    0    0    0  501  0.00000000000E+00  0.00000000000E+00 -0.11761941517E+04  0.11761941517E+04  0.25500000920E-02 0. -1.
    10030    2    1    2    0    0  0.00000000000E+00  0.00000000000E+00  0.17330221403E+04  0.40854104438E+04  0.36996233261E+04 0.  0.
        3    1    3    3  502    0 -0.15842547934E+04  0.91983064371E+01 -0.18797574467E+03  0.15953942303E+04  0.10100000352E+00 0. -1.
       -3    1    3    3    0  502  0.15842547934E+04 -0.91983064371E+01  0.19209978849E+04  0.24900162135E+04  0.10100000352E+00 0.  1.
</event>
<event>
 5   0  0.1740290E-08  0.3703816E+04  0.7818609E-02  0.8067117E-01
        2   -1    0    0  501    0  0.00000000000E+00  0.00000000000E+00  0.18989273612E+04  0.18989273612E+04  0.25500000920E-02 0. -1.
       -2   -1    0    0    0  501  0.00000000000E+00  0.00000000000E+00 -0.18060525563E+04  0.18060525563E+04  0.25500000920E-02 0.  1.
    10030    2    1    2    0    0  0.00000000000E+00  0.00000000000E+00  0.92874804975E+02  0.37049799175E+04  0.37038156622E+04 0.  0.
        5    1    3    3  502    0 -0.16411552762E+04 -0.54696487770E+03 -0.61481449342E+03  0.18359139874E+04  0.46999998093E+01 0. -1.
       -5    1    3    3    0  502  0.16411552762E+04  0.54696487770E+03  0.70768929839E+03  0.18690659301E+04  0.46999998093E+01 0.  1.
</event>
<event>
 5   0  0.1856107E-08  0.3705255E+04  0.7818609E-02  0.8066798E-01
        2   -1    0    0  501    0  0.00000000000E+00  0.00000000000E+00  0.15932043207E+04  0.15932043207E+04  0.25500000920E-02 0. -1.
       -2   -1    0    0    0  501  0.00000000000E+00  0.00000000000E+00 -0.21542932026E+04  0.21542932026E+04  0.25500000920E-02 0.  1.
    10030    2    1    2    0    0  0.00000000000E+00  0.00000000000E+00 -0.56108888189E+03  0.37474975233E+04  0.37052553156E+04 0.  0.
        2    1    3    3  502    0 -0.16901873810E+04  0.53680946925E+03 -0.82268861777E+03  0.19549205485E+04  0.25500000920E-02 0.  1.
       -2    1    3    3    0  502  0.16901873810E+04 -0.53680946925E+03  0.26159973588E+03  0.17925769749E+04  0.25500000920E-02 0. -1.
</event>
<event>
 5   0  0.5714125E-09  0.3700359E+04  0.7818609E-02  0.8067882E-01
       -1   -1    0    0    0  501  0.00000000000E+00  0.00000000000E+00  0.15826540458E+04  0.15826540458E+04  0.50400001928E-02 0.  1.
        1   -1    0    0  501    0  0.00000000000E+00  0.00000000000E+00 -0.21629269124E+04  0.21629269124E+04  0.50400001928E-02 0. -1.
    10030    2    1    2    0    0  0.00000000000E+00  0.00000000000E+00 -0.58027286659E+03  0.37455809582E+04  0.37003594575E+04 0.  0.
        3    1    3    3  502    0  0.11079356427E+04  0.77432273413E+03  0.98865865828E+03  0.16746769950E+04  0.10100000352E+00 0.  1.
       -3    1    3    3    0  502 -0.11079356427E+04 -0.77432273413E+03 -0.15689315249E+04  0.20709039632E+04  0.10100000352E+00 0. -1.
</event>
<event>
 5   0  0.1856107E-08  0.3699819E+04  0.7818609E-02  0.8068002E-01
       -2   -1    0    0    0  501  0.00000000000E+00  0.00000000000E+00  0.10738576124E+04  0.10738576124E+04  0.25500000920E-02 0.  1.
        2   -1    0    0  501    0  0.00000000000E+00  0.00000000000E+00 -0.31867964217E+04  0.31867964217E+04  0.25500000920E-02 0. -1.
    10030    2    1    2    0    0  0.00000000000E+00  0.00000000000E+00 -0.21129388093E+04  0.42606540342E+04  0.36998192371E+04 0.  0.
        2    1    3    3  502    0 -0.55234484084E+03 -0.17248933504E+04 -0.14901501849E+04  0.23453975072E+04  0.25500000920E-02 0. -1.
       -2    1    3    3    0  502  0.55234484084E+03  0.17248933504E+04 -0.62278862436E+03  0.19152565269E+04  0.25500000920E-02 0.  1.
</event>
<event>
 5   0  0.5714125E-09  0.3700480E+04  0.7818609E-02  0.8067855E-01
       -1   -1    0    0    0  501  0.00000000000E+00  0.00000000000E+00  0.15979480293E+04  0.15979480293E+04  0.50400001928E-02 0.  1.
        1   -1    0    0  501    0  0.00000000000E+00  0.00000000000E+00 -0.21423654218E+04  0.21423654218E+04  0.50400001928E-02 0. -1.
    10030    2    1    2    0    0  0.00000000000E+00  0.00000000000E+00 -0.54441739244E+03  0.37403134511E+04  0.37004802952E+04 0.  0.
        5    1    3    3  502    0  0.17701256044E+04  0.41136646629E+03 -0.62351217590E+03  0.19212903342E+04  0.46999998093E+01 0. -1.
       -5    1    3    3    0  502 -0.17701256044E+04 -0.41136646629E+03  0.79094783466E+02  0.18190231169E+04  0.46999998093E+01 0.  1.
</event>
<event>
 5   0  0.5714125E-09  0.3693423E+04  0.7818609E-02  0.8069421E-01
        1   -1    0    0  501    0  0.00000000000E+00  0.00000000000E+00  0.27487454532E+04  0.27487454532E+04  0.50400001928E-02 0. -1.
       -1   -1    0    0    0  501  0.00000000000E+00  0.00000000000E+00 -0.12406910128E+04  0.12406910128E+04  0.50400001928E-02 0.  1.
    10030    2    1    2    0    0  0.00000000000E+00  0.00000000000E+00  0.15080544404E+04  0.39894364660E+04  0.36934232252E+04 0.  0.
        4    1    3    3  502    0 -0.15018983552E+04  0.14570564311E+03  0.19039710881E+04  0.24294106942E+04  0.12699999809E+01 0. -1.
       -4    1    3    3    0  502  0.15018983552E+04 -0.14570564311E+03 -0.39591664770E+03  0.15600257718E+04  0.12699999809E+01 0.  1.
</event>
<event>
 5   0  0.1757996E-08  0.3698784E+04  0.7818609E-02  0.8068231E-01
       -2   -1    0    0    0  501  0.00000000000E+00  0.00000000000E+00  0.24587302200E+04  0.24587302200E+04  0.25500000920E-02 0. -1.
        2   -1    0    0  501    0  0.00000000000E+00  0.00000000000E+00 -0.13910637421E+04  0.13910637421E+04  0.25500000920E-02 0.  1.
    10030    2    1    2    0    0  0.00000000000E+00  0.00000000000E+00  0.10676664779E+04  0.38497939621E+04  0.36987838329E+04 0.  0.
        3    1    3    3  502    0  0.10841321263E+04  0.12414888415E+04 -0.33922979336E+03  0.16827697031E+04  0.10100000352E+00 0.  1.
       -3    1    3    3    0  502 -0.10841321263E+04 -0.12414888415E+04  0.14068962713E+04  0.21670242590E+04  0.10100000352E+00 0. -1.
</event>
<event>
 5   0  0.5714125E-09  0.3699275E+04  0.7818609E-02  0.8068122E-01
        1   -1    0    0  501    0  0.00000000000E+00  0.00000000000E+00  0.14691307850E+04  0.14691307850E+04  0.50400001928E-02 0.  1.
       -1   -1    0    0    0  501  0.00000000000E+00  0.00000000000E+00 -0.23286961531E+04  0.23286961531E+04  0.50400001928E-02 0. -1.
    10030    2    1    2    0    0  0.00000000000E+00  0.00000000000E+00 -0.85956536804E+03  0.37978269381E+04  0.36992751763E+04 0.  0.
        3    1    3    3  502    0  0.73822149218E+02 -0.17824921642E+04  0.71520022527E+02  0.17854532055E+04  0.10100000352E+00 0.  1.
       -3    1    3    3    0  502 -0.73822149218E+02  0.17824921642E+04 -0.93108539057E+03  0.20123737326E+04  0.10100000352E+00 0. -1.
</event>
<event>
 5   0  0.5714125E-09  0.3700676E+04  0.7818609E-02  0.8067812E-01
        1   -1    0    0  501    0  0.00000000000E+00  0.00000000000E+00  0.20548889074E+04  0.20548889074E+04  0.50400001928E-02 0. -1.
       -1   -1    0    0    0  501  0.00000000000E+00  0.00000000000E+00 -0.16661488687E+04  0.16661488687E+04  0.50400001928E-02 0.  1.
    10030    2    1    2    0    0  0.00000000000E+00  0.00000000000E+00  0.38874003874E+03  0.37210377761E+04  0.37006760616E+04 0.  0.
        2    1    3    3  502    0 -0.89703333874E+03  0.73809992265E+03  0.16425341944E+04  0.20118098535E+04  0.25500000920E-02 0. -1.
       -2    1    3    3    0  502  0.89703333874E+03 -0.73809992265E+03 -0.12537941557E+04  0.17092279226E+04  0.25500000920E-02 0.  1.
</event>
<event>
 5   0  0.5714125E-09  0.3682568E+04  0.7818609E-02  0.8071836E-01
       -1   -1    0    0    0  501  0.00000000000E+00  0.00000000000E+00  0.12572877576E+04  0.12572877576E+04  0.50400001928E-02 0.  1.
        1   -1    0    0  501    0  0.00000000000E+00  0.00000000000E+00 -0.26965406322E+04  0.26965406322E+04  0.50400001928E-02 0. -1.
    10030    2    1    2    0    0  0.00000000000E+00  0.00000000000E+00 -0.14392528745E+04  0.39538283898E+04  0.36825684106E+04 0.  0.
        2    1    3    3  502    0  0.12304489931E+04  0.10128349468E+04 -0.17097767540E+04  0.23373437708E+04  0.25500000920E-02 0. -1.
       -2    1    3    3    0  502 -0.12304489931E+04 -0.10128349468E+04  0.27052387950E+03  0.16164846190E+04  0.25500000920E-02 0.  1.
</event>
<event>
 5   0  0.1825308E-08  0.3699987E+04  0.7818609E-02  0.8067965E-01
       -2   -1    0    0    0  501  0.00000000000E+00  0.00000000000E+00  0.15107411082E+04  0.15107411082E+04  0.25500000920E-02 0. -1.
        2   -1    0    0  501    0  0.00000000000E+00  0.00000000000E+00 -0.22654284504E+04  0.22654284504E+04  0.25500000920E-02 0.  1.
    10030    2    1    2    0    0  0.00000000000E+00  0.00000000000E+00 -0.75468734224E+03  0.37761695587E+04  0.36999869664E+04 0.  0.
        4    1    3    3  502    0 -0.14032038234E+04 -0.82435687306E+03  0.52050235976E+03  0.17086455290E+04  0.12699999809E+01 0. -1.
       -4    1    3    3    0  502  0.14032038234E+04  0.82435687306E+03 -0.12751897020E+04  0.20675240297E+04  0.12699999809E+01 0.  1.
</event>
<event>
 5   0  0.5714125E-09  0.3700619E+04  0.7818609E-02  0.8067825E-01
        1   -1    0    0  501    0  0.00000000000E+00  0.00000000000E+00  0.24891167841E+04  0.24891167841E+04  0.50400001928E-02 0. -1.
       -1   -1    0    0    0  501  0.00000000000E+00  0.00000000000E+00 -0.13754461782E+04  0.13754461782E+04  0.50400001928E-02 0.  1.
    10030    2    1    2    0    0  0.00000000000E+00  0.00000000000E+00  0.11136706058E+04  0.38645629623E+04  0.37006194983E+04 0.  0.
        1    1    3    3  502    0 -0.18063730792E+04  0.37597392365E+03  0.70193715311E+03  0.19740962134E+04  0.50400001928E-02 0. -1.
       -1    1    3    3    0  502  0.18063730792E+04 -0.37597392365E+03  0.41173345273E+03  0.18904667489E+04  0.50400001928E-02 0.  1.
</event>
<event>
 5   0  0.5714125E-09  0.3700741E+04  0.7818609E-02  0.8067798E-01
       -1   -1    0    0    0  501  0.00000000000E+00  0.00000000000E+00  0.21303812526E+04  0.21303812526E+04  0.50400001928E-02 0. -1.
        1   -1    0    0  501    0  0.00000000000E+00  0.00000000000E+00 -0.16071637197E+04  0.16071637197E+04  0.50400001928E-02 0.  1.
    10030    2    1    2    0    0  0.00000000000E+00  0.00000000000E+00  0.52321753290E+03  0.37375449723E+04  0.37007412545E+04 0.  0.
        1    1    3    3  502    0  0.12056636857E+04  0.13586062720E+04 -0.94653569687E+02  0.18188994540E+04  0.50400001928E-02 0. -1.
       -1    1    3    3    0  502 -0.12056636857E+04 -0.13586062720E+04  0.61787110259E+03  0.19186455183E+04  0.50400001928E-02 0.  1.
</event>
<event>
 5   0  0.1740290E-08  0.3700916E+04  0.7818609E-02  0.8067759E-01
        2   -1    0    0  501    0  0.00000000000E+00  0.00000000000E+00  0.15268202985E+04  0.15268202985E+04  0.25500000920E-02 0.  1.
       -2   -1    0    0    0  501  0.00000000000E+00  0.00000000000E+00 -0.22426963973E+04  0.22426963973E+04  0.25500000920E-02 0. -1.
    10030    2    1    2    0    0  0.00000000000E+00  0.00000000000E+00 -0.71587609881E+03  0.37695166958E+04  0.37009157692E+04 0.  0.
        5    1    3    3  502    0 -0.15382557409E+04 -0.12822206550E+03 -0.13973943766E+04  0.20821634798E+04  0.46999998093E+01 0. -1.
       -5    1    3    3    0  502  0.15382557409E+04  0.12822206550E+03  0.68151827783E+03  0.16873532160E+04  0.46999998093E+01 0.  1.
</event>
<event>
 5   0  0.1725865E-08  0.3699211E+04  0.7818609E-02  0.8068137E-01
        2   -1    0    0  501    0  0.00000000000E+00  0.00000000000E+00  0.19040863029E+04  0.19040863029E+04  0.25500000920E-02 0. -1.
       -2   -1    0    0    0  501  0.00000000000E+00  0.00000000000E+00 -0.17966833737E+04  0.17966833737E+04  0.25500000920E-02 0.  1.
    10030    2    1    2    0    0  0.00000000000E+00  0.00000000000E+00  0.10740292918E+03  0.37007696766E+04  0.36992108362E+04 0.  0.
        1    1    3    3  502    0  0.16515468324E+04 -0.43123636430E+03  0.76636986138E+03  0.18710677449E+04  0.50400001928E-02 0. -1.
       -1    1    3    3    0  502 -0.16515468324E+04  0.43123636430E+03 -0.65896693219E+03  0.18297019318E+04  0.50400001928E-02 0.  1.
</event>
<event>
 5   0  0.1725865E-08  0.3698606E+04  0.7818609E-02  0.8068271E-01
       -2   -1    0    0    0  501  0.00000000000E+00  0.00000000000E+00  0.13438858278E+04  0.13438858278E+04  0.25500000920E-02 0. -1.
        2   -1    0    0  501    0  0.00000000000E+00  0.00000000000E+00 -0.25448002500E+04  0.25448002500E+04  0.25500000920E-02 0.  1.
    10030    2    1    2    0    0  0.00000000000E+00  0.00000000000E+00 -0.12009144222E+04  0.38886860778E+04  0.36986056782E+04 0.  0.
        1    1    3    3  502    0  0.17661520131E+04 -0.10230702744E+03 -0.34107583301E+02  0.17694414340E+04  0.50400001928E-02 0. -1.
       -1    1    3    3    0  502 -0.17661520131E+04  0.10230702744E+03 -0.11668068389E+04  0.21192446438E+04  0.50400001928E-02 0.  1.
</event>
<event>
 5   0  0.5714125E-09  0.3700543E+04  0.7818609E-02  0.8067842E-01
       -1   -1    0    0    0  501  0.00000000000E+00  0.00000000000E+00  0.24773424736E+04  0.24773424736E+04  0.50400001928E-02 0. -1.
        1   -1    0    0  501    0  0.00000000000E+00  0.00000000000E+00 -0.13819260013E+04  0.13819260013E+04  0.50400001928E-02 0.  1.
    10030    2    1    2    0    0  0.00000000000E+00  0.00000000000E+00  0.10954164724E+04  0.38592684749E+04  0.37005426512E+04 0.  0.
        3    1    3    3  502    0 -0.10981317022E+04 -0.13495144429E+04  0.12043343926E+04  0.21160112964E+04  0.10100000352E+00 0. -1.
       -3    1    3    3    0  502  0.10981317022E+04  0.13495144429E+04 -0.10891792025E+03  0.17432571785E+04  0.10100000352E+00 0.  1.
</event>
<event>
 5   0  0.1740290E-08  0.3705365E+04  0.7818609E-02  0.8066774E-01
        2   -1    0    0  501    0  0.00000000000E+00  0.00000000000E+00  0.16722095683E+04  0.16722095683E+04  0.25500000920E-02 0.  1.
       -2   -1    0    0    0  501  0.00000000000E+00  0.00000000000E+00 -0.20526329651E+04  0.20526329651E+04  0.25500000920E-02 0. -1.
    10030    2    1    2    0    0  0.00000000000E+00  0.00000000000E+00 -0.38042339682E+03  0.37248425335E+04  0.37053650209E+04 0.  0.
        5    1    3    3  502    0  0.49490841172E+03 -0.88952072350E+03 -0.17463244981E+04  0.20213492514E+04  0.46999998093E+01 0. -1.
       -5    1    3    3    0  502 -0.49490841172E+03  0.88952072350E+03  0.13659011013E+04  0.17034932821E+04  0.46999998093E+01 0.  1.
</event>
<event>
 5   0  0.1856107E-08  0.3698914E+04  0.7818609E-02  0.8068203E-01
       -2   -1    0    0    0  501  0.00000000000E+00  0.00000000000E+00  0.12135363689E+04  0.12135363689E+04  0.25500000920E-02 0. -1.
        2   -1    0    0  501    0  0.00000000000E+00  0.00000000000E+00 -0.28186138963E+04  0.28186138963E+04  0.25500000920E-02 0.  1.
    10030    2    1    2    0    0  0.00000000000E+00  0.00000000000E+00 -0.16050775274E+04  0.40321502653E+04  0.36989136098E+04 0.  0.
        2    1    3    3  502    0  0.11613684376E+04 -0.12109252836E+04  0.45614474818E+02  0.16784508842E+04  0.25500000920E-02 0. -1.
       -2    1    3    3    0  502 -0.11613684376E+04  0.12109252836E+04 -0.16506920022E+04  0.23536993811E+04  0.25500000920E-02 0.  1.
</event>
<event>
 5   0  0.5714125E-09  0.3700329E+04  0.7818609E-02  0.8067889E-01
       -1   -1    0    0    0  501  0.00000000000E+00  0.00000000000E+00  0.19503265274E+04  0.19503265274E+04  0.50400001928E-02 0.  1.
        1   -1    0    0  501    0  0.00000000000E+00  0.00000000000E+00 -0.17551461419E+04  0.17551461419E+04  0.50400001928E-02 0. -1.
    10030    2    1    2    0    0  0.00000000000E+00  0.00000000000E+00  0.19518038551E+03  0.37054726693E+04  0.37003286773E+04 0.  0.
        5    1    3    3  502    0 -0.37878719720E+03 -0.23820960962E+03 -0.17001386937E+04  0.17580435793E+04  0.46999998093E+01 0. -1.
       -5    1    3    3    0  502  0.37878719720E+03  0.23820960962E+03  0.18953190792E+04  0.19474290900E+04  0.46999998093E+01 0.  1.
</event>
<event>
 5   0  0.1725865E-08  0.3699005E+04  0.7818609E-02  0.8068182E-01
        2   -1    0    0  501    0  0.00000000000E+00  0.00000000000E+00  0.27429886300E+04  0.27429886300E+04  0.25500000920E-02 0. -1.
       -2   -1    0    0    0  501  0.00000000000E+00  0.00000000000E+00 -0.12470554641E+04  0.12470554641E+04  0.25500000920E-02 0.  1.
    10030    2    1    2    0    0  0.00000000000E+00  0.00000000000E+00  0.14959331659E+04  0.39900440941E+04  0.36990047089E+04 0.  0.
        1    1    3    3  502    0 -0.44971964729E+03 -0.13214639798E+04 -0.56081742401E+03  0.15043373938E+04  0.50400001928E-02 0.  1.
       -1    1    3    3    0  502  0.44971964729E+03  0.13214639798E+04  0.20567505899E+04  0.24857067004E+04  0.50400001928E-02 0. -1.
</event>
<event>
 5   0  0.1825308E-08  0.3703230E+04  0.7818609E-02  0.8067246E-01
       -2   -1    0    0    0  501  0.00000000000E+00  0.00000000000E+00  0.28604243493E+04  0.28604243493E+04  0.25500000920E-02 0.  1.
        2   -1    0    0  501    0  0.00000000000E+00  0.00000000000E+00 -0.11985908777E+04  0.11985908777E+04  0.25500000920E-02 0. -1.
    10030    2    1    2    0    0  0.00000000000E+00  0.00000000000E+00  0.16618334716E+04  0.40590152270E+04  0.37032302286E+04 0.  0.
        4    1    3    3  502    0  0.78799511403E+03 -0.16695200711E+04  0.98686522500E+03  0.20933557158E+04  0.12699999809E+01 0. -1.
       -4    1    3    3    0  502 -0.78799511403E+03  0.16695200711E+04  0.67496824660E+03  0.19656595113E+04  0.12699999809E+01 0.  1.
</event>
<event>
 5   0  0.1725865E-08  0.3699528E+04  0.7818609E-02  0.8068067E-01
        2   -1    0    0  501    0  0.00000000000E+00  0.00000000000E+00  0.21541532889E+04  0.21541532889E+04  0.25500000920E-02 0. -1.
       -2   -1    0    0    0  501  0.00000000000E+00  0.00000000000E+00 -0.15883855761E+04  0.15883855761E+04  0.25500000920E-02 0.  1.
    10030    2    1    2    0    0  0.00000000000E+00  0.00000000000E+00  0.56576771286E+03  0.37425388650E+04  0.36995275443E+04 0.  0.
        1    1    3    3  502    0 -0.17657836544E+04  0.55077430036E+03  0.26590273138E+03  0.18687023590E+04  0.50400001928E-02 0.  1.
       -1    1    3    3    0  502  0.17657836544E+04 -0.55077430036E+03  0.29986498148E+03  0.18738365060E+04  0.50400001928E-02 0. -1.
</event>
<event>
 5   0  0.1856107E-08  0.3698987E+04  0.7818609E-02  0.8068186E-01
       -2   -1    0    0    0  501  0.00000000000E+00  0.00000000000E+00  0.19914473268E+04  0.19914473268E+04  0.25500000920E-02 0.  1.
        2   -1    0    0  501    0  0.00000000000E+00  0.00000000000E+00 -0.17176586102E+04  0.17176586102E+04  0.25500000920E-02 0. -1.
    10030    2    1    2    0    0  0.00000000000E+00  0.00000000000E+00  0.27378871661E+03  0.37091059370E+04  0.36989872385E+04 0.  0.
        2    1    3    3  502    0 -0.16096386534E+04  0.83214861703E+03  0.50833815192E+03  0.18819711985E+04  0.25500000920E-02 0.  1.
       -2    1    3    3    0  502  0.16096386534E+04 -0.83214861703E+03 -0.23454943531E+03  0.18271347385E+04  0.25500000920E-02 0. -1.
</event>
<event>
 5   0  0.5714125E-09  0.3697645E+04  0.7818609E-02  0.8068484E-01
       -1   -1    0    0    0  501  0.00000000000E+00  0.00000000000E+00  0.14020934152E+04  0.14020934152E+04  0.50400001928E-02 0. -1.
        1   -1    0    0  501    0  0.00000000000E+00  0.00000000000E+00 -0.24378864437E+04  0.24378864437E+04  0.50400001928E-02 0.  1.
    10030    2    1    2    0    0  0.00000000000E+00  0.00000000000E+00 -0.10357930286E+04  0.38399798589E+04  0.36976449422E+04 0.  0.
        2    1    3    3  502    0 -0.16682351501E+04  0.67666885455E+03 -0.80673187913E+02  0.18020536668E+04  0.25500000920E-02 0. -1.
       -2    1    3    3    0  502  0.16682351501E+04 -0.67666885455E+03 -0.95511984067E+03  0.20379261922E+04  0.25500000920E-02 0.  1.
</event>
<event>
 5   0  0.5714125E-09  0.3695987E+04  0.7818609E-02  0.8068852E-01
       -1   -1    0    0    0  501  0.00000000000E+00  0.00000000000E+00  0.20447101705E+04  0.20447101706E+04  0.50400001928E-02 0.  1.
        1   -1    0    0  501    0  0.00000000000E+00  0.00000000000E+00 -0.16702028571E+04  0.16702028571E+04  0.50400001928E-02 0. -1.
    10030    2    1    2    0    0  0.00000000000E+00  0.00000000000E+00  0.37450731346E+03  0.37149130277E+04  0.36959874290E+04 0.  0.
        2    1    3    3  502    0 -0.38285892589E+02  0.45550099681E+03 -0.16124831005E+04  0.16760216935E+04  0.25500000920E-02 0. -1.
       -2    1    3    3    0  502  0.38285892589E+02 -0.45550099681E+03  0.19869904139E+04  0.20388913342E+04  0.25500000920E-02 0.  1.
</event>
<event>
 5   0  0.1725865E-08  0.3699635E+04  0.7818609E-02  0.8068043E-01
        2   -1    0    0  501    0  0.00000000000E+00  0.00000000000E+00  0.22421276967E+04  0.22421276967E+04  0.25500000920E-02 0.  1.
       -2   -1    0    0    0  501  0.00000000000E+00  0.00000000000E+00 -0.15261503812E+04  0.15261503812E+04  0.25500000920E-02 0. -1.
    10030    2    1    2    0    0  0.00000000000E+00  0.00000000000E+00  0.71597731551E+03  0.37682780778E+04  0.36996345976E+04 0.  0.
        1    1    3    3  502    0  0.11960510040E+04 -0.74853298128E+03  0.15764214053E+04  0.21156427097E+04  0.50400001928E-02 0.  1.
       -1    1    3    3    0  502 -0.11960510040E+04  0.74853298128E+03 -0.86044408974E+03  0.16526353681E+04  0.50400001928E-02 0. -1.
</event>
<event>
 5   0  0.5714125E-09  0.3699799E+04  0.7818609E-02  0.8068006E-01
        1   -1    0    0  501    0  0.00000000000E+00  0.00000000000E+00  0.22852392978E+04  0.22852392978E+04  0.50400001928E-02 0.  1.
       -1   -1    0    0    0  501  0.00000000000E+00  0.00000000000E+00 -0.14974918811E+04  0.14974918811E+04  0.50400001928E-02 0. -1.
    10030    2    1    2    0    0  0.00000000000E+00  0.00000000000E+00  0.78774741662E+03  0.37827311789E+04  0.36997985323E+04 0.  0.
        1    1    3    3  502    0 -0.12110184097E+04  0.13553023833E+04  0.41596824706E+02  0.18180045199E+04  0.50400001928E-02 0. -1.
       -1    1    3    3    0  502  0.12110184097E+04 -0.13553023833E+04  0.74615059191E+03  0.19647266590E+04  0.50400001928E-02 0.  1.
</event>
<event>
 5   0  0.5714125E-09  0.3699884E+04  0.7818609E-02  0.8067987E-01
       -1   -1    0    0    0  501  0.00000000000E+00  0.00000000000E+00  0.14807987813E+04  0.14807987813E+04  0.50400001928E-02 0.  1.
        1   -1    0    0  501    0  0.00000000000E+00  0.00000000000E+00 -0.23111080848E+04  0.23111080848E+04  0.50400001928E-02 0. -1.
    10030    2    1    2    0    0  0.00000000000E+00  0.00000000000E+00 -0.83030930345E+03  0.37919068661E+04  0.36998843417E+04 0.  0.
        5    1    3    3  502    0  0.17989395762E+04 -0.26752930464E+03 -0.68347359415E+02  0.18200134558E+04  0.46999998093E+01 0. -1.
       -5    1    3    3    0  502 -0.17989395762E+04  0.26752930464E+03 -0.76196194404E+03  0.19718934104E+04  0.46999998093E+01 0.  1.
</event>
<event>
 5   0  0.1725865E-08  0.3699693E+04  0.7818609E-02  0.8068030E-01
        2   -1    0    0  501    0  0.00000000000E+00  0.00000000000E+00  0.14205901350E+04  0.14205901350E+04  0.25500000920E-02 0.  1.
       -2   -1    0    0    0  501  0.00000000000E+00  0.00000000000E+00 -0.24088099551E+04  0.24088099551E+04  0.25500000920E-02 0. -1.
    10030    2    1    2    0    0  0.00000000000E+00  0.00000000000E+00 -0.98821982011E+03  0.38294000901E+04  0.36996927761E+04 0.  0.
        1    1    3    3  502    0  0.22117246115E+03 -0.16580418095E+04  0.32346332832E+03  0.17037160634E+04  0.50400001928E-02 0. -1.
       -1    1    3    3    0  502 -0.22117246115E+03  0.16580418095E+04 -0.13116831484E+04  0.21256840268E+04  0.50400001928E-02 0.  1.
</event>
<event>
 5   0  0.5714125E-09  0.3699403E+04  0.7818609E-02  0.8068094E-01
        1   -1    0    0  501    0  0.00000000000E+00  0.00000000000E+00  0.20269178036E+04  0.20269178036E+04  0.50400001928E-02 0.  1.
       -1   -1    0    0    0  501  0.00000000000E+00  0.00000000000E+00 -0.16879795420E+04  0.16879795420E+04  0.50400001928E-02 0. -1.
    10030    2    1    2    0    0  0.00000000000E+00  0.00000000000E+00  0.33893826156E+03  0.37148973456E+04  0.36994030793E+04 0.  0.
        4    1    3    3  502    0  0.17343446870E+04 -0.64163898099E+03  0.21138238588E+03  0.18612727370E+04  0.12699999809E+01 0. -1.
       -4    1    3    3    0  502 -0.17343446870E+04  0.64163898099E+03  0.12755587568E+03  0.18536246086E+04  0.12699999809E+01 0.  1.
</event>
<event>
 5   0  0.1856107E-08  0.3699616E+04  0.7818609E-02  0.8068047E-01
       -2   -1    0    0    0  501  0.00000000000E+00  0.00000000000E+00  0.14602604549E+04  0.14602604549E+04  0.25500000920E-02 0.  1.
        2   -1    0    0  501    0  0.00000000000E+00  0.00000000000E+00 -0.23432733772E+04  0.23432733772E+04  0.25500000920E-02 0. -1.
    10030    2    1    2    0    0  0.00000000000E+00  0.00000000000E+00 -0.88301292224E+03  0.38035338321E+04  0.36996158978E+04 0.  0.
        2    1    3    3  502    0 -0.27400129334E+02 -0.18144983547E+04 -0.81023708767E+03  0.19873699164E+04  0.25500000920E-02 0. -1.
       -2    1    3    3    0  502  0.27400129334E+02  0.18144983547E+04 -0.72775834577E+02  0.18161639157E+04  0.25500000920E-02 0.  1.
</event>
<event>
 5   0  0.5714125E-09  0.3704055E+04  0.7818609E-02  0.8067064E-01
       -1   -1    0    0    0  501  0.00000000000E+00  0.00000000000E+00  0.15812777946E+04  0.15812777946E+04  0.50400001928E-02 0. -1.
        1   -1    0    0  501    0  0.00000000000E+00  0.00000000000E+00 -0.21691356067E+04  0.21691356067E+04  0.50400001928E-02 0.  1.
    10030    2    1    2    0    0  0.00000000000E+00  0.00000000000E+00 -0.58785781206E+03  0.37504134013E+04  0.37040550581E+04 0.  0.
        4    1    3    3  502    0 -0.61718842629E+03  0.17312192639E+04 -0.52473507122E+03  0.19113843677E+04  0.12699999809E+01 0. -1.
       -4    1    3    3    0  502  0.61718842629E+03 -0.17312192639E+04 -0.63122740841E+02  0.18390290336E+04  0.12699999809E+01 0.  1.
</event>
<event>
 5   0  0.5714125E-09  0.3701434E+04  0.7818609E-02  0.8067644E-01
        1   -1    0    0  501    0  0.00000000000E+00  0.00000000000E+00  0.19291012176E+04  0.19291012176E+04  0.50400001928E-02 0.  1.
       -1   -1    0    0    0  501  0.00000000000E+00  0.00000000000E+00 -0.17755181529E+04  0.17755181529E+04  0.50400001928E-02 0. -1.
    10030    2    1    2    0    0  0.00000000000E+00  0.00000000000E+00  0.15358306472E+03  0.37046193705E+04  0.37014344412E+04 0.  0.
        1    1    3    3  502    0 -0.51787056684E+03  0.17096134729E+04 -0.40755263043E+03  0.18322301431E+04  0.50400001928E-02 0. -1.
       -1    1    3    3    0  502  0.51787056684E+03 -0.17096134729E+04  0.56113569515E+03  0.18723892274E+04  0.50400001928E-02 0.  1.
</event>
<event>
 5   0  0.1740290E-08  0.3699033E+04  0.7818609E-02  0.8068176E-01
        2   -1    0    0  501    0  0.00000000000E+00  0.00000000000E+00  0.21712653407E+04  0.21712653407E+04  0.25500000920E-02 0. -1.
       -2   -1    0    0    0  501  0.00000000000E+00  0.00000000000E+00 -0.15754457298E+04  0.15754457298E+04  0.25500000920E-02 0.  1.
    10030    2    1    2    0    0  0.00000000000E+00  0.00000000000E+00  0.59581961093E+03  0.37467110705E+04  0.36990326893E+04 0.  0.
        5    1    3    3  502    0  0.11713893309E+03 -0.13868843974E+04 -0.93578732676E+03  0.16771672166E+04  0.46999998093E+01 0.  1.
       -5    1    3    3    0  502 -0.11713893309E+03  0.13868843974E+04  0.15316069377E+04  0.20695438539E+04  0.46999998093E+01 0. -1.
</event>
<event>
 5   0  0.5714125E-09  0.3700726E+04  0.7818609E-02  0.8067801E-01
        1   -1    0    0  501    0  0.00000000000E+00  0.00000000000E+00  0.21312056300E+04  0.21312056300E+04  0.50400001928E-02 0. -1.
       -1   -1    0    0    0  501  0.00000000000E+00  0.00000000000E+00 -0.16065289094E+04  0.16065289094E+04  0.50400001928E-02 0.  1.
    10030    2    1    2    0    0  0.00000000000E+00  0.00000000000E+00  0.52467672067E+03  0.37377345394E+04  0.37007261214E+04 0.  0.
        3    1    3    3  502    0 -0.29967908704E+03  0.11826526370E+04 -0.11427490970E+04  0.16716310370E+04  0.10100000352E+00 0.  1.
       -3    1    3    3    0  502  0.29967908704E+03 -0.11826526370E+04  0.16674258177E+04  0.20661035024E+04  0.10100000352E+00 0. -1.
</event>
<event>
 5   0  0.5714125E-09  0.3698908E+04  0.7818609E-02  0.8068204E-01
        1   -1    0    0  501    0  0.00000000000E+00  0.00000000000E+00  0.26715946002E+04  0.26715946003E+04  0.50400001928E-02 0. -1.
       -1   -1    0    0    0  501  0.00000000000E+00  0.00000000000E+00 -0.12803137448E+04  0.12803137449E+04  0.50400001928E-02 0.  1.
    10030    2    1    2    0    0  0.00000000000E+00  0.00000000000E+00  0.13912808554E+04  0.39519083451E+04  0.36989075616E+04 0.  0.
        3    1    3    3  502    0 -0.41535127898E+02  0.60517373033E+03  0.25622890063E+04  0.26331132472E+04  0.10100000352E+00 0. -1.
       -3    1    3    3    0  502  0.41535127898E+02 -0.60517373033E+03 -0.11710081509E+04  0.13187950979E+04  0.10100000352E+00 0.  1.
</event>
<event>
 5   0  0.1856107E-08  0.3698516E+04  0.7818609E-02  0.8068291E-01
        2   -1    0    0  501    0  0.00000000000E+00  0.00000000000E+00  0.16298336880E+04  0.16298336880E+04  0.25500000920E-02 0.  1.
       -2   -1    0    0    0  501  0.00000000000E+00  0.00000000000E+00 -0.20982236761E+04  0.20982236761E+04  0.25500000920E-02 0. -1.
    10030    2    1    2    0    0  0.00000000000E+00  0.00000000000E+00 -0.46838998810E+03  0.37280573640E+04  0.36985162604E+04 0.  0.
        2    1    3    3  502    0 -0.85693783701E+03 -0.16377349699E+04 -0.17684287492E+03  0.18568230101E+04  0.25500000920E-02 0. -1.
       -2    1    3    3    0  502  0.85693783701E+03  0.16377349699E+04 -0.29154711318E+03  0.18712343540E+04  0.25500000920E-02 0.  1.
</event>
<event>
 5   0  0.1825308E-08  0.3671981E+04  0.7818609E-02  0.8074200E-01
       -2   -1    0    0    0  501  0.00000000000E+00  0.00000000000E+00  0.20872527106E+04  0.20872527106E+04  0.25500000920E-02 0. -1.
        2   -1    0    0  501    0  0.00000000000E+00  0.00000000000E+00 -0.16149749718E+04  0.16149749718E+04  0.25500000920E-02 0.  1.
    10030    2    1    2    0    0  0.00000000000E+00  0.00000000000E+00  0.47227773881E+03  0.37022276823E+04  0.36719808754E+04 0.  0.
        4    1    3    3  502    0 -0.13620358720E+04  0.77666303395E+03  0.11992624736E+04  0.19739755010E+04  0.12699999809E+01 0. -1.
       -4    1    3    3    0  502  0.13620358720E+04 -0.77666303395E+03 -0.72698473478E+03  0.17282521814E+04  0.12699999809E+01 0.  1.
</event>
<event>
 5   0  0.5714125E-09  0.3699539E+04  0.7818609E-02  0.8068064E-01
        1   -1    0    0  501    0  0.00000000000E+00  0.00000000000E+00  0.12861413724E+04  0.12861413724E+04  0.50400001928E-02 0. -1.
       -1   -1    0    0    0  501  0.00000000000E+00  0.00000000000E+00 -0.26603967149E+04  0.26603967149E+04  0.50400001928E-02 0.  1.
    10030    2    1    2    0    0  0.00000000000E+00  0.00000000000E+00 -0.13742553425E+04  0.39465380873E+04  0.36995385020E+04 0.  0.
        3    1    3    3  502    0 -0.13180140935E+04  0.12598771636E+04 -0.35455241424E+03  0.18574603745E+04  0.10100000352E+00 0.  1.
       -3    1    3    3    0  502  0.13180140935E+04 -0.12598771636E+04 -0.10197029283E+04  0.20890777128E+04  0.10100000352E+00 0. -1.
</event>
<event>
 5   0  0.1856107E-08  0.3699866E+04  0.7818609E-02  0.8067992E-01
       -2   -1    0    0    0  501  0.00000000000E+00  0.00000000000E+00  0.16601790390E+04  0.16601790390E+04  0.25500000920E-02 0.  1.
        2   -1    0    0  501    0  0.00000000000E+00  0.00000000000E+00 -0.20613752569E+04  0.20613752569E+04  0.25500000920E-02 0. -1.
    10030    2    1    2    0    0  0.00000000000E+00  0.00000000000E+00 -0.40119621784E+03  0.37215542959E+04  0.36998659398E+04 0.  0.
        2    1    3    3  502    0 -0.10342026994E+04  0.26758567585E+03  0.13185780033E+04  0.16970047932E+04  0.25500000920E-02 0.  1.
       -2    1    3    3    0  502  0.10342026994E+04 -0.26758567585E+03 -0.17197742211E+04  0.20245495027E+04  0.25500000920E-02 0. -1.
</event>
<event>
 5   0  0.1825308E-08  0.3698702E+04  0.7818609E-02  0.8068249E-01
       -2   -1    0    0    0  501  0.00000000000E+00  0.00000000000E+00  0.24244389242E+04  0.24244389242E+04  0.25500000920E-02 0. -1.
        2   -1    0    0  501    0  0.00000000000E+00  0.00000000000E+00 -0.14106768611E+04  0.14106768611E+04  0.25500000920E-02 0.  1.
    10030    2    1    2    0    0  0.00000000000E+00  0.00000000000E+00  0.10137620631E+04  0.38351157854E+04  0.36987024166E+04 0.  0.
        4    1    3    3  502    0  0.71941126930E+03 -0.52745721729E+02  0.22725544772E+04  0.23842902823E+04  0.12699999809E+01 0. -1.
       -4    1    3    3    0  502 -0.71941126930E+03  0.52745721729E+02 -0.12587924141E+04  0.14508255030E+04  0.12699999809E+01 0.  1.
</event>
<event>
 5   0  0.1757996E-08  0.3720628E+04  0.7818609E-02  0.8063406E-01
        2   -1    0    0  501    0  0.00000000000E+00  0.00000000000E+00  0.20170972773E+04  0.20170972773E+04  0.25500000920E-02 0. -1.
       -2   -1    0    0    0  501  0.00000000000E+00  0.00000000000E+00 -0.17157166816E+04  0.17157166816E+04  0.25500000920E-02 0.  1.
    10030    2    1    2    0    0  0.00000000000E+00  0.00000000000E+00  0.30138059564E+03  0.37328139589E+04  0.37206276068E+04 0.  0.
        3    1    3    3  502    0  0.75443108502E+03 -0.10013856369E+04  0.15295381445E+04  0.19777326415E+04  0.10100000352E+00 0. -1.
       -3    1    3    3    0  502 -0.75443108502E+03  0.10013856369E+04 -0.12281575488E+04  0.17550813174E+04  0.10100000352E+00 0.  1.
</event>
<event>
 5   0  0.5714125E-09  0.3708285E+04  0.7818609E-02  0.8066128E-01
       -1   -1    0    0    0  501  0.00000000000E+00  0.00000000000E+00  0.21502330469E+04  0.21502330469E+04  0.50400001928E-02 0.  1.
        1   -1    0    0  501    0  0.00000000000E+00  0.00000000000E+00 -0.15988237563E+04  0.15988237563E+04  0.50400001928E-02 0. -1.
    10030    2    1    2    0    0  0.00000000000E+00  0.00000000000E+00  0.55140929062E+03  0.37490568032E+04  0.37082846044E+04 0.  0.
        5    1    3    3  502    0 -0.74752696124E+03 -0.44463440949E+03 -0.13797744963E+04  0.16310414055E+04  0.46999998093E+01 0. -1.
       -5    1    3    3    0  502  0.74752696124E+03  0.44463440949E+03  0.19311837869E+04  0.21180153977E+04  0.46999998093E+01 0.  1.
</event>
<event>
 5   0  0.1856107E-08  0.3699880E+04  0.7818609E-02  0.8067988E-01
       -2   -1    0    0    0  501  0.00000000000E+00  0.00000000000E+00  0.16612739951E+04  0.16612739951E+04  0.25500000920E-02 0. -1.
        2   -1    0    0  501    0  0.00000000000E+00  0.00000000000E+00 -0.20600320484E+04  0.20600320484E+04  0.25500000920E-02 0.  1.
    10030    2    1    2    0    0  0.00000000000E+00  0.00000000000E+00 -0.39875805333E+03  0.37213060435E+04  0.36998798202E+04 0.  0.
        2    1    3    3  502    0  0.96615375389E+03  0.10523335162E+04  0.98276514777E+03  0.17339798849E+04  0.25500000920E-02 0. -1.
       -2    1    3    3    0  502 -0.96615375389E+03 -0.10523335162E+04 -0.13815232011E+04  0.19873261586E+04  0.25500000920E-02 0.  1.
</event>
<event>
 5   0  0.5714125E-09  0.3697184E+04  0.7818609E-02  0.8068586E-01
       -3   -1    0    0    0  501  0.00000000000E+00  0.00000000000E+00  0.16887924272E+04  0.16887924303E+04  0.10100000352E+00 0.  1.
        3   -1    0    0  501    0  0.00000000000E+00  0.00000000000E+00 -0.20235128296E+04  0.20235128321E+04  0.10100000352E+00 0. -1.
    10030    2    1    2    0    0  0.00000000000E+00  0.00000000000E+00 -0.33472040236E+03  0.37123052624E+04  0.36971844170E+04 0.  0.
        1    1    3    3  502    0  0.68542913399E+03 -0.61415286805E+03 -0.17771314391E+04  0.20012978276E+04  0.50400001928E-02 0. -1.
       -1    1    3    3    0  502 -0.68542913399E+03  0.61415286805E+03  0.14424110367E+04  0.17110074348E+04  0.50400001928E-02 0.  1.
</event>
<event>
 5   0  0.5714125E-09  0.3699215E+04  0.7818609E-02  0.8068136E-01
        1   -1    0    0  501    0  0.00000000000E+00  0.00000000000E+00  0.18168324369E+04  0.18168324369E+04  0.50400001928E-02 0. -1.
       -1   -1    0    0    0  501  0.00000000000E+00  0.00000000000E+00 -0.18829739682E+04  0.18829739682E+04  0.50400001928E-02 0.  1.
    10030    2    1    2    0    0  0.00000000000E+00  0.00000000000E+00 -0.66141531251E+02  0.36998064051E+04  0.36992151509E+04 0.  0.
        4    1    3    3  502    0  0.45028500827E+03  0.10123685373E+04 -0.15143206213E+04  0.18763835431E+04  0.12699999809E+01 0.  1.
       -4    1    3    3    0  502 -0.45028500827E+03 -0.10123685373E+04  0.14481790900E+04  0.18234228620E+04  0.12699999809E+01 0. -1.
</event>
<event>
 5   0  0.1856107E-08  0.3700099E+04  0.7818609E-02  0.8067940E-01
        2   -1    0    0  501    0  0.00000000000E+00  0.00000000000E+00  0.24320307391E+04  0.24320307391E+04  0.25500000920E-02 0. -1.
       -2   -1    0    0    0  501  0.00000000000E+00  0.00000000000E+00 -0.14073357559E+04  0.14073357559E+04  0.25500000920E-02 0.  1.
    10030    2    1    2    0    0  0.00000000000E+00  0.00000000000E+00  0.10246949832E+04  0.38393664950E+04  0.37000993601E+04 0.  0.
        2    1    3    3  502    0 -0.12510228802E+04  0.26152670918E+03 -0.87561967026E+03  0.15492463566E+04  0.25500000920E-02 0.  1.
       -2    1    3    3    0  502  0.12510228802E+04 -0.26152670918E+03  0.19003146535E+04  0.22901201385E+04  0.25500000920E-02 0. -1.
</event>
<event>
 5   0  0.5714125E-09  0.3700773E+04  0.7818609E-02  0.8067791E-01
       -1   -1    0    0    0  501  0.00000000000E+00  0.00000000000E+00  0.14019404335E+04  0.14019404335E+04  0.50400001928E-02 0. -1.
        1   -1    0    0  501    0  0.00000000000E+00  0.00000000000E+00 -0.24422788801E+04  0.24422788801E+04  0.50400001928E-02 0.  1.
    10030    2    1    2    0    0  0.00000000000E+00  0.00000000000E+00 -0.10403384466E+04  0.38442193136E+04  0.37007726284E+04 0.  0.
        5    1    3    3  502    0 -0.10208751096E+04  0.14625840868E+04 -0.85656135973E+01  0.17836573831E+04  0.46999998093E+01 0. -1.
       -5    1    3    3    0  502  0.10208751096E+04 -0.14625840868E+04 -0.10317728330E+04  0.20605619305E+04  0.46999998093E+01 0.  1.
</event>
<event>
 5   0  0.5714125E-09  0.3700235E+04  0.7818609E-02  0.8067910E-01
       -1   -1    0    0    0  501  0.00000000000E+00  0.00000000000E+00  0.16337340365E+04  0.16337340365E+04  0.50400001928E-02 0. -1.
        1   -1    0    0  501    0  0.00000000000E+00  0.00000000000E+00 -0.20951608904E+04  0.20951608904E+04  0.50400001928E-02 0.  1.
    10030    2    1    2    0    0  0.00000000000E+00  0.00000000000E+00 -0.46142685391E+03  0.37288949270E+04  0.37002354837E+04 0.  0.
        5    1    3    3  502    0 -0.42402792036E+03 -0.17468709729E+04  0.21034722700E+03  0.18098690337E+04  0.46999998093E+01 0. -1.
       -5    1    3    3    0  502  0.42402792036E+03  0.17468709729E+04 -0.67177408091E+03  0.19190258933E+04  0.46999998093E+01 0.  1.
</event>
<event>
 5   0  0.5714125E-09  0.3700022E+04  0.7818609E-02  0.8067957E-01
        1   -1    0    0  501    0  0.00000000000E+00  0.00000000000E+00  0.14920775442E+04  0.14920775442E+04  0.50400001928E-02 0.  1.
       -1   -1    0    0    0  501  0.00000000000E+00  0.00000000000E+00 -0.22938093323E+04  0.22938093323E+04  0.50400001928E-02 0. -1.
    10030    2    1    2    0    0  0.00000000000E+00  0.00000000000E+00 -0.80173178813E+03  0.37858868765E+04  0.37000223759E+04 0.  0.
        3    1    3    3  502    0  0.10553247881E+04 -0.11091988021E+04  0.66174721210E+03  0.16679153977E+04  0.10100000352E+00 0.  1.
       -3    1    3    3    0  502 -0.10553247881E+04  0.11091988021E+04 -0.14634790002E+04  0.21179714789E+04  0.10100000352E+00 0. -1.
</event>
<event>
 5   0  0.5714125E-09  0.3700421E+04  0.7818609E-02  0.8067868E-01
       -1   -1    0    0    0  501  0.00000000000E+00  0.00000000000E+00  0.23841567342E+04  0.23841567342E+04  0.50400001928E-02 0.  1.
        1   -1    0    0  501    0  0.00000000000E+00  0.00000000000E+00 -0.14358448952E+04  0.14358448952E+04  0.50400001928E-02 0. -1.
    10030    2    1    2    0    0  0.00000000000E+00  0.00000000000E+00  0.94831183896E+03  0.38200016294E+04  0.37004212064E+04 0.  0.
        2    1    3    3  502    0  0.18056260861E+04  0.30175309211E+02  0.88976147101E+03  0.20131745050E+04  0.25500000920E-02 0.  1.
       -2    1    3    3    0  502 -0.18056260861E+04 -0.30175309211E+02  0.58550367954E+02  0.18068271245E+04  0.25500000920E-02 0. -1.
</event>
<event>
 5   0  0.1740290E-08  0.3703285E+04  0.7818609E-02  0.8067234E-01
       -2   -1    0    0    0  501  0.00000000000E+00  0.00000000000E+00  0.10394703010E+04  0.10394703010E+04  0.25500000920E-02 0. -1.
        2   -1    0    0  501    0  0.00000000000E+00  0.00000000000E+00 -0.32983914164E+04  0.32983914164E+04  0.25500000920E-02 0.  1.
    10030    2    1    2    0    0  0.00000000000E+00  0.00000000000E+00 -0.22589211155E+04  0.43378617174E+04  0.37032849841E+04 0.  0.
        5    1    3    3  502    0  0.16510293712E+04 -0.78307309611E+03 -0.77911694469E+03  0.19864910677E+04  0.46999998093E+01 0. -1.
       -5    1    3    3    0  502 -0.16510293712E+04  0.78307309611E+03 -0.14798041708E+04  0.23513706497E+04  0.46999998093E+01 0.  1.
</event>
<event>
 5   0  0.5714125E-09  0.3699440E+04  0.7818609E-02  0.8068086E-01
       -1   -1    0    0    0  501  0.00000000000E+00  0.00000000000E+00  0.14083779194E+04  0.14083779194E+04  0.50400001928E-02 0. -1.
        1   -1    0    0  501    0  0.00000000000E+00  0.00000000000E+00 -0.24293650140E+04  0.24293650140E+04  0.50400001928E-02 0.  1.
    10030    2    1    2    0    0  0.00000000000E+00  0.00000000000E+00 -0.10209870946E+04  0.38377429334E+04  0.36994399814E+04 0.  0.
        4    1    3    3  502    0  0.14289057068E+04  0.10903566080E+04 -0.96364597038E+03  0.20394274247E+04  0.12699999809E+01 0.  1.
       -4    1    3    3    0  502 -0.14289057068E+04 -0.10903566080E+04 -0.57341124255E+02  0.17983155087E+04  0.12699999809E+01 0. -1.
</event>
<event>
 5   0  0.5714125E-09  0.3701687E+04  0.7818609E-02  0.8067588E-01
        1   -1    0    0  501    0  0.00000000000E+00  0.00000000000E+00  0.27931420535E+04  0.27931420535E+04  0.50400001928E-02 0.  1.
       -1   -1    0    0    0  501  0.00000000000E+00  0.00000000000E+00 -0.12264403852E+04  0.12264403852E+04  0.50400001928E-02 0. -1.
    10030    2    1    2    0    0  0.00000000000E+00  0.00000000000E+00  0.15667016682E+04  0.40195824387E+04  0.37016872996E+04 0.  0.
        5    1    3    3  502    0  0.14694951632E+03 -0.30844479809E+03  0.27585955900E+04  0.27796769727E+04  0.46999998093E+01 0.  1.
       -5    1    3    3    0  502 -0.14694951632E+03  0.30844479809E+03 -0.11918939217E+04  0.12399054659E+04  0.46999998093E+01 0. -1.
</event>
<event>
 5   0  0.1856107E-08  0.3709262E+04  0.7818609E-02  0.8065912E-01
        2   -1    0    0  501    0  0.00000000000E+00  0.00000000000E+00  0.15114052599E+04  0.15114052599E+04  0.25500000920E-02 0.  1.
       -2   -1    0    0    0  501  0.00000000000E+00  0.00000000000E+00 -0.22757999075E+04  0.22757999075E+04  0.25500000920E-02 0. -1.
    10030    2    1    2    0    0  0.00000000000E+00  0.00000000000E+00 -0.76439464765E+03  0.37872051674E+04  0.37092618946E+04 0.  0.
        2    1    3    3  502    0 -0.75919126466E+03  0.49850619390E+03  0.12688084518E+04  0.15603700488E+04  0.25500000920E-02 0.  1.
       -2    1    3    3    0  502  0.75919126466E+03 -0.49850619390E+03 -0.20332030995E+04  0.22268351186E+04  0.25500000920E-02 0. -1.
</event>
<event>
 5   0  0.5714125E-09  0.3696576E+04  0.7818609E-02  0.8068721E-01
       -1   -1    0    0    0  501  0.00000000000E+00  0.00000000000E+00  0.23799768460E+04  0.23799768460E+04  0.50400001928E-02 0. -1.
        1   -1    0    0  501    0  0.00000000000E+00  0.00000000000E+00 -0.14353790994E+04  0.14353790994E+04  0.50400001928E-02 0.  1.
    10030    2    1    2    0    0  0.00000000000E+00  0.00000000000E+00  0.94459774658E+03  0.38153559454E+04  0.36965762655E+04 0.  0.
        2    1    3    3  502    0  0.97745357183E+03 -0.36571495260E+02 -0.11463453160E+04  0.15069374715E+04  0.25500000920E-02 0.  1.
       -2    1    3    3    0  502 -0.97745357183E+03  0.36571495260E+02  0.20909430626E+04  0.23084184739E+04  0.25500000920E-02 0. -1.
</event>
<event>
 5   0  0.1740290E-08  0.3692922E+04  0.7818609E-02  0.8069532E-01
       -2   -1    0    0    0  501  0.00000000000E+00  0.00000000000E+00  0.20927391917E+04  0.20927391917E+04  0.25500000920E-02 0. -1.
        2   -1    0    0  501    0  0.00000000000E+00  0.00000000000E+00 -0.16291652993E+04  0.16291652993E+04  0.25500000920E-02 0.  1.
    10030    2    1    2    0    0  0.00000000000E+00  0.00000000000E+00  0.46357389237E+03  0.37219044910E+04  0.36929219172E+04 0.  0.
        5    1    3    3  502    0 -0.12733087219E+04  0.92092670966E+03  0.12089189146E+04  0.19826568381E+04  0.46999998093E+01 0. -1.
       -5    1    3    3    0  502  0.12733087219E+04 -0.92092670966E+03 -0.74534502222E+03  0.17392476529E+04  0.46999998093E+01 0.  1.
</event>
<event>
 5   0  0.5714125E-09  0.3703853E+04  0.7818609E-02  0.8067109E-01
        1   -1    0    0  501    0  0.00000000000E+00  0.00000000000E+00  0.10957597772E+04  0.10957597772E+04  0.50400001928E-02 0.  1.
       -1   -1    0    0    0  501  0.00000000000E+00  0.00000000000E+00 -0.31299119110E+04  0.31299119110E+04  0.50400001928E-02 0. -1.
    10030    2    1    2    0    0  0.00000000000E+00  0.00000000000E+00 -0.20341521338E+04  0.42256716882E+04  0.37038529011E+04 0.  0.
        1    1    3    3  502    0 -0.97455485143E+03 -0.55353619386E+03  0.66489707430E+03  0.13031682914E+04  0.50400001928E-02 0.  1.
       -1    1    3    3    0  502  0.97455485143E+03  0.55353619386E+03 -0.26990492081E+04  0.29225033967E+04  0.50400001928E-02 0. -1.
</event>
<event>
 5   0  0.1757996E-08  0.3700245E+04  0.7818609E-02  0.8067907E-01
       -2   -1    0    0    0  501  0.00000000000E+00  0.00000000000E+00  0.19449414005E+04  0.19449414005E+04  0.25500000920E-02 0.  1.
        2   -1    0    0  501    0  0.00000000000E+00  0.00000000000E+00 -0.17599265055E+04  0.17599265055E+04  0.25500000920E-02 0. -1.
    10030    2    1    2    0    0  0.00000000000E+00  0.00000000000E+00  0.18501489506E+03  0.37048679060E+04  0.37002453553E+04 0.  0.
        3    1    3    3  502    0 -0.36014916740E+03  0.26488546126E+03 -0.17050297889E+04  0.17626679555E+04  0.10100000352E+00 0. -1.
       -3    1    3    3    0  502  0.36014916740E+03 -0.26488546126E+03  0.18900446839E+04  0.19421999505E+04  0.10100000352E+00 0.  1.
</event>
<event>
 5   0  0.1740290E-08  0.3696087E+04  0.7818609E-02  0.8068829E-01
       -2   -1    0    0    0  501  0.00000000000E+00  0.00000000000E+00  0.17045115463E+04  0.17045115463E+04  0.25500000920E-02 0. -1.
        2   -1    0    0  501    0  0.00000000000E+00  0.00000000000E+00 -0.20036621492E+04  0.20036621492E+04  0.25500000920E-02 0.  1.
    10030    2    1    2    0    0  0.00000000000E+00  0.00000000000E+00 -0.29915060291E+03  0.37081736956E+04  0.36960872654E+04 0.  0.
        5    1    3    3  502    0 -0.15662820256E+04  0.28708193505E+03 -0.10905055718E+04  0.19299947962E+04  0.46999998093E+01 0. -1.
       -5    1    3    3    0  502  0.15662820256E+04 -0.28708193505E+03  0.79135496892E+03  0.17781788994E+04  0.46999998093E+01 0.  1.
</event>
<event>
 5   0  0.5714125E-09  0.3699086E+04  0.7818609E-02  0.8068164E-01
       -1   -1    0    0    0  501  0.00000000000E+00  0.00000000000E+00  0.33307682131E+04  0.33307682131E+04  0.50400001928E-02 0.  1.
        1   -1    0    0  501    0  0.00000000000E+00  0.00000000000E+00 -0.10270330333E+04  0.10270330333E+04  0.50400001928E-02 0. -1.
    10030    2    1    2    0    0  0.00000000000E+00  0.00000000000E+00  0.23037351797E+04  0.43578012464E+04  0.36990858228E+04 0.  0.
        1    1    3    3  502    0 -0.84965194366E+03 -0.15075657281E+04  0.19209135345E+04  0.25854538589E+04  0.50400001928E-02 0.  1.
       -1    1    3    3    0  502  0.84965194366E+03  0.15075657281E+04  0.38282164527E+03  0.17723473875E+04  0.50400001928E-02 0. -1.
</event>
<event>
 5   0  0.1856107E-08  0.3699582E+04  0.7818609E-02  0.8068054E-01
       -2   -1    0    0    0  501  0.00000000000E+00  0.00000000000E+00  0.19190867389E+04  0.19190867389E+04  0.25500000920E-02 0. -1.
        2   -1    0    0  501    0  0.00000000000E+00  0.00000000000E+00 -0.17829976469E+04  0.17829976469E+04  0.25500000920E-02 0.  1.
    10030    2    1    2    0    0  0.00000000000E+00  0.00000000000E+00  0.13608909205E+03  0.37020843858E+04  0.36995822141E+04 0.  0.
        2    1    3    3  502    0  0.22213204074E+03  0.18313665864E+04  0.20408104695E+03  0.18560429119E+04  0.25500000920E-02 0. -1.
       -2    1    3    3    0  502 -0.22213204074E+03 -0.18313665864E+04 -0.67991954901E+02  0.18460414738E+04  0.25500000920E-02 0.  1.
</event>
<event>
 5   0  0.1740290E-08  0.3700678E+04  0.7818609E-02  0.8067812E-01
        2   -1    0    0  501    0  0.00000000000E+00  0.00000000000E+00  0.19530995505E+04  0.19530995505E+04  0.25500000920E-02 0.  1.
       -2   -1    0    0    0  501  0.00000000000E+00  0.00000000000E+00 -0.17529854820E+04  0.17529854820E+04  0.25500000920E-02 0. -1.
    10030    2    1    2    0    0  0.00000000000E+00  0.00000000000E+00  0.20011406852E+03  0.37060850325E+04  0.37006784010E+04 0.  0.
        5    1    3    3  502    0 -0.15688771590E+04  0.95325691922E+03  0.33203909513E+03  0.18655686384E+04  0.46999998093E+01 0.  1.
       -5    1    3    3    0  502  0.15688771590E+04 -0.95325691922E+03 -0.13192502660E+03  0.18405163940E+04  0.46999998093E+01 0. -1.
</event>
<event>
 5   0  0.5714125E-09  0.3700257E+04  0.7818609E-02  0.8067905E-01
        1   -1    0    0  501    0  0.00000000000E+00  0.00000000000E+00  0.17811678325E+04  0.17811678325E+04  0.50400001928E-02 0.  1.
       -1   -1    0    0    0  501  0.00000000000E+00  0.00000000000E+00 -0.19217590803E+04  0.19217590803E+04  0.50400001928E-02 0. -1.
    10030    2    1    2    0    0  0.00000000000E+00  0.00000000000E+00 -0.14059124782E+03  0.37029269128E+04  0.37002569941E+04 0.  0.
        2    1    3    3  502    0 -0.13345926851E+04 -0.12479062939E+04  0.22071947162E+03  0.18404143117E+04  0.25500000920E-02 0.  1.
       -2    1    3    3    0  502  0.13345926851E+04  0.12479062939E+04 -0.36131071944E+03  0.18625126011E+04  0.25500000920E-02 0. -1.
</event>
<event>
 5   0  0.1740290E-08  0.3694131E+04  0.7818609E-02  0.8069264E-01
        2   -1    0    0  501    0  0.00000000000E+00  0.00000000000E+00  0.14323071973E+04  0.14323071973E+04  0.25500000920E-02 0. -1.
       -2   -1    0    0    0  501  0.00000000000E+00  0.00000000000E+00 -0.23819262401E+04  0.23819262401E+04  0.25500000920E-02 0.  1.
    10030    2    1    2    0    0  0.00000000000E+00  0.00000000000E+00 -0.94961904271E+03  0.38142334374E+04  0.36941305322E+04 0.  0.
        5    1    3    3  502    0 -0.25379107703E+03 -0.11006005863E+04 -0.19837952361E+04  0.22828046763E+04  0.46999998093E+01 0.  1.
       -5    1    3    3    0  502  0.25379107703E+03  0.11006005863E+04  0.10341761934E+04  0.15314287611E+04  0.46999998093E+01 0. -1.
</event>
<event>
 5   0  0.5714125E-09  0.3700777E+04  0.7818609E-02  0.8067790E-01
        1   -1    0    0  501    0  0.00000000000E+00  0.00000000000E+00  0.14026315804E+04  0.14026315804E+04  0.50400001928E-02 0.  1.
       -1   -1    0    0    0  501  0.00000000000E+00  0.00000000000E+00 -0.24410810769E+04  0.24410810769E+04  0.50400001928E-02 0. -1.
    10030    2    1    2    0    0  0.00000000000E+00  0.00000000000E+00 -0.10384494965E+04  0.38437126573E+04  0.37007768961E+04 0.  0.
        4    1    3    3  502    0 -0.59475981644E+03 -0.59427189019E+03 -0.22312328838E+04  0.23843867374E+04  0.12699999809E+01 0. -1.
       -4    1    3    3    0  502  0.59475981644E+03  0.59427189019E+03  0.11927833873E+04  0.14593259199E+04  0.12699999809E+01 0.  1.
</event>
<event>
 5   0  0.5714125E-09  0.3700201E+04  0.7818609E-02  0.8067917E-01
        1   -1    0    0  501    0  0.00000000000E+00  0.00000000000E+00  0.14373446868E+04  0.14373446868E+04  0.50400001928E-02 0.  1.
       -1   -1    0    0    0  501  0.00000000000E+00  0.00000000000E+00 -0.23813859259E+04  0.23813859259E+04  0.50400001928E-02 0. -1.
    10030    2    1    2    0    0  0.00000000000E+00  0.00000000000E+00 -0.94404123916E+03  0.38187306127E+04  0.37002012961E+04 0.  0.
        5    1    3    3  502    0  0.74583946031E+03  0.64950806771E+03  0.11416229830E+04  0.15104510438E+04  0.46999998093E+01 0.  1.
       -5    1    3    3    0  502 -0.74583946031E+03 -0.64950806771E+03 -0.20856642221E+04  0.23082795689E+04  0.46999998093E+01 0. -1.
</event>
<event>
 5   0  0.5714125E-09  0.3700925E+04  0.7818609E-02  0.8067757E-01
        1   -1    0    0  501    0  0.00000000000E+00  0.00000000000E+00  0.32916375222E+04  0.32916375222E+04  0.50400001928E-02 0.  1.
       -1   -1    0    0    0  501  0.00000000000E+00  0.00000000000E+00 -0.10402762438E+04  0.10402762438E+04  0.50400001928E-02 0. -1.
    10030    2    1    2    0    0  0.00000000000E+00  0.00000000000E+00  0.22513612784E+04  0.43319137660E+04  0.37009254613E+04 0.  0.
        5    1    3    3  502    0  0.12954615256E+04  0.11194590491E+04  0.30401242641E+03  0.17389234521E+04  0.46999998093E+01 0. -1.
       -5    1    3    3    0  502 -0.12954615256E+04 -0.11194590491E+04  0.19473488520E+04  0.25929903139E+04  0.46999998093E+01 0.  1.
</event>
<event>
 5   0  0.5714125E-09  0.3700070E+04  0.7818609E-02  0.8067946E-01
        3   -1    0    0  501    0  0.00000000000E+00  0.00000000000E+00  0.29177591783E+04  0.29177591800E+04  0.10100000352E+00 0. -1.
       -3   -1    0    0    0  501  0.00000000000E+00  0.00000000000E+00 -0.11730334599E+04  0.11730334642E+04  0.10100000352E+00 0.  1.
    10030    2    1    2    0    0  0.00000000000E+00  0.00000000000E+00  0.17447257184E+04  0.40907926442E+04  0.37000698136E+04 0.  0.
        3    1    3    3  502    0  0.11860312671E+04 -0.37725862633E+03  0.23857151293E+04  0.26908420477E+04  0.10100000352E+00 0. -1.
       -3    1    3    3    0  502 -0.11860312671E+04  0.37725862633E+03 -0.64098941086E+03  0.13999505965E+04  0.10100000352E+00 0.  1.
</event>
<event>
 5   0  0.1757996E-08  0.3703287E+04  0.7818609E-02  0.8067234E-01
       -2   -1    0    0    0  501  0.00000000000E+00  0.00000000000E+00  0.18514188219E+04  0.18514188219E+04  0.25500000920E-02 0.  1.
        2   -1    0    0  501    0  0.00000000000E+00  0.00000000000E+00 -0.18518681009E+04  0.18518681009E+04  0.25500000920E-02 0. -1.
    10030    2    1    2    0    0  0.00000000000E+00  0.00000000000E+00 -0.44927905979E+00  0.37032869228E+04  0.37032868955E+04 0.  0.
        3    1    3    3  502    0 -0.11260512594E+04  0.14677713888E+04  0.78763707830E+02  0.18516338786E+04  0.10100000352E+00 0. -1.
       -3    1    3    3    0  502  0.11260512594E+04 -0.14677713888E+04 -0.79212986890E+02  0.18516530442E+04  0.10100000352E+00 0.  1.
</event>
<event>
 5   0  0.5714125E-09  0.3700072E+04  0.7818609E-02  0.8067946E-01
       -1   -1    0    0    0  501  0.00000000000E+00  0.00000000000E+00  0.19196439925E+04  0.19196439925E+04  0.50400001928E-02 0. -1.
        1   -1    0    0  501    0  0.00000000000E+00  0.00000000000E+00 -0.17829516786E+04  0.17829516786E+04  0.50400001928E-02 0.  1.
    10030    2    1    2    0    0  0.00000000000E+00  0.00000000000E+00  0.13669231389E+03  0.37025956711E+04  0.37000716094E+04 0.  0.
        5    1    3    3  502    0  0.59214383706E+03 -0.17453488730E+04 -0.92179533574E+02  0.18453715530E+04  0.46999998093E+01 0. -1.
       -5    1    3    3    0  502 -0.59214383706E+03  0.17453488730E+04  0.22887184746E+03  0.18572241181E+04  0.46999998093E+01 0.  1.
</event>
<event>
 5   0  0.5714125E-09  0.3699442E+04  0.7818609E-02  0.8068085E-01
        1   -1    0    0  501    0  0.00000000000E+00  0.00000000000E+00  0.20716783781E+04  0.20716783781E+04  0.50400001928E-02 0.  1.
       -1   -1    0    0    0  501  0.00000000000E+00  0.00000000000E+00 -0.16515442126E+04  0.16515442126E+04  0.50400001928E-02 0. -1.
    10030    2    1    2    0    0  0.00000000000E+00  0.00000000000E+00  0.42013416550E+03  0.37232225907E+04  0.36994423557E+04 0.  0.
        5    1    3    3  502    0 -0.31490511726E+03 -0.36952381978E+03  0.20064025355E+04  0.20643125516E+04  0.46999998093E+01 0.  1.
       -5    1    3    3    0  502  0.31490511726E+03  0.36952381978E+03 -0.15862683700E+04  0.16589100391E+04  0.46999998093E+01 0. -1.
</event>
<event>
 5   0  0.1757996E-08  0.3713410E+04  0.7818609E-02  0.8064997E-01
        2   -1    0    0  501    0  0.00000000000E+00  0.00000000000E+00  0.20638354069E+04  0.20638354069E+04  0.25500000920E-02 0. -1.
       -2   -1    0    0    0  501  0.00000000000E+00  0.00000000000E+00 -0.16703621631E+04  0.16703621631E+04  0.25500000920E-02 0.  1.
    10030    2    1    2    0    0  0.00000000000E+00  0.00000000000E+00  0.39347324377E+03  0.37341975699E+04  0.37134095247E+04 0.  0.
        3    1    3    3  502    0  0.27246206000E+03 -0.59543562628E+03  0.19438670025E+04  0.20511943089E+04  0.10100000352E+00 0. -1.
       -3    1    3    3    0  502 -0.27246206000E+03  0.59543562628E+03 -0.15503937588E+04  0.16830032610E+04  0.10100000352E+00 0.  1.
</event>
<event>
 5   0  0.1725865E-08  0.3700361E+04  0.7818609E-02  0.8067882E-01
        2   -1    0    0  501    0  0.00000000000E+00  0.00000000000E+00  0.17660967151E+04  0.17660967151E+04  0.25500000920E-02 0. -1.
       -2   -1    0    0    0  501  0.00000000000E+00  0.00000000000E+00 -0.19382679638E+04  0.19382679638E+04  0.25500000920E-02 0.  1.
    10030    2    1    2    0    0  0.00000000000E+00  0.00000000000E+00 -0.17217124870E+03  0.37043646789E+04  0.37003614330E+04 0.  0.
        1    1    3    3  502    0  0.75812602754E+03 -0.28147720456E+03  0.15798012665E+04  0.17747553442E+04  0.50400001928E-02 0. -1.
       -1    1    3    3    0  502 -0.75812602754E+03  0.28147720456E+03 -0.17519725152E+04  0.19296093346E+04  0.50400001928E-02 0.  1.
</event>
<event>
 5   0  0.1825308E-08  0.3699191E+04  0.7818609E-02  0.8068141E-01
        2   -1    0    0  501    0  0.00000000000E+00  0.00000000000E+00  0.21794662286E+04  0.21794662286E+04  0.25500000920E-02 0. -1.
       -2   -1    0    0    0  501  0.00000000000E+00  0.00000000000E+00 -0.15696516217E+04  0.15696516217E+04  0.25500000920E-02 0.  1.
    10030    2    1    2    0    0  0.00000000000E+00  0.00000000000E+00  0.60981460685E+03  0.37491178503E+04  0.36991905602E+04 0.  0.
        4    1    3    3  502    0 -0.12406176194E+04  0.77557346907E+03 -0.84189235736E+03  0.16880256626E+04  0.12699999809E+01 0. -1.
       -4    1    3    3    0  502  0.12406176194E+04 -0.77557346907E+03  0.14517069642E+04  0.20610921877E+04  0.12699999809E+01 0.  1.
</event>
<event>
 5   0  0.5714125E-09  0.3700898E+04  0.7818609E-02  0.8067763E-01
       -1   -1    0    0    0  501  0.00000000000E+00  0.00000000000E+00  0.20168486042E+04  0.20168486042E+04  0.50400001928E-02 0. -1.
        1   -1    0    0  501    0  0.00000000000E+00  0.00000000000E+00 -0.16977780913E+04  0.16977780913E+04  0.50400001928E-02 0.  1.
    10030    2    1    2    0    0  0.00000000000E+00  0.00000000000E+00  0.31907051290E+03  0.37146266956E+04  0.37008979310E+04 0.  0.
        2    1    3    3  502    0  0.90415847844E+03 -0.10532714846E+04 -0.10686370191E+04  0.17518186131E+04  0.25500000920E-02 0.  1.
       -2    1    3    3    0  502 -0.90415847844E+03  0.10532714846E+04  0.13877075320E+04  0.19628080825E+04  0.25500000920E-02 0. -1.
</event>
<event>
 5   0  0.1740290E-08  0.3696738E+04  0.7818609E-02  0.8068685E-01
        2   -1    0    0  501    0  0.00000000000E+00  0.00000000000E+00  0.22056278222E+04  0.22056278222E+04  0.25500000920E-02 0.  1.
       -2   -1    0    0    0  501  0.00000000000E+00  0.00000000000E+00 -0.15489773784E+04  0.15489773784E+04  0.25500000920E-02 0. -1.
    10030    2    1    2    0    0  0.00000000000E+00  0.00000000000E+00  0.65665044380E+03  0.37546052006E+04  0.36967378061E+04 0.  0.
        5    1    3    3  502    0 -0.72989063836E+02  0.10996050539E+04  0.18354631085E+04  0.21408889720E+04  0.46999998093E+01 0.  1.
       -5    1    3    3    0  502  0.72989063836E+02 -0.10996050539E+04 -0.11788126647E+04  0.16137162286E+04  0.46999998093E+01 0. -1.
</event>
<event>
 5   0  0.5714125E-09  0.3698539E+04  0.7818609E-02  0.8068286E-01
        1   -1    0    0  501    0  0.00000000000E+00  0.00000000000E+00  0.22765010293E+04  0.22765010293E+04  0.50400001928E-02 0.  1.
       -1   -1    0    0    0  501  0.00000000000E+00  0.00000000000E+00 -0.15022169594E+04  0.15022169594E+04  0.50400001928E-02 0. -1.
    10030    2    1    2    0    0  0.00000000000E+00  0.00000000000E+00  0.77428406993E+03  0.37787179888E+04  0.36985394168E+04 0.  0.
        4    1    3    3  502    0 -0.11382255520E+04  0.13675615352E+04  0.90206683640E+03  0.19948704594E+04  0.12699999809E+01 0.  1.
       -4    1    3    3    0  502  0.11382255520E+04 -0.13675615352E+04 -0.12778276648E+03  0.17838475293E+04  0.12699999809E+01 0. -1.
</event>
<event>
 5   0  0.1725865E-08  0.3701168E+04  0.7818609E-02  0.8067703E-01
       -2   -1    0    0    0  501  0.00000000000E+00  0.00000000000E+00  0.17594191835E+04  0.17594191835E+04  0.25500000920E-02 0.  1.
        2   -1    0    0  501    0  0.00000000000E+00  0.00000000000E+00 -0.19464722063E+04  0.19464722063E+04  0.25500000920E-02 0. -1.
    10030    2    1    2    0    0  0.00000000000E+00  0.00000000000E+00 -0.18705302284E+03  0.37058913898E+04  0.37011676751E+04 0.  0.
        1    1    3    3  502    0  0.16550272025E+04  0.70804939220E+03 -0.52327302632E+03  0.18746369363E+04  0.50400001928E-02 0. -1.
       -1    1    3    3    0  502 -0.16550272025E+04 -0.70804939220E+03  0.33622000348E+03  0.18312544535E+04  0.50400001928E-02 0.  1.
</event>
<event>
 5   0  0.1740290E-08  0.3699705E+04  0.7818609E-02  0.8068027E-01
       -2   -1    0    0    0  501  0.00000000000E+00  0.00000000000E+00  0.17548458380E+04  0.17548458380E+04  0.25500000920E-02 0. -1.
        2   -1    0    0  501    0  0.00000000000E+00  0.00000000000E+00 -0.19500027418E+04  0.19500027418E+04  0.25500000920E-02 0.  1.
    10030    2    1    2    0    0  0.00000000000E+00  0.00000000000E+00 -0.19515690380E+03  0.37048485798E+04  0.36997049588E+04 0.  0.
        5    1    3    3  502    0 -0.36037180161E+03 -0.72570090923E+02  0.17178948569E+04  0.17567922709E+04  0.46999998093E+01 0. -1.
       -5    1    3    3    0  502  0.36037180161E+03  0.72570090923E+02 -0.19130517607E+04  0.19480563089E+04  0.46999998093E+01 0.  1.
</event>
<event>
 5   0  0.1856107E-08  0.3700225E+04  0.7818609E-02  0.8067912E-01
       -2   -1    0    0    0  501  0.00000000000E+00  0.00000000000E+00  0.26920962377E+04  0.26920962377E+04  0.25500000920E-02 0.  1.
        2   -1    0    0  501    0  0.00000000000E+00  0.00000000000E+00 -0.12714689033E+04  0.12714689033E+04  0.25500000920E-02 0. -1.
    10030    2    1    2    0    0  0.00000000000E+00  0.00000000000E+00  0.14206273344E+04  0.39635651409E+04  0.37002252098E+04 0.  0.
        2    1    3    3  502    0  0.46624691242E+03  0.17238706527E+04  0.12282549223E+04  0.21674239005E+04  0.25500000920E-02 0.  1.
       -2    1    3    3    0  502 -0.46624691242E+03 -0.17238706527E+04  0.19237241214E+03  0.17961412404E+04  0.25500000920E-02 0. -1.
</event>
<event>
 5   0  0.5714125E-09  0.3687516E+04  0.7818609E-02  0.8070734E-01
       -1   -1    0    0    0  501  0.00000000000E+00  0.00000000000E+00  0.16112723603E+04  0.16112723603E+04  0.50400001928E-02 0.  1.
        1   -1    0    0  501    0  0.00000000000E+00  0.00000000000E+00 -0.21097878010E+04  0.21097878010E+04  0.50400001928E-02 0. -1.
    10030    2    1    2    0    0  0.00000000000E+00  0.00000000000E+00 -0.49851544070E+03  0.37210601613E+04  0.36875155700E+04 0.  0.
        1    1    3    3  502    0 -0.10154992146E+04  0.12326581401E+03  0.12986486352E+04  0.16531549817E+04  0.50400001928E-02 0.  1.
       -1    1    3    3    0  502  0.10154992146E+04 -0.12326581401E+03 -0.17971640759E+04  0.20679051796E+04  0.50400001928E-02 0. -1.
</event>
<event>
 5   0  0.5714125E-09  0.3698855E+04  0.7818609E-02  0.8068216E-01
       -1   -1    0    0    0  501  0.00000000000E+00  0.00000000000E+00  0.16489487270E+04  0.16489487270E+04  0.50400001928E-02 0.  1.
        1   -1    0    0  501    0  0.00000000000E+00  0.00000000000E+00 -0.20742804834E+04  0.20742804834E+04  0.50400001928E-02 0. -1.
    10030    2    1    2    0    0  0.00000000000E+00  0.00000000000E+00 -0.42533175639E+03  0.37232292105E+04  0.36988550459E+04 0.  0.
        4    1    3    3  502    0  0.66762748046E+03 -0.55049219993E+03 -0.18579434942E+04  0.20495667238E+04  0.12699999809E+01 0. -1.
       -4    1    3    3    0  502 -0.66762748046E+03  0.55049219993E+03  0.14326117378E+04  0.16736624866E+04  0.12699999809E+01 0.  1.
</event>
<event>
 5   0  0.1856107E-08  0.3672704E+04  0.7818609E-02  0.8074038E-01
        2   -1    0    0  501    0  0.00000000000E+00  0.00000000000E+00  0.18742142190E+04  0.18742142190E+04  0.25500000920E-02 0. -1.
       -2   -1    0    0    0  501  0.00000000000E+00  0.00000000000E+00 -0.17992549117E+04  0.17992549117E+04  0.25500000920E-02 0.  1.
    10030    2    1    2    0    0  0.00000000000E+00  0.00000000000E+00  0.74959307302E+02  0.36734691307E+04  0.36727042566E+04 0.  0.
        2    1    3    3  502    0  0.58982584130E+03 -0.13414057217E+04 -0.10695142770E+04  0.18141457004E+04  0.25500000920E-02 0.  1.
       -2    1    3    3    0  502 -0.58982584130E+03  0.13414057217E+04  0.11444735843E+04  0.18593234304E+04  0.25500000920E-02 0. -1.
</event>
<event>
 5   0  0.1740290E-08  0.3698510E+04  0.7818609E-02  0.8068292E-01
       -2   -1    0    0    0  501  0.00000000000E+00  0.00000000000E+00  0.11164726893E+04  0.11164726893E+04  0.25500000920E-02 0.  1.
        2   -1    0    0  501    0  0.00000000000E+00  0.00000000000E+00 -0.30629893725E+04  0.30629893725E+04  0.25500000920E-02 0. -1.
    10030    2    1    2    0    0  0.00000000000E+00  0.00000000000E+00 -0.19465166832E+04  0.41794620618E+04  0.36985099605E+04 0.  0.
        5    1    3    3  502    0 -0.18107125233E+04  0.26981637205E+03 -0.67805800836E+03  0.19522462625E+04  0.46999998093E+01 0.  1.
       -5    1    3    3    0  502  0.18107125233E+04 -0.26981637205E+03 -0.12684586748E+04  0.22272157993E+04  0.46999998093E+01 0. -1.
</event>
<event>
 5   0  0.5714125E-09  0.3700320E+04  0.7818609E-02  0.8067891E-01
        1   -1    0    0  501    0  0.00000000000E+00  0.00000000000E+00  0.11240503975E+04  0.11240503975E+04  0.50400001928E-02 0.  1.
       -1   -1    0    0    0  501  0.00000000000E+00  0.00000000000E+00 -0.30453181898E+04  0.30453181898E+04  0.50400001928E-02 0. -1.
    10030    2    1    2    0    0  0.00000000000E+00  0.00000000000E+00 -0.19212677923E+04  0.41693685873E+04  0.37003195114E+04 0.  0.
        4    1    3    3  502    0 -0.10665077256E+04  0.22032881410E+02  0.74266112812E+03  0.12997966536E+04  0.12699999809E+01 0.  1.
       -4    1    3    3    0  502  0.10665077256E+04 -0.22032881410E+02 -0.26639289204E+04  0.28695719337E+04  0.12699999809E+01 0. -1.
</event>
<event>
 5   0  0.5714125E-09  0.3699720E+04  0.7818609E-02  0.8068024E-01
       -1   -1    0    0    0  501  0.00000000000E+00  0.00000000000E+00  0.15840968717E+04  0.15840968717E+04  0.50400001928E-02 0. -1.
        1   -1    0    0  501    0  0.00000000000E+00  0.00000000000E+00 -0.21602095979E+04  0.21602095979E+04  0.50400001928E-02 0.  1.
    10030    2    1    2    0    0  0.00000000000E+00  0.00000000000E+00 -0.57611272618E+03  0.37443064696E+04  0.36997195927E+04 0.  0.
        2    1    3    3  502    0 -0.13192020111E+04  0.12705128129E+04 -0.55096486831E+03  0.19126053017E+04  0.25500000920E-02 0.  1.
       -2    1    3    3    0  502  0.13192020111E+04 -0.12705128129E+04 -0.25147857866E+02  0.18317011679E+04  0.25500000920E-02 0. -1.
</event>
<event>
 5   0  0.1825308E-08  0.3696500E+04  0.7818609E-02  0.8068738E-01
       -2   -1    0    0    0  501  0.00000000000E+00  0.00000000000E+00  0.15209464393E+04  0.15209464393E+04  0.25500000920E-02 0.  1.
        2   -1    0    0  501    0  0.00000000000E+00  0.00000000000E+00 -0.22459884574E+04  0.22459884574E+04  0.25500000920E-02 0. -1.
    10030    2    1    2    0    0  0.00000000000E+00  0.00000000000E+00 -0.72504201810E+03  0.37669348966E+04  0.36965000457E+04 0.  0.
        4    1    3    3  502    0 -0.27470132542E+03  0.17383799141E+04  0.21268174803E+03  0.17727551108E+04  0.12699999809E+01 0. -1.
       -4    1    3    3    0  502  0.27470132542E+03 -0.17383799141E+04 -0.93772376613E+03  0.19941797859E+04  0.12699999809E+01 0.  1.
</event>
<event>
 5   0  0.5714125E-09  0.3699672E+04  0.7818609E-02  0.8068034E-01
       -3   -1    0    0    0  501  0.00000000000E+00  0.00000000000E+00  0.16608507115E+04  0.16608507146E+04  0.10100000352E+00 0. -1.
        3   -1    0    0  501    0  0.00000000000E+00  0.00000000000E+00 -0.20603260782E+04  0.20603260807E+04  0.10100000352E+00 0.  1.
    10030    2    1    2    0    0  0.00000000000E+00  0.00000000000E+00 -0.39947536673E+03  0.37211767953E+04  0.36996724413E+04 0.  0.
        4    1    3    3  502    0  0.67062047667E+03 -0.76235495610E+03 -0.17550033866E+04  0.20275491123E+04  0.12699999809E+01 0.  1.
       -4    1    3    3    0  502 -0.67062047667E+03  0.76235495610E+03  0.13555280199E+04  0.16936276830E+04  0.12699999809E+01 0. -1.
</event>
<event>
 5   0  0.1825308E-08  0.3710085E+04  0.7818609E-02  0.8065731E-01
        2   -1    0    0  501    0  0.00000000000E+00  0.00000000000E+00  0.19028114537E+04  0.19028114538E+04  0.25500000920E-02 0.  1.
       -2   -1    0    0    0  501  0.00000000000E+00  0.00000000000E+00 -0.18084729179E+04  0.18084729179E+04  0.25500000920E-02 0. -1.
    10030    2    1    2    0    0  0.00000000000E+00  0.00000000000E+00  0.94338535855E+02  0.37112843716E+04  0.37100851645E+04 0.  0.
        4    1    3    3  502    0 -0.12718108680E+04 -0.10965738792E+04  0.83558911794E+03  0.18756833271E+04  0.12699999809E+01 0.  1.
       -4    1    3    3    0  502  0.12718108680E+04  0.10965738792E+04 -0.74125058209E+03  0.18356010446E+04  0.12699999809E+01 0. -1.
</event>
<event>
 5   0  0.1825308E-08  0.3719178E+04  0.7818609E-02  0.8063725E-01
       -2   -1    0    0    0  501  0.00000000000E+00  0.00000000000E+00  0.18302827686E+04  0.18302827686E+04  0.25500000920E-02 0. -1.
        2   -1    0    0  501    0  0.00000000000E+00  0.00000000000E+00 -0.18893640627E+04  0.18893640627E+04  0.25500000920E-02 0.  1.
    10030    2    1    2    0    0  0.00000000000E+00  0.00000000000E+00 -0.59081294137E+02  0.37196468313E+04  0.37191775905E+04 0.  0.
        4    1    3    3  502    0  0.11805112942E+04  0.27316796064E+03 -0.14403359419E+04  0.18822318903E+04  0.12699999809E+01 0.  1.
       -4    1    3    3    0  502 -0.11805112942E+04 -0.27316796064E+03  0.13812546478E+04  0.18374149410E+04  0.12699999809E+01 0. -1.
</event>
<event>
 5   0  0.1757996E-08  0.3700608E+04  0.7818609E-02  0.8067827E-01
        2   -1    0    0  501    0  0.00000000000E+00  0.00000000000E+00  0.12816892089E+04  0.12816892089E+04  0.25500000920E-02 0. -1.
       -2   -1    0    0    0  501  0.00000000000E+00  0.00000000000E+00 -0.26711813564E+04  0.26711813564E+04  0.25500000920E-02 0.  1.
    10030    2    1    2    0    0  0.00000000000E+00  0.00000000000E+00 -0.13894921475E+04  0.39528705654E+04  0.37006076905E+04 0.  0.
        3    1    3    3  502    0 -0.77894516276E+03 -0.65295563652E+03  0.95678035068E+03  0.13958994518E+04  0.10100000352E+00 0. -1.
       -3    1    3    3    0  502  0.77894516276E+03  0.65295563652E+03 -0.23462724982E+04  0.25569711136E+04  0.10100000352E+00 0.  1.
</event>
<event>
 5   0  0.5714125E-09  0.3699896E+04  0.7818609E-02  0.8067985E-01
       -1   -1    0    0    0  501  0.00000000000E+00  0.00000000000E+00  0.26325782428E+04  0.26325782428E+04  0.50400001928E-02 0. -1.
        1   -1    0    0  501    0  0.00000000000E+00  0.00000000000E+00 -0.12999830203E+04  0.12999830204E+04  0.50400001928E-02 0.  1.
    10030    2    1    2    0    0  0.00000000000E+00  0.00000000000E+00  0.13325952225E+04  0.39325612632E+04  0.36998956825E+04 0.  0.
        2    1    3    3  502    0 -0.98685065505E+03 -0.40661327022E+03 -0.93971272850E+03  0.14220648997E+04  0.25500000920E-02 0.  1.
       -2    1    3    3    0  502  0.98685065505E+03  0.40661327022E+03  0.22723079510E+04  0.25104963635E+04  0.25500000920E-02 0. -1.
</event>
<event>
 5   0  0.5714125E-09  0.3699999E+04  0.7818609E-02  0.8067962E-01
       -1   -1    0    0    0  501  0.00000000000E+00  0.00000000000E+00  0.17090562219E+04  0.17090562219E+04  0.50400001928E-02 0.  1.
        1   -1    0    0  501    0  0.00000000000E+00  0.00000000000E+00 -0.20025659742E+04  0.20025659742E+04  0.50400001928E-02 0. -1.
    10030    2    1    2    0    0  0.00000000000E+00  0.00000000000E+00 -0.29350975226E+03  0.37116221961E+04  0.36999988314E+04 0.  0.
        1    1    3    3  502    0  0.30761552569E+03  0.71007513326E+03 -0.18324097934E+04  0.19891102678E+04  0.50400001928E-02 0. -1.
       -1    1    3    3    0  502 -0.30761552569E+03 -0.71007513326E+03  0.15389000411E+04  0.17225119283E+04  0.50400001928E-02 0.  1.
</event>
<event>
 5   0  0.5714125E-09  0.3692926E+04  0.7818609E-02  0.8069531E-01
        1   -1    0    0  501    0  0.00000000000E+00  0.00000000000E+00  0.17962196502E+04  0.17962196502E+04  0.50400001928E-02 0. -1.
       -1   -1    0    0    0  501  0.00000000000E+00  0.00000000000E+00 -0.18981120636E+04  0.18981120636E+04  0.50400001928E-02 0.  1.
    10030    2    1    2    0    0  0.00000000000E+00  0.00000000000E+00 -0.10189241345E+03  0.36943317138E+04  0.36929263122E+04 0.  0.
        5    1    3    3  502    0 -0.10184418739E+04 -0.15154802062E+04 -0.32582339255E+03  0.18547471739E+04  0.46999998093E+01 0. -1.
       -5    1    3    3    0  502  0.10184418739E+04  0.15154802062E+04  0.22393097910E+03  0.18395845399E+04  0.46999998093E+01 0.  1.
</event>
<event>
 5   0  0.1725865E-08  0.3701440E+04  0.7818609E-02  0.8067643E-01
        2   -1    0    0  501    0  0.00000000000E+00  0.00000000000E+00  0.23122367590E+04  0.23122367590E+04  0.25500000920E-02 0.  1.
       -2   -1    0    0    0  501  0.00000000000E+00  0.00000000000E+00 -0.14813207348E+04  0.14813207348E+04  0.25500000920E-02 0. -1.
    10030    2    1    2    0    0  0.00000000000E+00  0.00000000000E+00  0.83091602421E+03  0.37935574938E+04  0.37014398576E+04 0.  0.
        1    1    3    3  502    0 -0.48908870530E+03 -0.52634799642E+02  0.22440086265E+04  0.22972925150E+04  0.50400001928E-02 0.  1.
       -1    1    3    3    0  502  0.48908870530E+03  0.52634799642E+02 -0.14130926023E+04  0.14962649787E+04  0.50400001928E-02 0. -1.
</event>
<event>
 5   0  0.1740290E-08  0.3704635E+04  0.7818609E-02  0.8066935E-01
       -2   -1    0    0    0  501  0.00000000000E+00  0.00000000000E+00  0.19864532559E+04  0.19864532559E+04  0.25500000920E-02 0. -1.
        2   -1    0    0  501    0  0.00000000000E+00  0.00000000000E+00 -0.17272396371E+04  0.17272396371E+04  0.25500000920E-02 0.  1.
    10030    2    1    2    0    0  0.00000000000E+00  0.00000000000E+00  0.25921361878E+03  0.37136928930E+04  0.37046353671E+04 0.  0.
        5    1    3    3  502    0  0.18120258563E+04  0.36819402025E+03  0.23966672576E+03  0.18645285651E+04  0.46999998093E+01 0. -1.
       -5    1    3    3    0  502 -0.18120258563E+04 -0.36819402025E+03  0.19546893016E+02  0.18491643279E+04  0.46999998093E+01 0.  1.
</event>
<event>
 5   0  0.1825308E-08  0.3698791E+04  0.7818609E-02  0.8068230E-01
        2   -1    0    0  501    0  0.00000000000E+00  0.00000000000E+00  0.21478102574E+04  0.21478102575E+04  0.25500000920E-02 0.  1.
       -2   -1    0    0    0  501  0.00000000000E+00  0.00000000000E+00 -0.15924417978E+04  0.15924417978E+04  0.25500000920E-02 0. -1.
    10030    2    1    2    0    0  0.00000000000E+00  0.00000000000E+00  0.55536845962E+03  0.37402520553E+04  0.36987905200E+04 0.  0.
        4    1    3    3  502    0 -0.21342829336E+03  0.13804621053E+04  0.15033076504E+04  0.20521117818E+04  0.12699999809E+01 0.  1.
       -4    1    3    3    0  502  0.21342829336E+03 -0.13804621053E+04 -0.94793919080E+03  0.16881402734E+04  0.12699999809E+01 0. -1.
</event>
<event>
 5   0  0.5714125E-09  0.3699943E+04  0.7818609E-02  0.8067974E-01
       -1   -1    0    0    0  501  0.00000000000E+00  0.00000000000E+00  0.13380315699E+04  0.13380315699E+04  0.50400001928E-02 0.  1.
        1   -1    0    0  501    0  0.00000000000E+00  0.00000000000E+00 -0.25577835585E+04  0.25577835585E+04  0.50400001928E-02 0. -1.
    10030    2    1    2    0    0  0.00000000000E+00  0.00000000000E+00 -0.12197519886E+04  0.38958151284E+04  0.36999433240E+04 0.  0.
        5    1    3    3  502    0  0.12326489285E+04  0.79519719808E+03  0.57701159836E+03  0.15763015065E+04  0.46999998093E+01 0.  1.
       -5    1    3    3    0  502 -0.12326489285E+04 -0.79519719808E+03 -0.17967635870E+04  0.23195136219E+04  0.46999998093E+01 0. -1.
</event>
<event>
 5   0  0.5714125E-09  0.3699744E+04  0.7818609E-02  0.8068019E-01
       -1   -1    0    0    0  501  0.00000000000E+00  0.00000000000E+00  0.18821688327E+04  0.18821688327E+04  0.50400001928E-02 0. -1.
        1   -1    0    0  501    0  0.00000000000E+00  0.00000000000E+00 -0.18181292319E+04  0.18181292319E+04  0.50400001928E-02 0.  1.
    10030    2    1    2    0    0  0.00000000000E+00  0.00000000000E+00  0.64039600853E+02  0.37002980646E+04  0.36997438690E+04 0.  0.
        1    1    3    3  502    0  0.10907202236E+04  0.61757814590E+03  0.13927208559E+04  0.18736981494E+04  0.50400001928E-02 0. -1.
       -1    1    3    3    0  502 -0.10907202236E+04 -0.61757814590E+03 -0.13286812550E+04  0.18265999152E+04  0.50400001928E-02 0.  1.
</event>
<event>
 5   0  0.5714125E-09  0.3695048E+04  0.7818609E-02  0.8069060E-01
        1   -1    0    0  501    0  0.00000000000E+00  0.00000000000E+00  0.17448243446E+04  0.17448243446E+04  0.50400001928E-02 0. -1.
       -1   -1    0    0    0  501  0.00000000000E+00  0.00000000000E+00 -0.19562685397E+04  0.19562685397E+04  0.50400001928E-02 0.  1.
    10030    2    1    2    0    0  0.00000000000E+00  0.00000000000E+00 -0.21144419506E+03  0.37010928843E+04  0.36950480228E+04 0.  0.
        2    1    3    3  502    0 -0.76936974866E+03 -0.37849724174E+03 -0.17449062689E+04  0.19441933698E+04  0.25500000920E-02 0.  1.
       -2    1    3    3    0  502  0.76936974866E+03  0.37849724174E+03  0.15334620738E+04  0.17568995145E+04  0.25500000920E-02 0. -1.
</event>
<event>
 5   0  0.5714125E-09  0.3700931E+04  0.7818609E-02  0.8067756E-01
       -1   -1    0    0    0  501  0.00000000000E+00  0.00000000000E+00  0.13774082627E+04  0.13774082627E+04  0.50400001928E-02 0.  1.
        1   -1    0    0  501    0  0.00000000000E+00  0.00000000000E+00 -0.24859897544E+04  0.24859897544E+04  0.50400001928E-02 0. -1.
    10030    2    1    2    0    0  0.00000000000E+00  0.00000000000E+00 -0.11085814916E+04  0.38633980171E+04  0.37009311416E+04 0.  0.
        2    1    3    3  502    0 -0.56195817342E+03  0.14210055795E+04 -0.16437376783E+04  0.22443100054E+04  0.25500000920E-02 0. -1.
       -2    1    3    3    0  502  0.56195817342E+03 -0.14210055795E+04  0.53515618662E+03  0.16190880117E+04  0.25500000920E-02 0.  1.
</event>
<event>
 5   0  0.5714125E-09  0.3700401E+04  0.7818609E-02  0.8067873E-01
       -1   -1    0    0    0  501  0.00000000000E+00  0.00000000000E+00  0.16929857268E+04  0.16929857268E+04  0.50400001928E-02 0.  1.
        1   -1    0    0  501    0  0.00000000000E+00  0.00000000000E+00 -0.20220145586E+04  0.20220145586E+04  0.50400001928E-02 0. -1.
    10030    2    1    2    0    0  0.00000000000E+00  0.00000000000E+00 -0.32902883178E+03  0.37150002854E+04  0.37004009443E+04 0.  0.
        5    1    3    3  502    0 -0.15554021141E+04  0.86203644566E+03  0.34822271891E+03  0.18120882214E+04  0.46999998093E+01 0.  1.
       -5    1    3    3    0  502  0.15554021141E+04 -0.86203644566E+03 -0.67725155069E+03  0.19029120640E+04  0.46999998093E+01 0. -1.
</event>
<event>
 5   0  0.1725865E-08  0.3700341E+04  0.7818609E-02  0.8067886E-01
       -2   -1    0    0    0  501  0.00000000000E+00  0.00000000000E+00  0.18517992952E+04  0.18517992952E+04  0.25500000920E-02 0. -1.
        2   -1    0    0  501    0  0.00000000000E+00  0.00000000000E+00 -0.18485435173E+04  0.18485435173E+04  0.25500000920E-02 0.  1.
    10030    2    1    2    0    0  0.00000000000E+00  0.00000000000E+00  0.32557779635E+01  0.37003428125E+04  0.37003413802E+04 0.  0.
        1    1    3    3  502    0 -0.47385221244E+03  0.11324080422E+04 -0.13826586322E+04  0.18489534300E+04  0.50400001928E-02 0.  1.
       -1    1    3    3    0  502  0.47385221244E+03 -0.11324080422E+04  0.13859144101E+04  0.18513893825E+04  0.50400001928E-02 0. -1.
</event>
<event>
 5   0  0.5714125E-09  0.3698799E+04  0.7818609E-02  0.8068228E-01
       -1   -1    0    0    0  501  0.00000000000E+00  0.00000000000E+00  0.16012938000E+04  0.16012938000E+04  0.50400001928E-02 0. -1.
        1   -1    0    0  501    0  0.00000000000E+00  0.00000000000E+00 -0.21359471981E+04  0.21359471981E+04  0.50400001928E-02 0.  1.
    10030    2    1    2    0    0  0.00000000000E+00  0.00000000000E+00 -0.53465339813E+03  0.37372409981E+04  0.36987992675E+04 0.  0.
        2    1    3    3  502    0 -0.17665717209E+03 -0.18091590014E+04  0.76822950896E+02  0.18193861093E+04  0.25500000920E-02 0. -1.
       -2    1    3    3    0  502  0.17665717209E+03  0.18091590014E+04 -0.61147634903E+03  0.19178548888E+04  0.25500000920E-02 0.  1.
</event>
<event>
 5   0  0.5714125E-09  0.3708768E+04  0.7818609E-02  0.8066021E-01
       -1   -1    0    0    0  501  0.00000000000E+00  0.00000000000E+00  0.12933543197E+04  0.12933543197E+04  0.50400001928E-02 0.  1.
        1   -1    0    0  501    0  0.00000000000E+00  0.00000000000E+00 -0.26587770938E+04  0.26587770938E+04  0.50400001928E-02 0. -1.
    10030    2    1    2    0    0  0.00000000000E+00  0.00000000000E+00 -0.13654227741E+04  0.39521314135E+04  0.37087684421E+04 0.  0.
        1    1    3    3  502    0 -0.10501791291E+04 -0.81749028192E+03  0.69337041487E+03  0.15006428944E+04  0.50400001928E-02 0.  1.
       -1    1    3    3    0  502  0.10501791291E+04  0.81749028192E+03 -0.20587931890E+04  0.24514885191E+04  0.50400001928E-02 0. -1.
</event>
<event>
 5   0  0.1825308E-08  0.3699478E+04  0.7818609E-02  0.8068077E-01
       -2   -1    0    0    0  501  0.00000000000E+00  0.00000000000E+00  0.18667168917E+04  0.18667168917E+04  0.25500000920E-02 0.  1.
        2   -1    0    0  501    0  0.00000000000E+00  0.00000000000E+00 -0.18329158657E+04  0.18329158657E+04  0.25500000920E-02 0. -1.
    10030    2    1    2    0    0  0.00000000000E+00  0.00000000000E+00  0.33801026023E+02  0.36996327574E+04  0.36994783456E+04 0.  0.
        4    1    3    3  502    0  0.35395799515E+03 -0.92172013414E+03  0.15811522107E+04  0.18641078816E+04  0.12699999809E+01 0.  1.
       -4    1    3    3    0  502 -0.35395799515E+03  0.92172013414E+03 -0.15473511846E+04  0.18355248758E+04  0.12699999809E+01 0. -1.
</event>
<event>
 5   0  0.5714125E-09  0.3700820E+04  0.7818609E-02  0.8067780E-01
        1   -1    0    0  501    0  0.00000000000E+00  0.00000000000E+00  0.24571328397E+04  0.24571328397E+04  0.50400001928E-02 0.  1.
       -1   -1    0    0    0  501  0.00000000000E+00  0.00000000000E+00 -0.13935009149E+04  0.13935009149E+04  0.50400001928E-02 0. -1.
    10030    2    1    2    0    0  0.00000000000E+00  0.00000000000E+00  0.10636319248E+04  0.38506337545E+04  0.37008198335E+04 0.  0.
        5    1    3    3  502    0 -0.17409902499E+04  0.15680688626E+03 -0.99679307768E+02  0.17508836352E+04  0.46999998093E+01 0.  1.
       -5    1    3    3    0  502  0.17409902499E+04 -0.15680688626E+03  0.11633112326E+04  0.20997501193E+04  0.46999998093E+01 0. -1.
</event>
<event>
 5   0  0.5714125E-09  0.3695136E+04  0.7818609E-02  0.8069041E-01
       -1   -1    0    0    0  501  0.00000000000E+00  0.00000000000E+00  0.18120430447E+04  0.18120430448E+04  0.50400001928E-02 0. -1.
        1   -1    0    0  501    0  0.00000000000E+00  0.00000000000E+00 -0.18837891754E+04  0.18837891754E+04  0.50400001928E-02 0.  1.
    10030    2    1    2    0    0  0.00000000000E+00  0.00000000000E+00 -0.71746130613E+02  0.36958322201E+04  0.36951357610E+04 0.  0.
        5    1    3    3  502    0 -0.69609783837E+03 -0.16610989832E+04 -0.44787660914E+03  0.18559142167E+04  0.46999998093E+01 0.  1.
       -5    1    3    3    0  502  0.69609783837E+03  0.16610989832E+04  0.37613047853E+03  0.18399180035E+04  0.46999998093E+01 0. -1.
</event>
<event>
 5   0  0.5714125E-09  0.3700602E+04  0.7818609E-02  0.8067828E-01
       -1   -1    0    0    0  501  0.00000000000E+00  0.00000000000E+00  0.22118756721E+04  0.22118756721E+04  0.50400001928E-02 0. -1.
        1   -1    0    0  501    0  0.00000000000E+00  0.00000000000E+00 -0.15478331503E+04  0.15478331503E+04  0.50400001928E-02 0.  1.
    10030    2    1    2    0    0  0.00000000000E+00  0.00000000000E+00  0.66404252178E+03  0.37597088224E+04  0.37006023777E+04 0.  0.
        2    1    3    3  502    0 -0.43071004947E+03 -0.15449678817E+04  0.12693498808E+04  0.20454060775E+04  0.25500000920E-02 0. -1.
       -2    1    3    3    0  502  0.43071004947E+03  0.15449678817E+04 -0.60530735900E+03  0.17143027448E+04  0.25500000920E-02 0.  1.
</event>
<event>
 5   0  0.1725865E-08  0.3709280E+04  0.7818609E-02  0.8065908E-01
       -2   -1    0    0    0  501  0.00000000000E+00  0.00000000000E+00  0.13473879340E+04  0.13473879340E+04  0.25500000920E-02 0.  1.
        2   -1    0    0  501    0  0.00000000000E+00  0.00000000000E+00 -0.25528577736E+04  0.25528577736E+04  0.25500000920E-02 0. -1.
    10030    2    1    2    0    0  0.00000000000E+00  0.00000000000E+00 -0.12054698395E+04  0.39002457076E+04  0.37092801250E+04 0.  0.
        1    1    3    3  502    0  0.26320503806E+03 -0.17611349963E+04 -0.57567102075E+02  0.17816249152E+04  0.50400001928E-02 0.  1.
       -1    1    3    3    0  502 -0.26320503806E+03  0.17611349963E+04 -0.11479027375E+04  0.21186207924E+04  0.50400001928E-02 0. -1.
</event>
<event>
 5   0  0.5714125E-09  0.3699321E+04  0.7818609E-02  0.8068112E-01
       -1   -1    0    0    0  501  0.00000000000E+00  0.00000000000E+00  0.15958032193E+04  0.15958032193E+04  0.50400001928E-02 0.  1.
        1   -1    0    0  501    0  0.00000000000E+00  0.00000000000E+00 -0.21439005092E+04  0.21439005093E+04  0.50400001928E-02 0. -1.
    10030    2    1    2    0    0  0.00000000000E+00  0.00000000000E+00 -0.54809728995E+03  0.37397037286E+04  0.36993206590E+04 0.  0.
        4    1    3    3  502    0  0.17517930923E+03  0.16932131509E+04  0.45744078207E+03  0.17626435393E+04  0.12699999809E+01 0.  1.
       -4    1    3    3    0  502 -0.17517930923E+03 -0.16932131509E+04 -0.10055380720E+04  0.19770601892E+04  0.12699999809E+01 0. -1.
</event>
<event>
 5   0  0.1725865E-08  0.3700850E+04  0.7818609E-02  0.8067773E-01
        2   -1    0    0  501    0  0.00000000000E+00  0.00000000000E+00  0.14989906259E+04  0.14989906259E+04  0.25500000920E-02 0.  1.
       -2   -1    0    0    0  501  0.00000000000E+00  0.00000000000E+00 -0.22842524635E+04  0.22842524635E+04  0.25500000920E-02 0. -1.
    10030    2    1    2    0    0  0.00000000000E+00  0.00000000000E+00 -0.78526183755E+03  0.37832430894E+04  0.37008501888E+04 0.  0.
        1    1    3    3  502    0  0.10447979338E+04  0.94297610476E+03  0.83547546504E+03  0.16367119201E+04  0.50400001928E-02 0.  1.
       -1    1    3    3    0  502 -0.10447979338E+04 -0.94297610476E+03 -0.16207373026E+04  0.21465311693E+04  0.50400001928E-02 0. -1.
</event>
<event>
 5   0  0.1757996E-08  0.3707894E+04  0.7818609E-02  0.8066215E-01
        2   -1    0    0  501    0  0.00000000000E+00  0.00000000000E+00  0.15527527182E+04  0.15527527182E+04  0.25500000920E-02 0. -1.
       -2   -1    0    0    0  501  0.00000000000E+00  0.00000000000E+00 -0.22135651075E+04  0.22135651075E+04  0.25500000920E-02 0.  1.
    10030    2    1    2    0    0  0.00000000000E+00  0.00000000000E+00 -0.66081238929E+03  0.37663178256E+04  0.37078938698E+04 0.  0.
        3    1    3    3  502    0  0.34068988924E+03 -0.13899413631E+04 -0.15275832959E+04  0.20932074263E+04  0.10100000352E+00 0.  1.
       -3    1    3    3    0  502 -0.34068988924E+03  0.13899413631E+04  0.86677090660E+03  0.16731103993E+04  0.10100000352E+00 0. -1.
</event>
<event>
 5   0  0.1757996E-08  0.3700342E+04  0.7818609E-02  0.8067886E-01
       -2   -1    0    0    0  501  0.00000000000E+00  0.00000000000E+00  0.29824521514E+04  0.29824521514E+04  0.25500000920E-02 0. -1.
        2   -1    0    0  501    0  0.00000000000E+00  0.00000000000E+00 -0.11477579715E+04  0.11477579715E+04  0.25500000920E-02 0.  1.
    10030    2    1    2    0    0  0.00000000000E+00  0.00000000000E+00  0.18346941799E+04  0.41302101229E+04  0.37003422714E+04 0.  0.
        3    1    3    3  502    0  0.30071648103E+03  0.13595636345E+04  0.22771925751E+04  0.26691664828E+04  0.10100000352E+00 0. -1.
       -3    1    3    3    0  502 -0.30071648103E+03 -0.13595636345E+04 -0.44249839524E+03  0.14610436401E+04  0.10100000352E+00 0.  1.
</event>
<event>
 5   0  0.5714125E-09  0.3699721E+04  0.7818609E-02  0.8068024E-01
       -1   -1    0    0    0  501  0.00000000000E+00  0.00000000000E+00  0.15318945375E+04  0.15318945375E+04  0.50400001928E-02 0. -1.
        1   -1    0    0  501    0  0.00000000000E+00  0.00000000000E+00 -0.22338244214E+04  0.22338244214E+04  0.50400001928E-02 0.  1.
    10030    2    1    2    0    0  0.00000000000E+00  0.00000000000E+00 -0.70192988388E+03  0.37657189589E+04  0.36997207618E+04 0.  0.
        1    1    3    3  502    0  0.63332744319E+03 -0.13181591017E+04  0.80208789295E+03  0.16679304709E+04  0.50400001928E-02 0. -1.
       -1    1    3    3    0  502 -0.63332744319E+03  0.13181591017E+04 -0.15040177768E+04  0.20977884881E+04  0.50400001928E-02 0.  1.
</event>
<event>
 5   0  0.5714125E-09  0.3704757E+04  0.7818609E-02  0.8066908E-01
        1   -1    0    0  501    0  0.00000000000E+00  0.00000000000E+00  0.21873111389E+04  0.21873111389E+04  0.50400001928E-02 0.  1.
       -1   -1    0    0    0  501  0.00000000000E+00  0.00000000000E+00 -0.15687325586E+04  0.15687325586E+04  0.50400001928E-02 0. -1.
    10030    2    1    2    0    0  0.00000000000E+00  0.00000000000E+00  0.61857858030E+03  0.37560436975E+04  0.37047570498E+04 0.  0.
        5    1    3    3  502    0  0.97276198393E+03 -0.15623965916E+04  0.52179804380E+03  0.19130196746E+04  0.46999998093E+01 0.  1.
       -5    1    3    3    0  502 -0.97276198393E+03  0.15623965916E+04  0.96780536500E+02  0.18430240229E+04  0.46999998093E+01 0. -1.
</event>
<event>
 5   0  0.1757996E-08  0.3700016E+04  0.7818609E-02  0.8067958E-01
       -2   -1    0    0    0  501  0.00000000000E+00  0.00000000000E+00  0.18236149204E+04  0.18236149204E+04  0.25500000920E-02 0.  1.
        2   -1    0    0  501    0  0.00000000000E+00  0.00000000000E+00 -0.18767834227E+04  0.18767834227E+04  0.25500000920E-02 0. -1.
    10030    2    1    2    0    0  0.00000000000E+00  0.00000000000E+00 -0.53168502291E+02  0.37003983431E+04  0.37000163524E+04 0.  0.
        3    1    3    3  502    0  0.12020812839E+04 -0.51477472627E+03 -0.13353590346E+04  0.18690040646E+04  0.10100000352E+00 0. -1.
       -3    1    3    3    0  502 -0.12020812839E+04  0.51477472627E+03  0.12821905323E+04  0.18313942785E+04  0.10100000352E+00 0.  1.
</event>
<event>
 5   0  0.5714125E-09  0.3700571E+04  0.7818609E-02  0.8067835E-01
        1   -1    0    0  501    0  0.00000000000E+00  0.00000000000E+00  0.23590161082E+04  0.23590161082E+04  0.50400001928E-02 0.  1.
       -1   -1    0    0    0  501  0.00000000000E+00  0.00000000000E+00 -0.14512642306E+04  0.14512642306E+04  0.50400001928E-02 0. -1.
    10030    2    1    2    0    0  0.00000000000E+00  0.00000000000E+00  0.90775187764E+03  0.38102803388E+04  0.37005706032E+04 0.  0.
        5    1    3    3  502    0  0.13652484587E+04  0.48637813039E+03  0.16382232624E+04  0.21872961819E+04  0.46999998093E+01 0.  1.
       -5    1    3    3    0  502 -0.13652484587E+04 -0.48637813039E+03 -0.73047138478E+03  0.16229841569E+04  0.46999998093E+01 0. -1.
</event>
<event>
 5   0  0.1856107E-08  0.3699183E+04  0.7818609E-02  0.8068143E-01
        2   -1    0    0  501    0  0.00000000000E+00  0.00000000000E+00  0.15334574482E+04  0.15334574482E+04  0.25500000920E-02 0.  1.
       -2   -1    0    0    0  501  0.00000000000E+00  0.00000000000E+00 -0.22308984444E+04  0.22308984444E+04  0.25500000920E-02 0. -1.
    10030    2    1    2    0    0  0.00000000000E+00  0.00000000000E+00 -0.69744099619E+03  0.37643558925E+04  0.36991825235E+04 0.  0.
        2    1    3    3  502    0  0.13743718253E+04 -0.30760566698E+03 -0.15687887049E+04  0.21082260697E+04  0.25500000920E-02 0. -1.
       -2    1    3    3    0  502 -0.13743718253E+04  0.30760566698E+03  0.87134770869E+03  0.16561298228E+04  0.25500000920E-02 0.  1.
</event>
<event>
 5   0  0.5714125E-09  0.3701705E+04  0.7818609E-02  0.8067584E-01
        1   -1    0    0  501    0  0.00000000000E+00  0.00000000000E+00  0.23826112732E+04  0.23826112732E+04  0.50400001928E-02 0. -1.
       -1   -1    0    0    0  501  0.00000000000E+00  0.00000000000E+00 -0.14377732155E+04  0.14377732156E+04  0.50400001928E-02 0.  1.
    10030    2    1    2    0    0  0.00000000000E+00  0.00000000000E+00  0.94483805769E+03  0.38203844888E+04  0.37017048352E+04 0.  0.
        3    1    3    3  502    0 -0.55833197764E+03 -0.12119193430E+03 -0.13444866036E+04  0.14608443859E+04  0.10100000352E+00 0.  1.
       -3    1    3    3    0  502  0.55833197764E+03  0.12119193430E+03  0.22893246613E+04  0.23595401029E+04  0.10100000352E+00 0. -1.
</event>
<event>
 5   0  0.5714125E-09  0.3714135E+04  0.7818609E-02  0.8064837E-01
       -1   -1    0    0    0  501  0.00000000000E+00  0.00000000000E+00  0.17308390348E+04  0.17308390348E+04  0.50400001928E-02 0. -1.
        1   -1    0    0  501    0  0.00000000000E+00  0.00000000000E+00 -0.19925017942E+04  0.19925017942E+04  0.50400001928E-02 0.  1.
    10030    2    1    2    0    0  0.00000000000E+00  0.00000000000E+00 -0.26166275936E+03  0.37233408290E+04  0.37141350984E+04 0.  0.
        1    1    3    3  502    0  0.11337850541E+04  0.63361663242E+03 -0.14614347783E+04  0.19551803490E+04  0.50400001928E-02 0.  1.
       -1    1    3    3    0  502 -0.11337850541E+04 -0.63361663242E+03  0.11997720190E+04  0.17681604801E+04  0.50400001928E-02 0. -1.
</event>
<event>
 5   0  0.5714125E-09  0.3699045E+04  0.7818609E-02  0.8068173E-01
        1   -1    0    0  501    0  0.00000000000E+00  0.00000000000E+00  0.26787323833E+04  0.26787323833E+04  0.50400001928E-02 0.  1.
       -1   -1    0    0    0  501  0.00000000000E+00  0.00000000000E+00 -0.12769973266E+04  0.12769973266E+04  0.50400001928E-02 0. -1.
    10030    2    1    2    0    0  0.00000000000E+00  0.00000000000E+00  0.14017350567E+04  0.39557297099E+04  0.36990453320E+04 0.  0.
        4    1    3    3  502    0  0.18365227223E+04 -0.18321851358E+03  0.82896152979E+03  0.20232556843E+04  0.12699999809E+01 0.  1.
       -4    1    3    3    0  502 -0.18365227223E+04  0.18321851358E+03  0.57277352691E+03  0.19324740256E+04  0.12699999809E+01 0. -1.
</event>
<event>
 5   0  0.1825308E-08  0.3700339E+04  0.7818609E-02  0.8067887E-01
       -2   -1    0    0    0  501  0.00000000000E+00  0.00000000000E+00  0.20807590294E+04  0.20807590294E+04  0.25500000920E-02 0. -1.
        2   -1    0    0  501    0  0.00000000000E+00  0.00000000000E+00 -0.16451338775E+04  0.16451338775E+04  0.25500000920E-02 0.  1.
    10030    2    1    2    0    0  0.00000000000E+00  0.00000000000E+00  0.43562515191E+03  0.37258929069E+04  0.37003389954E+04 0.  0.
        4    1    3    3  502    0  0.15598224152E+04  0.65520303750E+03 -0.53621708869E+03  0.17747865693E+04  0.12699999809E+01 0. -1.
       -4    1    3    3    0  502 -0.15598224152E+04 -0.65520303750E+03  0.97184224061E+03  0.19511063377E+04  0.12699999809E+01 0.  1.
</event>
<event>
 5   0  0.5714125E-09  0.3700606E+04  0.7818609E-02  0.8067828E-01
        1   -1    0    0  501    0  0.00000000000E+00  0.00000000000E+00  0.28768374569E+04  0.28768374569E+04  0.50400001928E-02 0. -1.
       -1   -1    0    0    0  501  0.00000000000E+00  0.00000000000E+00 -0.11900639601E+04  0.11900639601E+04  0.50400001928E-02 0.  1.
    10030    2    1    2    0    0  0.00000000000E+00  0.00000000000E+00  0.16867734968E+04  0.40669014170E+04  0.37006056675E+04 0.  0.
        3    1    3    3  502    0 -0.10306731907E+04  0.84791397400E+03 -0.56501653578E+03  0.14493063959E+04  0.10100000352E+00 0.  1.
       -3    1    3    3    0  502  0.10306731907E+04 -0.84791397400E+03  0.22517900326E+04  0.26175950211E+04  0.10100000352E+00 0. -1.
</event>
<event>
 5   0  0.5714125E-09  0.3700446E+04  0.7818609E-02  0.8067863E-01
       -1   -1    0    0    0  501  0.00000000000E+00  0.00000000000E+00  0.26370008040E+04  0.26370008040E+04  0.50400001928E-02 0.  1.
        1   -1    0    0  501    0  0.00000000000E+00  0.00000000000E+00 -0.12981889411E+04  0.12981889411E+04  0.50400001928E-02 0. -1.
    10030    2    1    2    0    0  0.00000000000E+00  0.00000000000E+00  0.13388118629E+04  0.39351897451E+04  0.37004460712E+04 0.  0.
        5    1    3    3  502    0 -0.87982700936E+03 -0.56584192693E+03  0.22923336957E+04  0.25197397713E+04  0.46999998093E+01 0.  1.
       -5    1    3    3    0  502  0.87982700936E+03  0.56584192693E+03 -0.95352183281E+03  0.14154499738E+04  0.46999998093E+01 0. -1.
</event>
<event>
 5   0  0.5714125E-09  0.3699559E+04  0.7818609E-02  0.8068060E-01
       -1   -1    0    0    0  501  0.00000000000E+00  0.00000000000E+00  0.13013247685E+04  0.13013247686E+04  0.50400001928E-02 0.  1.
        1   -1    0    0  501    0  0.00000000000E+00  0.00000000000E+00 -0.26293850214E+04  0.26293850214E+04  0.50400001928E-02 0. -1.
    10030    2    1    2    0    0  0.00000000000E+00  0.00000000000E+00 -0.13280602529E+04  0.39307097900E+04  0.36995588140E+04 0.  0.
        4    1    3    3  502    0  0.17387721184E+04  0.62565357904E+03 -0.57570122431E+03  0.19355114035E+04  0.12699999809E+01 0. -1.
       -4    1    3    3    0  502 -0.17387721184E+04 -0.62565357904E+03 -0.75235902858E+03  0.19951983865E+04  0.12699999809E+01 0.  1.
</event>
<event>
 5   0  0.1856107E-08  0.3700955E+04  0.7818609E-02  0.8067750E-01
       -2   -1    0    0    0  501  0.00000000000E+00  0.00000000000E+00  0.12248394352E+04  0.12248394352E+04  0.25500000920E-02 0. -1.
        2   -1    0    0  501    0  0.00000000000E+00  0.00000000000E+00 -0.27956870693E+04  0.27956870693E+04  0.25500000920E-02 0.  1.
    10030    2    1    2    0    0  0.00000000000E+00  0.00000000000E+00 -0.15708476341E+04  0.40205265045E+04  0.37009554286E+04 0.  0.
        2    1    3    3  502    0  0.67510948262E+03 -0.16332242540E+04 -0.18934273897E+03  0.17773702344E+04  0.25500000920E-02 0.  1.
       -2    1    3    3    0  502 -0.67510948262E+03  0.16332242540E+04 -0.13815048951E+04  0.22431562702E+04  0.25500000920E-02 0. -1.
</event>
<event>
 5   0  0.1825308E-08  0.3700005E+04  0.7818609E-02  0.8067961E-01
       -2   -1    0    0    0  501  0.00000000000E+00  0.00000000000E+00  0.21716351861E+04  0.21716351861E+04  0.25500000920E-02 0. -1.
        2   -1    0    0  501    0  0.00000000000E+00  0.00000000000E+00 -0.15760056145E+04  0.15760056145E+04  0.25500000920E-02 0.  1.
    10030    2    1    2    0    0  0.00000000000E+00  0.00000000000E+00  0.59562957167E+03  0.37476408006E+04  0.37000049978E+04 0.  0.
        4    1    3    3  502    0  0.14041802133E+04  0.11965988106E+04  0.43719768582E+03  0.18959731576E+04  0.12699999809E+01 0. -1.
       -4    1    3    3    0  502 -0.14041802133E+04 -0.11965988106E+04  0.15843188586E+03  0.18516676430E+04  0.12699999809E+01 0.  1.
</event>
<event>
 5   0  0.1825308E-08  0.3698760E+04  0.7818609E-02  0.8068237E-01
       -2   -1    0    0    0  501  0.00000000000E+00  0.00000000000E+00  0.24691219494E+04  0.24691219494E+04  0.25500000920E-02 0.  1.
        2   -1    0    0  501    0  0.00000000000E+00  0.00000000000E+00 -0.13851909991E+04  0.13851909991E+04  0.25500000920E-02 0. -1.
    10030    2    1    2    0    0  0.00000000000E+00  0.00000000000E+00  0.10839309504E+04  0.38543129485E+04  0.36987595218E+04 0.  0.
        4    1    3    3  502    0 -0.84016141193E+03 -0.21272238924E+03  0.22444055185E+04  0.24059259667E+04  0.12699999809E+01 0.  1.
       -4    1    3    3    0  502  0.84016141193E+03  0.21272238924E+03 -0.11604745681E+04  0.14483869818E+04  0.12699999809E+01 0. -1.
</event>
<event>
 5   0  0.5714125E-09  0.3700837E+04  0.7818609E-02  0.8067776E-01
        1   -1    0    0  501    0  0.00000000000E+00  0.00000000000E+00  0.21485305244E+04  0.21485305244E+04  0.50400001928E-02 0. -1.
       -1   -1    0    0    0  501  0.00000000000E+00  0.00000000000E+00 -0.15936698575E+04  0.15936698575E+04  0.50400001928E-02 0.  1.
    10030    2    1    2    0    0  0.00000000000E+00  0.00000000000E+00  0.55486066694E+03  0.37422003819E+04  0.37008368430E+04 0.  0.
        4    1    3    3  502    0  0.13267208358E+03 -0.60789761608E+03  0.20395797343E+04  0.21323762564E+04  0.12699999809E+01 0. -1.
       -4    1    3    3    0  502 -0.13267208358E+03  0.60789761608E+03 -0.14847190673E+04  0.16098241255E+04  0.12699999809E+01 0.  1.
</event>
<event>
 5   0  0.1856107E-08  0.3699860E+04  0.7818609E-02  0.8067993E-01
       -2   -1    0    0    0  501  0.00000000000E+00  0.00000000000E+00  0.18393247707E+04  0.18393247707E+04  0.25500000920E-02 0.  1.
        2   -1    0    0  501    0  0.00000000000E+00  0.00000000000E+00 -0.18605964790E+04  0.18605964790E+04  0.25500000920E-02 0. -1.
    10030    2    1    2    0    0  0.00000000000E+00  0.00000000000E+00 -0.21271708300E+02  0.36999212498E+04  0.36998601013E+04 0.  0.
        2    1    3    3  502    0  0.16416804526E+04 -0.47920870828E+03  0.69470232143E+03  0.18459054716E+04  0.25500000920E-02 0.  1.
       -2    1    3    3    0  502 -0.16416804526E+04  0.47920870828E+03 -0.71597402973E+03  0.18540157782E+04  0.25500000920E-02 0. -1.
</event>
<event>
 5   0  0.1825308E-08  0.3701430E+04  0.7818609E-02  0.8067645E-01
       -2   -1    0    0    0  501  0.00000000000E+00  0.00000000000E+00  0.19207505158E+04  0.19207505158E+04  0.25500000920E-02 0. -1.
        2   -1    0    0  501    0  0.00000000000E+00  0.00000000000E+00 -0.17832335353E+04  0.17832335353E+04  0.25500000920E-02 0.  1.
    10030    2    1    2    0    0  0.00000000000E+00  0.00000000000E+00  0.13751698050E+03  0.37039840511E+04  0.37014303898E+04 0.  0.
        4    1    3    3  502    0  0.14977565917E+04 -0.97733529349E+03  0.54520253797E+03  0.18696808562E+04  0.12699999809E+01 0. -1.
       -4    1    3    3    0  502 -0.14977565917E+04  0.97733529349E+03 -0.40768555747E+03  0.18343031948E+04  0.12699999809E+01 0.  1.
</event>
<event>
 5   0  0.1740290E-08  0.3700238E+04  0.7818609E-02  0.8067909E-01
        2   -1    0    0  501    0  0.00000000000E+00  0.00000000000E+00  0.21579712949E+04  0.21579712949E+04  0.25500000920E-02 0. -1.
       -2   -1    0    0    0  501  0.00000000000E+00  0.00000000000E+00 -0.15861846948E+04  0.15861846948E+04  0.25500000920E-02 0.  1.
    10030    2    1    2    0    0  0.00000000000E+00  0.00000000000E+00  0.57178660011E+03  0.37441559897E+04  0.37002383922E+04 0.  0.
        5    1    3    3  502    0  0.21505767425E+03  0.67712649804E+03  0.20144333161E+04  0.21360509761E+04  0.46999998093E+01 0. -1.
       -5    1    3    3    0  502 -0.21505767425E+03 -0.67712649804E+03 -0.14426467160E+04  0.16081050136E+04  0.46999998093E+01 0.  1.
</event>
<event>
 5   0  0.1740290E-08  0.3697190E+04  0.7818609E-02  0.8068585E-01
        2   -1    0    0  501    0  0.00000000000E+00  0.00000000000E+00  0.19435851181E+04  0.19435851181E+04  0.25500000920E-02 0. -1.
       -2   -1    0    0    0  501  0.00000000000E+00  0.00000000000E+00 -0.17582472453E+04  0.17582472453E+04  0.25500000920E-02 0.  1.
    10030    2    1    2    0    0  0.00000000000E+00  0.00000000000E+00  0.18533787276E+03  0.37018323634E+04  0.36971898409E+04 0.  0.
        5    1    3    3  502    0 -0.34862919383E+03  0.19390943215E+02  0.19102618136E+04  0.19419167361E+04  0.46999998093E+01 0. -1.
       -5    1    3    3    0  502  0.34862919383E+03 -0.19390943215E+02 -0.17249239408E+04  0.17599156273E+04  0.46999998093E+01 0.  1.
</event>
<event>
 5   0  0.1757996E-08  0.3700879E+04  0.7818609E-02  0.8067767E-01
        2   -1    0    0  501    0  0.00000000000E+00  0.00000000000E+00  0.22398777686E+04  0.22398777686E+04  0.25500000920E-02 0. -1.
       -2   -1    0    0    0  501  0.00000000000E+00  0.00000000000E+00 -0.15287113009E+04  0.15287113009E+04  0.25500000920E-02 0.  1.
    10030    2    1    2    0    0  0.00000000000E+00  0.00000000000E+00  0.71116646763E+03  0.37685890695E+04  0.37008790618E+04 0.  0.
        3    1    3    3  502    0  0.78902825312E+03 -0.32890047897E+03  0.20267628762E+04  0.21996610820E+04  0.10100000352E+00 0. -1.
       -3    1    3    3    0  502 -0.78902825312E+03  0.32890047897E+03 -0.13155964086E+04  0.15689279874E+04  0.10100000352E+00 0.  1.
</event>
<event>
 5   0  0.5714125E-09  0.3700570E+04  0.7818609E-02  0.8067835E-01
       -1   -1    0    0    0  501  0.00000000000E+00  0.00000000000E+00  0.21474782927E+04  0.21474782927E+04  0.50400001928E-02 0. -1.
        1   -1    0    0  501    0  0.00000000000E+00  0.00000000000E+00 -0.15942209080E+04  0.15942209080E+04  0.50400001928E-02 0.  1.
    10030    2    1    2    0    0  0.00000000000E+00  0.00000000000E+00  0.55325738472E+03  0.37416992007E+04  0.37005701148E+04 0.  0.
        5    1    3    3  502    0 -0.16896719486E+04 -0.49981828109E+03 -0.29420158638E+03  0.17864451493E+04  0.46999998093E+01 0.  1.
       -5    1    3    3    0  502  0.16896719486E+04  0.49981828109E+03  0.84745897110E+03  0.19552540514E+04  0.46999998093E+01 0. -1.
</event>
<event>
 5   0  0.5714125E-09  0.3701541E+04  0.7818609E-02  0.8067620E-01
       -1   -1    0    0    0  501  0.00000000000E+00  0.00000000000E+00  0.16396037937E+04  0.16396037937E+04  0.50400001928E-02 0. -1.
        1   -1    0    0  501    0  0.00000000000E+00  0.00000000000E+00 -0.20891339888E+04  0.20891339888E+04  0.50400001928E-02 0.  1.
    10030    2    1    2    0    0  0.00000000000E+00  0.00000000000E+00 -0.44953019515E+03  0.37287377825E+04  0.37015413079E+04 0.  0.
        2    1    3    3  502    0 -0.55809596438E+03  0.42452057107E+03  0.15006133511E+04  0.16563602417E+04  0.25500000920E-02 0. -1.
       -2    1    3    3    0  502  0.55809596438E+03 -0.42452057107E+03 -0.19501435463E+04  0.20723775408E+04  0.25500000920E-02 0.  1.
</event>
<event>
 5   0  0.1725865E-08  0.3701424E+04  0.7818609E-02  0.8067646E-01
       -2   -1    0    0    0  501  0.00000000000E+00  0.00000000000E+00  0.12949059755E+04  0.12949059755E+04  0.25500000920E-02 0.  1.
        2   -1    0    0  501    0  0.00000000000E+00  0.00000000000E+00 -0.26450845729E+04  0.26450845729E+04  0.25500000920E-02 0. -1.
    10030    2    1    2    0    0  0.00000000000E+00  0.00000000000E+00 -0.13501785974E+04  0.39399905484E+04  0.37014244929E+04 0.  0.
        1    1    3    3  502    0  0.10644423431E+04 -0.15139487650E+04 -0.68315768953E+03  0.19727601967E+04  0.50400001928E-02 0. -1.
       -1    1    3    3    0  502 -0.10644423431E+04  0.15139487650E+04 -0.66702090785E+03  0.19672303517E+04  0.50400001928E-02 0.  1.
</event>
<event>
 5   0  0.5714125E-09  0.3698777E+04  0.7818609E-02  0.8068233E-01
        1   -1    0    0  501    0  0.00000000000E+00  0.00000000000E+00  0.17738414073E+04  0.17738414073E+04  0.50400001928E-02 0. -1.
       -1   -1    0    0    0  501  0.00000000000E+00  0.00000000000E+00 -0.19281530019E+04  0.19281530019E+04  0.50400001928E-02 0.  1.
    10030    2    1    2    0    0  0.00000000000E+00  0.00000000000E+00 -0.15431159460E+03  0.37019944092E+04  0.36987768975E+04 0.  0.
        4    1    3    3  502    0 -0.13792806753E+04  0.12282958737E+04  0.18374006929E+02  0.18470152006E+04  0.12699999809E+01 0.  1.
       -4    1    3    3    0  502  0.13792806753E+04 -0.12282958737E+04 -0.17268560153E+03  0.18549792086E+04  0.12699999809E+01 0. -1.
</event>
<event>
 5   0  0.1757996E-08  0.3698401E+04  0.7818609E-02  0.8068316E-01
       -2   -1    0    0    0  501  0.00000000000E+00  0.00000000000E+00  0.19943313152E+04  0.19943313152E+04  0.25500000920E-02 0. -1.
        2   -1    0    0  501    0  0.00000000000E+00  0.00000000000E+00 -0.17146311171E+04  0.17146311171E+04  0.25500000920E-02 0.  1.
    10030    2    1    2    0    0  0.00000000000E+00  0.00000000000E+00  0.27970019816E+03  0.37089624323E+04  0.36984010225E+04 0.  0.
        3    1    3    3  502    0  0.72579802270E+03 -0.11825730378E+04 -0.10860484651E+04  0.17620337790E+04  0.10100000352E+00 0.  1.
       -3    1    3    3    0  502 -0.72579802270E+03  0.11825730378E+04  0.13657486633E+04  0.19469286533E+04  0.10100000352E+00 0. -1.
</event>
<event>
 5   0  0.5714125E-09  0.3700071E+04  0.7818609E-02  0.8067946E-01
        1   -1    0    0  501    0  0.00000000000E+00  0.00000000000E+00  0.13583043862E+04  0.13583043862E+04  0.50400001928E-02 0.  1.
       -1   -1    0    0    0  501  0.00000000000E+00  0.00000000000E+00 -0.25197827120E+04  0.25197827120E+04  0.50400001928E-02 0. -1.
    10030    2    1    2    0    0  0.00000000000E+00  0.00000000000E+00 -0.11614783258E+04  0.38780870982E+04  0.37000713020E+04 0.  0.
        5    1    3    3  502    0 -0.26891427194E+03  0.16524482868E+04  0.24435131526E+03  0.16919308146E+04  0.46999998093E+01 0.  1.
       -5    1    3    3    0  502  0.26891427194E+03 -0.16524482868E+04 -0.14058296411E+04  0.21861562835E+04  0.46999998093E+01 0. -1.
</event>
<event>
 5   0  0.5714125E-09  0.3699316E+04  0.7818609E-02  0.8068113E-01
        1   -1    0    0  501    0  0.00000000000E+00  0.00000000000E+00  0.18209048294E+04  0.18209048294E+04  0.50400001928E-02 0.  1.
       -1   -1    0    0    0  501  0.00000000000E+00  0.00000000000E+00 -0.18788651743E+04  0.18788651743E+04  0.50400001928E-02 0. -1.
    10030    2    1    2    0    0  0.00000000000E+00  0.00000000000E+00 -0.57960344943E+02  0.36997700037E+04  0.36993159745E+04 0.  0.
        3    1    3    3  502    0 -0.17699273884E+04  0.41345332268E+03  0.31406053899E+03  0.18445109494E+04  0.10100000352E+00 0.  1.
       -3    1    3    3    0  502  0.17699273884E+04 -0.41345332268E+03 -0.37202088393E+03  0.18552590543E+04  0.10100000352E+00 0. -1.
</event>
<event>
 5   0  0.5714125E-09  0.3699696E+04  0.7818609E-02  0.8068029E-01
        3   -1    0    0  501    0  0.00000000000E+00  0.00000000000E+00  0.16358133971E+04  0.16358134003E+04  0.10100000352E+00 0. -1.
       -3   -1    0    0    0  501  0.00000000000E+00  0.00000000000E+00 -0.20918875450E+04  0.20918875474E+04  0.10100000352E+00 0.  1.
    10030    2    1    2    0    0  0.00000000000E+00  0.00000000000E+00 -0.45607414783E+03  0.37277009477E+04  0.36996960317E+04 0.  0.
        5    1    3    3  502    0 -0.12987908757E+04 -0.18094842114E+03  0.10865672303E+04  0.17030121861E+04  0.46999998093E+01 0. -1.
       -5    1    3    3    0  502  0.12987908757E+04  0.18094842114E+03 -0.15426413782E+04  0.20246887616E+04  0.46999998093E+01 0.  1.
</event>
<event>
 5   0  0.1856107E-08  0.3694002E+04  0.7818609E-02  0.8069292E-01
        2   -1    0    0  501    0  0.00000000000E+00  0.00000000000E+00  0.22038494103E+04  0.22038494103E+04  0.25500000920E-02 0. -1.
       -2   -1    0    0    0  501  0.00000000000E+00  0.00000000000E+00 -0.15479338499E+04  0.15479338499E+04  0.25500000920E-02 0.  1.
    10030    2    1    2    0    0  0.00000000000E+00  0.00000000000E+00  0.65591556042E+03  0.37517832602E+04  0.36940022210E+04 0.  0.
        2    1    3    3  502    0  0.57380110832E+03 -0.14740204411E+04 -0.64059885242E+03  0.17065611218E+04  0.25500000920E-02 0.  1.
       -2    1    3    3    0  502 -0.57380110832E+03  0.14740204411E+04  0.12965144128E+04  0.20452221384E+04  0.25500000920E-02 0. -1.
</event>
<event>
 5   0  0.1740290E-08  0.3719947E+04  0.7818609E-02  0.8063556E-01
        2   -1    0    0  501    0  0.00000000000E+00  0.00000000000E+00  0.18283880584E+04  0.18283880584E+04  0.25500000920E-02 0.  1.
       -2   -1    0    0    0  501  0.00000000000E+00  0.00000000000E+00 -0.18921043719E+04  0.18921043719E+04  0.25500000920E-02 0. -1.
    10030    2    1    2    0    0  0.00000000000E+00  0.00000000000E+00 -0.63716313521E+02  0.37204924303E+04  0.37199467947E+04 0.  0.
        5    1    3    3  502    0  0.15794249888E+03  0.12567131407E+03  0.18173965094E+04  0.18285762972E+04  0.46999998093E+01 0.  1.
       -5    1    3    3    0  502 -0.15794249888E+03 -0.12567131407E+03 -0.18811128229E+04  0.18919161331E+04  0.46999998093E+01 0. -1.
</event>
<event>
 5   0  0.5714125E-09  0.3695620E+04  0.7818609E-02  0.8068933E-01
       -1   -1    0    0    0  501  0.00000000000E+00  0.00000000000E+00  0.17862965120E+04  0.17862965120E+04  0.50400001928E-02 0.  1.
        1   -1    0    0  501    0  0.00000000000E+00  0.00000000000E+00 -0.19114416118E+04  0.19114416118E+04  0.50400001928E-02 0. -1.
    10030    2    1    2    0    0  0.00000000000E+00  0.00000000000E+00 -0.12514509983E+03  0.36977381239E+04  0.36956198312E+04 0.  0.
        4    1    3    3  502    0  0.73563916554E+03  0.14698030073E+03  0.16270728778E+04  0.17916852272E+04  0.12699999809E+01 0.  1.
       -4    1    3    3    0  502 -0.73563916554E+03 -0.14698030073E+03 -0.17522179777E+04  0.19060528967E+04  0.12699999809E+01 0. -1.
</event>
<event>
 5   0  0.1825308E-08  0.3700896E+04  0.7818609E-02  0.8067763E-01
       -2   -1    0    0    0  501  0.00000000000E+00  0.00000000000E+00  0.14562601035E+04  0.14562601035E+04  0.25500000920E-02 0. -1.
        2   -1    0    0  501    0  0.00000000000E+00  0.00000000000E+00 -0.23513370131E+04  0.23513370131E+04  0.25500000920E-02 0.  1.
    10030    2    1    2    0    0  0.00000000000E+00  0.00000000000E+00 -0.89507690965E+03  0.38075971166E+04  0.37008962601E+04 0.  0.
        4    1    3    3  502    0 -0.49885828693E+03 -0.16260751538E+04 -0.11973697716E+04  0.20800663401E+04  0.12699999809E+01 0. -1.
       -4    1    3    3    0  502  0.49885828693E+03  0.16260751538E+04  0.30229286195E+03  0.17275307765E+04  0.12699999809E+01 0.  1.
</event>
<event>
 5   0  0.5714125E-09  0.3704204E+04  0.7818609E-02  0.8067031E-01
       -1   -1    0    0    0  501  0.00000000000E+00  0.00000000000E+00  0.17743648040E+04  0.17743648040E+04  0.50400001928E-02 0. -1.
        1   -1    0    0  501    0  0.00000000000E+00  0.00000000000E+00 -0.19332453915E+04  0.19332453915E+04  0.50400001928E-02 0.  1.
    10030    2    1    2    0    0  0.00000000000E+00  0.00000000000E+00 -0.15888058747E+03  0.37076101955E+04  0.37042044113E+04 0.  0.
        5    1    3    3  502    0  0.17383204330E+03 -0.86856018860E+03 -0.17074800225E+04  0.19235707675E+04  0.46999998093E+01 0.  1.
       -5    1    3    3    0  502 -0.17383204330E+03  0.86856018860E+03  0.15485994350E+04  0.17840394280E+04  0.46999998093E+01 0. -1.
</event>
<event>
 5   0  0.1856107E-08  0.3700613E+04  0.7818609E-02  0.8067826E-01
       -2   -1    0    0    0  501  0.00000000000E+00  0.00000000000E+00  0.22238810295E+04  0.22238810295E+04  0.25500000920E-02 0. -1.
        2   -1    0    0  501    0  0.00000000000E+00  0.00000000000E+00 -0.15394861292E+04  0.15394861292E+04  0.25500000920E-02 0.  1.
    10030    2    1    2    0    0  0.00000000000E+00  0.00000000000E+00  0.68439490027E+03  0.37633671587E+04  0.37006129210E+04 0.  0.
        2    1    3    3  502    0 -0.31235216464E+03 -0.13279597528E+04 -0.92903763199E+03  0.16505005003E+04  0.25500000920E-02 0.  1.
       -2    1    3    3    0  502  0.31235216464E+03  0.13279597528E+04  0.16134325323E+04  0.21128666584E+04  0.25500000920E-02 0. -1.
</event>
<event>
 5   0  0.1757996E-08  0.3700938E+04  0.7818609E-02  0.8067754E-01
        2   -1    0    0  501    0  0.00000000000E+00  0.00000000000E+00  0.22587117317E+04  0.22587117317E+04  0.25500000920E-02 0.  1.
       -2   -1    0    0    0  501  0.00000000000E+00  0.00000000000E+00 -0.15160125628E+04  0.15160125628E+04  0.25500000920E-02 0. -1.
    10030    2    1    2    0    0  0.00000000000E+00  0.00000000000E+00  0.74269916886E+03  0.37747242945E+04  0.37009379141E+04 0.  0.
        3    1    3    3  502    0  0.80215203531E+03  0.53756784322E+03  0.19813676486E+04  0.22041426549E+04  0.10100000352E+00 0.  1.
       -3    1    3    3    0  502 -0.80215203531E+03 -0.53756784322E+03 -0.12386684798E+04  0.15705816396E+04  0.10100000352E+00 0. -1.
</event>
<event>
 5   0  0.5714125E-09  0.3698983E+04  0.7818609E-02  0.8068187E-01
        1   -1    0    0  501    0  0.00000000000E+00  0.00000000000E+00  0.22816989696E+04  0.22816989696E+04  0.50400001928E-02 0.  1.
       -1   -1    0    0    0  501  0.00000000000E+00  0.00000000000E+00 -0.14991539046E+04  0.14991539046E+04  0.50400001928E-02 0. -1.
    10030    2    1    2    0    0  0.00000000000E+00  0.00000000000E+00  0.78254506500E+03  0.37808528743E+04  0.36989825193E+04 0.  0.
        2    1    3    3  502    0  0.12879782686E+04  0.24867460503E+03  0.17239283998E+04  0.21662539573E+04  0.25500000920E-02 0.  1.
       -2    1    3    3    0  502 -0.12879782686E+04 -0.24867460503E+03 -0.94138333483E+03  0.16145989170E+04  0.25500000920E-02 0. -1.
</event>
<event>
 5   0  0.5714125E-09  0.3699797E+04  0.7818609E-02  0.8068007E-01
       -1   -1    0    0    0  501  0.00000000000E+00  0.00000000000E+00  0.13105698921E+04  0.13105698921E+04  0.50400001928E-02 0. -1.
        1   -1    0    0  501    0  0.00000000000E+00  0.00000000000E+00 -0.26111727770E+04  0.26111727770E+04  0.50400001928E-02 0.  1.
    10030    2    1    2    0    0  0.00000000000E+00  0.00000000000E+00 -0.13006028849E+04  0.39217426691E+04  0.36997969807E+04 0.  0.
        5    1    3    3  502    0 -0.78246986826E+03  0.16347803695E+04 -0.10431218147E+04  0.20911458968E+04  0.46999998093E+01 0.  1.
       -5    1    3    3    0  502  0.78246986826E+03 -0.16347803695E+04 -0.25748107025E+03  0.18305967723E+04  0.46999998093E+01 0. -1.
</event>
<event>
 5   0  0.1757996E-08  0.3701411E+04  0.7818609E-02  0.8067649E-01
       -2   -1    0    0    0  501  0.00000000000E+00  0.00000000000E+00  0.21726959946E+04  0.21726959946E+04  0.25500000920E-02 0.  1.
        2   -1    0    0  501    0  0.00000000000E+00  0.00000000000E+00 -0.15764337621E+04  0.15764337621E+04  0.25500000920E-02 0. -1.
    10030    2    1    2    0    0  0.00000000000E+00  0.00000000000E+00  0.59626223249E+03  0.37491297567E+04  0.37014112555E+04 0.  0.
        3    1    3    3  502    0 -0.73079023392E+03  0.64863999597E+03 -0.12938576909E+04  0.16213747084E+04  0.10100000352E+00 0. -1.
       -3    1    3    3    0  502  0.73079023392E+03 -0.64863999597E+03  0.18901199234E+04  0.21277550483E+04  0.10100000352E+00 0.  1.
</event>
<event>
 5   0  0.1757996E-08  0.3699946E+04  0.7818609E-02  0.8067974E-01
       -2   -1    0    0    0  501  0.00000000000E+00  0.00000000000E+00  0.17355367747E+04  0.17355367747E+04  0.25500000920E-02 0. -1.
        2   -1    0    0  501    0  0.00000000000E+00  0.00000000000E+00 -0.19719550610E+04  0.19719550610E+04  0.25500000920E-02 0.  1.
    10030    2    1    2    0    0  0.00000000000E+00  0.00000000000E+00 -0.23641828633E+03  0.37074918357E+04  0.36999462301E+04 0.  0.
        3    1    3    3  502    0 -0.82207063979E+03 -0.77019939279E+03  0.13522280082E+04  0.17599794992E+04  0.10100000352E+00 0. -1.
       -3    1    3    3    0  502  0.82207063979E+03  0.77019939279E+03 -0.15886462945E+04  0.19475123364E+04  0.10100000352E+00 0.  1.
</event>
<event>
 5   0  0.1856107E-08  0.3700330E+04  0.7818609E-02  0.8067889E-01
       -2   -1    0    0    0  501  0.00000000000E+00  0.00000000000E+00  0.13168893693E+04  0.13168893693E+04  0.25500000920E-02 0.  1.
        2   -1    0    0  501    0  0.00000000000E+00  0.00000000000E+00 -0.25993911175E+04  0.25993911175E+04  0.25500000920E-02 0. -1.
    10030    2    1    2    0    0  0.00000000000E+00  0.00000000000E+00 -0.12825017482E+04  0.39162804868E+04  0.37003300011E+04 0.  0.
        2    1    3    3  502    0  0.13250107063E+03 -0.81368831242E+03  0.11117537823E+04  0.13840670778E+04  0.25500000920E-02 0.  1.
       -2    1    3    3    0  502 -0.13250107063E+03  0.81368831242E+03 -0.23942555305E+04  0.25322134090E+04  0.25500000920E-02 0. -1.
</event>
<event>
 5   0  0.5714125E-09  0.3699316E+04  0.7818609E-02  0.8068114E-01
        1   -1    0    0  501    0  0.00000000000E+00  0.00000000000E+00  0.22560549381E+04  0.22560549381E+04  0.50400001928E-02 0. -1.
       -1   -1    0    0    0  501  0.00000000000E+00  0.00000000000E+00 -0.15164674606E+04  0.15164674606E+04  0.50400001928E-02 0.  1.
    10030    2    1    2    0    0  0.00000000000E+00  0.00000000000E+00  0.73958747754E+03  0.37725223988E+04  0.36993155600E+04 0.  0.
        1    1    3    3  502    0  0.32398953612E+03  0.15647147666E+04  0.13198589025E+04  0.20725175615E+04  0.50400001928E-02 0. -1.
       -1    1    3    3    0  502 -0.32398953612E+03 -0.15647147666E+04 -0.58027142491E+03  0.17000048373E+04  0.50400001928E-02 0.  1.
</event>
<event>
 5   0  0.1825308E-08  0.3697457E+04  0.7818609E-02  0.8068526E-01
        2   -1    0    0  501    0  0.00000000000E+00  0.00000000000E+00  0.20636291864E+04  0.20636291864E+04  0.25500000920E-02 0. -1.
       -2   -1    0    0    0  501  0.00000000000E+00  0.00000000000E+00 -0.16562066950E+04  0.16562066950E+04  0.25500000920E-02 0.  1.
    10030    2    1    2    0    0  0.00000000000E+00  0.00000000000E+00  0.40742249145E+03  0.37198358814E+04  0.36974566797E+04 0.  0.
        4    1    3    3  502    0  0.84135074640E+03 -0.12818445191E+04 -0.83539956983E+03  0.17461072429E+04  0.12699999809E+01 0.  1.
       -4    1    3    3    0  502 -0.84135074640E+03  0.12818445191E+04  0.12428220613E+04  0.19737286385E+04  0.12699999809E+01 0. -1.
</event>
<event>
 5   0  0.1757996E-08  0.3698542E+04  0.7818609E-02  0.8068285E-01
       -2   -1    0    0    0  501  0.00000000000E+00  0.00000000000E+00  0.14797918777E+04  0.14797918777E+04  0.25500000920E-02 0. -1.
        2   -1    0    0  501    0  0.00000000000E+00  0.00000000000E+00 -0.23110023709E+04  0.23110023709E+04  0.25500000920E-02 0.  1.
    10030    2    1    2    0    0  0.00000000000E+00  0.00000000000E+00 -0.83121049323E+03  0.37907942486E+04  0.36985416250E+04 0.  0.
        3    1    3    3  502    0 -0.58311693089E+03  0.17345403186E+04 -0.68899244151E+03  0.19553429537E+04  0.10100000352E+00 0. -1.
       -3    1    3    3    0  502  0.58311693089E+03 -0.17345403186E+04 -0.14221805171E+03  0.18354512950E+04  0.10100000352E+00 0.  1.
</event>
<event>
 5   0  0.5714125E-09  0.3701611E+04  0.7818609E-02  0.8067605E-01
       -1   -1    0    0    0  501  0.00000000000E+00  0.00000000000E+00  0.15115542467E+04  0.15115542467E+04  0.50400001928E-02 0.  1.
        1   -1    0    0  501    0  0.00000000000E+00  0.00000000000E+00 -0.22661980252E+04  0.22661980252E+04  0.50400001928E-02 0. -1.
    10030    2    1    2    0    0  0.00000000000E+00  0.00000000000E+00 -0.75464377845E+03  0.37777522719E+04  0.37016111351E+04 0.  0.
        2    1    3    3  502    0  0.16471781863E+04  0.42587875853E+03 -0.11209472285E+04  0.20374227307E+04  0.25500000920E-02 0. -1.
       -2    1    3    3    0  502 -0.16471781863E+04 -0.42587875853E+03  0.36630345005E+03  0.17403295412E+04  0.25500000920E-02 0.  1.
</event>
<event>
 5   0  0.5714125E-09  0.3700391E+04  0.7818609E-02  0.8067875E-01
        1   -1    0    0  501    0  0.00000000000E+00  0.00000000000E+00  0.16531233623E+04  0.16531233623E+04  0.50400001928E-02 0.  1.
       -1   -1    0    0    0  501  0.00000000000E+00  0.00000000000E+00 -0.20707615327E+04  0.20707615327E+04  0.50400001928E-02 0. -1.
    10030    2    1    2    0    0  0.00000000000E+00  0.00000000000E+00 -0.41763817046E+03  0.37238848950E+04  0.37003914752E+04 0.  0.
        1    1    3    3  502    0  0.16679116871E+04 -0.73468426138E+03  0.11184780988E+03  0.18259792695E+04  0.50400001928E-02 0. -1.
       -1    1    3    3    0  502 -0.16679116871E+04  0.73468426138E+03 -0.52948598034E+03  0.18979056255E+04  0.50400001928E-02 0.  1.
</event>
<event>
 5   0  0.1725865E-08  0.3699315E+04  0.7818609E-02  0.8068114E-01
        2   -1    0    0  501    0  0.00000000000E+00  0.00000000000E+00  0.31532787800E+04  0.31532787800E+04  0.25500000920E-02 0.  1.
       -2   -1    0    0    0  501  0.00000000000E+00  0.00000000000E+00 -0.10849764648E+04  0.10849764649E+04  0.25500000920E-02 0. -1.
    10030    2    1    2    0    0  0.00000000000E+00  0.00000000000E+00  0.20683023151E+04  0.42382552448E+04  0.36993152141E+04 0.  0.
        1    1    3    3  502    0 -0.51724478659E+03  0.47787917660E+01 -0.10004241665E+04  0.11262386599E+04  0.50400001928E-02 0. -1.
       -1    1    3    3    0  502  0.51724478659E+03 -0.47787917660E+01  0.30687264816E+04  0.31120165849E+04  0.50400001928E-02 0.  1.
</event>
<event>
 5   0  0.5714125E-09  0.3701616E+04  0.7818609E-02  0.8067604E-01
        1   -1    0    0  501    0  0.00000000000E+00  0.00000000000E+00  0.14190434883E+04  0.14190434883E+04  0.50400001928E-02 0. -1.
       -1   -1    0    0    0  501  0.00000000000E+00  0.00000000000E+00 -0.24139430860E+04  0.24139430860E+04  0.50400001928E-02 0.  1.
    10030    2    1    2    0    0  0.00000000000E+00  0.00000000000E+00 -0.99489959773E+03  0.38329865743E+04  0.37016159808E+04 0.  0.
        5    1    3    3  502    0  0.70696418191E+03  0.17018518599E+04 -0.67490880966E+03  0.19625549926E+04  0.46999998093E+01 0. -1.
       -5    1    3    3    0  502 -0.70696418191E+03 -0.17018518599E+04 -0.31999078807E+03  0.18704315817E+04  0.46999998093E+01 0.  1.
</event>
<event>
 5   0  0.5714125E-09  0.3699390E+04  0.7818609E-02  0.8068097E-01
        1   -1    0    0  501    0  0.00000000000E+00  0.00000000000E+00  0.23499355525E+04  0.23499355525E+04  0.50400001928E-02 0. -1.
       -1   -1    0    0    0  501  0.00000000000E+00  0.00000000000E+00 -0.14559423586E+04  0.14559423586E+04  0.50400001928E-02 0.  1.
    10030    2    1    2    0    0  0.00000000000E+00  0.00000000000E+00  0.89399319392E+03  0.38058779111E+04  0.36993895231E+04 0.  0.
        1    1    3    3  502    0 -0.68687797702E+03 -0.11683447081E+02 -0.13198304823E+04  0.14879147691E+04  0.50400001928E-02 0.  1.
       -1    1    3    3    0  502  0.68687797702E+03  0.11683447081E+02  0.22138236762E+04  0.23179631420E+04  0.50400001928E-02 0. -1.
</event>
<event>
 5   0  0.1757996E-08  0.3699955E+04  0.7818609E-02  0.8067972E-01
        2   -1    0    0  501    0  0.00000000000E+00  0.00000000000E+00  0.20756001542E+04  0.20756001542E+04  0.25500000920E-02 0.  1.
       -2   -1    0    0    0  501  0.00000000000E+00  0.00000000000E+00 -0.16488808457E+04  0.16488808457E+04  0.25500000920E-02 0. -1.
    10030    2    1    2    0    0  0.00000000000E+00  0.00000000000E+00  0.42671930847E+03  0.37244809999E+04  0.36999553173E+04 0.  0.
        3    1    3    3  502    0 -0.54139720590E+03  0.31048242341E+02  0.19937958886E+04  0.20662277182E+04  0.10100000352E+00 0.  1.
       -3    1    3    3    0  502  0.54139720590E+03 -0.31048242341E+02 -0.15670765801E+04  0.16582532816E+04  0.10100000352E+00 0. -1.
</event>
<event>
 5   0  0.5714125E-09  0.3699636E+04  0.7818609E-02  0.8068042E-01
        1   -1    0    0  501    0  0.00000000000E+00  0.00000000000E+00  0.28312241872E+04  0.28312241872E+04  0.50400001928E-02 0. -1.
       -1   -1    0    0    0  501  0.00000000000E+00  0.00000000000E+00 -0.12086033277E+04  0.12086033277E+04  0.50400001928E-02 0.  1.
    10030    2    1    2    0    0  0.00000000000E+00  0.00000000000E+00  0.16226208595E+04  0.40398275149E+04  0.36996361843E+04 0.  0.
        1    1    3    3  502    0 -0.63003535944E+03  0.28373532594E+03 -0.10623914368E+04  0.12673302073E+04  0.50400001928E-02 0.  1.
       -1    1    3    3    0  502  0.63003535944E+03 -0.28373532594E+03  0.26850122963E+04  0.27724973076E+04  0.50400001928E-02 0. -1.
</event>
<event>
 5   0  0.5714125E-09  0.3696453E+04  0.7818609E-02  0.8068748E-01
       -1   -1    0    0    0  501  0.00000000000E+00  0.00000000000E+00  0.24826874699E+04  0.24826874700E+04  0.50400001928E-02 0.  1.
        1   -1    0    0  501    0  0.00000000000E+00  0.00000000000E+00 -0.13759045098E+04  0.13759045098E+04  0.50400001928E-02 0. -1.
    10030    2    1    2    0    0  0.00000000000E+00  0.00000000000E+00  0.11067829601E+04  0.38585919798E+04  0.36964528328E+04 0.  0.
        1    1    3    3  502    0 -0.12121275388E+04 -0.12362471395E+04  0.12285869550E+04  0.21229663365E+04  0.50400001928E-02 0.  1.
       -1    1    3    3    0  502  0.12121275388E+04  0.12362471395E+04 -0.12180399481E+03  0.17356256432E+04  0.50400001928E-02 0. -1.
</event>
<event>
 5   0  0.5714125E-09  0.3699249E+04  0.7818609E-02  0.8068128E-01
        1   -1    0    0  501    0  0.00000000000E+00  0.00000000000E+00  0.13049008622E+04  0.13049008622E+04  0.50400001928E-02 0. -1.
       -1   -1    0    0    0  501  0.00000000000E+00  0.00000000000E+00 -0.26217393614E+04  0.26217393614E+04  0.50400001928E-02 0.  1.
    10030    2    1    2    0    0  0.00000000000E+00  0.00000000000E+00 -0.13168384991E+04  0.39266402236E+04  0.36992485470E+04 0.  0.
        2    1    3    3  502    0  0.38318699428E+03  0.18075244125E+04 -0.74806901423E+03  0.19933850668E+04  0.25500000920E-02 0. -1.
       -2    1    3    3    0  502 -0.38318699428E+03 -0.18075244125E+04 -0.56876948492E+03  0.19332551568E+04  0.25500000920E-02 0.  1.
</event>
<event>
 5   0  0.1725865E-08  0.3701258E+04  0.7818609E-02  0.8067683E-01
        2   -1    0    0  501    0  0.00000000000E+00  0.00000000000E+00  0.19195936293E+04  0.19195936293E+04  0.25500000920E-02 0. -1.
       -2   -1    0    0    0  501  0.00000000000E+00  0.00000000000E+00 -0.17841419180E+04  0.17841419180E+04  0.25500000920E-02 0.  1.
    10030    2    1    2    0    0  0.00000000000E+00  0.00000000000E+00  0.13545171123E+03  0.37037355473E+04  0.37012578724E+04 0.  0.
        1    1    3    3  502    0 -0.10578209148E+04 -0.10034065895E+04 -0.10727816331E+04  0.18101575357E+04  0.50400001928E-02 0.  1.
       -1    1    3    3    0  502  0.10578209148E+04  0.10034065895E+04  0.12082333444E+04  0.18935780116E+04  0.50400001928E-02 0. -1.
</event>
<event>
 5   0  0.5714125E-09  0.3699996E+04  0.7818609E-02  0.8067963E-01
        3   -1    0    0  501    0  0.00000000000E+00  0.00000000000E+00  0.31991255703E+04  0.31991255719E+04  0.10100000352E+00 0.  1.
       -3   -1    0    0    0  501  0.00000000000E+00  0.00000000000E+00 -0.10698214475E+04  0.10698214523E+04  0.10100000352E+00 0. -1.
    10030    2    1    2    0    0  0.00000000000E+00  0.00000000000E+00  0.21293041228E+04  0.42689470242E+04  0.36999963037E+04 0.  0.
        3    1    3    3  502    0 -0.89932770839E+03  0.32745424635E+03 -0.76198093017E+03  0.12233689381E+04  0.10100000352E+00 0. -1.
       -3    1    3    3    0  502  0.89932770839E+03 -0.32745424635E+03  0.28912850530E+04  0.30455780861E+04  0.10100000352E+00 0.  1.
</event>
<event>
 5   0  0.1757996E-08  0.3701152E+04  0.7818609E-02  0.8067707E-01
       -2   -1    0    0    0  501  0.00000000000E+00  0.00000000000E+00  0.16950426678E+04  0.16950426678E+04  0.25500000920E-02 0. -1.
        2   -1    0    0  501    0  0.00000000000E+00  0.00000000000E+00 -0.20203809382E+04  0.20203809382E+04  0.25500000920E-02 0.  1.
    10030    2    1    2    0    0  0.00000000000E+00  0.00000000000E+00 -0.32533827037E+03  0.37154236060E+04  0.37011521965E+04 0.  0.
        3    1    3    3  502    0 -0.68986376405E+02  0.16106305919E+04  0.74953816358E+03  0.17778350577E+04  0.10100000352E+00 0. -1.
       -3    1    3    3    0  502  0.68986376405E+02 -0.16106305919E+04 -0.10748764340E+04  0.19375885482E+04  0.10100000352E+00 0.  1.
</event>
<event>
 5   0  0.1856107E-08  0.3699868E+04  0.7818609E-02  0.8067991E-01
        2   -1    0    0  501    0  0.00000000000E+00  0.00000000000E+00  0.24055944877E+04  0.24055944877E+04  0.25500000920E-02 0.  1.
       -2   -1    0    0    0  501  0.00000000000E+00  0.00000000000E+00 -0.14226236999E+04  0.14226236999E+04  0.25500000920E-02 0. -1.
    10030    2    1    2    0    0  0.00000000000E+00  0.00000000000E+00  0.98297078783E+03  0.38282181876E+04  0.36998679601E+04 0.  0.
        2    1    3    3  502    0 -0.11629887735E+04 -0.99503071975E+03 -0.58361065824E+03  0.16380569041E+04  0.25500000920E-02 0. -1.
       -2    1    3    3    0  502  0.11629887735E+04  0.99503071975E+03  0.15665814461E+04  0.21901612835E+04  0.25500000920E-02 0.  1.
</event>
<event>
 5   0  0.1725865E-08  0.3699775E+04  0.7818609E-02  0.8068012E-01
        2   -1    0    0  501    0  0.00000000000E+00  0.00000000000E+00  0.18774077098E+04  0.18774077098E+04  0.25500000920E-02 0.  1.
       -2   -1    0    0    0  501  0.00000000000E+00  0.00000000000E+00 -0.18227705249E+04  0.18227705249E+04  0.25500000920E-02 0. -1.
    10030    2    1    2    0    0  0.00000000000E+00  0.00000000000E+00  0.54637184902E+02  0.37001782346E+04  0.36997748237E+04 0.  0.
        1    1    3    3  502    0 -0.78595739568E+03  0.10310085208E+04  0.13470744815E+04  0.18695767587E+04  0.50400001928E-02 0.  1.
       -1    1    3    3    0  502  0.78595739568E+03 -0.10310085208E+04 -0.12924372966E+04  0.18306014759E+04  0.50400001928E-02 0. -1.
</event>
<event>
 5   0  0.1757996E-08  0.3699809E+04  0.7818609E-02  0.8068004E-01
       -2   -1    0    0    0  501  0.00000000000E+00  0.00000000000E+00  0.13420205187E+04  0.13420205187E+04  0.25500000920E-02 0.  1.
        2   -1    0    0  501    0  0.00000000000E+00  0.00000000000E+00 -0.25499952467E+04  0.25499952467E+04  0.25500000920E-02 0. -1.
    10030    2    1    2    0    0  0.00000000000E+00  0.00000000000E+00 -0.12079747281E+04  0.38920157654E+04  0.36998086132E+04 0.  0.
        3    1    3    3  502    0  0.28039871316E+02 -0.17928761975E+04 -0.10825435287E+04  0.20945385639E+04  0.10100000352E+00 0.  1.
       -3    1    3    3    0  502 -0.28039871316E+02  0.17928761975E+04 -0.12543119936E+03  0.17974772015E+04  0.10100000352E+00 0. -1.
</event>
<event>
 5   0  0.5714125E-09  0.3699464E+04  0.7818609E-02  0.8068081E-01
        1   -1    0    0  501    0  0.00000000000E+00  0.00000000000E+00  0.12460227376E+04  0.12460227376E+04  0.50400001928E-02 0.  1.
       -1   -1    0    0    0  501  0.00000000000E+00  0.00000000000E+00 -0.27459440534E+04  0.27459440534E+04  0.50400001928E-02 0. -1.
    10030    2    1    2    0    0  0.00000000000E+00  0.00000000000E+00 -0.14999213157E+04  0.39919667910E+04  0.36994641378E+04 0.  0.
        1    1    3    3  502    0 -0.63478574976E+03 -0.14085963853E+04  0.34751494236E+03  0.15836234906E+04  0.50400001928E-02 0.  1.
       -1    1    3    3    0  502  0.63478574976E+03  0.14085963853E+04 -0.18474362581E+04  0.24083433004E+04  0.50400001928E-02 0. -1.
</event>
<event>
 5   0  0.5714125E-09  0.3699067E+04  0.7818609E-02  0.8068169E-01
       -3   -1    0    0    0  501  0.00000000000E+00  0.00000000000E+00  0.12645887003E+04  0.12645887044E+04  0.10100000352E+00 0. -1.
        3   -1    0    0  501    0  0.00000000000E+00  0.00000000000E+00 -0.27050485591E+04  0.27050485610E+04  0.10100000352E+00 0.  1.
    10030    2    1    2    0    0  0.00000000000E+00  0.00000000000E+00 -0.14404598588E+04  0.39696372653E+04  0.36990668301E+04 0.  0.
        1    1    3    3  502    0 -0.32047404517E+03 -0.43527439583E+03 -0.26183955958E+04  0.26736048529E+04  0.50400001928E-02 0.  1.
       -1    1    3    3    0  502  0.32047404517E+03  0.43527439583E+03  0.11779357371E+04  0.12960324124E+04  0.50400001928E-02 0. -1.
</event>
<event>
 5   0  0.1825308E-08  0.3692441E+04  0.7818609E-02  0.8069639E-01
       -2   -1    0    0    0  501  0.00000000000E+00  0.00000000000E+00  0.29809372815E+04  0.29809372815E+04  0.25500000920E-02 0. -1.
        2   -1    0    0  501    0  0.00000000000E+00  0.00000000000E+00 -0.11434424826E+04  0.11434424826E+04  0.25500000920E-02 0.  1.
    10030    2    1    2    0    0  0.00000000000E+00  0.00000000000E+00  0.18374947989E+04  0.41243797641E+04  0.36924411035E+04 0.  0.
        4    1    3    3  502    0 -0.78963455898E+03  0.10343690771E+02 -0.94526927907E+03  0.12317326624E+04  0.12699999809E+01 0.  1.
       -4    1    3    3    0  502  0.78963455898E+03 -0.10343690771E+02  0.27827640780E+04  0.28926471018E+04  0.12699999809E+01 0. -1.
</event>
<event>
 5   0  0.1856107E-08  0.3700227E+04  0.7818609E-02  0.8067911E-01
       -2   -1    0    0    0  501  0.00000000000E+00  0.00000000000E+00  0.13825334299E+04  0.13825334299E+04  0.25500000920E-02 0.  1.
        2   -1    0    0  501    0  0.00000000000E+00  0.00000000000E+00 -0.24758319415E+04  0.24758319415E+04  0.25500000920E-02 0. -1.
    10030    2    1    2    0    0  0.00000000000E+00  0.00000000000E+00 -0.10932985116E+04  0.38583653714E+04  0.37002272502E+04 0.  0.
        2    1    3    3  502    0 -0.10209663223E+04  0.21400361290E+03 -0.21399406350E+04  0.23806544686E+04  0.25500000920E-02 0. -1.
       -2    1    3    3    0  502  0.10209663223E+04 -0.21400361290E+03  0.10466421234E+04  0.14777109027E+04  0.25500000920E-02 0.  1.
</event>
<event>
 5   0  0.5714125E-09  0.3699752E+04  0.7818609E-02  0.8068017E-01
       -1   -1    0    0    0  501  0.00000000000E+00  0.00000000000E+00  0.12421623699E+04  0.12421623699E+04  0.50400001928E-02 0. -1.
        1   -1    0    0  501    0  0.00000000000E+00  0.00000000000E+00 -0.27549071938E+04  0.27549071938E+04  0.50400001928E-02 0.  1.
    10030    2    1    2    0    0  0.00000000000E+00  0.00000000000E+00 -0.15127448239E+04  0.39970695637E+04  0.36997524505E+04 0.  0.
        2    1    3    3  502    0 -0.13447911715E+04  0.83966498653E+03 -0.17861452120E+04  0.23882661709E+04  0.25500000920E-02 0.  1.
       -2    1    3    3    0  502  0.13447911715E+04 -0.83966498653E+03  0.27340038814E+03  0.16088033929E+04  0.25500000920E-02 0. -1.
</event>
<event>
 5   0  0.5714125E-09  0.3700620E+04  0.7818609E-02  0.8067824E-01
        4   -1    0    0  501    0  0.00000000000E+00  0.00000000000E+00  0.14617356222E+04  0.14617361739E+04  0.12699999809E+01 0.  1.
       -4   -1    0    0    0  501  0.00000000000E+00  0.00000000000E+00 -0.23421782267E+04  0.23421785710E+04  0.12699999809E+01 0. -1.
    10030    2    1    2    0    0  0.00000000000E+00  0.00000000000E+00 -0.88044260453E+03  0.38039147449E+04  0.37006199759E+04 0.  0.
        1    1    3    3  502    0 -0.77165352426E+03 -0.11769061555E+04 -0.16750393351E+04  0.21877646204E+04  0.50400001928E-02 0. -1.
       -1    1    3    3    0  502  0.77165352426E+03  0.11769061555E+04  0.79459673053E+03  0.16161501244E+04  0.50400001928E-02 0.  1.
</event>
<event>
 5   0  0.1725865E-08  0.3699469E+04  0.7818609E-02  0.8068079E-01
        2   -1    0    0  501    0  0.00000000000E+00  0.00000000000E+00  0.27169647286E+04  0.27169647286E+04  0.25500000920E-02 0.  1.
       -2   -1    0    0    0  501  0.00000000000E+00  0.00000000000E+00 -0.12593163360E+04  0.12593163360E+04  0.25500000920E-02 0. -1.
    10030    2    1    2    0    0  0.00000000000E+00  0.00000000000E+00  0.14576483926E+04  0.39762810646E+04  0.36994691873E+04 0.  0.
        1    1    3    3  502    0  0.12994807271E+04  0.31848897899E+03  0.21016715125E+04  0.24914069391E+04  0.50400001928E-02 0.  1.
       -1    1    3    3    0  502 -0.12994807271E+04 -0.31848897899E+03 -0.64402311983E+03  0.14848741255E+04  0.50400001928E-02 0. -1.
</event>
<event>
 5   0  0.5714125E-09  0.3701424E+04  0.7818609E-02  0.8067646E-01
        1   -1    0    0  501    0  0.00000000000E+00  0.00000000000E+00  0.25090852768E+04  0.25090852768E+04  0.50400001928E-02 0. -1.
       -1   -1    0    0    0  501  0.00000000000E+00  0.00000000000E+00 -0.13650930537E+04  0.13650930537E+04  0.50400001928E-02 0.  1.
    10030    2    1    2    0    0  0.00000000000E+00  0.00000000000E+00  0.11439922232E+04  0.38741783305E+04  0.37014239868E+04 0.  0.
        1    1    3    3  502    0 -0.13839749101E+04  0.35065465678E+03 -0.66058658674E+03  0.15731242414E+04  0.50400001928E-02 0.  1.
       -1    1    3    3    0  502  0.13839749101E+04 -0.35065465678E+03  0.18045788099E+04  0.23010540892E+04  0.50400001928E-02 0. -1.
</event>
<event>
 5   0  0.5714125E-09  0.3693241E+04  0.7818609E-02  0.8069461E-01
       -1   -1    0    0    0  501  0.00000000000E+00  0.00000000000E+00  0.14424839087E+04  0.14424839087E+04  0.50400001928E-02 0. -1.
        1   -1    0    0  501    0  0.00000000000E+00  0.00000000000E+00 -0.23639824155E+04  0.23639824155E+04  0.50400001928E-02 0.  1.
    10030    2    1    2    0    0  0.00000000000E+00  0.00000000000E+00 -0.92149850680E+03  0.38064663243E+04  0.36932406339E+04 0.  0.
        5    1    3    3  502    0  0.97504101245E+03 -0.68490786549E+02  0.11539949644E+04  0.15123235208E+04  0.46999998093E+01 0. -1.
       -5    1    3    3    0  502 -0.97504101245E+03  0.68490786549E+02 -0.20754934712E+04  0.22941428035E+04  0.46999998093E+01 0.  1.
</event>
<event>
 5   0  0.5714125E-09  0.3698914E+04  0.7818609E-02  0.8068203E-01
       -1   -1    0    0    0  501  0.00000000000E+00  0.00000000000E+00  0.26831442947E+04  0.26831442947E+04  0.50400001928E-02 0.  1.
        1   -1    0    0  501    0  0.00000000000E+00  0.00000000000E+00 -0.12748067541E+04  0.12748067541E+04  0.50400001928E-02 0. -1.
    10030    2    1    2    0    0  0.00000000000E+00  0.00000000000E+00  0.14083375406E+04  0.39579510488E+04  0.36989136076E+04 0.  0.
        1    1    3    3  502    0  0.95213403299E+02  0.18203543438E+04  0.36964948834E+03  0.18599452340E+04  0.50400001928E-02 0.  1.
       -1    1    3    3    0  502 -0.95213403299E+02 -0.18203543438E+04  0.10386880523E+04  0.20980058149E+04  0.50400001928E-02 0. -1.
</event>
<event>
 5   0  0.5714125E-09  0.3700828E+04  0.7818609E-02  0.8067778E-01
        1   -1    0    0  501    0  0.00000000000E+00  0.00000000000E+00  0.14344667613E+04  0.14344667613E+04  0.50400001928E-02 0.  1.
       -1   -1    0    0    0  501  0.00000000000E+00  0.00000000000E+00 -0.23869714566E+04  0.23869714566E+04  0.50400001928E-02 0. -1.
    10030    2    1    2    0    0  0.00000000000E+00  0.00000000000E+00 -0.95250469529E+03  0.38214382179E+04  0.37008275910E+04 0.  0.
        3    1    3    3  502    0  0.16675734847E+04 -0.43231850967E+03  0.22128550125E+03  0.17368557522E+04  0.10100000352E+00 0.  1.
       -3    1    3    3    0  502 -0.16675734847E+04  0.43231850967E+03 -0.11737901965E+04  0.20845824657E+04  0.10100000352E+00 0. -1.
</event>
<event>
 5   0  0.1757996E-08  0.3699975E+04  0.7818609E-02  0.8067967E-01
        2   -1    0    0  501    0  0.00000000000E+00  0.00000000000E+00  0.31310537326E+04  0.31310537326E+04  0.25500000920E-02 0.  1.
       -2   -1    0    0    0  501  0.00000000000E+00  0.00000000000E+00 -0.10930675427E+04  0.10930675427E+04  0.25500000920E-02 0. -1.
    10030    2    1    2    0    0  0.00000000000E+00  0.00000000000E+00  0.20379861899E+04  0.42241212753E+04  0.36999747077E+04 0.  0.
        3    1    3    3  502    0  0.15427623721E+04  0.98417585632E+03  0.13290029396E+04  0.22616292085E+04  0.10100000352E+00 0.  1.
       -3    1    3    3    0  502 -0.15427623721E+04 -0.98417585632E+03  0.70898325032E+03  0.19624920668E+04  0.10100000352E+00 0. -1.
</event>
<event>
 5   0  0.1725865E-08  0.3699032E+04  0.7818609E-02  0.8068176E-01
       -2   -1    0    0    0  501  0.00000000000E+00  0.00000000000E+00  0.13957687527E+04  0.13957687527E+04  0.25500000920E-02 0.  1.
        2   -1    0    0  501    0  0.00000000000E+00  0.00000000000E+00 -0.24507708217E+04  0.24507708217E+04  0.25500000920E-02 0. -1.
    10030    2    1    2    0    0  0.00000000000E+00  0.00000000000E+00 -0.10550020690E+04  0.38465395743E+04  0.36990319452E+04 0.  0.
        1    1    3    3  502    0 -0.21841726853E+03 -0.33067613507E+02  0.13820008656E+04  0.13995449128E+04  0.50400001928E-02 0.  1.
       -1    1    3    3    0  502  0.21841726853E+03  0.33067613507E+02 -0.24370029346E+04  0.24469946615E+04  0.50400001928E-02 0. -1.
</event>
<event>
 5   0  0.5714125E-09  0.3698314E+04  0.7818609E-02  0.8068336E-01
        3   -1    0    0  501    0  0.00000000000E+00  0.00000000000E+00  0.26493762880E+04  0.26493762899E+04  0.10100000352E+00 0. -1.
       -3   -1    0    0    0  501  0.00000000000E+00  0.00000000000E+00 -0.12906362615E+04  0.12906362654E+04  0.10100000352E+00 0.  1.
    10030    2    1    2    0    0  0.00000000000E+00  0.00000000000E+00  0.13587400265E+04  0.39400125553E+04  0.36983137342E+04 0.  0.
        5    1    3    3  502    0  0.11400224091E+04 -0.71205869757E+02  0.22285855245E+04  0.25042637439E+04  0.46999998093E+01 0. -1.
       -5    1    3    3    0  502 -0.11400224091E+04  0.71205869757E+02 -0.86984549798E+03  0.14357488114E+04  0.46999998093E+01 0.  1.
</event>
<event>
 5   0  0.1825308E-08  0.3699635E+04  0.7818609E-02  0.8068043E-01
        2   -1    0    0  501    0  0.00000000000E+00  0.00000000000E+00  0.26752486845E+04  0.26752486845E+04  0.25500000920E-02 0.  1.
       -2   -1    0    0    0  501  0.00000000000E+00  0.00000000000E+00 -0.12790678201E+04  0.12790678201E+04  0.25500000920E-02 0. -1.
    10030    2    1    2    0    0  0.00000000000E+00  0.00000000000E+00  0.13961808644E+04  0.39543165046E+04  0.36996348485E+04 0.  0.
        4    1    3    3  502    0 -0.18201800675E+04 -0.24019684785E+02  0.10496565905E+04  0.21012884129E+04  0.12699999809E+01 0.  1.
       -4    1    3    3    0  502  0.18201800675E+04  0.24019684785E+02  0.34652427388E+03  0.18530280917E+04  0.12699999809E+01 0. -1.
</event>
<event>
 5   0  0.5714125E-09  0.3699797E+04  0.7818609E-02  0.8068007E-01
        1   -1    0    0  501    0  0.00000000000E+00  0.00000000000E+00  0.14000372217E+04  0.14000372217E+04  0.50400001928E-02 0.  1.
       -1   -1    0    0    0  501  0.00000000000E+00  0.00000000000E+00 -0.24443094748E+04  0.24443094748E+04  0.50400001928E-02 0. -1.
    10030    2    1    2    0    0  0.00000000000E+00  0.00000000000E+00 -0.10442722531E+04  0.38443466965E+04  0.36997968842E+04 0.  0.
        2    1    3    3  502    0  0.48945699374E+03  0.17839658638E+04 -0.52699806745E+03  0.19234940382E+04  0.25500000920E-02 0. -1.
       -2    1    3    3    0  502 -0.48945699374E+03 -0.17839658638E+04 -0.51727418562E+03  0.19208526583E+04  0.25500000920E-02 0.  1.
</event>
<event>
 5   0  0.1740290E-08  0.3701613E+04  0.7818609E-02  0.8067605E-01
       -2   -1    0    0    0  501  0.00000000000E+00  0.00000000000E+00  0.15835762189E+04  0.15835762189E+04  0.25500000920E-02 0.  1.
        2   -1    0    0  501    0  0.00000000000E+00  0.00000000000E+00 -0.21631316206E+04  0.21631316206E+04  0.25500000920E-02 0. -1.
    10030    2    1    2    0    0  0.00000000000E+00  0.00000000000E+00 -0.57955540169E+03  0.37467078394E+04  0.37016125095E+04 0.  0.
        5    1    3    3  502    0 -0.14709678181E+04  0.14166330904E+03  0.83808939540E+03  0.16988910323E+04  0.46999998093E+01 0. -1.
       -5    1    3    3    0  502  0.14709678181E+04 -0.14166330904E+03 -0.14176447971E+04  0.20478168071E+04  0.46999998093E+01 0.  1.
</event>
<event>
 5   0  0.1740290E-08  0.3699375E+04  0.7818609E-02  0.8068100E-01
        2   -1    0    0  501    0  0.00000000000E+00  0.00000000000E+00  0.19837819037E+04  0.19837819037E+04  0.25500000920E-02 0.  1.
       -2   -1    0    0    0  501  0.00000000000E+00  0.00000000000E+00 -0.17246574450E+04  0.17246574450E+04  0.25500000920E-02 0. -1.
    10030    2    1    2    0    0  0.00000000000E+00  0.00000000000E+00  0.25912445867E+03  0.37084393486E+04  0.36993752064E+04 0.  0.
        5    1    3    3  502    0  0.37361931614E+03 -0.71053562924E+03 -0.15409150105E+04  0.17374963118E+04  0.46999998093E+01 0. -1.
       -5    1    3    3    0  502 -0.37361931614E+03  0.71053562924E+03  0.18000394692E+04  0.19709430368E+04  0.46999998093E+01 0.  1.
</event>
<event>
 5   0  0.1757996E-08  0.3698847E+04  0.7818609E-02  0.8068217E-01
       -2   -1    0    0    0  501  0.00000000000E+00  0.00000000000E+00  0.11962592223E+04  0.11962592223E+04  0.25500000920E-02 0. -1.
        2   -1    0    0  501    0  0.00000000000E+00  0.00000000000E+00 -0.28592197768E+04  0.28592197768E+04  0.25500000920E-02 0.  1.
    10030    2    1    2    0    0  0.00000000000E+00  0.00000000000E+00 -0.16629605544E+04  0.40554789991E+04  0.36988474024E+04 0.  0.
        3    1    3    3  502    0 -0.17013084454E+04  0.54080290070E+03 -0.30172839709E+03  0.18105132531E+04  0.10100000352E+00 0.  1.
       -3    1    3    3    0  502  0.17013084454E+04 -0.54080290070E+03 -0.13612321574E+04  0.22449657459E+04  0.10100000352E+00 0. -1.
</event>
<event>
 5   0  0.1740290E-08  0.3699354E+04  0.7818609E-02  0.8068105E-01
       -2   -1    0    0    0  501  0.00000000000E+00  0.00000000000E+00  0.20591685306E+04  0.20591685306E+04  0.25500000920E-02 0.  1.
        2   -1    0    0  501    0  0.00000000000E+00  0.00000000000E+00 -0.16614983459E+04  0.16614983459E+04  0.25500000920E-02 0. -1.
    10030    2    1    2    0    0  0.00000000000E+00  0.00000000000E+00  0.39767018477E+03  0.37206668765E+04  0.36993540558E+04 0.  0.
        5    1    3    3  502    0  0.54495571915E+03  0.16033527165E+04  0.94714195831E+03  0.19403135438E+04  0.46999998093E+01 0.  1.
       -5    1    3    3    0  502 -0.54495571915E+03 -0.16033527165E+04 -0.54947177354E+03  0.17803533327E+04  0.46999998093E+01 0. -1.
</event>
<event>
 5   0  0.1856107E-08  0.3698381E+04  0.7818609E-02  0.8068321E-01
       -2   -1    0    0    0  501  0.00000000000E+00  0.00000000000E+00  0.13470196257E+04  0.13470196258E+04  0.25500000920E-02 0.  1.
        2   -1    0    0  501    0  0.00000000000E+00  0.00000000000E+00 -0.25385708293E+04  0.25385708293E+04  0.25500000920E-02 0. -1.
    10030    2    1    2    0    0  0.00000000000E+00  0.00000000000E+00 -0.11915512036E+04  0.38855904551E+04  0.36983805799E+04 0.  0.
        2    1    3    3  502    0  0.35142301826E+03 -0.13005682903E+04  0.73504394254E+03  0.15346874642E+04  0.25500000920E-02 0.  1.
       -2    1    3    3    0  502 -0.35142301826E+03  0.13005682903E+04 -0.19265951461E+04  0.23509029909E+04  0.25500000920E-02 0. -1.
</event>
<event>
 5   0  0.1740290E-08  0.3700237E+04  0.7818609E-02  0.8067909E-01
       -2   -1    0    0    0  501  0.00000000000E+00  0.00000000000E+00  0.21722563126E+04  0.21722563126E+04  0.25500000920E-02 0.  1.
        2   -1    0    0  501    0  0.00000000000E+00  0.00000000000E+00 -0.15757526704E+04  0.15757526704E+04  0.25500000920E-02 0. -1.
    10030    2    1    2    0    0  0.00000000000E+00  0.00000000000E+00  0.59650364218E+03  0.37480089829E+04  0.37002371196E+04 0.  0.
        5    1    3    3  502    0 -0.41328347634E+03  0.11177618134E+03 -0.15248799790E+04  0.15838491680E+04  0.46999998093E+01 0. -1.
       -5    1    3    3    0  502  0.41328347634E+03 -0.11177618134E+03  0.21213836212E+04  0.21641598150E+04  0.46999998093E+01 0.  1.
</event>
<event>
 5   0  0.1856107E-08  0.3697257E+04  0.7818609E-02  0.8068570E-01
        2   -1    0    0  501    0  0.00000000000E+00  0.00000000000E+00  0.21192066195E+04  0.21192066195E+04  0.25500000920E-02 0.  1.
       -2   -1    0    0    0  501  0.00000000000E+00  0.00000000000E+00 -0.16125974956E+04  0.16125974956E+04  0.25500000920E-02 0. -1.
    10030    2    1    2    0    0  0.00000000000E+00  0.00000000000E+00  0.50660912392E+03  0.37318041151E+04  0.36972569763E+04 0.  0.
        2    1    3    3  502    0 -0.10997131438E+04  0.14503250947E+04  0.57976986371E+03  0.19102211845E+04  0.25500000920E-02 0. -1.
       -2    1    3    3    0  502  0.10997131438E+04 -0.14503250947E+04 -0.73160739792E+02  0.18215829305E+04  0.25500000920E-02 0.  1.
</event>
<event>
 5   0  0.1825308E-08  0.3699732E+04  0.7818609E-02  0.8068021E-01
        2   -1    0    0  501    0  0.00000000000E+00  0.00000000000E+00  0.11162144743E+04  0.11162144743E+04  0.25500000920E-02 0. -1.
       -2   -1    0    0    0  501  0.00000000000E+00  0.00000000000E+00 -0.30657233560E+04  0.30657233560E+04  0.25500000920E-02 0.  1.
    10030    2    1    2    0    0  0.00000000000E+00  0.00000000000E+00 -0.19495088818E+04  0.41819378303E+04  0.36997323061E+04 0.  0.
        4    1    3    3  502    0 -0.14652536501E+04 -0.76651614345E+03 -0.19119706781E+04  0.25278743530E+04  0.12699999809E+01 0.  1.
       -4    1    3    3    0  502  0.14652536501E+04  0.76651614345E+03 -0.37538203641E+02  0.16540634773E+04  0.12699999809E+01 0. -1.
</event>
<event>
 5   0  0.1725865E-08  0.3700151E+04  0.7818609E-02  0.8067928E-01
       -2   -1    0    0    0  501  0.00000000000E+00  0.00000000000E+00  0.18786970525E+04  0.18786970525E+04  0.25500000920E-02 0.  1.
        2   -1    0    0  501    0  0.00000000000E+00  0.00000000000E+00 -0.18218899635E+04  0.18218899635E+04  0.25500000920E-02 0. -1.
    10030    2    1    2    0    0  0.00000000000E+00  0.00000000000E+00  0.56807088981E+02  0.37005870160E+04  0.37001509722E+04 0.  0.
        1    1    3    3  502    0 -0.14530860834E+04 -0.70514218890E+03  0.93078180051E+03  0.18641457648E+04  0.50400001928E-02 0.  1.
       -1    1    3    3    0  502  0.14530860834E+04  0.70514218890E+03 -0.87397471153E+03  0.18364412511E+04  0.50400001928E-02 0. -1.
</event>
<event>
 5   0  0.5714125E-09  0.3700863E+04  0.7818609E-02  0.8067771E-01
       -1   -1    0    0    0  501  0.00000000000E+00  0.00000000000E+00  0.16685037442E+04  0.16685037442E+04  0.50400001928E-02 0.  1.
        1   -1    0    0  501    0  0.00000000000E+00  0.00000000000E+00 -0.20521964523E+04  0.20521964523E+04  0.50400001928E-02 0. -1.
    10030    2    1    2    0    0  0.00000000000E+00  0.00000000000E+00 -0.38369270807E+03  0.37207001965E+04  0.37008633936E+04 0.  0.
        1    1    3    3  502    0  0.12433833148E+03  0.68157693603E+03 -0.19168784798E+04  0.20382419500E+04  0.50400001928E-02 0. -1.
       -1    1    3    3    0  502 -0.12433833148E+03 -0.68157693603E+03  0.15331857717E+04  0.16824582465E+04  0.50400001928E-02 0.  1.
</event>
<event>
 5   0  0.5714125E-09  0.3699505E+04  0.7818609E-02  0.8068072E-01
        1   -1    0    0  501    0  0.00000000000E+00  0.00000000000E+00  0.22373773147E+04  0.22373773147E+04  0.50400001928E-02 0.  1.
       -1   -1    0    0    0  501  0.00000000000E+00  0.00000000000E+00 -0.15292832487E+04  0.15292832487E+04  0.50400001928E-02 0. -1.
    10030    2    1    2    0    0  0.00000000000E+00  0.00000000000E+00  0.70809406599E+03  0.37666605634E+04  0.36995046417E+04 0.  0.
        5    1    3    3  502    0  0.82005182006E+03  0.75849811288E+03 -0.11470833791E+04  0.16011329562E+04  0.46999998093E+01 0. -1.
       -5    1    3    3    0  502 -0.82005182006E+03 -0.75849811288E+03  0.18551774451E+04  0.21655276072E+04  0.46999998093E+01 0.  1.
</event>
<event>
 5   0  0.5714125E-09  0.3699936E+04  0.7818609E-02  0.8067976E-01
        1   -1    0    0  501    0  0.00000000000E+00  0.00000000000E+00  0.20299147972E+04  0.20299147972E+04  0.50400001928E-02 0.  1.
       -1   -1    0    0    0  501  0.00000000000E+00  0.00000000000E+00 -0.16859732547E+04  0.16859732547E+04  0.50400001928E-02 0. -1.
    10030    2    1    2    0    0  0.00000000000E+00  0.00000000000E+00  0.34394154247E+03  0.37158880519E+04  0.36999362467E+04 0.  0.
        2    1    3    3  502    0 -0.12099738934E+04  0.75888945988E+01 -0.12334508242E+04  0.17278586023E+04  0.25500000920E-02 0. -1.
       -2    1    3    3    0  502  0.12099738934E+04 -0.75888945988E+01  0.15773923667E+04  0.19880294496E+04  0.25500000920E-02 0.  1.
</event>
<event>
 5   0  0.5714125E-09  0.3711233E+04  0.7818609E-02  0.8065477E-01
       -1   -1    0    0    0  501  0.00000000000E+00  0.00000000000E+00  0.29428717403E+04  0.29428717403E+04  0.50400001928E-02 0. -1.
        1   -1    0    0  501    0  0.00000000000E+00  0.00000000000E+00 -0.11700516814E+04  0.11700516815E+04  0.50400001928E-02 0.  1.
    10030    2    1    2    0    0  0.00000000000E+00  0.00000000000E+00  0.17728200588E+04  0.41129234218E+04  0.37112326944E+04 0.  0.
        5    1    3    3  502    0  0.14191053714E+04 -0.33343249461E+02  0.22108885191E+04  0.26273602648E+04  0.46999998093E+01 0. -1.
       -5    1    3    3    0  502 -0.14191053714E+04  0.33343249461E+02 -0.43806846022E+03  0.14855631569E+04  0.46999998093E+01 0.  1.
</event>
<event>
 5   0  0.1725865E-08  0.3700044E+04  0.7818609E-02  0.8067952E-01
       -2   -1    0    0    0  501  0.00000000000E+00  0.00000000000E+00  0.18328116754E+04  0.18328116754E+04  0.25500000920E-02 0.  1.
        2   -1    0    0  501    0  0.00000000000E+00  0.00000000000E+00 -0.18673939654E+04  0.18673939654E+04  0.25500000920E-02 0. -1.
    10030    2    1    2    0    0  0.00000000000E+00  0.00000000000E+00 -0.34582289985E+02  0.37002056408E+04  0.37000440334E+04 0.  0.
        1    1    3    3  502    0  0.84605522006E+03 -0.13076997070E+04  0.98109784264E+03  0.18407718316E+04  0.50400001928E-02 0.  1.
       -1    1    3    3    0  502 -0.84605522006E+03  0.13076997070E+04 -0.10156801326E+04  0.18594338092E+04  0.50400001928E-02 0. -1.
</event>
<event>
 5   0  0.1825308E-08  0.3698829E+04  0.7818609E-02  0.8068221E-01
        2   -1    0    0  501    0  0.00000000000E+00  0.00000000000E+00  0.10086330723E+04  0.10086330723E+04  0.25500000920E-02 0.  1.
       -2   -1    0    0    0  501  0.00000000000E+00  0.00000000000E+00 -0.33910590644E+04  0.33910590644E+04  0.25500000920E-02 0. -1.
    10030    2    1    2    0    0  0.00000000000E+00  0.00000000000E+00 -0.23824259921E+04  0.43996921367E+04  0.36988291783E+04 0.  0.
        4    1    3    3  502    0  0.54286880851E+03  0.11578379039E+04 -0.27804244706E+04  0.30604014450E+04  0.12699999809E+01 0. -1.
       -4    1    3    3    0  502 -0.54286880851E+03 -0.11578379039E+04  0.39799847853E+03  0.13392906917E+04  0.12699999809E+01 0.  1.
</event>
<event>
 5   0  0.5714125E-09  0.3699087E+04  0.7818609E-02  0.8068164E-01
       -1   -1    0    0    0  501  0.00000000000E+00  0.00000000000E+00  0.16993011526E+04  0.16993011526E+04  0.50400001928E-02 0. -1.
        1   -1    0    0  501    0  0.00000000000E+00  0.00000000000E+00 -0.20130696469E+04  0.20130696469E+04  0.50400001928E-02 0.  1.
    10030    2    1    2    0    0  0.00000000000E+00  0.00000000000E+00 -0.31376849427E+03  0.37123707995E+04  0.36990872232E+04 0.  0.
        4    1    3    3  502    0 -0.14012324716E+04  0.66547793228E+03 -0.11677234640E+04  0.19416212347E+04  0.12699999809E+01 0.  1.
       -4    1    3    3    0  502  0.14012324716E+04 -0.66547793228E+03  0.85395496976E+03  0.17707495647E+04  0.12699999809E+01 0. -1.
</event>
<event>
 5   0  0.5714125E-09  0.3699323E+04  0.7818609E-02  0.8068112E-01
        1   -1    0    0  501    0  0.00000000000E+00  0.00000000000E+00  0.12426240374E+04  0.12426240374E+04  0.50400001928E-02 0. -1.
       -1   -1    0    0    0  501  0.00000000000E+00  0.00000000000E+00 -0.27532448861E+04  0.27532448861E+04  0.50400001928E-02 0.  1.
    10030    2    1    2    0    0  0.00000000000E+00  0.00000000000E+00 -0.15106208487E+04  0.39958689235E+04  0.36993233307E+04 0.  0.
        2    1    3    3  502    0  0.24566716573E+03  0.18325989392E+04 -0.70155080978E+03  0.19776108735E+04  0.25500000920E-02 0. -1.
       -2    1    3    3    0  502 -0.24566716573E+03 -0.18325989392E+04 -0.80907003893E+03  0.20182580500E+04  0.25500000920E-02 0.  1.
</event>
<event>
 5   0  0.5714125E-09  0.3700700E+04  0.7818609E-02  0.8067807E-01
        1   -1    0    0  501    0  0.00000000000E+00  0.00000000000E+00  0.18546089721E+04  0.18546089721E+04  0.50400001928E-02 0. -1.
       -1   -1    0    0    0  501  0.00000000000E+00  0.00000000000E+00 -0.18461011008E+04  0.18461011008E+04  0.50400001928E-02 0.  1.
    10030    2    1    2    0    0  0.00000000000E+00  0.00000000000E+00  0.85078712508E+01  0.37007100729E+04  0.37007002932E+04 0.  0.
        2    1    3    3  502    0  0.18133536294E+04  0.28358180016E+03 -0.23053519040E+03  0.18498152601E+04  0.25500000920E-02 0.  1.
       -2    1    3    3    0  502 -0.18133536294E+04 -0.28358180016E+03  0.23904306165E+03  0.18508948128E+04  0.25500000920E-02 0. -1.
</event>
<event>
 5   0  0.1856107E-08  0.3700098E+04  0.7818609E-02  0.8067940E-01
       -2   -1    0    0    0  501  0.00000000000E+00  0.00000000000E+00  0.13985837930E+04  0.13985837930E+04  0.25500000920E-02 0.  1.
        2   -1    0    0  501    0  0.00000000000E+00  0.00000000000E+00 -0.24472478819E+04  0.24472478819E+04  0.25500000920E-02 0. -1.
    10030    2    1    2    0    0  0.00000000000E+00  0.00000000000E+00 -0.10486640889E+04  0.38458316748E+04  0.37000979582E+04 0.  0.
        2    1    3    3  502    0  0.13217652265E+04  0.73435690696E+03  0.58364505804E+03  0.16207976230E+04  0.25500000920E-02 0.  1.
       -2    1    3    3    0  502 -0.13217652265E+04 -0.73435690696E+03 -0.16323091469E+04  0.22250340519E+04  0.25500000920E-02 0. -1.
</event>
<event>
 5   0  0.5714125E-09  0.3699322E+04  0.7818609E-02  0.8068112E-01
       -1   -1    0    0    0  501  0.00000000000E+00  0.00000000000E+00  0.17204535419E+04  0.17204535419E+04  0.50400001928E-02 0.  1.
        1   -1    0    0  501    0  0.00000000000E+00  0.00000000000E+00 -0.19885720691E+04  0.19885720691E+04  0.50400001928E-02 0. -1.
    10030    2    1    2    0    0  0.00000000000E+00  0.00000000000E+00 -0.26811852721E+03  0.37090256111E+04  0.36993220242E+04 0.  0.
        1    1    3    3  502    0 -0.12202505535E+03 -0.28218520839E+02  0.17161971904E+04  0.17207612256E+04  0.50400001928E-02 0.  1.
       -1    1    3    3    0  502  0.12202505535E+03  0.28218520839E+02 -0.19843157177E+04  0.19882643854E+04  0.50400001928E-02 0. -1.
</event>
<event>
 5   0  0.5714125E-09  0.3698486E+04  0.7818609E-02  0.8068297E-01
       -1   -1    0    0    0  501  0.00000000000E+00  0.00000000000E+00  0.27658871589E+04  0.27658871589E+04  0.50400001928E-02 0.  1.
        1   -1    0    0  501    0  0.00000000000E+00  0.00000000000E+00 -0.12363842056E+04  0.12363842056E+04  0.50400001928E-02 0. -1.
    10030    2    1    2    0    0  0.00000000000E+00  0.00000000000E+00  0.15295029533E+04  0.40022713645E+04  0.36984857430E+04 0.  0.
        2    1    3    3  502    0 -0.16043159286E+04  0.51297569962E+03  0.15908172070E+04  0.23168239150E+04  0.25500000920E-02 0. -1.
       -2    1    3    3    0  502  0.16043159286E+04 -0.51297569962E+03 -0.61314253727E+02  0.16854474495E+04  0.25500000920E-02 0.  1.
</event>
<event>
 5   0  0.5714125E-09  0.3700149E+04  0.7818609E-02  0.8067929E-01
        1   -1    0    0  501    0  0.00000000000E+00  0.00000000000E+00  0.20938158581E+04  0.20938158581E+04  0.50400001928E-02 0.  1.
       -1   -1    0    0    0  501  0.00000000000E+00  0.00000000000E+00 -0.16347071640E+04  0.16347071640E+04  0.50400001928E-02 0. -1.
    10030    2    1    2    0    0  0.00000000000E+00  0.00000000000E+00  0.45910869401E+03  0.37285230221E+04  0.37001490691E+04 0.  0.
        3    1    3    3  502    0  0.10159962649E+04 -0.91930045068E+03 -0.10231253407E+04  0.17100138017E+04  0.10100000352E+00 0. -1.
       -3    1    3    3    0  502 -0.10159962649E+04  0.91930045068E+03  0.14822340347E+04  0.20185092204E+04  0.10100000352E+00 0.  1.
</event>
<event>
 5   0  0.5714125E-09  0.3698136E+04  0.7818609E-02  0.8068375E-01
        1   -1    0    0  501    0  0.00000000000E+00  0.00000000000E+00  0.13995361387E+04  0.13995361387E+04  0.50400001928E-02 0.  1.
       -1   -1    0    0    0  501  0.00000000000E+00  0.00000000000E+00 -0.24429895562E+04  0.24429895562E+04  0.50400001928E-02 0. -1.
    10030    2    1    2    0    0  0.00000000000E+00  0.00000000000E+00 -0.10434534174E+04  0.38425256949E+04  0.36981358387E+04 0.  0.
        4    1    3    3  502    0  0.13107213042E+04 -0.10471544550E+04 -0.13295977629E+04  0.21406435047E+04  0.12699999809E+01 0. -1.
       -4    1    3    3    0  502 -0.13107213042E+04  0.10471544550E+04  0.28614434549E+03  0.17018821902E+04  0.12699999809E+01 0.  1.
</event>
<event>
 5   0  0.1825308E-08  0.3699159E+04  0.7818609E-02  0.8068148E-01
        2   -1    0    0  501    0  0.00000000000E+00  0.00000000000E+00  0.16641729714E+04  0.16641729714E+04  0.25500000920E-02 0. -1.
       -2   -1    0    0    0  501  0.00000000000E+00  0.00000000000E+00 -0.20556419522E+04  0.20556419522E+04  0.25500000920E-02 0.  1.
    10030    2    1    2    0    0  0.00000000000E+00  0.00000000000E+00 -0.39146898080E+03  0.37198149237E+04  0.36991587021E+04 0.  0.
        4    1    3    3  502    0 -0.12460271393E+04  0.27547108813E+03 -0.15420437305E+04  0.20015914749E+04  0.12699999809E+01 0.  1.
       -4    1    3    3    0  502  0.12460271393E+04 -0.27547108813E+03  0.11505747497E+04  0.17182234488E+04  0.12699999809E+01 0. -1.
</event>
<event>
 5   0  0.1856107E-08  0.3699991E+04  0.7818609E-02  0.8067964E-01
       -2   -1    0    0    0  501  0.00000000000E+00  0.00000000000E+00  0.17022290937E+04  0.17022290937E+04  0.25500000920E-02 0. -1.
        2   -1    0    0  501    0  0.00000000000E+00  0.00000000000E+00 -0.20105886330E+04  0.20105886330E+04  0.25500000920E-02 0.  1.
    10030    2    1    2    0    0  0.00000000000E+00  0.00000000000E+00 -0.30835953927E+03  0.37128177267E+04  0.36999905225E+04 0.  0.
        2    1    3    3  502    0 -0.14513982616E+04  0.11352223934E+04  0.11303046199E+02  0.18426650686E+04  0.25500000920E-02 0.  1.
       -2    1    3    3    0  502  0.14513982616E+04 -0.11352223934E+04 -0.31966258547E+03  0.18701526581E+04  0.25500000920E-02 0. -1.
</event>
<event>
 5   0  0.1740290E-08  0.3699340E+04  0.7818609E-02  0.8068108E-01
       -2   -1    0    0    0  501  0.00000000000E+00  0.00000000000E+00  0.12699239326E+04  0.12699239326E+04  0.25500000920E-02 0.  1.
        2   -1    0    0  501    0  0.00000000000E+00  0.00000000000E+00 -0.26940816823E+04  0.26940816823E+04  0.25500000920E-02 0. -1.
    10030    2    1    2    0    0  0.00000000000E+00  0.00000000000E+00 -0.14241577497E+04  0.39640056149E+04  0.36993398356E+04 0.  0.
        5    1    3    3  502    0  0.15596849990E+04  0.98966996558E+03 -0.81481742098E+03  0.20189139299E+04  0.46999998093E+01 0.  1.
       -5    1    3    3    0  502 -0.15596849990E+04 -0.98966996558E+03 -0.60934032872E+03  0.19450916850E+04  0.46999998093E+01 0. -1.
</event>
<event>
 5   0  0.1757996E-08  0.3696270E+04  0.7818609E-02  0.8068789E-01
       -2   -1    0    0    0  501  0.00000000000E+00  0.00000000000E+00  0.23648728765E+04  0.23648728765E+04  0.25500000920E-02 0. -1.
        2   -1    0    0  501    0  0.00000000000E+00  0.00000000000E+00 -0.14443074733E+04  0.14443074733E+04  0.25500000920E-02 0.  1.
    10030    2    1    2    0    0  0.00000000000E+00  0.00000000000E+00  0.92056540315E+03  0.38091803498E+04  0.36962703196E+04 0.  0.
        3    1    3    3  502    0 -0.14145926174E+04  0.79636067422E+03  0.13706360892E+04  0.21245954664E+04  0.10100000352E+00 0. -1.
       -3    1    3    3    0  502  0.14145926174E+04 -0.79636067422E+03 -0.45007068607E+03  0.16845848834E+04  0.10100000352E+00 0.  1.
</event>
<event>
 5   0  0.1725865E-08  0.3700245E+04  0.7818609E-02  0.8067908E-01
       -2   -1    0    0    0  501  0.00000000000E+00  0.00000000000E+00  0.24549008860E+04  0.24549008860E+04  0.25500000920E-02 0.  1.
        2   -1    0    0  501    0  0.00000000000E+00  0.00000000000E+00 -0.13943343731E+04  0.13943343731E+04  0.25500000920E-02 0. -1.
    10030    2    1    2    0    0  0.00000000000E+00  0.00000000000E+00  0.10605665128E+04  0.38492352591E+04  0.37002446881E+04 0.  0.
        1    1    3    3  502    0  0.13214481931E+04  0.10712141797E+04  0.12870555616E+04  0.21331284923E+04  0.50400001928E-02 0.  1.
       -1    1    3    3    0  502 -0.13214481931E+04 -0.10712141797E+04 -0.22648904876E+03  0.17161067668E+04  0.50400001928E-02 0. -1.
</event>
<event>
 5   0  0.5714125E-09  0.3695597E+04  0.7818609E-02  0.8068938E-01
       -1   -1    0    0    0  501  0.00000000000E+00  0.00000000000E+00  0.12707698247E+04  0.12707698247E+04  0.50400001928E-02 0. -1.
        1   -1    0    0  501    0  0.00000000000E+00  0.00000000000E+00 -0.26868434835E+04  0.26868434835E+04  0.50400001928E-02 0.  1.
    10030    2    1    2    0    0  0.00000000000E+00  0.00000000000E+00 -0.14160736587E+04  0.39576133082E+04  0.36955971764E+04 0.  0.
        3    1    3    3  502    0 -0.76705937034E+02  0.10320557728E+04  0.93129200442E+03  0.13922383871E+04  0.10100000352E+00 0. -1.
       -3    1    3    3    0  502  0.76705937034E+02 -0.10320557728E+04 -0.23473656632E+04  0.25653749211E+04  0.10100000352E+00 0.  1.
</event>
<event>
 5   0  0.5714125E-09  0.3718134E+04  0.7818609E-02  0.8063955E-01
        1   -1    0    0  501    0  0.00000000000E+00  0.00000000000E+00  0.22264811835E+04  0.22264811835E+04  0.50400001928E-02 0. -1.
       -1   -1    0    0    0  501  0.00000000000E+00  0.00000000000E+00 -0.15522834078E+04  0.15522834078E+04  0.50400001928E-02 0.  1.
    10030    2    1    2    0    0  0.00000000000E+00  0.00000000000E+00  0.67419777573E+03  0.37787645913E+04  0.37181338324E+04 0.  0.
        3    1    3    3  502    0  0.11850666217E+04 -0.13195035248E+03 -0.11124609942E+04  0.16307554284E+04  0.10100000352E+00 0.  1.
       -3    1    3    3    0  502 -0.11850666217E+04  0.13195035248E+03  0.17866587699E+04  0.21480091629E+04  0.10100000352E+00 0. -1.
</event>
<event>
 5   0  0.1757996E-08  0.3699406E+04  0.7818609E-02  0.8068094E-01
       -2   -1    0    0    0  501  0.00000000000E+00  0.00000000000E+00  0.11614455292E+04  0.11614455292E+04  0.25500000920E-02 0.  1.
        2   -1    0    0  501    0  0.00000000000E+00  0.00000000000E+00 -0.29458122822E+04  0.29458122822E+04  0.25500000920E-02 0. -1.
    10030    2    1    2    0    0  0.00000000000E+00  0.00000000000E+00 -0.17843667530E+04  0.41072578114E+04  0.36994056306E+04 0.  0.
        3    1    3    3  502    0 -0.27740586271E+03 -0.16437540128E+04 -0.17821281876E+04  0.24402586246E+04  0.10100000352E+00 0. -1.
       -3    1    3    3    0  502  0.27740586271E+03  0.16437540128E+04 -0.22385653681E+01  0.16669991868E+04  0.10100000352E+00 0.  1.
</event>
<event>
 5   0  0.5714125E-09  0.3699151E+04  0.7818609E-02  0.8068150E-01
        1   -1    0    0  501    0  0.00000000000E+00  0.00000000000E+00  0.25154615046E+04  0.25154615046E+04  0.50400001928E-02 0. -1.
       -1   -1    0    0    0  501  0.00000000000E+00  0.00000000000E+00 -0.13599611317E+04  0.13599611317E+04  0.50400001928E-02 0.  1.
    10030    2    1    2    0    0  0.00000000000E+00  0.00000000000E+00  0.11555003729E+04  0.38754226363E+04  0.36991511862E+04 0.  0.
        4    1    3    3  502    0 -0.16158775113E+04  0.74123049163E+03  0.43092998921E+02  0.17782973296E+04  0.12699999809E+01 0.  1.
       -4    1    3    3    0  502  0.16158775113E+04 -0.74123049163E+03  0.11124073740E+04  0.20971253066E+04  0.12699999809E+01 0. -1.
</event>
<event>
 5   0  0.1725865E-08  0.3697237E+04  0.7818609E-02  0.8068574E-01
        2   -1    0    0  501    0  0.00000000000E+00  0.00000000000E+00  0.23537663044E+04  0.23537663044E+04  0.25500000920E-02 0.  1.
       -2   -1    0    0    0  501  0.00000000000E+00  0.00000000000E+00 -0.14518820420E+04  0.14518820420E+04  0.25500000920E-02 0. -1.
    10030    2    1    2    0    0  0.00000000000E+00  0.00000000000E+00  0.90188426243E+03  0.38056483464E+04  0.36972373624E+04 0.  0.
        1    1    3    3  502    0  0.51828297025E+03 -0.12575604350E+04 -0.83769174127E+03  0.15974363644E+04  0.50400001928E-02 0. -1.
       -1    1    3    3    0  502 -0.51828297025E+03  0.12575604350E+04  0.17395760037E+04  0.22082119820E+04  0.50400001928E-02 0.  1.
</event>
<event>
 5   0  0.1757996E-08  0.3701206E+04  0.7818609E-02  0.8067695E-01
        2   -1    0    0  501    0  0.00000000000E+00  0.00000000000E+00  0.29467096889E+04  0.29467096889E+04  0.25500000920E-02 0.  1.
       -2   -1    0    0    0  501  0.00000000000E+00  0.00000000000E+00 -0.11622225071E+04  0.11622225071E+04  0.25500000920E-02 0. -1.
    10030    2    1    2    0    0  0.00000000000E+00  0.00000000000E+00  0.17844871818E+04  0.41089321960E+04  0.37012064640E+04 0.  0.
        3    1    3    3  502    0  0.33411783035E+03 -0.41548898392E+03  0.28595986423E+04  0.29088778293E+04  0.10100000352E+00 0.  1.
       -3    1    3    3    0  502 -0.33411783035E+03  0.41548898392E+03 -0.10751114605E+04  0.12000543667E+04  0.10100000352E+00 0. -1.
</event>
<event>
 5   0  0.5714125E-09  0.3700446E+04  0.7818609E-02  0.8067863E-01
        1   -1    0    0  501    0  0.00000000000E+00  0.00000000000E+00  0.21736966062E+04  0.21736966062E+04  0.50400001928E-02 0.  1.
       -1   -1    0    0    0  501  0.00000000000E+00  0.00000000000E+00 -0.15748866871E+04  0.15748866871E+04  0.50400001928E-02 0. -1.
    10030    2    1    2    0    0  0.00000000000E+00  0.00000000000E+00  0.59880991911E+03  0.37485832933E+04  0.37004463768E+04 0.  0.
        3    1    3    3  502    0 -0.82491800892E+03  0.94480644812E+03 -0.10785013099E+04  0.16541807735E+04  0.10100000352E+00 0. -1.
       -3    1    3    3    0  502  0.82491800892E+03 -0.94480644812E+03  0.16773112290E+04  0.20944025198E+04  0.10100000352E+00 0.  1.
</event>
<event>
 5   0  0.1757996E-08  0.3703018E+04  0.7818609E-02  0.8067293E-01
        2   -1    0    0  501    0  0.00000000000E+00  0.00000000000E+00  0.25319368830E+04  0.25319368830E+04  0.25500000920E-02 0. -1.
       -2   -1    0    0    0  501  0.00000000000E+00  0.00000000000E+00 -0.13539381524E+04  0.13539381524E+04  0.25500000920E-02 0.  1.
    10030    2    1    2    0    0  0.00000000000E+00  0.00000000000E+00  0.11779987306E+04  0.38858750354E+04  0.37030181989E+04 0.  0.
        3    1    3    3  502    0 -0.42242280246E+02 -0.48409676050E+03 -0.12858274199E+04  0.13745858459E+04  0.10100000352E+00 0.  1.
       -3    1    3    3    0  502  0.42242280246E+02  0.48409676050E+03  0.24638261505E+04  0.25112891896E+04  0.10100000352E+00 0. -1.
</event>
<event>
 5   0  0.1725865E-08  0.3701569E+04  0.7818609E-02  0.8067614E-01
        2   -1    0    0  501    0  0.00000000000E+00  0.00000000000E+00  0.24964497916E+04  0.24964497916E+04  0.25500000920E-02 0. -1.
       -2   -1    0    0    0  501  0.00000000000E+00  0.00000000000E+00 -0.13721098814E+04  0.13721098814E+04  0.25500000920E-02 0.  1.
    10030    2    1    2    0    0  0.00000000000E+00  0.00000000000E+00  0.11243399101E+04  0.38685596730E+04  0.37015690875E+04 0.  0.
        1    1    3    3  502    0 -0.11315124466E+04 -0.45742732847E+03  0.20162842199E+04  0.23568967379E+04  0.50400001928E-02 0. -1.
       -1    1    3    3    0  502  0.11315124466E+04  0.45742732847E+03 -0.89194430973E+03  0.15116629351E+04  0.50400001928E-02 0.  1.
</event>
<event>
 5   0  0.5714125E-09  0.3699462E+04  0.7818609E-02  0.8068081E-01
       -1   -1    0    0    0  501  0.00000000000E+00  0.00000000000E+00  0.21458886122E+04  0.21458886122E+04  0.50400001928E-02 0. -1.
        1   -1    0    0  501    0  0.00000000000E+00  0.00000000000E+00 -0.15944466434E+04  0.15944466434E+04  0.50400001928E-02 0.  1.
    10030    2    1    2    0    0  0.00000000000E+00  0.00000000000E+00  0.55144196878E+03  0.37403352556E+04  0.36994620663E+04 0.  0.
        2    1    3    3  502    0  0.11933827940E+04 -0.76043518082E+03 -0.92869221087E+03  0.16925995923E+04  0.25500000920E-02 0.  1.
       -2    1    3    3    0  502 -0.11933827940E+04  0.76043518082E+03  0.14801341796E+04  0.20477356634E+04  0.25500000920E-02 0. -1.
</event>
<event>
 5   0  0.1825308E-08  0.3699516E+04  0.7818609E-02  0.8068069E-01
       -2   -1    0    0    0  501  0.00000000000E+00  0.00000000000E+00  0.21329068089E+04  0.21329068089E+04  0.25500000920E-02 0. -1.
        2   -1    0    0  501    0  0.00000000000E+00  0.00000000000E+00 -0.16041975286E+04  0.16041975286E+04  0.25500000920E-02 0.  1.
    10030    2    1    2    0    0  0.00000000000E+00  0.00000000000E+00  0.52870928024E+03  0.37371043375E+04  0.36995155530E+04 0.  0.
        4    1    3    3  502    0  0.16710009647E+04 -0.54784284935E+03  0.84396690268E+03  0.19505531927E+04  0.12699999809E+01 0. -1.
       -4    1    3    3    0  502 -0.16710009647E+04  0.54784284935E+03 -0.31525762245E+03  0.17865511448E+04  0.12699999809E+01 0.  1.
</event>
<event>
 5   0  0.1856107E-08  0.3699294E+04  0.7818609E-02  0.8068118E-01
       -2   -1    0    0    0  501  0.00000000000E+00  0.00000000000E+00  0.10445517900E+04  0.10445517900E+04  0.25500000920E-02 0.  1.
        2   -1    0    0  501    0  0.00000000000E+00  0.00000000000E+00 -0.32752755011E+04  0.32752755011E+04  0.25500000920E-02 0. -1.
    10030    2    1    2    0    0  0.00000000000E+00  0.00000000000E+00 -0.22307237111E+04  0.43198272910E+04  0.36992944664E+04 0.  0.
        2    1    3    3  502    0  0.56297565193E+03 -0.13648534888E+04  0.18573100613E+03  0.14880398641E+04  0.25500000920E-02 0.  1.
       -2    1    3    3    0  502 -0.56297565193E+03  0.13648534888E+04 -0.24164547172E+04  0.28317874269E+04  0.25500000920E-02 0. -1.
</event>
<event>
 5   0  0.5714125E-09  0.3705050E+04  0.7818609E-02  0.8066844E-01
       -1   -1    0    0    0  501  0.00000000000E+00  0.00000000000E+00  0.11349697688E+04  0.11349697688E+04  0.50400001928E-02 0. -1.
        1   -1    0    0  501    0  0.00000000000E+00  0.00000000000E+00 -0.30237351564E+04  0.30237351564E+04  0.50400001928E-02 0.  1.
    10030    2    1    2    0    0  0.00000000000E+00  0.00000000000E+00 -0.18887653876E+04  0.41587049252E+04  0.37050495227E+04 0.  0.
        3    1    3    3  502    0 -0.18437048341E+04  0.17505439350E+03 -0.99403000351E+03  0.21019008573E+04  0.10100000352E+00 0. -1.
       -3    1    3    3    0  502  0.18437048341E+04 -0.17505439350E+03 -0.89473538412E+03  0.20568040679E+04  0.10100000352E+00 0.  1.
</event>
<event>
 5   0  0.5714125E-09  0.3699874E+04  0.7818609E-02  0.8067990E-01
       -1   -1    0    0    0  501  0.00000000000E+00  0.00000000000E+00  0.14286015575E+04  0.14286015575E+04  0.50400001928E-02 0.  1.
        1   -1    0    0  501    0  0.00000000000E+00  0.00000000000E+00 -0.23955364285E+04  0.23955364286E+04  0.50400001928E-02 0. -1.
    10030    2    1    2    0    0  0.00000000000E+00  0.00000000000E+00 -0.96693487105E+03  0.38241379861E+04  0.36998740913E+04 0.  0.
        4    1    3    3  502    0 -0.99825467260E+03  0.72065547804E+03 -0.19105681411E+04  0.22729119965E+04  0.12699999809E+01 0. -1.
       -4    1    3    3    0  502  0.99825467260E+03 -0.72065547804E+03  0.94363327002E+03  0.15512259895E+04  0.12699999809E+01 0.  1.
</event>
<event>
 5   0  0.5714125E-09  0.3700477E+04  0.7818609E-02  0.8067856E-01
       -1   -1    0    0    0  501  0.00000000000E+00  0.00000000000E+00  0.19728818885E+04  0.19728818885E+04  0.50400001928E-02 0. -1.
        1   -1    0    0  501    0  0.00000000000E+00  0.00000000000E+00 -0.17352194385E+04  0.17352194385E+04  0.50400001928E-02 0.  1.
    10030    2    1    2    0    0  0.00000000000E+00  0.00000000000E+00  0.23766245000E+03  0.37081013270E+04  0.37004772681E+04 0.  0.
        5    1    3    3  502    0  0.10345973058E+04 -0.72849939570E+03 -0.12338603347E+04  0.17673529274E+04  0.46999998093E+01 0.  1.
       -5    1    3    3    0  502 -0.10345973058E+04  0.72849939570E+03  0.14715227847E+04  0.19407483996E+04  0.46999998093E+01 0. -1.
</event>
<event>
 5   0  0.5714125E-09  0.3700322E+04  0.7818609E-02  0.8067890E-01
       -1   -1    0    0    0  501  0.00000000000E+00  0.00000000000E+00  0.11435856515E+04  0.11435856515E+04  0.50400001928E-02 0.  1.
        1   -1    0    0  501    0  0.00000000000E+00  0.00000000000E+00 -0.29933004860E+04  0.29933004860E+04  0.50400001928E-02 0. -1.
    10030    2    1    2    0    0  0.00000000000E+00  0.00000000000E+00 -0.18497148345E+04  0.41368861375E+04  0.37003218705E+04 0.  0.
        4    1    3    3  502    0 -0.11965774231E+04  0.13050015637E+04 -0.15251068070E+04  0.23368309730E+04  0.12699999809E+01 0.  1.
       -4    1    3    3    0  502  0.11965774231E+04 -0.13050015637E+04 -0.32460802755E+03  0.18000551645E+04  0.12699999809E+01 0. -1.
</event>
<event>
 5   0  0.5714125E-09  0.3700268E+04  0.7818609E-02  0.8067902E-01
       -1   -1    0    0    0  501  0.00000000000E+00  0.00000000000E+00  0.11472593339E+04  0.11472593339E+04  0.50400001928E-02 0.  1.
        1   -1    0    0  501    0  0.00000000000E+00  0.00000000000E+00 -0.29836284698E+04  0.29836284698E+04  0.50400001928E-02 0. -1.
    10030    2    1    2    0    0  0.00000000000E+00  0.00000000000E+00 -0.18363691359E+04  0.41308878037E+04  0.37002678881E+04 0.  0.
        1    1    3    3  502    0  0.99843201411E+03  0.67160299711E+03 -0.24871104147E+04  0.27629034162E+04  0.50400001928E-02 0. -1.
       -1    1    3    3    0  502 -0.99843201411E+03 -0.67160299711E+03  0.65074127881E+03  0.13679843875E+04  0.50400001928E-02 0.  1.
</event>
<event>
 5   0  0.1740290E-08  0.3700161E+04  0.7818609E-02  0.8067926E-01
       -2   -1    0    0    0  501  0.00000000000E+00  0.00000000000E+00  0.16396934636E+04  0.16396934637E+04  0.25500000920E-02 0.  1.
        2   -1    0    0  501    0  0.00000000000E+00  0.00000000000E+00 -0.20874624255E+04  0.20874624255E+04  0.25500000920E-02 0. -1.
    10030    2    1    2    0    0  0.00000000000E+00  0.00000000000E+00 -0.44776896188E+03  0.37271558892E+04  0.37001613450E+04 0.  0.
        5    1    3    3  502    0 -0.14871868266E+04  0.50074454739E+03 -0.12109860971E+04  0.19821652747E+04  0.46999998093E+01 0. -1.
       -5    1    3    3    0  502  0.14871868266E+04 -0.50074454739E+03  0.76321713527E+03  0.17449906144E+04  0.46999998093E+01 0.  1.
</event>
<event>
 5   0  0.5714125E-09  0.3680515E+04  0.7818609E-02  0.8072294E-01
       -1   -1    0    0    0  501  0.00000000000E+00  0.00000000000E+00  0.16306348160E+04  0.16306348160E+04  0.50400001928E-02 0. -1.
        1   -1    0    0  501    0  0.00000000000E+00  0.00000000000E+00 -0.20768279621E+04  0.20768279621E+04  0.50400001928E-02 0.  1.
    10030    2    1    2    0    0  0.00000000000E+00  0.00000000000E+00 -0.44619314610E+03  0.37074627781E+04  0.36805151714E+04 0.  0.
        4    1    3    3  502    0 -0.88887742543E+03 -0.11701667821E+04  0.89278355293E+03  0.17194352156E+04  0.12699999809E+01 0. -1.
       -4    1    3    3    0  502  0.88887742543E+03  0.11701667821E+04 -0.13389766990E+04  0.19880275624E+04  0.12699999809E+01 0.  1.
</event>
<event>
 5   0  0.1740290E-08  0.3698138E+04  0.7818609E-02  0.8068375E-01
       -2   -1    0    0    0  501  0.00000000000E+00  0.00000000000E+00  0.17438421462E+04  0.17438421462E+04  0.25500000920E-02 0. -1.
        2   -1    0    0  501    0  0.00000000000E+00  0.00000000000E+00 -0.19606455184E+04  0.19606455184E+04  0.25500000920E-02 0.  1.
    10030    2    1    2    0    0  0.00000000000E+00  0.00000000000E+00 -0.21680337216E+03  0.37044876646E+04  0.36981380659E+04 0.  0.
        5    1    3    3  502    0 -0.12332253800E+04  0.13299832252E+04  0.25184612903E+03  0.18311605009E+04  0.46999998093E+01 0. -1.
       -5    1    3    3    0  502  0.12332253800E+04 -0.13299832252E+04 -0.46864950118E+03  0.18733271637E+04  0.46999998093E+01 0.  1.
</event>
<event>
 5   0  0.1757996E-08  0.3699691E+04  0.7818609E-02  0.8068030E-01
        2   -1    0    0  501    0  0.00000000000E+00  0.00000000000E+00  0.22293225620E+04  0.22293225620E+04  0.25500000920E-02 0.  1.
       -2   -1    0    0    0  501  0.00000000000E+00  0.00000000000E+00 -0.15349633415E+04  0.15349633415E+04  0.25500000920E-02 0. -1.
    10030    2    1    2    0    0  0.00000000000E+00  0.00000000000E+00  0.69435922047E+03  0.37642859035E+04  0.36996910190E+04 0.  0.
        3    1    3    3  502    0  0.32416981012E+03  0.10766008449E+04  0.18417625433E+04  0.21578333395E+04  0.10100000352E+00 0.  1.
       -3    1    3    3    0  502 -0.32416981012E+03 -0.10766008449E+04 -0.11474033228E+04  0.16064525640E+04  0.10100000352E+00 0. -1.
</event>
<event>
 5   0  0.1757996E-08  0.3716023E+04  0.7818609E-02  0.8064420E-01
       -2   -1    0    0    0  501  0.00000000000E+00  0.00000000000E+00  0.15224367258E+04  0.15224367258E+04  0.25500000920E-02 0. -1.
        2   -1    0    0  501    0  0.00000000000E+00  0.00000000000E+00 -0.22675530804E+04  0.22675530804E+04  0.25500000920E-02 0.  1.
    10030    2    1    2    0    0  0.00000000000E+00  0.00000000000E+00 -0.74511635460E+03  0.37899898062E+04  0.37160226519E+04 0.  0.
        3    1    3    3  502    0  0.59218519297E+03 -0.12705996183E+04  0.87118206372E+03  0.16504741413E+04  0.10100000352E+00 0. -1.
       -3    1    3    3    0  502 -0.59218519297E+03  0.12705996183E+04 -0.16162984183E+04  0.21395156649E+04  0.10100000352E+00 0.  1.
</event>
<event>
 5   0  0.5714125E-09  0.3701364E+04  0.7818609E-02  0.8067660E-01
        1   -1    0    0  501    0  0.00000000000E+00  0.00000000000E+00  0.21638261195E+04  0.21638261195E+04  0.50400001928E-02 0.  1.
       -1   -1    0    0    0  501  0.00000000000E+00  0.00000000000E+00 -0.15828550087E+04  0.15828550087E+04  0.50400001928E-02 0. -1.
    10030    2    1    2    0    0  0.00000000000E+00  0.00000000000E+00  0.58097111086E+03  0.37466811282E+04  0.37013635386E+04 0.  0.
        5    1    3    3  502    0  0.13594041730E+04  0.75903535768E+02  0.15593318027E+04  0.20700914988E+04  0.46999998093E+01 0.  1.
       -5    1    3    3    0  502 -0.13594041730E+04 -0.75903535768E+02 -0.97836069189E+03  0.16765896295E+04  0.46999998093E+01 0. -1.
</event>
<event>
 5   0  0.1740290E-08  0.3699341E+04  0.7818609E-02  0.8068108E-01
        2   -1    0    0  501    0  0.00000000000E+00  0.00000000000E+00  0.28407830865E+04  0.28407830865E+04  0.25500000920E-02 0. -1.
       -2   -1    0    0    0  501  0.00000000000E+00  0.00000000000E+00 -0.12043444371E+04  0.12043444371E+04  0.25500000920E-02 0.  1.
    10030    2    1    2    0    0  0.00000000000E+00  0.00000000000E+00  0.16364386494E+04  0.40451275236E+04  0.36993411885E+04 0.  0.
        5    1    3    3  502    0 -0.39261922905E+03 -0.94635685773E+03 -0.86569909391E+03  0.13413419297E+04  0.46999998093E+01 0.  1.
       -5    1    3    3    0  502  0.39261922905E+03  0.94635685773E+03  0.25021377433E+04  0.27037855939E+04  0.46999998093E+01 0. -1.
</event>
<event>
 5   0  0.1757996E-08  0.3708766E+04  0.7818609E-02  0.8066022E-01
        2   -1    0    0  501    0  0.00000000000E+00  0.00000000000E+00  0.20649307339E+04  0.20649307339E+04  0.25500000920E-02 0.  1.
       -2   -1    0    0    0  501  0.00000000000E+00  0.00000000000E+00 -0.16653036741E+04  0.16653036741E+04  0.25500000920E-02 0. -1.
    10030    2    1    2    0    0  0.00000000000E+00  0.00000000000E+00  0.39962705975E+03  0.37302344080E+04  0.37087662304E+04 0.  0.
        3    1    3    3  502    0 -0.27880229843E+03 -0.34864521355E+03 -0.16104527983E+04  0.16711799521E+04  0.10100000352E+00 0. -1.
       -3    1    3    3    0  502  0.27880229843E+03  0.34864521355E+03  0.20100798581E+04  0.20590544559E+04  0.10100000352E+00 0.  1.
</event>
<event>
 5   0  0.5714125E-09  0.3698024E+04  0.7818609E-02  0.8068400E-01
       -1   -1    0    0    0  501  0.00000000000E+00  0.00000000000E+00  0.23233936746E+04  0.23233936746E+04  0.50400001928E-02 0.  1.
        1   -1    0    0  501    0  0.00000000000E+00  0.00000000000E+00 -0.14714877851E+04  0.14714877851E+04  0.50400001928E-02 0. -1.
    10030    2    1    2    0    0  0.00000000000E+00  0.00000000000E+00  0.85190588946E+03  0.37948814597E+04  0.36980240195E+04 0.  0.
        3    1    3    3  502    0  0.35326923338E+03 -0.13367466482E+04  0.16857697450E+04  0.21802546631E+04  0.10100000352E+00 0.  1.
       -3    1    3    3    0  502 -0.35326923338E+03  0.13367466482E+04 -0.83386385552E+03  0.16146267966E+04  0.10100000352E+00 0. -1.
</event>
<event>
 5   0  0.5714125E-09  0.3699560E+04  0.7818609E-02  0.8068059E-01
        1   -1    0    0  501    0  0.00000000000E+00  0.00000000000E+00  0.27465679889E+04  0.27465679889E+04  0.50400001928E-02 0. -1.
       -1   -1    0    0    0  501  0.00000000000E+00  0.00000000000E+00 -0.12458045473E+04  0.12458045473E+04  0.50400001928E-02 0.  1.
    10030    2    1    2    0    0  0.00000000000E+00  0.00000000000E+00  0.15007634415E+04  0.39923725362E+04  0.36995604550E+04 0.  0.
        3    1    3    3  502    0 -0.16648651178E+04 -0.66419665415E+03  0.25732356051E+03  0.18108419259E+04  0.10100000352E+00 0.  1.
       -3    1    3    3    0  502  0.16648651178E+04  0.66419665415E+03  0.12434398810E+04  0.21815306103E+04  0.10100000352E+00 0. -1.
</event>
<event>
 5   0  0.5714125E-09  0.3698719E+04  0.7818609E-02  0.8068246E-01
       -1   -1    0    0    0  501  0.00000000000E+00  0.00000000000E+00  0.13805293883E+04  0.13805293883E+04  0.50400001928E-02 0.  1.
        1   -1    0    0  501    0  0.00000000000E+00  0.00000000000E+00 -0.24774053622E+04  0.24774053622E+04  0.50400001928E-02 0. -1.
    10030    2    1    2    0    0  0.00000000000E+00  0.00000000000E+00 -0.10968759740E+04  0.38579347505E+04  0.36987191887E+04 0.  0.
        4    1    3    3  502    0 -0.14579636795E+04 -0.20401648643E+03 -0.17159269746E+04  0.22609042024E+04  0.12699999809E+01 0. -1.
       -4    1    3    3    0  502  0.14579636795E+04  0.20401648643E+03  0.61905100066E+03  0.15970305481E+04  0.12699999809E+01 0.  1.
</event>
<event>
 5   0  0.1725865E-08  0.3701938E+04  0.7818609E-02  0.8067533E-01
       -2   -1    0    0    0  501  0.00000000000E+00  0.00000000000E+00  0.12366670855E+04  0.12366670855E+04  0.25500000920E-02 0.  1.
        2   -1    0    0  501    0  0.00000000000E+00  0.00000000000E+00 -0.27704184758E+04  0.27704184758E+04  0.25500000920E-02 0. -1.
    10030    2    1    2    0    0  0.00000000000E+00  0.00000000000E+00 -0.15337513904E+04  0.40070855613E+04  0.37019375154E+04 0.  0.
        1    1    3    3  502    0 -0.18322605882E+04  0.21760074394E+03 -0.60795238611E+03  0.19427133218E+04  0.50400001928E-02 0. -1.
       -1    1    3    3    0  502  0.18322605882E+04 -0.21760074394E+03 -0.92579900427E+03  0.20643722395E+04  0.50400001928E-02 0.  1.
</event>
<event>
 5   0  0.1740290E-08  0.3699332E+04  0.7818609E-02  0.8068110E-01
        2   -1    0    0  501    0  0.00000000000E+00  0.00000000000E+00  0.27750758398E+04  0.27750758398E+04  0.25500000920E-02 0.  1.
       -2   -1    0    0    0  501  0.00000000000E+00  0.00000000000E+00 -0.12328540587E+04  0.12328540588E+04  0.25500000920E-02 0. -1.
    10030    2    1    2    0    0  0.00000000000E+00  0.00000000000E+00  0.15422217811E+04  0.40079298986E+04  0.36993315680E+04 0.  0.
        5    1    3    3  502    0  0.59635553112E+03 -0.94565812865E+02  0.26652869386E+04  0.27328298827E+04  0.46999998093E+01 0.  1.
       -5    1    3    3    0  502 -0.59635553112E+03  0.94565812865E+02 -0.11230651575E+04  0.12751000159E+04  0.46999998093E+01 0. -1.
</event>
<event>
 5   0  0.1856107E-08  0.3699738E+04  0.7818609E-02  0.8068020E-01
        2   -1    0    0  501    0  0.00000000000E+00  0.00000000000E+00  0.26673410540E+04  0.26673410540E+04  0.25500000920E-02 0.  1.
       -2   -1    0    0    0  501  0.00000000000E+00  0.00000000000E+00 -0.12829313313E+04  0.12829313313E+04  0.25500000920E-02 0. -1.
    10030    2    1    2    0    0  0.00000000000E+00  0.00000000000E+00  0.13844097227E+04  0.39502723853E+04  0.36997380499E+04 0.  0.
        2    1    3    3  502    0  0.84328745518E+03  0.11584884359E+04 -0.55697185035E+03  0.15373505879E+04  0.25500000920E-02 0. -1.
       -2    1    3    3    0  502 -0.84328745518E+03 -0.11584884359E+04  0.19413815730E+04  0.24129217973E+04  0.25500000920E-02 0.  1.
</event>
<event>
 5   0  0.1757996E-08  0.3699748E+04  0.7818609E-02  0.8068018E-01
        2   -1    0    0  501    0  0.00000000000E+00  0.00000000000E+00  0.19067059056E+04  0.19067059056E+04  0.25500000920E-02 0.  1.
       -2   -1    0    0    0  501  0.00000000000E+00  0.00000000000E+00 -0.17947359988E+04  0.17947359988E+04  0.25500000920E-02 0. -1.
    10030    2    1    2    0    0  0.00000000000E+00  0.00000000000E+00  0.11196990681E+03  0.37014419045E+04  0.36997479525E+04 0.  0.
        3    1    3    3  502    0  0.45622620779E+03  0.31553026945E+03  0.18215399649E+04  0.19041296063E+04  0.10100000352E+00 0.  1.
       -3    1    3    3    0  502 -0.45622620779E+03 -0.31553026945E+03 -0.17095700581E+04  0.17973122982E+04  0.10100000352E+00 0. -1.
</event>
<event>
 5   0  0.5714125E-09  0.3701292E+04  0.7818609E-02  0.8067676E-01
       -1   -1    0    0    0  501  0.00000000000E+00  0.00000000000E+00  0.21192979314E+04  0.21192979314E+04  0.50400001928E-02 0.  1.
        1   -1    0    0  501    0  0.00000000000E+00  0.00000000000E+00 -0.16160496888E+04  0.16160496888E+04  0.50400001928E-02 0. -1.
    10030    2    1    2    0    0  0.00000000000E+00  0.00000000000E+00  0.50324824263E+03  0.37353476203E+04  0.37012920785E+04 0.  0.
        2    1    3    3  502    0 -0.11740104792E+04 -0.55320506874E+03  0.15830636798E+04  0.20470532645E+04  0.25500000920E-02 0.  1.
       -2    1    3    3    0  502  0.11740104792E+04  0.55320506874E+03 -0.10798154372E+04  0.16882943558E+04  0.25500000920E-02 0. -1.
</event>
<event>
 5   0  0.5714125E-09  0.3700794E+04  0.7818609E-02  0.8067786E-01
        1   -1    0    0  501    0  0.00000000000E+00  0.00000000000E+00  0.21725366008E+04  0.21725366008E+04  0.50400001928E-02 0.  1.
       -1   -1    0    0    0  501  0.00000000000E+00  0.00000000000E+00 -0.15760238337E+04  0.15760238337E+04  0.50400001928E-02 0. -1.
    10030    2    1    2    0    0  0.00000000000E+00  0.00000000000E+00  0.59651276711E+03  0.37485604346E+04  0.37007942189E+04 0.  0.
        1    1    3    3  502    0 -0.84224079360E+02 -0.47252079976E+03 -0.15118738838E+04  0.15862320896E+04  0.50400001928E-02 0. -1.
       -1    1    3    3    0  502  0.84224079360E+02  0.47252079976E+03  0.21083866509E+04  0.21623283449E+04  0.50400001928E-02 0.  1.
</event>
<event>
 5   0  0.1757996E-08  0.3701345E+04  0.7818609E-02  0.8067664E-01
        2   -1    0    0  501    0  0.00000000000E+00  0.00000000000E+00  0.16290224078E+04  0.16290224078E+04  0.25500000920E-02 0.  1.
       -2   -1    0    0    0  501  0.00000000000E+00  0.00000000000E+00 -0.21024812143E+04  0.21024812143E+04  0.25500000920E-02 0. -1.
    10030    2    1    2    0    0  0.00000000000E+00  0.00000000000E+00 -0.47345880644E+03  0.37315036221E+04  0.37013451663E+04 0.  0.
        3    1    3    3  502    0  0.16751845697E+04  0.38389593141E+03  0.45542829331E+03  0.17779297988E+04  0.10100000352E+00 0.  1.
       -3    1    3    3    0  502 -0.16751845697E+04 -0.38389593141E+03 -0.92888709975E+03  0.19535738233E+04  0.10100000352E+00 0. -1.
</event>
<event>
 5   0  0.1740290E-08  0.3702640E+04  0.7818609E-02  0.8067377E-01
        2   -1    0    0  501    0  0.00000000000E+00  0.00000000000E+00  0.19233530658E+04  0.19233530658E+04  0.25500000920E-02 0. -1.
       -2   -1    0    0    0  501  0.00000000000E+00  0.00000000000E+00 -0.17819850670E+04  0.17819850670E+04  0.25500000920E-02 0.  1.
    10030    2    1    2    0    0  0.00000000000E+00  0.00000000000E+00  0.14136799876E+03  0.37053381328E+04  0.37026403778E+04 0.  0.
        5    1    3    3  502    0 -0.17067667916E+04  0.52777318482E+03  0.55659615456E+03  0.18712078412E+04  0.46999998093E+01 0. -1.
       -5    1    3    3    0  502  0.17067667916E+04 -0.52777318482E+03 -0.41522815580E+03  0.18341302917E+04  0.46999998093E+01 0.  1.
</event>
<event>
 5   0  0.5714125E-09  0.3698886E+04  0.7818609E-02  0.8068209E-01
        1   -1    0    0  501    0  0.00000000000E+00  0.00000000000E+00  0.29681400729E+04  0.29681400729E+04  0.50400001928E-02 0. -1.
       -1   -1    0    0    0  501  0.00000000000E+00  0.00000000000E+00 -0.11523850384E+04  0.11523850384E+04  0.50400001928E-02 0.  1.
    10030    2    1    2    0    0  0.00000000000E+00  0.00000000000E+00  0.18157550345E+04  0.41205251114E+04  0.36988864335E+04 0.  0.
        3    1    3    3  502    0  0.15536075226E+04 -0.62381568164E+03  0.17833337923E+04  0.24460420609E+04  0.10100000352E+00 0. -1.
       -3    1    3    3    0  502 -0.15536075226E+04  0.62381568164E+03  0.32421242232E+02  0.16744830504E+04  0.10100000352E+00 0.  1.
</event>
<event>
 5   0  0.5714125E-09  0.3698425E+04  0.7818609E-02  0.8068311E-01
        1   -1    0    0  501    0  0.00000000000E+00  0.00000000000E+00  0.20822715131E+04  0.20822715131E+04  0.50400001928E-02 0. -1.
       -1   -1    0    0    0  501  0.00000000000E+00  0.00000000000E+00 -0.16422383440E+04  0.16422383440E+04  0.50400001928E-02 0.  1.
    10030    2    1    2    0    0  0.00000000000E+00  0.00000000000E+00  0.44003316907E+03  0.37245098571E+04  0.36984245951E+04 0.  0.
        2    1    3    3  502    0  0.62730455345E+03  0.49792142838E+03 -0.14585174654E+04  0.16639440942E+04  0.25500000920E-02 0.  1.
       -2    1    3    3    0  502 -0.62730455345E+03 -0.49792142838E+03  0.18985506345E+04  0.20605657629E+04  0.25500000920E-02 0. -1.
</event>
<event>
 5   0  0.5714125E-09  0.3707356E+04  0.7818609E-02  0.8066334E-01
        1   -1    0    0  501    0  0.00000000000E+00  0.00000000000E+00  0.16148208302E+04  0.16148208302E+04  0.50400001928E-02 0. -1.
       -1   -1    0    0    0  501  0.00000000000E+00  0.00000000000E+00 -0.21278656498E+04  0.21278656498E+04  0.50400001928E-02 0.  1.
    10030    2    1    2    0    0  0.00000000000E+00  0.00000000000E+00 -0.51304481957E+03  0.37426864801E+04  0.37073558099E+04 0.  0.
        2    1    3    3  502    0  0.15595693347E+04 -0.76336548960E+03 -0.91165861097E+03  0.19611488478E+04  0.25500000920E-02 0.  1.
       -2    1    3    3    0  502 -0.15595693347E+04  0.76336548960E+03  0.39861379140E+03  0.17815376322E+04  0.25500000920E-02 0. -1.
</event>
<event>
 5   0  0.1825308E-08  0.3700007E+04  0.7818609E-02  0.8067960E-01
        2   -1    0    0  501    0  0.00000000000E+00  0.00000000000E+00  0.22172143521E+04  0.22172143521E+04  0.25500000920E-02 0. -1.
       -2   -1    0    0    0  501  0.00000000000E+00  0.00000000000E+00 -0.15436090249E+04  0.15436090249E+04  0.25500000920E-02 0.  1.
    10030    2    1    2    0    0  0.00000000000E+00  0.00000000000E+00  0.67360532717E+03  0.37608233770E+04  0.37000065319E+04 0.  0.
        4    1    3    3  502    0  0.90712859442E+03 -0.10802912929E+03  0.19719581271E+04  0.21732862323E+04  0.12699999809E+01 0. -1.
       -4    1    3    3    0  502 -0.90712859442E+03  0.10802912929E+03 -0.12983527999E+04  0.15875371446E+04  0.12699999809E+01 0.  1.
</event>
<event>
 5   0  0.5714125E-09  0.3697672E+04  0.7818609E-02  0.8068478E-01
        1   -1    0    0  501    0  0.00000000000E+00  0.00000000000E+00  0.11583016781E+04  0.11583016781E+04  0.50400001928E-02 0. -1.
       -1   -1    0    0    0  501  0.00000000000E+00  0.00000000000E+00 -0.29510398463E+04  0.29510398463E+04  0.50400001928E-02 0.  1.
    10030    2    1    2    0    0  0.00000000000E+00  0.00000000000E+00 -0.17927381682E+04  0.41093415244E+04  0.36976719195E+04 0.  0.
        5    1    3    3  502    0  0.10340269581E+04 -0.15120887819E+04 -0.61842920818E+03  0.19334169260E+04  0.46999998093E+01 0. -1.
       -5    1    3    3    0  502 -0.10340269581E+04  0.15120887819E+04 -0.11743089600E+04  0.21759245984E+04  0.46999998093E+01 0.  1.
</event>
<event>
 5   0  0.1740290E-08  0.3698597E+04  0.7818609E-02  0.8068273E-01
       -2   -1    0    0    0  501  0.00000000000E+00  0.00000000000E+00  0.13516915277E+04  0.13516915277E+04  0.25500000920E-02 0.  1.
        2   -1    0    0  501    0  0.00000000000E+00  0.00000000000E+00 -0.25300926119E+04  0.25300926119E+04  0.25500000920E-02 0. -1.
    10030    2    1    2    0    0  0.00000000000E+00  0.00000000000E+00 -0.11784010842E+04  0.38817841397E+04  0.36985968950E+04 0.  0.
        5    1    3    3  502    0 -0.89140499115E+03 -0.16094783381E+04 -0.39324679147E+03  0.18814059923E+04  0.46999998093E+01 0.  1.
       -5    1    3    3    0  502  0.89140499115E+03  0.16094783381E+04 -0.78515429272E+03  0.20003781473E+04  0.46999998093E+01 0. -1.
</event>
<event>
 5   0  0.5714125E-09  0.3701169E+04  0.7818609E-02  0.8067703E-01
        1   -1    0    0  501    0  0.00000000000E+00  0.00000000000E+00  0.16134825149E+04  0.16134825149E+04  0.50400001928E-02 0. -1.
       -1   -1    0    0    0  501  0.00000000000E+00  0.00000000000E+00 -0.21225291674E+04  0.21225291674E+04  0.50400001928E-02 0.  1.
    10030    2    1    2    0    0  0.00000000000E+00  0.00000000000E+00 -0.50904665246E+03  0.37360116824E+04  0.37011693823E+04 0.  0.
        2    1    3    3  502    0  0.10900704860E+04  0.90959982169E+03  0.94368035145E+03  0.17047457599E+04  0.25500000920E-02 0. -1.
       -2    1    3    3    0  502 -0.10900704860E+04 -0.90959982169E+03 -0.14527270039E+04  0.20312659225E+04  0.25500000920E-02 0.  1.
</event>
<event>
 5   0  0.1725865E-08  0.3701665E+04  0.7818609E-02  0.8067593E-01
       -2   -1    0    0    0  501  0.00000000000E+00  0.00000000000E+00  0.20093514329E+04  0.20093514329E+04  0.25500000920E-02 0. -1.
        2   -1    0    0  501    0  0.00000000000E+00  0.00000000000E+00 -0.17048190681E+04  0.17048190681E+04  0.25500000920E-02 0.  1.
    10030    2    1    2    0    0  0.00000000000E+00  0.00000000000E+00  0.30453236472E+03  0.37141705010E+04  0.37016648348E+04 0.  0.
        1    1    3    3  502    0  0.32559828956E+02 -0.16610124880E+04 -0.66630735408E+03  0.17899687477E+04  0.50400001928E-02 0.  1.
       -1    1    3    3    0  502 -0.32559828956E+02  0.16610124880E+04  0.97083971880E+03  0.19242017533E+04  0.50400001928E-02 0. -1.
</event>
<event>
 5   0  0.5714125E-09  0.3699066E+04  0.7818609E-02  0.8068169E-01
       -1   -1    0    0    0  501  0.00000000000E+00  0.00000000000E+00  0.17457816776E+04  0.17457816776E+04  0.50400001928E-02 0. -1.
        1   -1    0    0  501    0  0.00000000000E+00  0.00000000000E+00 -0.19594503545E+04  0.19594503545E+04  0.50400001928E-02 0.  1.
    10030    2    1    2    0    0  0.00000000000E+00  0.00000000000E+00 -0.21366867690E+03  0.37052320321E+04  0.36990661130E+04 0.  0.
        5    1    3    3  502    0  0.17310091035E+04  0.44023538833E+03 -0.58779168322E+03  0.18803512614E+04  0.46999998093E+01 0.  1.
       -5    1    3    3    0  502 -0.17310091035E+04 -0.44023538833E+03  0.37412300631E+03  0.18248807707E+04  0.46999998093E+01 0. -1.
</event>
<event>
 5   0  0.5714125E-09  0.3700102E+04  0.7818609E-02  0.8067939E-01
        1   -1    0    0  501    0  0.00000000000E+00  0.00000000000E+00  0.20020614790E+04  0.20020614790E+04  0.50400001928E-02 0.  1.
       -1   -1    0    0    0  501  0.00000000000E+00  0.00000000000E+00 -0.17095822906E+04  0.17095822906E+04  0.50400001928E-02 0. -1.
    10030    2    1    2    0    0  0.00000000000E+00  0.00000000000E+00  0.29247918834E+03  0.37116437696E+04  0.37001020792E+04 0.  0.
        2    1    3    3  502    0 -0.68308780815E+03 -0.16611151754E+04 -0.29873881938E+03  0.18207573869E+04  0.25500000920E-02 0. -1.
       -2    1    3    3    0  502  0.68308780815E+03  0.16611151754E+04  0.59121800771E+03  0.18908863827E+04  0.25500000920E-02 0.  1.
</event>
<event>
 5   0  0.1856107E-08  0.3700667E+04  0.7818609E-02  0.8067814E-01
       -2   -1    0    0    0  501  0.00000000000E+00  0.00000000000E+00  0.20929738050E+04  0.20929738050E+04  0.25500000920E-02 0.  1.
        2   -1    0    0  501    0  0.00000000000E+00  0.00000000000E+00 -0.16358229427E+04  0.16358229427E+04  0.25500000920E-02 0. -1.
    10030    2    1    2    0    0  0.00000000000E+00  0.00000000000E+00  0.45715086227E+03  0.37287967476E+04  0.37006672742E+04 0.  0.
        2    1    3    3  502    0 -0.56888518080E+02 -0.15911613019E+04 -0.72130126544E+03  0.17479433938E+04  0.25500000920E-02 0. -1.
       -2    1    3    3    0  502  0.56888518080E+02  0.15911613019E+04  0.11784521277E+04  0.19808533539E+04  0.25500000920E-02 0.  1.
</event>
<event>
 5   0  0.1856107E-08  0.3698944E+04  0.7818609E-02  0.8068196E-01
       -2   -1    0    0    0  501  0.00000000000E+00  0.00000000000E+00  0.18702952884E+04  0.18702952884E+04  0.25500000920E-02 0.  1.
        2   -1    0    0  501    0  0.00000000000E+00  0.00000000000E+00 -0.18288805506E+04  0.18288805506E+04  0.25500000920E-02 0. -1.
    10030    2    1    2    0    0  0.00000000000E+00  0.00000000000E+00  0.41414737836E+02  0.36991758391E+04  0.36989439990E+04 0.  0.
        2    1    3    3  502    0  0.14840176615E+04 -0.10085910962E+04  0.46904591607E+03  0.18546073682E+04  0.25500000920E-02 0.  1.
       -2    1    3    3    0  502 -0.14840176615E+04  0.10085910962E+04 -0.42763117823E+03  0.18445684708E+04  0.25500000920E-02 0. -1.
</event>
<event>
 5   0  0.1825308E-08  0.3701379E+04  0.7818609E-02  0.8067656E-01
        2   -1    0    0  501    0  0.00000000000E+00  0.00000000000E+00  0.24128050802E+04  0.24128050802E+04  0.25500000920E-02 0. -1.
       -2   -1    0    0    0  501  0.00000000000E+00  0.00000000000E+00 -0.14195308071E+04  0.14195308071E+04  0.25500000920E-02 0.  1.
    10030    2    1    2    0    0  0.00000000000E+00  0.00000000000E+00  0.99327427308E+03  0.38323358874E+04  0.37013787394E+04 0.  0.
        4    1    3    3  502    0 -0.73045950075E+03 -0.11953741198E+04 -0.75551402680E+03  0.15916323150E+04  0.12699999809E+01 0. -1.
       -4    1    3    3    0  502  0.73045950075E+03  0.11953741198E+04  0.17487882999E+04  0.22407035724E+04  0.12699999809E+01 0.  1.
</event>
<event>
 5   0  0.1856107E-08  0.3700965E+04  0.7818609E-02  0.8067748E-01
       -2   -1    0    0    0  501  0.00000000000E+00  0.00000000000E+00  0.23602131502E+04  0.23602131502E+04  0.25500000920E-02 0. -1.
        2   -1    0    0  501    0  0.00000000000E+00  0.00000000000E+00 -0.14508373342E+04  0.14508373342E+04  0.25500000920E-02 0.  1.
    10030    2    1    2    0    0  0.00000000000E+00  0.00000000000E+00  0.90937581595E+03  0.38110504844E+04  0.37009649310E+04 0.  0.
        2    1    3    3  502    0  0.12418462624E+03 -0.16166470359E+04  0.13730195806E+04  0.21246534373E+04  0.25500000920E-02 0. -1.
       -2    1    3    3    0  502 -0.12418462624E+03  0.16166470359E+04 -0.46364376463E+03  0.16863970471E+04  0.25500000920E-02 0.  1.
</event>
<event>
 5   0  0.1856107E-08  0.3700398E+04  0.7818609E-02  0.8067874E-01
       -2   -1    0    0    0  501  0.00000000000E+00  0.00000000000E+00  0.19271131038E+04  0.19271131038E+04  0.25500000920E-02 0. -1.
        2   -1    0    0  501    0  0.00000000000E+00  0.00000000000E+00 -0.17763542334E+04  0.17763542334E+04  0.25500000920E-02 0.  1.
    10030    2    1    2    0    0  0.00000000000E+00  0.00000000000E+00  0.15075887036E+03  0.37034673371E+04  0.37003975571E+04 0.  0.
        2    1    3    3  502    0 -0.69313815559E+03  0.15979991492E+04  0.69975091106E+03  0.18771502660E+04  0.25500000920E-02 0. -1.
       -2    1    3    3    0  502  0.69313815559E+03 -0.15979991492E+04 -0.54899204070E+03  0.18263170711E+04  0.25500000920E-02 0.  1.
</event>
<event>
 5   0  0.1757996E-08  0.3700496E+04  0.7818609E-02  0.8067852E-01
       -2   -1    0    0    0  501  0.00000000000E+00  0.00000000000E+00  0.15208198957E+04  0.15208198957E+04  0.25500000920E-02 0. -1.
        2   -1    0    0  501    0  0.00000000000E+00  0.00000000000E+00 -0.22510342290E+04  0.22510342290E+04  0.25500000920E-02 0.  1.
    10030    2    1    2    0    0  0.00000000000E+00  0.00000000000E+00 -0.73021433329E+03  0.37718541247E+04  0.37004959891E+04 0.  0.
        3    1    3    3  502    0 -0.49247587410E+03  0.11405882083E+04  0.10324428835E+04  0.16153675326E+04  0.10100000352E+00 0. -1.
       -3    1    3    3    0  502  0.49247587410E+03 -0.11405882083E+04 -0.17626572168E+04  0.21564865920E+04  0.10100000352E+00 0.  1.
</event>
<event>
 5   0  0.5714125E-09  0.3683183E+04  0.7818609E-02  0.8071699E-01
        1   -1    0    0  501    0  0.00000000000E+00  0.00000000000E+00  0.19560236336E+04  0.19560236336E+04  0.50400001928E-02 0.  1.
       -1   -1    0    0    0  501  0.00000000000E+00  0.00000000000E+00 -0.17338543235E+04  0.17338543235E+04  0.50400001928E-02 0. -1.
    10030    2    1    2    0    0  0.00000000000E+00  0.00000000000E+00  0.22216931011E+03  0.36898779570E+04  0.36831834241E+04 0.  0.
        4    1    3    3  502    0 -0.12862992052E+04 -0.11788888496E+04 -0.47914989741E+03  0.18094006748E+04  0.12699999809E+01 0. -1.
       -4    1    3    3    0  502  0.12862992052E+04  0.11788888496E+04  0.70131920752E+03  0.18804772822E+04  0.12699999809E+01 0.  1.
</event>
<event>
 5   0  0.5714125E-09  0.3699556E+04  0.7818609E-02  0.8068060E-01
       -1   -1    0    0    0  501  0.00000000000E+00  0.00000000000E+00  0.22556569888E+04  0.22556569888E+04  0.50400001928E-02 0.  1.
        1   -1    0    0  501    0  0.00000000000E+00  0.00000000000E+00 -0.15169319210E+04  0.15169319210E+04  0.50400001928E-02 0. -1.
    10030    2    1    2    0    0  0.00000000000E+00  0.00000000000E+00  0.73872506779E+03  0.37725889097E+04  0.36995556971E+04 0.  0.
        1    1    3    3  502    0 -0.14116945186E+04 -0.11912949841E+04  0.46934364005E+03  0.19058721378E+04  0.50400001928E-02 0. -1.
       -1    1    3    3    0  502  0.14116945186E+04  0.11912949841E+04  0.26938142774E+03  0.18667167720E+04  0.50400001928E-02 0.  1.
</event>
<event>
 5   0  0.5714125E-09  0.3700051E+04  0.7818609E-02  0.8067951E-01
        1   -1    0    0  501    0  0.00000000000E+00  0.00000000000E+00  0.11076225574E+04  0.11076225574E+04  0.50400001928E-02 0. -1.
       -1   -1    0    0    0  501  0.00000000000E+00  0.00000000000E+00 -0.30900362940E+04  0.30900362940E+04  0.50400001928E-02 0.  1.
    10030    2    1    2    0    0  0.00000000000E+00  0.00000000000E+00 -0.19824137365E+04  0.41976588514E+04  0.37000507578E+04 0.  0.
        3    1    3    3  502    0 -0.72978991648E+03  0.13565245415E+04  0.17120858724E+03  0.15498595241E+04  0.10100000352E+00 0. -1.
       -3    1    3    3    0  502  0.72978991648E+03 -0.13565245415E+04 -0.21536223238E+04  0.26477993273E+04  0.10100000352E+00 0.  1.
</event>
<event>
 5   0  0.5714125E-09  0.3696313E+04  0.7818609E-02  0.8068780E-01
        1   -1    0    0  501    0  0.00000000000E+00  0.00000000000E+00  0.20570858560E+04  0.20570858561E+04  0.50400001928E-02 0. -1.
       -1   -1    0    0    0  501  0.00000000000E+00  0.00000000000E+00 -0.16604467900E+04  0.16604467900E+04  0.50400001928E-02 0.  1.
    10030    2    1    2    0    0  0.00000000000E+00  0.00000000000E+00  0.39663906604E+03  0.37175326461E+04  0.36963125444E+04 0.  0.
        2    1    3    3  502    0  0.23510037329E+03 -0.14929010050E+04  0.12682198644E+04  0.19729184526E+04  0.25500000920E-02 0.  1.
       -2    1    3    3    0  502 -0.23510037329E+03  0.14929010050E+04 -0.87158079831E+03  0.17446141935E+04  0.25500000920E-02 0. -1.
</event>
<event>
 5   0  0.5714125E-09  0.3705865E+04  0.7818609E-02  0.8066663E-01
        1   -1    0    0  501    0  0.00000000000E+00  0.00000000000E+00  0.24922418139E+04  0.24922418139E+04  0.50400001928E-02 0.  1.
       -1   -1    0    0    0  501  0.00000000000E+00  0.00000000000E+00 -0.13776183490E+04  0.13776183491E+04  0.50400001928E-02 0. -1.
    10030    2    1    2    0    0  0.00000000000E+00  0.00000000000E+00  0.11146234648E+04  0.38698601629E+04  0.37058645701E+04 0.  0.
        3    1    3    3  502    0 -0.10860101696E+04  0.98954514195E+03 -0.62169584772E+03  0.15953442932E+04  0.10100000352E+00 0. -1.
       -3    1    3    3    0  502  0.10860101696E+04 -0.98954514195E+03  0.17363193125E+04  0.22745158697E+04  0.10100000352E+00 0.  1.
</event>
<event>
 5   0  0.1825308E-08  0.3701315E+04  0.7818609E-02  0.8067670E-01
       -2   -1    0    0    0  501  0.00000000000E+00  0.00000000000E+00  0.29297486948E+04  0.29297486948E+04  0.25500000920E-02 0.  1.
        2   -1    0    0  501    0  0.00000000000E+00  0.00000000000E+00 -0.11690195834E+04  0.11690195834E+04  0.25500000920E-02 0. -1.
    10030    2    1    2    0    0  0.00000000000E+00  0.00000000000E+00  0.17607291114E+04  0.40987682782E+04  0.37013152249E+04 0.  0.
        4    1    3    3  502    0 -0.34678369372E+03 -0.12875895294E+04 -0.54070688019E+03  0.14389271245E+04  0.12699999809E+01 0. -1.
       -4    1    3    3    0  502  0.34678369372E+03  0.12875895294E+04  0.23014359916E+04  0.26598411537E+04  0.12699999809E+01 0.  1.
</event>
<event>
 5   0  0.1825308E-08  0.3708864E+04  0.7818609E-02  0.8066000E-01
       -2   -1    0    0    0  501  0.00000000000E+00  0.00000000000E+00  0.20970248638E+04  0.20970248638E+04  0.25500000920E-02 0.  1.
        2   -1    0    0  501    0  0.00000000000E+00  0.00000000000E+00 -0.16399032096E+04  0.16399032096E+04  0.25500000920E-02 0. -1.
    10030    2    1    2    0    0  0.00000000000E+00  0.00000000000E+00  0.45712165424E+03  0.37369280734E+04  0.37088638718E+04 0.  0.
        4    1    3    3  502    0  0.58874348797E+03  0.15406943911E+04 -0.62553143473E+03  0.17639867602E+04  0.12699999809E+01 0.  1.
       -4    1    3    3    0  502 -0.58874348797E+03 -0.15406943911E+04  0.10826530890E+04  0.19729413132E+04  0.12699999809E+01 0. -1.
</event>
<event>
 5   0  0.1856107E-08  0.3698994E+04  0.7818609E-02  0.8068185E-01
        2   -1    0    0  501    0  0.00000000000E+00  0.00000000000E+00  0.19935069493E+04  0.19935069493E+04  0.25500000920E-02 0. -1.
       -2   -1    0    0    0  501  0.00000000000E+00  0.00000000000E+00 -0.17158904224E+04  0.17158904224E+04  0.25500000920E-02 0.  1.
    10030    2    1    2    0    0  0.00000000000E+00  0.00000000000E+00  0.27761652694E+03  0.37093973717E+04  0.36989941775E+04 0.  0.
        2    1    3    3  502    0  0.81465576328E+03 -0.10842087433E+04 -0.11222924208E+04  0.17603161334E+04  0.25500000920E-02 0.  1.
       -2    1    3    3    0  502 -0.81465576328E+03  0.10842087433E+04  0.13999089477E+04  0.19490812383E+04  0.25500000920E-02 0. -1.
</event>
<event>
 5   0  0.5714125E-09  0.3699586E+04  0.7818609E-02  0.8068053E-01
        3   -1    0    0  501    0  0.00000000000E+00  0.00000000000E+00  0.24532867414E+04  0.24532867435E+04  0.10100000352E+00 0. -1.
       -3   -1    0    0    0  501  0.00000000000E+00  0.00000000000E+00 -0.13947554248E+04  0.13947554285E+04  0.10100000352E+00 0.  1.
    10030    2    1    2    0    0  0.00000000000E+00  0.00000000000E+00  0.10585313166E+04  0.38480421720E+04  0.36995864646E+04 0.  0.
        1    1    3    3  502    0  0.29565993143E+03  0.74619165507E+02  0.24269648540E+04  0.24460460374E+04  0.50400001928E-02 0. -1.
       -1    1    3    3    0  502 -0.29565993143E+03 -0.74619165507E+02 -0.13684335374E+04  0.14019961345E+04  0.50400001928E-02 0.  1.
</event>
<event>
 5   0  0.5714125E-09  0.3698106E+04  0.7818609E-02  0.8068382E-01
        1   -1    0    0  501    0  0.00000000000E+00  0.00000000000E+00  0.25030836043E+04  0.25030836044E+04  0.50400001928E-02 0.  1.
       -1   -1    0    0    0  501  0.00000000000E+00  0.00000000000E+00 -0.13659140653E+04  0.13659140653E+04  0.50400001928E-02 0. -1.
    10030    2    1    2    0    0  0.00000000000E+00  0.00000000000E+00  0.11371695391E+04  0.38689976696E+04  0.36981060568E+04 0.  0.
        4    1    3    3  502    0  0.22477920547E+03 -0.96217813761E+03  0.22037161890E+04  0.24150940177E+04  0.12699999809E+01 0.  1.
       -4    1    3    3    0  502 -0.22477920547E+03  0.96217813761E+03 -0.10665466499E+04  0.14539036519E+04  0.12699999809E+01 0. -1.
</event>
<event>
 5   0  0.5714125E-09  0.3699766E+04  0.7818609E-02  0.8068014E-01
        1   -1    0    0  501    0  0.00000000000E+00  0.00000000000E+00  0.22362249166E+04  0.22362249166E+04  0.50400001928E-02 0. -1.
       -1   -1    0    0    0  501  0.00000000000E+00  0.00000000000E+00 -0.15302875809E+04  0.15302875809E+04  0.50400001928E-02 0.  1.
    10030    2    1    2    0    0  0.00000000000E+00  0.00000000000E+00  0.70593733568E+03  0.37665124975E+04  0.36997660564E+04 0.  0.
        3    1    3    3  502    0  0.17355649118E+04  0.63142985939E+03  0.24533534203E+03  0.18630831089E+04  0.10100000352E+00 0. -1.
       -3    1    3    3    0  502 -0.17355649118E+04 -0.63142985939E+03  0.46060199364E+03  0.19034293886E+04  0.10100000352E+00 0.  1.
</event>
<event>
 5   0  0.5714125E-09  0.3703086E+04  0.7818609E-02  0.8067278E-01
        1   -1    0    0  501    0  0.00000000000E+00  0.00000000000E+00  0.19128248547E+04  0.19128248547E+04  0.50400001928E-02 0.  1.
       -1   -1    0    0    0  501  0.00000000000E+00  0.00000000000E+00 -0.17922240295E+04  0.17922240296E+04  0.50400001928E-02 0. -1.
    10030    2    1    2    0    0  0.00000000000E+00  0.00000000000E+00  0.12060082517E+03  0.37050488843E+04  0.37030855615E+04 0.  0.
        4    1    3    3  502    0  0.11216019897E+04 -0.14660155992E+04  0.20534725543E+03  0.18572457750E+04  0.12699999809E+01 0.  1.
       -4    1    3    3    0  502 -0.11216019897E+04  0.14660155992E+04 -0.84746430259E+02  0.18478031093E+04  0.12699999809E+01 0. -1.
</event>
<event>
 5   0  0.5714125E-09  0.3700738E+04  0.7818609E-02  0.8067798E-01
       -1   -1    0    0    0  501  0.00000000000E+00  0.00000000000E+00  0.11371392371E+04  0.11371392372E+04  0.50400001928E-02 0.  1.
        1   -1    0    0  501    0  0.00000000000E+00  0.00000000000E+00 -0.30109459163E+04  0.30109459163E+04  0.50400001928E-02 0. -1.
    10030    2    1    2    0    0  0.00000000000E+00  0.00000000000E+00 -0.18738066791E+04  0.41480851535E+04  0.37007376251E+04 0.  0.
        4    1    3    3  502    0  0.10197101645E+04  0.71189980201E+03 -0.24726542060E+04  0.27677844177E+04  0.12699999809E+01 0. -1.
       -4    1    3    3    0  502 -0.10197101645E+04 -0.71189980201E+03  0.59884752683E+03  0.13803007357E+04  0.12699999809E+01 0.  1.
</event>
<event>
 5   0  0.1725865E-08  0.3696980E+04  0.7818609E-02  0.8068631E-01
        2   -1    0    0  501    0  0.00000000000E+00  0.00000000000E+00  0.22801924931E+04  0.22801924931E+04  0.25500000920E-02 0. -1.
       -2   -1    0    0    0  501  0.00000000000E+00  0.00000000000E+00 -0.14985206466E+04  0.14985206466E+04  0.25500000920E-02 0.  1.
    10030    2    1    2    0    0  0.00000000000E+00  0.00000000000E+00  0.78167184657E+03  0.37787131397E+04  0.36969801347E+04 0.  0.
        1    1    3    3  502    0 -0.11289697085E+04  0.19080600546E+03 -0.10924312682E+04  0.15825250741E+04  0.50400001928E-02 0.  1.
       -1    1    3    3    0  502  0.11289697085E+04 -0.19080600546E+03  0.18741031148E+04  0.21961880656E+04  0.50400001928E-02 0. -1.
</event>
<event>
 5   0  0.1856107E-08  0.3701546E+04  0.7818609E-02  0.8067619E-01
       -2   -1    0    0    0  501  0.00000000000E+00  0.00000000000E+00  0.17339494225E+04  0.17339494225E+04  0.25500000920E-02 0. -1.
        2   -1    0    0  501    0  0.00000000000E+00  0.00000000000E+00 -0.19754670438E+04  0.19754670438E+04  0.25500000920E-02 0.  1.
    10030    2    1    2    0    0  0.00000000000E+00  0.00000000000E+00 -0.24151762126E+03  0.37094164663E+04  0.37015455906E+04 0.  0.
        2    1    3    3  502    0 -0.81119613371E+02 -0.48667811661E+03 -0.19083466479E+04  0.19710968798E+04  0.25500000920E-02 0.  1.
       -2    1    3    3    0  502  0.81119613371E+02  0.48667811661E+03  0.16668290266E+04  0.17383195865E+04  0.25500000920E-02 0. -1.
</event>
<event>
 5   0  0.1757996E-08  0.3699389E+04  0.7818609E-02  0.8068097E-01
        2   -1    0    0  501    0  0.00000000000E+00  0.00000000000E+00  0.13571486011E+04  0.13571486011E+04  0.25500000920E-02 0. -1.
       -2   -1    0    0    0  501  0.00000000000E+00  0.00000000000E+00 -0.25209988669E+04  0.25209988669E+04  0.25500000920E-02 0.  1.
    10030    2    1    2    0    0  0.00000000000E+00  0.00000000000E+00 -0.11638502658E+04  0.38781474680E+04  0.36993891851E+04 0.  0.
        3    1    3    3  502    0 -0.47108279819E+03  0.87133058859E+03  0.10556832039E+04  0.14476197824E+04  0.10100000352E+00 0. -1.
       -3    1    3    3    0  502  0.47108279819E+03 -0.87133058859E+03 -0.22195334697E+04  0.24305276856E+04  0.10100000352E+00 0.  1.
</event>
<event>
 5   0  0.1740290E-08  0.3700653E+04  0.7818609E-02  0.8067817E-01
       -2   -1    0    0    0  501  0.00000000000E+00  0.00000000000E+00  0.16007184100E+04  0.16007184100E+04  0.25500000920E-02 0.  1.
        2   -1    0    0  501    0  0.00000000000E+00  0.00000000000E+00 -0.21388570719E+04  0.21388570719E+04  0.25500000920E-02 0. -1.
    10030    2    1    2    0    0  0.00000000000E+00  0.00000000000E+00 -0.53813866192E+03  0.37395754819E+04  0.37006528567E+04 0.  0.
        5    1    3    3  502    0 -0.17494605204E+04  0.49106118483E+03  0.83791844595E+02  0.18190097204E+04  0.46999998093E+01 0.  1.
       -5    1    3    3    0  502  0.17494605204E+04 -0.49106118483E+03 -0.62193050652E+03  0.19205657616E+04  0.46999998093E+01 0. -1.
</event>
<event>
 5   0  0.5714125E-09  0.3699809E+04  0.7818609E-02  0.8068004E-01
       -1   -1    0    0    0  501  0.00000000000E+00  0.00000000000E+00  0.18233283292E+04  0.18233283292E+04  0.50400001928E-02 0. -1.
        1   -1    0    0  501    0  0.00000000000E+00  0.00000000000E+00 -0.18768678858E+04  0.18768678858E+04  0.50400001928E-02 0.  1.
    10030    2    1    2    0    0  0.00000000000E+00  0.00000000000E+00 -0.53539556637E+02  0.37001962150E+04  0.36998088525E+04 0.  0.
        5    1    3    3  502    0  0.14026653012E+04 -0.69909971226E+03 -0.10096818856E+04  0.18643202393E+04  0.46999998093E+01 0.  1.
       -5    1    3    3    0  502 -0.14026653012E+04  0.69909971226E+03  0.95614232892E+03  0.18358759756E+04  0.46999998093E+01 0. -1.
</event>
<event>
 5   0  0.5714125E-09  0.3698553E+04  0.7818609E-02  0.8068283E-01
       -1   -1    0    0    0  501  0.00000000000E+00  0.00000000000E+00  0.18199012637E+04  0.18199012637E+04  0.50400001928E-02 0. -1.
        1   -1    0    0  501    0  0.00000000000E+00  0.00000000000E+00 -0.18791261919E+04  0.18791261919E+04  0.50400001928E-02 0.  1.
    10030    2    1    2    0    0  0.00000000000E+00  0.00000000000E+00 -0.59224928147E+02  0.36990274556E+04  0.36985533017E+04 0.  0.
        2    1    3    3  502    0 -0.80930884941E+03  0.87980570297E+03 -0.14407452402E+04  0.18721072982E+04  0.25500000920E-02 0.  1.
       -2    1    3    3    0  502  0.80930884941E+03 -0.87980570297E+03  0.13815203121E+04  0.18269201574E+04  0.25500000920E-02 0. -1.
</event>
<event>
 5   0  0.5714125E-09  0.3700745E+04  0.7818609E-02  0.8067797E-01
       -1   -1    0    0    0  501  0.00000000000E+00  0.00000000000E+00  0.20515858690E+04  0.20515858690E+04  0.50400001928E-02 0. -1.
        1   -1    0    0  501    0  0.00000000000E+00  0.00000000000E+00 -0.16688937119E+04  0.16688937119E+04  0.50400001928E-02 0.  1.
    10030    2    1    2    0    0  0.00000000000E+00  0.00000000000E+00  0.38269215709E+03  0.37204795809E+04  0.37007451985E+04 0.  0.
        5    1    3    3  502    0  0.12840432092E+04 -0.33849570017E+03 -0.11041333955E+04  0.17269855087E+04  0.46999998093E+01 0.  1.
       -5    1    3    3    0  502 -0.12840432092E+04  0.33849570017E+03  0.14868255526E+04  0.19934940722E+04  0.46999998093E+01 0. -1.
</event>
<event>
 5   0  0.1856107E-08  0.3700875E+04  0.7818609E-02  0.8067768E-01
        2   -1    0    0  501    0  0.00000000000E+00  0.00000000000E+00  0.19971818871E+04  0.19971818871E+04  0.25500000920E-02 0. -1.
       -2   -1    0    0    0  501  0.00000000000E+00  0.00000000000E+00 -0.17144748194E+04  0.17144748194E+04  0.25500000920E-02 0.  1.
    10030    2    1    2    0    0  0.00000000000E+00  0.00000000000E+00  0.28270706774E+03  0.37116567065E+04  0.37008745211E+04 0.  0.
        2    1    3    3  502    0 -0.64366891915E+03 -0.17170446201E+04  0.39020169730E+03  0.18747824592E+04  0.25500000920E-02 0.  1.
       -2    1    3    3    0  502  0.64366891915E+03  0.17170446201E+04 -0.10749462957E+03  0.18368742473E+04  0.25500000920E-02 0. -1.
</event>
<event>
 5   0  0.1725865E-08  0.3699066E+04  0.7818609E-02  0.8068169E-01
       -2   -1    0    0    0  501  0.00000000000E+00  0.00000000000E+00  0.12573769826E+04  0.12573769827E+04  0.25500000920E-02 0. -1.
        2   -1    0    0  501    0  0.00000000000E+00  0.00000000000E+00 -0.27205629213E+04  0.27205629213E+04  0.25500000920E-02 0.  1.
    10030    2    1    2    0    0  0.00000000000E+00  0.00000000000E+00 -0.14631859386E+04  0.39779399039E+04  0.36990664752E+04 0.  0.
        1    1    3    3  502    0  0.31581865508E+02  0.75121655234E+03 -0.25487954532E+04  0.26573825440E+04  0.50400001928E-02 0.  1.
       -1    1    3    3    0  502 -0.31581865508E+02 -0.75121655234E+03  0.10856095146E+04  0.13205573599E+04  0.50400001928E-02 0. -1.
</event>
<event>
 5   0  0.1725865E-08  0.3699600E+04  0.7818609E-02  0.8068051E-01
        2   -1    0    0  501    0  0.00000000000E+00  0.00000000000E+00  0.19693112168E+04  0.19693112168E+04  0.25500000920E-02 0. -1.
       -2   -1    0    0    0  501  0.00000000000E+00  0.00000000000E+00 -0.17375412674E+04  0.17375412674E+04  0.25500000920E-02 0.  1.
    10030    2    1    2    0    0  0.00000000000E+00  0.00000000000E+00  0.23176994939E+03  0.37068524843E+04  0.36995997122E+04 0.  0.
        1    1    3    3  502    0 -0.52621136402E+03  0.71587663825E+03  0.17415273140E+04  0.19550690899E+04  0.50400001928E-02 0. -1.
       -1    1    3    3    0  502  0.52621136402E+03 -0.71587663825E+03 -0.15097573646E+04  0.17517833944E+04  0.50400001928E-02 0.  1.
</event>
<event>
 5   0  0.1757996E-08  0.3700683E+04  0.7818609E-02  0.8067810E-01
       -2   -1    0    0    0  501  0.00000000000E+00  0.00000000000E+00  0.15866008048E+04  0.15866008048E+04  0.25500000920E-02 0.  1.
        2   -1    0    0  501    0  0.00000000000E+00  0.00000000000E+00 -0.21579238794E+04  0.21579238794E+04  0.25500000920E-02 0. -1.
    10030    2    1    2    0    0  0.00000000000E+00  0.00000000000E+00 -0.57132307454E+03  0.37445246842E+04  0.37006830525E+04 0.  0.
        3    1    3    3  502    0  0.31544725715E+03  0.12319779055E+04  0.10743176233E+04  0.16647627151E+04  0.10100000352E+00 0.  1.
       -3    1    3    3    0  502 -0.31544725715E+03 -0.12319779055E+04 -0.16456406978E+04  0.20797619691E+04  0.10100000352E+00 0. -1.
</event>
<event>
 5   0  0.5714125E-09  0.3702040E+04  0.7818609E-02  0.8067510E-01
       -1   -1    0    0    0  501  0.00000000000E+00  0.00000000000E+00  0.18839822206E+04  0.18839822206E+04  0.50400001928E-02 0.  1.
        1   -1    0    0  501    0  0.00000000000E+00  0.00000000000E+00 -0.18186344377E+04  0.18186344377E+04  0.50400001928E-02 0. -1.
    10030    2    1    2    0    0  0.00000000000E+00  0.00000000000E+00  0.65347782902E+02  0.37026166583E+04  0.37020399493E+04 0.  0.
        4    1    3    3  502    0  0.17969952603E+04  0.25670004118E+03  0.39492702527E+03  0.18577017642E+04  0.12699999809E+01 0.  1.
       -4    1    3    3    0  502 -0.17969952603E+04 -0.25670004118E+03 -0.32957924237E+03  0.18449148941E+04  0.12699999809E+01 0. -1.
</event>
<event>
 5   0  0.1757996E-08  0.3697818E+04  0.7818609E-02  0.8068445E-01
       -2   -1    0    0    0  501  0.00000000000E+00  0.00000000000E+00  0.16530486990E+04  0.16530486990E+04  0.25500000920E-02 0.  1.
        2   -1    0    0  501    0  0.00000000000E+00  0.00000000000E+00 -0.20679761706E+04  0.20679761706E+04  0.25500000920E-02 0. -1.
    10030    2    1    2    0    0  0.00000000000E+00  0.00000000000E+00 -0.41492747154E+03  0.37210248696E+04  0.36978184479E+04 0.  0.
        3    1    3    3  502    0  0.12041886830E+04  0.79028873301E+03  0.95905186276E+03  0.17304355381E+04  0.10100000352E+00 0.  1.
       -3    1    3    3    0  502 -0.12041886830E+04 -0.79028873301E+03 -0.13739793343E+04  0.19905893316E+04  0.10100000352E+00 0. -1.
</event>
<event>
 5   0  0.5714125E-09  0.3696397E+04  0.7818609E-02  0.8068761E-01
        1   -1    0    0  501    0  0.00000000000E+00  0.00000000000E+00  0.22507066460E+04  0.22507066460E+04  0.50400001928E-02 0. -1.
       -1   -1    0    0    0  501  0.00000000000E+00  0.00000000000E+00 -0.15176738472E+04  0.15176738472E+04  0.50400001928E-02 0.  1.
    10030    2    1    2    0    0  0.00000000000E+00  0.00000000000E+00  0.73303279881E+03  0.37683804933E+04  0.36963974973E+04 0.  0.
        2    1    3    3  502    0 -0.36560725992E+03  0.14374093612E+04  0.14907257720E+04  0.21028736690E+04  0.25500000920E-02 0. -1.
       -2    1    3    3    0  502  0.36560725992E+03 -0.14374093612E+04 -0.75769297322E+03  0.16655068243E+04  0.25500000920E-02 0.  1.
</event>
<event>
 5   0  0.1740290E-08  0.3698303E+04  0.7818609E-02  0.8068338E-01
        2   -1    0    0  501    0  0.00000000000E+00  0.00000000000E+00  0.13774104037E+04  0.13774104037E+04  0.25500000920E-02 0.  1.
       -2   -1    0    0    0  501  0.00000000000E+00  0.00000000000E+00 -0.24824559182E+04  0.24824559182E+04  0.25500000920E-02 0. -1.
    10030    2    1    2    0    0  0.00000000000E+00  0.00000000000E+00 -0.11050455146E+04  0.38598663219E+04  0.36983026423E+04 0.  0.
        5    1    3    3  502    0  0.17269411881E+04  0.53431118337E+03 -0.95878908780E+03  0.20462436103E+04  0.46999998093E+01 0.  1.
       -5    1    3    3    0  502 -0.17269411881E+04 -0.53431118337E+03 -0.14625642678E+03  0.18136227116E+04  0.46999998093E+01 0. -1.
</event>
<event>
 5   0  0.1757996E-08  0.3698116E+04  0.7818609E-02  0.8068379E-01
       -2   -1    0    0    0  501  0.00000000000E+00  0.00000000000E+00  0.18396178683E+04  0.18396178683E+04  0.25500000920E-02 0.  1.
        2   -1    0    0  501    0  0.00000000000E+00  0.00000000000E+00 -0.18585468064E+04  0.18585468064E+04  0.25500000920E-02 0. -1.
    10030    2    1    2    0    0  0.00000000000E+00  0.00000000000E+00 -0.18928938094E+02  0.36981646746E+04  0.36981162307E+04 0.  0.
        3    1    3    3  502    0 -0.10533509302E+04  0.63032900183E+03  0.13733598757E+04  0.18420043950E+04  0.10100000352E+00 0.  1.
       -3    1    3    3    0  502  0.10533509302E+04 -0.63032900183E+03 -0.13922888138E+04  0.18561602797E+04  0.10100000352E+00 0. -1.
</event>
<event>
 5   0  0.5714125E-09  0.3698834E+04  0.7818609E-02  0.8068220E-01
        1   -1    0    0  501    0  0.00000000000E+00  0.00000000000E+00  0.16854845835E+04  0.16854845835E+04  0.50400001928E-02 0.  1.
       -1   -1    0    0    0  501  0.00000000000E+00  0.00000000000E+00 -0.20292935017E+04  0.20292935017E+04  0.50400001928E-02 0. -1.
    10030    2    1    2    0    0  0.00000000000E+00  0.00000000000E+00 -0.34380891820E+03  0.37147780851E+04  0.36988338229E+04 0.  0.
        2    1    3    3  502    0 -0.99345643607E+03  0.11205097206E+04  0.91805955734E+03  0.17565110518E+04  0.25500000920E-02 0.  1.
       -2    1    3    3    0  502  0.99345643607E+03 -0.11205097206E+04 -0.12618684755E+04  0.19582670333E+04  0.25500000920E-02 0. -1.
</event>
<event>
 5   0  0.5714125E-09  0.3715182E+04  0.7818609E-02  0.8064606E-01
       -1   -1    0    0    0  501  0.00000000000E+00  0.00000000000E+00  0.15889703628E+04  0.15889703628E+04  0.50400001928E-02 0. -1.
        1   -1    0    0  501    0  0.00000000000E+00  0.00000000000E+00 -0.21716228536E+04  0.21716228536E+04  0.50400001928E-02 0.  1.
    10030    2    1    2    0    0  0.00000000000E+00  0.00000000000E+00 -0.58265249079E+03  0.37605932164E+04  0.37151820163E+04 0.  0.
        2    1    3    3  502    0  0.12703896892E+04 -0.60997339634E+03  0.93370919556E+03  0.16904941196E+04  0.25500000920E-02 0. -1.
       -2    1    3    3    0  502 -0.12703896892E+04  0.60997339634E+03 -0.15163616864E+04  0.20700990968E+04  0.25500000920E-02 0.  1.
</event>
<event>
 5   0  0.5714125E-09  0.3696000E+04  0.7818609E-02  0.8068849E-01
        1   -1    0    0  501    0  0.00000000000E+00  0.00000000000E+00  0.14664736277E+04  0.14664736277E+04  0.50400001928E-02 0. -1.
       -1   -1    0    0    0  501  0.00000000000E+00  0.00000000000E+00 -0.23287868399E+04  0.23287868399E+04  0.50400001928E-02 0.  1.
    10030    2    1    2    0    0  0.00000000000E+00  0.00000000000E+00 -0.86231321225E+03  0.37952604676E+04  0.36960002626E+04 0.  0.
        5    1    3    3  502    0 -0.85057511827E+03  0.14782033431E+04  0.29965858562E+03  0.17315832389E+04  0.46999998093E+01 0. -1.
       -5    1    3    3    0  502  0.85057511827E+03 -0.14782033431E+04 -0.11619717979E+04  0.20636772287E+04  0.46999998093E+01 0.  1.
</event>
<event>
 5   0  0.1856107E-08  0.3698097E+04  0.7818609E-02  0.8068384E-01
       -2   -1    0    0    0  501  0.00000000000E+00  0.00000000000E+00  0.14510509010E+04  0.14510509010E+04  0.25500000920E-02 0. -1.
        2   -1    0    0  501    0  0.00000000000E+00  0.00000000000E+00 -0.23562100956E+04  0.23562100956E+04  0.25500000920E-02 0.  1.
    10030    2    1    2    0    0  0.00000000000E+00  0.00000000000E+00 -0.90515919459E+03  0.38072609965E+04  0.36980972307E+04 0.  0.
        2    1    3    3  502    0 -0.60844862961E+03 -0.46631264037E+03  0.12797442195E+04  0.14917782948E+04  0.25500000920E-02 0. -1.
       -2    1    3    3    0  502  0.60844862961E+03  0.46631264037E+03 -0.21849034141E+04  0.23154827018E+04  0.25500000920E-02 0.  1.
</event>
<event>
 5   0  0.1856107E-08  0.3699499E+04  0.7818609E-02  0.8068073E-01
        2   -1    0    0  501    0  0.00000000000E+00  0.00000000000E+00  0.32296939799E+04  0.32296939799E+04  0.25500000920E-02 0.  1.
       -2   -1    0    0    0  501  0.00000000000E+00  0.00000000000E+00 -0.10594107115E+04  0.10594107115E+04  0.25500000920E-02 0. -1.
    10030    2    1    2    0    0  0.00000000000E+00  0.00000000000E+00  0.21702832684E+04  0.42891046913E+04  0.36994985590E+04 0.  0.
        2    1    3    3  502    0  0.64635113672E+03 -0.58382688806E+03 -0.80678891639E+03  0.11872371215E+04  0.25500000920E-02 0. -1.
       -2    1    3    3    0  502 -0.64635113672E+03  0.58382688806E+03  0.29770721848E+04  0.31018675698E+04  0.25500000920E-02 0.  1.
</event>
<event>
 5   0  0.5714125E-09  0.3703565E+04  0.7818609E-02  0.8067172E-01
       -1   -1    0    0    0  501  0.00000000000E+00  0.00000000000E+00  0.16426170349E+04  0.16426170349E+04  0.50400001928E-02 0. -1.
        1   -1    0    0  501    0  0.00000000000E+00  0.00000000000E+00 -0.20875819869E+04  0.20875819869E+04  0.50400001928E-02 0.  1.
    10030    2    1    2    0    0  0.00000000000E+00  0.00000000000E+00 -0.44496495197E+03  0.37301990218E+04  0.37035646253E+04 0.  0.
        3    1    3    3  502    0 -0.16385727633E+04 -0.79438736744E+03  0.11627803522E+03  0.18246897221E+04  0.10100000352E+00 0. -1.
       -3    1    3    3    0  502  0.16385727633E+04  0.79438736744E+03 -0.56124298719E+03  0.19055092997E+04  0.10100000352E+00 0.  1.
</event>
<event>
 5   0  0.1825308E-08  0.3699679E+04  0.7818609E-02  0.8068033E-01
       -2   -1    0    0    0  501  0.00000000000E+00  0.00000000000E+00  0.15916034697E+04  0.15916034697E+04  0.25500000920E-02 0.  1.
        2   -1    0    0  501    0  0.00000000000E+00  0.00000000000E+00 -0.21499745022E+04  0.21499745022E+04  0.25500000920E-02 0. -1.
    10030    2    1    2    0    0  0.00000000000E+00  0.00000000000E+00 -0.55837103254E+03  0.37415779719E+04  0.36996793794E+04 0.  0.
        4    1    3    3  502    0 -0.63061529485E+03 -0.12182556485E+04  0.97586944516E+03  0.16834919846E+04  0.12699999809E+01 0.  1.
       -4    1    3    3    0  502  0.63061529485E+03  0.12182556485E+04 -0.15342404777E+04  0.20580859874E+04  0.12699999809E+01 0. -1.
</event>
<event>
 5   0  0.5714125E-09  0.3696022E+04  0.7818609E-02  0.8068844E-01
       -1   -1    0    0    0  501  0.00000000000E+00  0.00000000000E+00  0.16326663791E+04  0.16326663791E+04  0.50400001928E-02 0.  1.
        1   -1    0    0  501    0  0.00000000000E+00  0.00000000000E+00 -0.20917594040E+04  0.20917594040E+04  0.50400001928E-02 0. -1.
    10030    2    1    2    0    0  0.00000000000E+00  0.00000000000E+00 -0.45909302494E+03  0.37244257831E+04  0.36960223225E+04 0.  0.
        1    1    3    3  502    0 -0.34839757473E+03 -0.52474285614E+03 -0.19802548714E+04  0.20780147475E+04  0.50400001928E-02 0. -1.
       -1    1    3    3    0  502  0.34839757473E+03  0.52474285614E+03  0.15211618464E+04  0.16464110356E+04  0.50400001928E-02 0.  1.
</event>
<event>
 5   0  0.1856107E-08  0.3695868E+04  0.7818609E-02  0.8068878E-01
       -2   -1    0    0    0  501  0.00000000000E+00  0.00000000000E+00  0.20220651377E+04  0.20220651377E+04  0.25500000920E-02 0.  1.
        2   -1    0    0  501    0  0.00000000000E+00  0.00000000000E+00 -0.16887985979E+04  0.16887985979E+04  0.25500000920E-02 0. -1.
    10030    2    1    2    0    0  0.00000000000E+00  0.00000000000E+00  0.33326653981E+03  0.37108637356E+04  0.36958683794E+04 0.  0.
        2    1    3    3  502    0  0.10345031570E+04 -0.14827620357E+04  0.55038909483E+03  0.18898963443E+04  0.25500000920E-02 0.  1.
       -2    1    3    3    0  502 -0.10345031570E+04  0.14827620357E+04 -0.21712255502E+03  0.18209673913E+04  0.25500000920E-02 0. -1.
</event>
<event>
 5   0  0.5714125E-09  0.3699525E+04  0.7818609E-02  0.8068067E-01
        1   -1    0    0  501    0  0.00000000000E+00  0.00000000000E+00  0.21858617946E+04  0.21858617946E+04  0.50400001928E-02 0.  1.
       -1   -1    0    0    0  501  0.00000000000E+00  0.00000000000E+00 -0.15653424364E+04  0.15653424364E+04  0.50400001928E-02 0. -1.
    10030    2    1    2    0    0  0.00000000000E+00  0.00000000000E+00  0.62051935813E+03  0.37512042310E+04  0.36995254978E+04 0.  0.
        5    1    3    3  502    0 -0.40014322975E+03 -0.19917746990E+03  0.21302744304E+04  0.21766666046E+04  0.46999998093E+01 0.  1.
       -5    1    3    3    0  502  0.40014322975E+03  0.19917746990E+03 -0.15097550723E+04  0.15745376264E+04  0.46999998093E+01 0. -1.
</event>
<event>
 5   0  0.1725865E-08  0.3700295E+04  0.7818609E-02  0.8067896E-01
        2   -1    0    0  501    0  0.00000000000E+00  0.00000000000E+00  0.18967810469E+04  0.18967810469E+04  0.25500000920E-02 0. -1.
       -2   -1    0    0    0  501  0.00000000000E+00  0.00000000000E+00 -0.18046604092E+04  0.18046604092E+04  0.25500000920E-02 0.  1.
    10030    2    1    2    0    0  0.00000000000E+00  0.00000000000E+00  0.92120637775E+02  0.37014414561E+04  0.37002949398E+04 0.  0.
        1    1    3    3  502    0  0.15150258978E+04  0.39327825728E+03  0.10328113001E+04  0.18752787633E+04  0.50400001928E-02 0. -1.
       -1    1    3    3    0  502 -0.15150258978E+04 -0.39327825728E+03 -0.94069066228E+03  0.18261626928E+04  0.50400001928E-02 0.  1.
</event>
<event>
 5   0  0.1740290E-08  0.3701158E+04  0.7818609E-02  0.8067705E-01
        2   -1    0    0  501    0  0.00000000000E+00  0.00000000000E+00  0.13104528492E+04  0.13104528492E+04  0.25500000920E-02 0.  1.
       -2   -1    0    0    0  501  0.00000000000E+00  0.00000000000E+00 -0.26133276996E+04  0.26133276996E+04  0.25500000920E-02 0. -1.
    10030    2    1    2    0    0  0.00000000000E+00  0.00000000000E+00 -0.13028748504E+04  0.39237805488E+04  0.37011580511E+04 0.  0.
        5    1    3    3  502    0  0.10697722596E+04 -0.23115863023E+03  0.93055760377E+03  0.14365954698E+04  0.46999998093E+01 0.  1.
       -5    1    3    3    0  502 -0.10697722596E+04  0.23115863023E+03 -0.22334324542E+04  0.24871850790E+04  0.46999998093E+01 0. -1.
</event>
<event>
 5   0  0.5714125E-09  0.3698714E+04  0.7818609E-02  0.8068247E-01
        1   -1    0    0  501    0  0.00000000000E+00  0.00000000000E+00  0.25945014420E+04  0.25945014420E+04  0.50400001928E-02 0.  1.
       -1   -1    0    0    0  501  0.00000000000E+00  0.00000000000E+00 -0.13182193609E+04  0.13182193609E+04  0.50400001928E-02 0. -1.
    10030    2    1    2    0    0  0.00000000000E+00  0.00000000000E+00  0.12762820811E+04  0.39127208029E+04  0.36987143890E+04 0.  0.
        1    1    3    3  502    0 -0.11017451516E+04  0.11243615803E+04  0.16649139902E+04  0.22912812872E+04  0.50400001928E-02 0.  1.
       -1    1    3    3    0  502  0.11017451516E+04 -0.11243615803E+04 -0.38863190905E+03  0.16214395157E+04  0.50400001928E-02 0. -1.
</event>
<event>
 5   0  0.5714125E-09  0.3698887E+04  0.7818609E-02  0.8068209E-01
       -1   -1    0    0    0  501  0.00000000000E+00  0.00000000000E+00  0.16757933897E+04  0.16757933897E+04  0.50400001928E-02 0. -1.
        1   -1    0    0  501    0  0.00000000000E+00  0.00000000000E+00 -0.20410875002E+04  0.20410875002E+04  0.50400001928E-02 0.  1.
    10030    2    1    2    0    0  0.00000000000E+00  0.00000000000E+00 -0.36529411046E+03  0.37168808899E+04  0.36988868274E+04 0.  0.
        4    1    3    3  502    0  0.11885395143E+04 -0.76943602021E+03  0.10130074254E+04  0.17409318260E+04  0.12699999809E+01 0.  1.
       -4    1    3    3    0  502 -0.11885395143E+04  0.76943602021E+03 -0.13783015358E+04  0.19759490638E+04  0.12699999809E+01 0. -1.
</event>
<event>
 5   0  0.5714125E-09  0.3684089E+04  0.7818609E-02  0.8071497E-01
       -1   -1    0    0    0  501  0.00000000000E+00  0.00000000000E+00  0.13762581796E+04  0.13762581796E+04  0.50400001928E-02 0.  1.
        1   -1    0    0  501    0  0.00000000000E+00  0.00000000000E+00 -0.24654729693E+04  0.24654729693E+04  0.50400001928E-02 0. -1.
    10030    2    1    2    0    0  0.00000000000E+00  0.00000000000E+00 -0.10892147896E+04  0.38417311489E+04  0.36840886747E+04 0.  0.
        4    1    3    3  502    0 -0.73735344003E+03 -0.15361225611E+04 -0.12743839864E+04  0.21277731966E+04  0.12699999809E+01 0.  1.
       -4    1    3    3    0  502  0.73735344003E+03  0.15361225611E+04  0.18516919678E+03  0.17139579524E+04  0.12699999809E+01 0. -1.
</event>
<event>
 5   0  0.1856107E-08  0.3697518E+04  0.7818609E-02  0.8068512E-01
       -2   -1    0    0    0  501  0.00000000000E+00  0.00000000000E+00  0.25407940834E+04  0.25407940834E+04  0.25500000920E-02 0.  1.
        2   -1    0    0  501    0  0.00000000000E+00  0.00000000000E+00 -0.13452133439E+04  0.13452133439E+04  0.25500000920E-02 0. -1.
    10030    2    1    2    0    0  0.00000000000E+00  0.00000000000E+00  0.11955807395E+04  0.38860074273E+04  0.36975181434E+04 0.  0.
        2    1    3    3  502    0  0.10115413324E+04 -0.39222335981E+03 -0.97546853105E+03  0.14589701458E+04  0.25500000920E-02 0. -1.
       -2    1    3    3    0  502 -0.10115413324E+04  0.39222335981E+03  0.21710492705E+04  0.24270372816E+04  0.25500000920E-02 0.  1.
</event>
<event>
 5   0  0.1856107E-08  0.3712873E+04  0.7818609E-02  0.8065115E-01
        2   -1    0    0  501    0  0.00000000000E+00  0.00000000000E+00  0.31513980517E+04  0.31513980517E+04  0.25500000920E-02 0.  1.
       -2   -1    0    0    0  501  0.00000000000E+00  0.00000000000E+00 -0.10935961171E+04  0.10935961171E+04  0.25500000920E-02 0. -1.
    10030    2    1    2    0    0  0.00000000000E+00  0.00000000000E+00  0.20578019346E+04  0.42449941688E+04  0.37128731046E+04 0.  0.
        2    1    3    3  502    0  0.96252367628E+03 -0.80028293666E+02 -0.78371776431E+03  0.12438126424E+04  0.25500000920E-02 0. -1.
       -2    1    3    3    0  502 -0.96252367628E+03  0.80028293666E+02  0.28415196989E+04  0.30011815264E+04  0.25500000920E-02 0.  1.
</event>
<event>
 5   0  0.1825308E-08  0.3700237E+04  0.7818609E-02  0.8067909E-01
        2   -1    0    0  501    0  0.00000000000E+00  0.00000000000E+00  0.29674066757E+04  0.29674066757E+04  0.25500000920E-02 0. -1.
       -2   -1    0    0    0  501  0.00000000000E+00  0.00000000000E+00 -0.11535115552E+04  0.11535115552E+04  0.25500000920E-02 0.  1.
    10030    2    1    2    0    0  0.00000000000E+00  0.00000000000E+00  0.18138951205E+04  0.41209182309E+04  0.37002366894E+04 0.  0.
        4    1    3    3  502    0 -0.13299001066E+03  0.27438188159E+02 -0.11479537784E+04  0.11559579090E+04  0.12699999809E+01 0.  1.
       -4    1    3    3    0  502  0.13299001066E+03 -0.27438188159E+02  0.29618488990E+04  0.29649603219E+04  0.12699999809E+01 0. -1.
</event>
<event>
 5   0  0.1740290E-08  0.3701439E+04  0.7818609E-02  0.8067643E-01
       -2   -1    0    0    0  501  0.00000000000E+00  0.00000000000E+00  0.18217724290E+04  0.18217724290E+04  0.25500000920E-02 0. -1.
        2   -1    0    0  501    0  0.00000000000E+00  0.00000000000E+00 -0.18801266415E+04  0.18801266415E+04  0.25500000920E-02 0.  1.
    10030    2    1    2    0    0  0.00000000000E+00  0.00000000000E+00 -0.58354212439E+02  0.37018990705E+04  0.37014391139E+04 0.  0.
        5    1    3    3  502    0  0.10391422087E+04  0.12030244624E+04  0.91859903190E+03  0.18360094386E+04  0.46999998093E+01 0. -1.
       -5    1    3    3    0  502 -0.10391422087E+04 -0.12030244624E+04 -0.97695324434E+03  0.18658896320E+04  0.46999998093E+01 0.  1.
</event>
<event>
 5   0  0.1856107E-08  0.3686833E+04  0.7818609E-02  0.8070886E-01
        2   -1    0    0  501    0  0.00000000000E+00  0.00000000000E+00  0.17164116451E+04  0.17164116451E+04  0.25500000920E-02 0.  1.
       -2   -1    0    0    0  501  0.00000000000E+00  0.00000000000E+00 -0.19798192909E+04  0.19798192909E+04  0.25500000920E-02 0. -1.
    10030    2    1    2    0    0  0.00000000000E+00  0.00000000000E+00 -0.26340764572E+03  0.36962309360E+04  0.36868332678E+04 0.  0.
        2    1    3    3  502    0 -0.10482104576E+04  0.10000031679E+04 -0.12745363967E+04  0.19295581167E+04  0.25500000920E-02 0. -1.
       -2    1    3    3    0  502  0.10482104576E+04 -0.10000031679E+04  0.10111287510E+04  0.17666728193E+04  0.25500000920E-02 0.  1.
</event>
<event>
 5   0  0.1725865E-08  0.3697011E+04  0.7818609E-02  0.8068625E-01
       -2   -1    0    0    0  501  0.00000000000E+00  0.00000000000E+00  0.18153745613E+04  0.18153745613E+04  0.25500000920E-02 0. -1.
        2   -1    0    0  501    0  0.00000000000E+00  0.00000000000E+00 -0.18822411275E+04  0.18822411275E+04  0.25500000920E-02 0.  1.
    10030    2    1    2    0    0  0.00000000000E+00  0.00000000000E+00 -0.66866566199E+02  0.36976156889E+04  0.36970110420E+04 0.  0.
        1    1    3    3  502    0 -0.60501979639E+02 -0.13116878341E+04  0.12678510648E+04  0.18252758110E+04  0.50400001928E-02 0.  1.
       -1    1    3    3    0  502  0.60501979639E+02  0.13116878341E+04 -0.13347176310E+04  0.18723398779E+04  0.50400001928E-02 0. -1.
</event>
<event>
 5   0  0.1825308E-08  0.3699879E+04  0.7818609E-02  0.8067989E-01
       -2   -1    0    0    0  501  0.00000000000E+00  0.00000000000E+00  0.23611441324E+04  0.23611441324E+04  0.25500000920E-02 0. -1.
        2   -1    0    0  501    0  0.00000000000E+00  0.00000000000E+00 -0.14494142619E+04  0.14494142619E+04  0.25500000920E-02 0.  1.
    10030    2    1    2    0    0  0.00000000000E+00  0.00000000000E+00  0.91172987053E+03  0.38105583944E+04  0.36998789061E+04 0.  0.
        4    1    3    3  502    0  0.16709972981E+04  0.12370386761E+03  0.12633727968E+04  0.20984868486E+04  0.12699999809E+01 0. -1.
       -4    1    3    3    0  502 -0.16709972981E+04 -0.12370386761E+03 -0.35164292630E+03  0.17120715457E+04  0.12699999809E+01 0.  1.
</event>
<event>
 5   0  0.1825308E-08  0.3700735E+04  0.7818609E-02  0.8067799E-01
        2   -1    0    0  501    0  0.00000000000E+00  0.00000000000E+00  0.18330779879E+04  0.18330779879E+04  0.25500000920E-02 0. -1.
       -2   -1    0    0    0  501  0.00000000000E+00  0.00000000000E+00 -0.18678202444E+04  0.18678202444E+04  0.25500000920E-02 0.  1.
    10030    2    1    2    0    0  0.00000000000E+00  0.00000000000E+00 -0.34742256544E+02  0.37008982323E+04  0.37007351568E+04 0.  0.
        4    1    3    3  502    0  0.27227853049E+03  0.16547795854E+04 -0.79934387402E+03  0.18577899010E+04  0.12699999809E+01 0.  1.
       -4    1    3    3    0  502 -0.27227853049E+03 -0.16547795854E+04  0.76460161747E+03  0.18431083313E+04  0.12699999809E+01 0. -1.
</event>
<event>
 5   0  0.1740290E-08  0.3713379E+04  0.7818609E-02  0.8065003E-01
        2   -1    0    0  501    0  0.00000000000E+00  0.00000000000E+00  0.23518997275E+04  0.23518997275E+04  0.25500000920E-02 0.  1.
       -2   -1    0    0    0  501  0.00000000000E+00  0.00000000000E+00 -0.14657493059E+04  0.14657493059E+04  0.25500000920E-02 0. -1.
    10030    2    1    2    0    0  0.00000000000E+00  0.00000000000E+00  0.88615042161E+03  0.38176490334E+04  0.37133787273E+04 0.  0.
        5    1    3    3  502    0  0.12347920619E+04 -0.11876843000E+03  0.18633351015E+04  0.22384943973E+04  0.46999998093E+01 0.  1.
       -5    1    3    3    0  502 -0.12347920619E+04  0.11876843000E+03 -0.97718467986E+03  0.15791546361E+04  0.46999998093E+01 0. -1.
</event>
<event>
 5   0  0.5714125E-09  0.3701396E+04  0.7818609E-02  0.8067653E-01
        1   -1    0    0  501    0  0.00000000000E+00  0.00000000000E+00  0.21585916506E+04  0.21585916506E+04  0.50400001928E-02 0. -1.
       -1   -1    0    0    0  501  0.00000000000E+00  0.00000000000E+00 -0.15867212593E+04  0.15867212594E+04  0.50400001928E-02 0.  1.
    10030    2    1    2    0    0  0.00000000000E+00  0.00000000000E+00  0.57187039121E+03  0.37453129099E+04  0.37013960946E+04 0.  0.
        4    1    3    3  502    0 -0.31184273185E+03 -0.14111442001E+04  0.14557262478E+04  0.20512714019E+04  0.12699999809E+01 0. -1.
       -4    1    3    3    0  502  0.31184273185E+03  0.14111442001E+04 -0.88385585661E+03  0.16940415080E+04  0.12699999809E+01 0.  1.
</event>
<event>
 5   0  0.1740290E-08  0.3700781E+04  0.7818609E-02  0.8067789E-01
       -2   -1    0    0    0  501  0.00000000000E+00  0.00000000000E+00  0.21779348194E+04  0.21779348194E+04  0.25500000920E-02 0. -1.
        2   -1    0    0  501    0  0.00000000000E+00  0.00000000000E+00 -0.15721063241E+04  0.15721063241E+04  0.25500000920E-02 0.  1.
    10030    2    1    2    0    0  0.00000000000E+00  0.00000000000E+00  0.60582849526E+03  0.37500411435E+04  0.37007810543E+04 0.  0.
        5    1    3    3  502    0 -0.69115745166E+03 -0.10983307391E+04 -0.10336936808E+04  0.16590882288E+04  0.46999998093E+01 0.  1.
       -5    1    3    3    0  502  0.69115745166E+03  0.10983307391E+04  0.16395221761E+04  0.20909529146E+04  0.46999998093E+01 0. -1.
</event>
<event>
 5   0  0.1757996E-08  0.3698838E+04  0.7818609E-02  0.8068219E-01
        2   -1    0    0  501    0  0.00000000000E+00  0.00000000000E+00  0.23944432154E+04  0.23944432154E+04  0.25500000920E-02 0.  1.
       -2   -1    0    0    0  501  0.00000000000E+00  0.00000000000E+00 -0.14284530509E+04  0.14284530509E+04  0.25500000920E-02 0. -1.
    10030    2    1    2    0    0  0.00000000000E+00  0.00000000000E+00  0.96599016449E+03  0.38228962663E+04  0.36988375018E+04 0.  0.
        3    1    3    3  502    0 -0.14255430277E+03 -0.15144888443E+04 -0.60411576543E+03  0.16367510675E+04  0.10100000352E+00 0. -1.
       -3    1    3    3    0  502  0.14255430277E+03  0.15144888443E+04  0.15701059299E+04  0.21861451988E+04  0.10100000352E+00 0.  1.
</event>
<event>
 5   0  0.1740290E-08  0.3700952E+04  0.7818609E-02  0.8067751E-01
       -2   -1    0    0    0  501  0.00000000000E+00  0.00000000000E+00  0.26300795618E+04  0.26300795618E+04  0.25500000920E-02 0. -1.
        2   -1    0    0  501    0  0.00000000000E+00  0.00000000000E+00 -0.13019613600E+04  0.13019613600E+04  0.25500000920E-02 0.  1.
    10030    2    1    2    0    0  0.00000000000E+00  0.00000000000E+00  0.13281182019E+04  0.39320409218E+04  0.37009522900E+04 0.  0.
        5    1    3    3  502    0 -0.76491384853E+03 -0.15167878431E+03 -0.11188601751E+04  0.13638071091E+04  0.46999998093E+01 0.  1.
       -5    1    3    3    0  502  0.76491384853E+03  0.15167878431E+03  0.24469783770E+04  0.25682338127E+04  0.46999998093E+01 0. -1.
</event>
<event>
 5   0  0.5714125E-09  0.3693988E+04  0.7818609E-02  0.8069296E-01
       -1   -1    0    0    0  501  0.00000000000E+00  0.00000000000E+00  0.12213518626E+04  0.12213518626E+04  0.50400001928E-02 0.  1.
        1   -1    0    0  501    0  0.00000000000E+00  0.00000000000E+00 -0.27931234206E+04  0.27931234206E+04  0.50400001928E-02 0. -1.
    10030    2    1    2    0    0  0.00000000000E+00  0.00000000000E+00 -0.15717715580E+04  0.40144752832E+04  0.36939878139E+04 0.  0.
        1    1    3    3  502    0 -0.98227201621E+03 -0.78249845408E+03 -0.22577222390E+04  0.25834999231E+04  0.50400001928E-02 0. -1.
       -1    1    3    3    0  502  0.98227201621E+03  0.78249845408E+03  0.68595068093E+03  0.14309753601E+04  0.50400001928E-02 0.  1.
</event>
<event>
 5   0  0.5714125E-09  0.3701035E+04  0.7818609E-02  0.8067732E-01
       -1   -1    0    0    0  501  0.00000000000E+00  0.00000000000E+00  0.14339142755E+04  0.14339142755E+04  0.50400001928E-02 0.  1.
        1   -1    0    0  501    0  0.00000000000E+00  0.00000000000E+00 -0.23881593833E+04  0.23881593833E+04  0.50400001928E-02 0. -1.
    10030    2    1    2    0    0  0.00000000000E+00  0.00000000000E+00 -0.95424510776E+03  0.38220736588E+04  0.37010354399E+04 0.  0.
        5    1    3    3  502    0  0.47729644609E+03  0.52361333109E+03  0.12882909735E+04  0.14702715873E+04  0.46999998093E+01 0.  1.
       -5    1    3    3    0  502 -0.47729644609E+03 -0.52361333109E+03 -0.22425360812E+04  0.23518020715E+04  0.46999998093E+01 0. -1.
</event>
<event>
 5   0  0.5714125E-09  0.3699360E+04  0.7818609E-02  0.8068104E-01
        1   -1    0    0  501    0  0.00000000000E+00  0.00000000000E+00  0.19180876133E+04  0.19180876134E+04  0.50400001928E-02 0. -1.
       -1   -1    0    0    0  501  0.00000000000E+00  0.00000000000E+00 -0.17837120689E+04  0.17837120689E+04  0.50400001928E-02 0.  1.
    10030    2    1    2    0    0  0.00000000000E+00  0.00000000000E+00  0.13437554449E+03  0.37017996822E+04  0.36993599582E+04 0.  0.
        5    1    3    3  502    0 -0.88229980628E+03 -0.67540433790E+03 -0.14125267717E+04  0.17971861168E+04  0.46999998093E+01 0.  1.
       -5    1    3    3    0  502  0.88229980628E+03  0.67540433790E+03  0.15469023162E+04  0.19046135654E+04  0.46999998093E+01 0. -1.
</event>
<event>
 5   0  0.1725865E-08  0.3702187E+04  0.7818609E-02  0.8067477E-01
       -2   -1    0    0    0  501  0.00000000000E+00  0.00000000000E+00  0.27500742234E+04  0.27500742234E+04  0.25500000920E-02 0. -1.
        2   -1    0    0  501    0  0.00000000000E+00  0.00000000000E+00 -0.12459836830E+04  0.12459836830E+04  0.25500000920E-02 0.  1.
    10030    2    1    2    0    0  0.00000000000E+00  0.00000000000E+00  0.15040905404E+04  0.39960579064E+04  0.37021872504E+04 0.  0.
        1    1    3    3  502    0  0.50548358715E+03 -0.72672054455E+03 -0.10027024140E+04  0.13375531907E+04  0.50400001928E-02 0.  1.
       -1    1    3    3    0  502 -0.50548358715E+03  0.72672054455E+03  0.25067929545E+04  0.26585047157E+04  0.50400001928E-02 0. -1.
</event>
<event>
 5   0  0.1725865E-08  0.3701056E+04  0.7818609E-02  0.8067728E-01
       -2   -1    0    0    0  501  0.00000000000E+00  0.00000000000E+00  0.27870695939E+04  0.27870695939E+04  0.25500000920E-02 0. -1.
        2   -1    0    0  501    0  0.00000000000E+00  0.00000000000E+00 -0.12286935343E+04  0.12286935343E+04  0.25500000920E-02 0.  1.
    10030    2    1    2    0    0  0.00000000000E+00  0.00000000000E+00  0.15583760596E+04  0.40157631283E+04  0.37010562761E+04 0.  0.
        1    1    3    3  502    0  0.93949011671E+03  0.23466416386E+03  0.24902197633E+04  0.26718726427E+04  0.50400001928E-02 0. -1.
       -1    1    3    3    0  502 -0.93949011671E+03 -0.23466416386E+03 -0.93184370368E+03  0.13438904856E+04  0.50400001928E-02 0.  1.
</event>
<event>
 5   0  0.5714125E-09  0.3699309E+04  0.7818609E-02  0.8068115E-01
       -1   -1    0    0    0  501  0.00000000000E+00  0.00000000000E+00  0.13750649642E+04  0.13750649642E+04  0.50400001928E-02 0.  1.
        1   -1    0    0  501    0  0.00000000000E+00  0.00000000000E+00 -0.24880443100E+04  0.24880443100E+04  0.50400001928E-02 0. -1.
    10030    2    1    2    0    0  0.00000000000E+00  0.00000000000E+00 -0.11129793459E+04  0.38631092742E+04  0.36993094275E+04 0.  0.
        4    1    3    3  502    0  0.13239034752E+04 -0.12903676777E+04 -0.49513627313E+03  0.19138784437E+04  0.12699999809E+01 0.  1.
       -4    1    3    3    0  502 -0.13239034752E+04  0.12903676777E+04 -0.61784307274E+03  0.19492308305E+04  0.12699999809E+01 0. -1.
</event>
<event>
 5   0  0.1856107E-08  0.3700243E+04  0.7818609E-02  0.8067908E-01
       -2   -1    0    0    0  501  0.00000000000E+00  0.00000000000E+00  0.14417256386E+04  0.14417256386E+04  0.25500000920E-02 0. -1.
        2   -1    0    0  501    0  0.00000000000E+00  0.00000000000E+00 -0.23742036524E+04  0.23742036524E+04  0.25500000920E-02 0.  1.
    10030    2    1    2    0    0  0.00000000000E+00  0.00000000000E+00 -0.93247801377E+03  0.38159292910E+04  0.37002433850E+04 0.  0.
        2    1    3    3  502    0  0.11406572352E+04  0.59447540314E+03  0.90516831132E+03  0.15728412523E+04  0.25500000920E-02 0. -1.
       -2    1    3    3    0  502 -0.11406572352E+04 -0.59447540314E+03 -0.18376463251E+04  0.22430880387E+04  0.25500000920E-02 0.  1.
</event>
<event>
 5   0  0.1740290E-08  0.3690667E+04  0.7818609E-02  0.8070033E-01
        2   -1    0    0  501    0  0.00000000000E+00  0.00000000000E+00  0.17575395271E+04  0.17575395271E+04  0.25500000920E-02 0.  1.
       -2   -1    0    0    0  501  0.00000000000E+00  0.00000000000E+00 -0.19375125203E+04  0.19375125203E+04  0.25500000920E-02 0. -1.
    10030    2    1    2    0    0  0.00000000000E+00  0.00000000000E+00 -0.17997299327E+03  0.36950520474E+04  0.36906665190E+04 0.  0.
        5    1    3    3  502    0  0.37662848754E+03  0.16844259200E+04  0.56354719390E+03  0.18156946955E+04  0.46999998093E+01 0.  1.
       -5    1    3    3    0  502 -0.37662848754E+03 -0.16844259200E+04 -0.74352018717E+03  0.18793573519E+04  0.46999998093E+01 0. -1.
</event>
<event>
 5   0  0.1740290E-08  0.3699353E+04  0.7818609E-02  0.8068105E-01
       -2   -1    0    0    0  501  0.00000000000E+00  0.00000000000E+00  0.11846448269E+04  0.11846448269E+04  0.25500000920E-02 0. -1.
        2   -1    0    0  501    0  0.00000000000E+00  0.00000000000E+00 -0.28880406361E+04  0.28880406361E+04  0.25500000920E-02 0.  1.
    10030    2    1    2    0    0  0.00000000000E+00  0.00000000000E+00 -0.17033958091E+04  0.40726854630E+04  0.36993525918E+04 0.  0.
        5    1    3    3  502    0 -0.11075055446E+03 -0.16526022882E+04  0.54753369310E+02  0.16572205736E+04  0.46999998093E+01 0. -1.
       -5    1    3    3    0  502  0.11075055446E+03  0.16526022882E+04 -0.17581491784E+04  0.24154648894E+04  0.46999998093E+01 0.  1.
</event>
<event>
 5   0  0.5714125E-09  0.3700733E+04  0.7818609E-02  0.8067799E-01
        1   -1    0    0  501    0  0.00000000000E+00  0.00000000000E+00  0.22274235215E+04  0.22274235215E+04  0.50400001928E-02 0. -1.
       -1   -1    0    0    0  501  0.00000000000E+00  0.00000000000E+00 -0.15371376684E+04  0.15371376684E+04  0.50400001928E-02 0.  1.
    10030    2    1    2    0    0  0.00000000000E+00  0.00000000000E+00  0.69028585315E+03  0.37645611899E+04  0.37007332237E+04 0.  0.
        1    1    3    3  502    0  0.12982713304E+04 -0.36002753167E+03  0.16353753045E+04  0.21188630578E+04  0.50400001928E-02 0. -1.
       -1    1    3    3    0  502 -0.12982713304E+04  0.36002753167E+03 -0.94508945132E+03  0.16456981321E+04  0.50400001928E-02 0.  1.
</event>
<event>
 5   0  0.5714125E-09  0.3700392E+04  0.7818609E-02  0.8067875E-01
       -1   -1    0    0    0  501  0.00000000000E+00  0.00000000000E+00  0.20328982803E+04  0.20328982803E+04  0.50400001928E-02 0. -1.
        1   -1    0    0  501    0  0.00000000000E+00  0.00000000000E+00 -0.16839135060E+04  0.16839135060E+04  0.50400001928E-02 0.  1.
    10030    2    1    2    0    0  0.00000000000E+00  0.00000000000E+00  0.34898477430E+03  0.37168117863E+04  0.37003918012E+04 0.  0.
        4    1    3    3  502    0  0.68609843263E+03  0.93358594474E+03  0.16234292254E+04  0.19944517638E+04  0.12699999809E+01 0. -1.
       -4    1    3    3    0  502 -0.68609843263E+03 -0.93358594474E+03 -0.12744444511E+04  0.17223600225E+04  0.12699999809E+01 0.  1.
</event>
<event>
 5   0  0.1757996E-08  0.3700455E+04  0.7818609E-02  0.8067861E-01
       -2   -1    0    0    0  501  0.00000000000E+00  0.00000000000E+00  0.25925089733E+04  0.25925089733E+04  0.25500000920E-02 0.  1.
        2   -1    0    0  501    0  0.00000000000E+00  0.00000000000E+00 -0.13204742136E+04  0.13204742136E+04  0.25500000920E-02 0. -1.
    10030    2    1    2    0    0  0.00000000000E+00  0.00000000000E+00  0.12720347598E+04  0.39129831869E+04  0.37004547006E+04 0.  0.
        3    1    3    3  502    0 -0.63433487387E+03 -0.14094630265E+04  0.17114712550E+04  0.23061007398E+04  0.10100000352E+00 0.  1.
       -3    1    3    3    0  502  0.63433487387E+03  0.14094630265E+04 -0.43943649527E+03  0.16068824471E+04  0.10100000352E+00 0. -1.
</event>
<event>
 5   0  0.1725865E-08  0.3700703E+04  0.7818609E-02  0.8067806E-01
       -2   -1    0    0    0  501  0.00000000000E+00  0.00000000000E+00  0.97226565824E+03  0.97226565825E+03  0.25500000920E-02 0.  1.
        2   -1    0    0  501    0  0.00000000000E+00  0.00000000000E+00 -0.35214662063E+04  0.35214662063E+04  0.25500000920E-02 0. -1.
    10030    2    1    2    0    0  0.00000000000E+00  0.00000000000E+00 -0.25492005481E+04  0.44937318646E+04  0.37007029922E+04 0.  0.
        1    1    3    3  502    0  0.14330641604E+04  0.11704850291E+04 -0.12862832407E+04  0.22534934361E+04  0.50400001928E-02 0. -1.
       -1    1    3    3    0  502 -0.14330641604E+04 -0.11704850291E+04 -0.12629173074E+04  0.22402384285E+04  0.50400001928E-02 0.  1.
</event>
<event>
 5   0  0.1740290E-08  0.3686077E+04  0.7818609E-02  0.8071054E-01
       -2   -1    0    0    0  501  0.00000000000E+00  0.00000000000E+00  0.16113547352E+04  0.16113547352E+04  0.25500000920E-02 0.  1.
        2   -1    0    0  501    0  0.00000000000E+00  0.00000000000E+00 -0.21080337794E+04  0.21080337794E+04  0.25500000920E-02 0. -1.
    10030    2    1    2    0    0  0.00000000000E+00  0.00000000000E+00 -0.49667904423E+03  0.37193885146E+04  0.36860766202E+04 0.  0.
        5    1    3    3  502    0  0.92695490744E+03  0.46700691286E+03  0.12883904661E+04  0.16544826805E+04  0.46999998093E+01 0.  1.
       -5    1    3    3    0  502 -0.92695490744E+03 -0.46700691286E+03 -0.17850695103E+04  0.20649058341E+04  0.46999998093E+01 0. -1.
</event>
<event>
 5   0  0.1740290E-08  0.3699848E+04  0.7818609E-02  0.8067996E-01
       -2   -1    0    0    0  501  0.00000000000E+00  0.00000000000E+00  0.12174719186E+04  0.12174719186E+04  0.25500000920E-02 0. -1.
        2   -1    0    0  501    0  0.00000000000E+00  0.00000000000E+00 -0.28109219216E+04  0.28109219216E+04  0.25500000920E-02 0.  1.
    10030    2    1    2    0    0  0.00000000000E+00  0.00000000000E+00 -0.15934500031E+04  0.40283938402E+04  0.36998478373E+04 0.  0.
        5    1    3    3  502    0  0.34296186913E+03 -0.18057182276E+04 -0.10249974282E+04  0.21044911449E+04  0.46999998093E+01 0.  1.
       -5    1    3    3    0  502 -0.34296186913E+03  0.18057182276E+04 -0.56845257490E+03  0.19239026953E+04  0.46999998093E+01 0. -1.
</event>
<event>
 5   0  0.1757996E-08  0.3697918E+04  0.7818609E-02  0.8068423E-01
        2   -1    0    0  501    0  0.00000000000E+00  0.00000000000E+00  0.12907592416E+04  0.12907592416E+04  0.25500000920E-02 0. -1.
       -2   -1    0    0    0  501  0.00000000000E+00  0.00000000000E+00 -0.26485571856E+04  0.26485571856E+04  0.25500000920E-02 0.  1.
    10030    2    1    2    0    0  0.00000000000E+00  0.00000000000E+00 -0.13577979440E+04  0.39393164272E+04  0.36979181518E+04 0.  0.
        3    1    3    3  502    0 -0.18221847441E+04 -0.30147763771E+03 -0.77056035525E+03  0.20012519279E+04  0.10100000352E+00 0.  1.
       -3    1    3    3    0  502  0.18221847441E+04  0.30147763771E+03 -0.58723758877E+03  0.19380644993E+04  0.10100000352E+00 0. -1.
</event>
<event>
 5   0  0.1825308E-08  0.3700313E+04  0.7818609E-02  0.8067893E-01
       -2   -1    0    0    0  501  0.00000000000E+00  0.00000000000E+00  0.23687041610E+04  0.23687041610E+04  0.25500000920E-02 0. -1.
        2   -1    0    0  501    0  0.00000000000E+00  0.00000000000E+00 -0.14451270462E+04  0.14451270462E+04  0.25500000920E-02 0.  1.
    10030    2    1    2    0    0  0.00000000000E+00  0.00000000000E+00  0.92357711482E+03  0.38138312072E+04  0.37003126611E+04 0.  0.
        4    1    3    3  502    0  0.41705532890E+03 -0.17977570103E+04  0.32657152873E+03  0.18741707477E+04  0.12699999809E+01 0. -1.
       -4    1    3    3    0  502 -0.41705532890E+03  0.17977570103E+04  0.59700558609E+03  0.19396604595E+04  0.12699999809E+01 0.  1.
</event>
<event>
 5   0  0.5714125E-09  0.3691148E+04  0.7818609E-02  0.8069926E-01
        3   -1    0    0  501    0  0.00000000000E+00  0.00000000000E+00  0.20333325365E+04  0.20333325390E+04  0.10100000352E+00 0.  1.
       -3   -1    0    0    0  501  0.00000000000E+00  0.00000000000E+00 -0.16751527100E+04  0.16751527131E+04  0.10100000352E+00 0. -1.
    10030    2    1    2    0    0  0.00000000000E+00  0.00000000000E+00  0.35817982643E+03  0.37084852521E+04  0.36911475285E+04 0.  0.
        1    1    3    3  502    0  0.53046873830E+03 -0.17472576112E+04  0.44837174965E+03  0.18802509057E+04  0.50400001928E-02 0.  1.
       -1    1    3    3    0  502 -0.53046873830E+03  0.17472576112E+04 -0.90191923217E+02  0.18282343464E+04  0.50400001928E-02 0. -1.
</event>
<event>
 5   0  0.1757996E-08  0.3702592E+04  0.7818609E-02  0.8067388E-01
       -2   -1    0    0    0  501  0.00000000000E+00  0.00000000000E+00  0.16507221810E+04  0.16507221810E+04  0.25500000920E-02 0.  1.
        2   -1    0    0  501    0  0.00000000000E+00  0.00000000000E+00 -0.20762413404E+04  0.20762413404E+04  0.25500000920E-02 0. -1.
    10030    2    1    2    0    0  0.00000000000E+00  0.00000000000E+00 -0.42551915943E+03  0.37269635214E+04  0.37025924074E+04 0.  0.
        3    1    3    3  502    0 -0.14017693784E+04 -0.64404943535E+03 -0.12429906873E+04  0.19811064899E+04  0.10100000352E+00 0. -1.
       -3    1    3    3    0  502  0.14017693784E+04  0.64404943535E+03  0.81747152789E+03  0.17458570315E+04  0.10100000352E+00 0.  1.
</event>
<event>
 5   0  0.1825308E-08  0.3699785E+04  0.7818609E-02  0.8068010E-01
        2   -1    0    0  501    0  0.00000000000E+00  0.00000000000E+00  0.34286823277E+04  0.34286823277E+04  0.25500000920E-02 0. -1.
       -2   -1    0    0    0  501  0.00000000000E+00  0.00000000000E+00 -0.99808075861E+03  0.99808075861E+03  0.25500000920E-02 0.  1.
    10030    2    1    2    0    0  0.00000000000E+00  0.00000000000E+00  0.24306015691E+04  0.44267630863E+04  0.36997847822E+04 0.  0.
        4    1    3    3  502    0  0.63357323336E+03 -0.17379718617E+04  0.12011937528E+04  0.22056357992E+04  0.12699999809E+01 0.  1.
       -4    1    3    3    0  502 -0.63357323336E+03  0.17379718617E+04  0.12294078163E+04  0.22211272871E+04  0.12699999809E+01 0. -1.
</event>
<event>
 5   0  0.1725865E-08  0.3703026E+04  0.7818609E-02  0.8067292E-01
        2   -1    0    0  501    0  0.00000000000E+00  0.00000000000E+00  0.15631206160E+04  0.15631206160E+04  0.25500000920E-02 0.  1.
       -2   -1    0    0    0  501  0.00000000000E+00  0.00000000000E+00 -0.21931127333E+04  0.21931127333E+04  0.25500000920E-02 0. -1.
    10030    2    1    2    0    0  0.00000000000E+00  0.00000000000E+00 -0.62999211733E+03  0.37562333494E+04  0.37030256422E+04 0.  0.
        1    1    3    3  502    0 -0.12457061959E+04  0.10834279297E+04 -0.11651917955E+04  0.20207107477E+04  0.50400001928E-02 0. -1.
       -1    1    3    3    0  502  0.12457061959E+04 -0.10834279297E+04  0.53519967817E+03  0.17355226017E+04  0.50400001928E-02 0.  1.
</event>
<event>
 5   0  0.5714125E-09  0.3675066E+04  0.7818609E-02  0.8073510E-01
       -1   -1    0    0    0  501  0.00000000000E+00  0.00000000000E+00  0.31590955733E+04  0.31590955733E+04  0.50400001928E-02 0.  1.
        1   -1    0    0  501    0  0.00000000000E+00  0.00000000000E+00 -0.10688274230E+04  0.10688274231E+04  0.50400001928E-02 0. -1.
    10030    2    1    2    0    0  0.00000000000E+00  0.00000000000E+00  0.20902681502E+04  0.42279229963E+04  0.36750662474E+04 0.  0.
        4    1    3    3  502    0 -0.11721510262E+04 -0.12269065746E+04  0.23386271047E+03  0.17128721935E+04  0.12699999809E+01 0. -1.
       -4    1    3    3    0  502  0.11721510262E+04  0.12269065746E+04  0.18564054398E+04  0.25150508028E+04  0.12699999809E+01 0.  1.
</event>
<event>
 5   0  0.1757996E-08  0.3702270E+04  0.7818609E-02  0.8067459E-01
       -2   -1    0    0    0  501  0.00000000000E+00  0.00000000000E+00  0.17463289327E+04  0.17463289327E+04  0.25500000920E-02 0.  1.
        2   -1    0    0  501    0  0.00000000000E+00  0.00000000000E+00 -0.19622308487E+04  0.19622308487E+04  0.25500000920E-02 0. -1.
    10030    2    1    2    0    0  0.00000000000E+00  0.00000000000E+00 -0.21590191606E+03  0.37085597814E+04  0.37022698463E+04 0.  0.
        3    1    3    3  502    0  0.12896280792E+04 -0.37454355860E+03 -0.13841944381E+04  0.19285791953E+04  0.10100000352E+00 0. -1.
       -3    1    3    3    0  502 -0.12896280792E+04  0.37454355860E+03  0.11682925220E+04  0.17799805861E+04  0.10100000352E+00 0.  1.
</event>
<event>
 5   0  0.1740290E-08  0.3700114E+04  0.7818609E-02  0.8067937E-01
        2   -1    0    0  501    0  0.00000000000E+00  0.00000000000E+00  0.19783466078E+04  0.19783466078E+04  0.25500000920E-02 0. -1.
       -2   -1    0    0    0  501  0.00000000000E+00  0.00000000000E+00 -0.17300867587E+04  0.17300867587E+04  0.25500000920E-02 0.  1.
    10030    2    1    2    0    0  0.00000000000E+00  0.00000000000E+00  0.24825984910E+03  0.37084333666E+04  0.37001141985E+04 0.  0.
        5    1    3    3  502    0 -0.72900498114E+03 -0.89371964578E+03  0.15739320080E+04  0.19512732058E+04  0.46999998093E+01 0. -1.
       -5    1    3    3    0  502  0.72900498114E+03  0.89371964578E+03 -0.13256721589E+04  0.17571601608E+04  0.46999998093E+01 0.  1.
</event>
<event>
 5   0  0.5714125E-09  0.3699320E+04  0.7818609E-02  0.8068113E-01
        1   -1    0    0  501    0  0.00000000000E+00  0.00000000000E+00  0.15835868177E+04  0.15835868177E+04  0.50400001928E-02 0.  1.
       -1   -1    0    0    0  501  0.00000000000E+00  0.00000000000E+00 -0.21604386720E+04  0.21604386720E+04  0.50400001928E-02 0. -1.
    10030    2    1    2    0    0  0.00000000000E+00  0.00000000000E+00 -0.57685185427E+03  0.37440254898E+04  0.36993200465E+04 0.  0.
        3    1    3    3  502    0 -0.61469262212E+03  0.13471521543E+03  0.14719171193E+04  0.16007920619E+04  0.10100000352E+00 0.  1.
       -3    1    3    3    0  502  0.61469262212E+03 -0.13471521543E+03 -0.20487689736E+04  0.21432334279E+04  0.10100000352E+00 0. -1.
</event>
<event>
 5   0  0.5714125E-09  0.3705326E+04  0.7818609E-02  0.8066782E-01
        1   -1    0    0  501    0  0.00000000000E+00  0.00000000000E+00  0.21141248835E+04  0.21141248836E+04  0.50400001928E-02 0.  1.
       -1   -1    0    0    0  501  0.00000000000E+00  0.00000000000E+00 -0.16235373839E+04  0.16235373839E+04  0.50400001928E-02 0. -1.
    10030    2    1    2    0    0  0.00000000000E+00  0.00000000000E+00  0.49058749970E+03  0.37376622674E+04  0.37053263190E+04 0.  0.
        4    1    3    3  502    0 -0.49862708630E+03  0.14560620105E+04  0.12856103776E+04  0.20053780705E+04  0.12699999809E+01 0.  1.
       -4    1    3    3    0  502  0.49862708630E+03 -0.14560620105E+04 -0.79502287788E+03  0.17322841969E+04  0.12699999809E+01 0. -1.
</event>
<event>
 5   0  0.1825308E-08  0.3697184E+04  0.7818609E-02  0.8068586E-01
       -2   -1    0    0    0  501  0.00000000000E+00  0.00000000000E+00  0.14086239032E+04  0.14086239032E+04  0.25500000920E-02 0.  1.
        2   -1    0    0  501    0  0.00000000000E+00  0.00000000000E+00 -0.24259787389E+04  0.24259787389E+04  0.25500000920E-02 0. -1.
    10030    2    1    2    0    0  0.00000000000E+00  0.00000000000E+00 -0.10173548357E+04  0.38346026421E+04  0.36971835985E+04 0.  0.
        4    1    3    3  502    0 -0.92011102028E+03  0.77474235678E+03 -0.19645828386E+04  0.23035662247E+04  0.12699999809E+01 0. -1.
       -4    1    3    3    0  502  0.92011102028E+03 -0.77474235678E+03  0.94722800284E+03  0.15310364174E+04  0.12699999809E+01 0.  1.
</event>
<event>
 5   0  0.5714125E-09  0.3701229E+04  0.7818609E-02  0.8067689E-01
        1   -1    0    0  501    0  0.00000000000E+00  0.00000000000E+00  0.28602166881E+04  0.28602166881E+04  0.50400001928E-02 0. -1.
       -1   -1    0    0    0  501  0.00000000000E+00  0.00000000000E+00 -0.11973829236E+04  0.11973829236E+04  0.50400001928E-02 0.  1.
    10030    2    1    2    0    0  0.00000000000E+00  0.00000000000E+00  0.16628337645E+04  0.40575996117E+04  0.37012293201E+04 0.  0.
        3    1    3    3  502    0 -0.29450559997E+03 -0.87450704019E+03  0.25900149514E+04  0.27494860557E+04  0.10100000352E+00 0. -1.
       -3    1    3    3    0  502  0.29450559997E+03  0.87450704019E+03 -0.92718118691E+03  0.13081135560E+04  0.10100000352E+00 0.  1.
</event>
<event>
 5   0  0.1740290E-08  0.3699979E+04  0.7818609E-02  0.8067967E-01
        2   -1    0    0  501    0  0.00000000000E+00  0.00000000000E+00  0.24991147735E+04  0.24991147735E+04  0.25500000920E-02 0.  1.
       -2   -1    0    0    0  501  0.00000000000E+00  0.00000000000E+00 -0.13694692046E+04  0.13694692046E+04  0.25500000920E-02 0. -1.
    10030    2    1    2    0    0  0.00000000000E+00  0.00000000000E+00  0.11296455689E+04  0.38685839781E+04  0.36999787681E+04 0.  0.
        5    1    3    3  502    0  0.16169053209E+04  0.71285721391E+03  0.11374000283E+04  0.21014873634E+04  0.46999998093E+01 0. -1.
       -5    1    3    3    0  502 -0.16169053209E+04 -0.71285721391E+03 -0.77544593950E+01  0.17670966147E+04  0.46999998093E+01 0.  1.
</event>
<event>
 5   0  0.1856107E-08  0.3702723E+04  0.7818609E-02  0.8067359E-01
        2   -1    0    0  501    0  0.00000000000E+00  0.00000000000E+00  0.15427161575E+04  0.15427161575E+04  0.25500000920E-02 0.  1.
       -2   -1    0    0    0  501  0.00000000000E+00  0.00000000000E+00 -0.22217562459E+04  0.22217562459E+04  0.25500000920E-02 0. -1.
    10030    2    1    2    0    0  0.00000000000E+00  0.00000000000E+00 -0.67904008837E+03  0.37644724034E+04  0.37027229216E+04 0.  0.
        2    1    3    3  502    0 -0.88895256585E+02 -0.75417707282E+03  0.13770849782E+04  0.15725929101E+04  0.25500000920E-02 0.  1.
       -2    1    3    3    0  502  0.88895256585E+02  0.75417707282E+03 -0.20561250665E+04  0.21918794933E+04  0.25500000920E-02 0. -1.
</event>
<event>
 5   0  0.1740290E-08  0.3700558E+04  0.7818609E-02  0.8067838E-01
       -2   -1    0    0    0  501  0.00000000000E+00  0.00000000000E+00  0.19542863467E+04  0.19542863467E+04  0.25500000920E-02 0.  1.
        2   -1    0    0  501    0  0.00000000000E+00  0.00000000000E+00 -0.17518066191E+04  0.17518066191E+04  0.25500000920E-02 0. -1.
    10030    2    1    2    0    0  0.00000000000E+00  0.00000000000E+00  0.20247972763E+03  0.37060929658E+04  0.37005576648E+04 0.  0.
        5    1    3    3  502    0 -0.58275167516E+03  0.12557200980E+04 -0.11282271499E+04  0.17858754355E+04  0.46999998093E+01 0. -1.
       -5    1    3    3    0  502  0.58275167516E+03 -0.12557200980E+04  0.13307068775E+04  0.19202175302E+04  0.46999998093E+01 0.  1.
</event>
<event>
 5   0  0.5714125E-09  0.3693941E+04  0.7818609E-02  0.8069306E-01
       -1   -1    0    0    0  501  0.00000000000E+00  0.00000000000E+00  0.16543914262E+04  0.16543914262E+04  0.50400001928E-02 0. -1.
        1   -1    0    0  501    0  0.00000000000E+00  0.00000000000E+00 -0.20619666932E+04  0.20619666932E+04  0.50400001928E-02 0.  1.
    10030    2    1    2    0    0  0.00000000000E+00  0.00000000000E+00 -0.40757526708E+03  0.37163581194E+04  0.36939409948E+04 0.  0.
        5    1    3    3  502    0 -0.47897987994E+02 -0.55594605804E+03 -0.19751278549E+04  0.20524430247E+04  0.46999998093E+01 0.  1.
       -5    1    3    3    0  502  0.47897987994E+02  0.55594605804E+03  0.15675525878E+04  0.16639150947E+04  0.46999998093E+01 0. -1.
</event>
<event>
 5   0  0.5714125E-09  0.3700506E+04  0.7818609E-02  0.8067850E-01
        1   -1    0    0  501    0  0.00000000000E+00  0.00000000000E+00  0.16119325300E+04  0.16119325300E+04  0.50400001928E-02 0.  1.
       -1   -1    0    0    0  501  0.00000000000E+00  0.00000000000E+00 -0.21238083539E+04  0.21238083539E+04  0.50400001928E-02 0. -1.
    10030    2    1    2    0    0  0.00000000000E+00  0.00000000000E+00 -0.51187582396E+03  0.37357408839E+04  0.37005057887E+04 0.  0.
        4    1    3    3  502    0 -0.14335543098E+03 -0.11862376237E+04  0.11702142437E+04  0.16724573144E+04  0.12699999809E+01 0.  1.
       -4    1    3    3    0  502  0.14335543098E+03  0.11862376237E+04 -0.16820900676E+04  0.20632835695E+04  0.12699999809E+01 0. -1.
</event>
<event>
 5   0  0.1757996E-08  0.3700683E+04  0.7818609E-02  0.8067810E-01
        2   -1    0    0  501    0  0.00000000000E+00  0.00000000000E+00  0.21495095445E+04  0.21495095445E+04  0.25500000920E-02 0. -1.
       -2   -1    0    0    0  501  0.00000000000E+00  0.00000000000E+00 -0.15928117967E+04  0.15928117967E+04  0.25500000920E-02 0.  1.
    10030    2    1    2    0    0  0.00000000000E+00  0.00000000000E+00  0.55669774784E+03  0.37423213412E+04  0.37006832664E+04 0.  0.
        3    1    3    3  502    0 -0.97691390427E+03 -0.45252831508E+03  0.18001467466E+04  0.20975392659E+04  0.10100000352E+00 0. -1.
       -3    1    3    3    0  502  0.97691390427E+03  0.45252831508E+03 -0.12434489988E+04  0.16447820753E+04  0.10100000352E+00 0.  1.
</event>
<event>
 5   0  0.5714125E-09  0.3700914E+04  0.7818609E-02  0.8067759E-01
        1   -1    0    0  501    0  0.00000000000E+00  0.00000000000E+00  0.23818691292E+04  0.23818691292E+04  0.50400001928E-02 0. -1.
       -1   -1    0    0    0  501  0.00000000000E+00  0.00000000000E+00 -0.14376064144E+04  0.14376064144E+04  0.50400001928E-02 0.  1.
    10030    2    1    2    0    0  0.00000000000E+00  0.00000000000E+00  0.94426271480E+03  0.38194755437E+04  0.37009135837E+04 0.  0.
        2    1    3    3  502    0 -0.18444354295E+04  0.85608118422E+02  0.59818994379E+03  0.19409023707E+04  0.25500000920E-02 0.  1.
       -2    1    3    3    0  502  0.18444354295E+04 -0.85608118422E+02  0.34607277101E+03  0.18785731730E+04  0.25500000920E-02 0. -1.
</event>
<event>
 5   0  0.1825308E-08  0.3699374E+04  0.7818609E-02  0.8068101E-01
        2   -1    0    0  501    0  0.00000000000E+00  0.00000000000E+00  0.20996972273E+04  0.20996972273E+04  0.25500000920E-02 0.  1.
       -2   -1    0    0    0  501  0.00000000000E+00  0.00000000000E+00 -0.16294450795E+04  0.16294450795E+04  0.25500000920E-02 0. -1.
    10030    2    1    2    0    0  0.00000000000E+00  0.00000000000E+00  0.47025214779E+03  0.37291423069E+04  0.36993736311E+04 0.  0.
        4    1    3    3  502    0 -0.16574581404E+04 -0.33266331062E+03  0.99183794610E+03  0.19599940024E+04  0.12699999809E+01 0.  1.
       -4    1    3    3    0  502  0.16574581404E+04  0.33266331062E+03 -0.52158579831E+03  0.17691483045E+04  0.12699999809E+01 0. -1.
</event>
<event>
 5   0  0.5714125E-09  0.3698749E+04  0.7818609E-02  0.8068239E-01
       -1   -1    0    0    0  501  0.00000000000E+00  0.00000000000E+00  0.16416568148E+04  0.16416568148E+04  0.50400001928E-02 0. -1.
        1   -1    0    0  501    0  0.00000000000E+00  0.00000000000E+00 -0.20833745531E+04  0.20833745531E+04  0.50400001928E-02 0.  1.
    10030    2    1    2    0    0  0.00000000000E+00  0.00000000000E+00 -0.44171773825E+03  0.37250313679E+04  0.36987489955E+04 0.  0.
        4    1    3    3  502    0  0.95491557559E+03 -0.13783093040E+04 -0.10065202105E+04  0.19556801479E+04  0.12699999809E+01 0.  1.
       -4    1    3    3    0  502 -0.95491557559E+03  0.13783093040E+04  0.56480247222E+03  0.17693512200E+04  0.12699999809E+01 0. -1.
</event>
<event>
 5   0  0.5714125E-09  0.3700066E+04  0.7818609E-02  0.8067947E-01
        1   -1    0    0  501    0  0.00000000000E+00  0.00000000000E+00  0.20740153239E+04  0.20740153239E+04  0.50400001928E-02 0.  1.
       -1   -1    0    0    0  501  0.00000000000E+00  0.00000000000E+00 -0.16502397800E+04  0.16502397801E+04  0.50400001928E-02 0. -1.
    10030    2    1    2    0    0  0.00000000000E+00  0.00000000000E+00  0.42377554384E+03  0.37242551039E+04  0.37000662653E+04 0.  0.
        1    1    3    3  502    0  0.84389819214E+03 -0.58317346168E+03  0.17615524323E+04  0.20384607960E+04  0.50400001928E-02 0.  1.
       -1    1    3    3    0  502 -0.84389819214E+03  0.58317346168E+03 -0.13377768885E+04  0.16857943079E+04  0.50400001928E-02 0. -1.
</event>
<event>
 5   0  0.5714125E-09  0.3699658E+04  0.7818609E-02  0.8068038E-01
        1   -1    0    0  501    0  0.00000000000E+00  0.00000000000E+00  0.23615927457E+04  0.23615927457E+04  0.50400001928E-02 0.  1.
       -1   -1    0    0    0  501  0.00000000000E+00  0.00000000000E+00 -0.14489658082E+04  0.14489658082E+04  0.50400001928E-02 0. -1.
    10030    2    1    2    0    0  0.00000000000E+00  0.00000000000E+00  0.91262693753E+03  0.38105585539E+04  0.36996578984E+04 0.  0.
        5    1    3    3  502    0 -0.11064553599E+04  0.14822886054E+04  0.47747385542E+03  0.19103471793E+04  0.46999998093E+01 0.  1.
       -5    1    3    3    0  502  0.11064553599E+04 -0.14822886054E+04  0.43515308210E+03  0.19002113745E+04  0.46999998093E+01 0. -1.
</event>
<event>
 5   0  0.5714125E-09  0.3698454E+04  0.7818609E-02  0.8068305E-01
        1   -1    0    0  501    0  0.00000000000E+00  0.00000000000E+00  0.24131234813E+04  0.24131234813E+04  0.50400001928E-02 0.  1.
       -1   -1    0    0    0  501  0.00000000000E+00  0.00000000000E+00 -0.14171011991E+04  0.14171011991E+04  0.50400001928E-02 0. -1.
    10030    2    1    2    0    0  0.00000000000E+00  0.00000000000E+00  0.99602228225E+03  0.38302246804E+04  0.36984538277E+04 0.  0.
        3    1    3    3  502    0 -0.13066861623E+04  0.10233120774E+03  0.18489964391E+04  0.22664263158E+04  0.10100000352E+00 0.  1.
       -3    1    3    3    0  502  0.13066861623E+04 -0.10233120774E+03 -0.85297415685E+03  0.15637983646E+04  0.10100000352E+00 0. -1.
</event>
<event>
 5   0  0.1856107E-08  0.3699597E+04  0.7818609E-02  0.8068051E-01
       -2   -1    0    0    0  501  0.00000000000E+00  0.00000000000E+00  0.12869580938E+04  0.12869580938E+04  0.25500000920E-02 0. -1.
        2   -1    0    0  501    0  0.00000000000E+00  0.00000000000E+00 -0.26587926193E+04  0.26587926193E+04  0.25500000920E-02 0.  1.
    10030    2    1    2    0    0  0.00000000000E+00  0.00000000000E+00 -0.13718345255E+04  0.39457507131E+04  0.36995971030E+04 0.  0.
        2    1    3    3  502    0  0.99762944327E+03 -0.62674189387E+03  0.83504007166E+03  0.14440781935E+04  0.25500000920E-02 0. -1.
       -2    1    3    3    0  502 -0.99762944327E+03  0.62674189387E+03 -0.22068745972E+04  0.25016725196E+04  0.25500000920E-02 0.  1.
</event>
<event>
 5   0  0.5714125E-09  0.3700561E+04  0.7818609E-02  0.8067837E-01
       -1   -1    0    0    0  501  0.00000000000E+00  0.00000000000E+00  0.12374910208E+04  0.12374910208E+04  0.50400001928E-02 0. -1.
        1   -1    0    0  501    0  0.00000000000E+00  0.00000000000E+00 -0.27665160322E+04  0.27665160322E+04  0.50400001928E-02 0.  1.
    10030    2    1    2    0    0  0.00000000000E+00  0.00000000000E+00 -0.15290250114E+04  0.40040070531E+04  0.37005614433E+04 0.  0.
        4    1    3    3  502    0  0.10630292030E+04  0.70387245912E+02  0.87233257235E+03  0.13769354308E+04  0.12699999809E+01 0. -1.
       -4    1    3    3    0  502 -0.10630292030E+04 -0.70387245912E+02 -0.24013575837E+04  0.26270716223E+04  0.12699999809E+01 0.  1.
</event>
<event>
 5   0  0.1757996E-08  0.3700453E+04  0.7818609E-02  0.8067861E-01
       -2   -1    0    0    0  501  0.00000000000E+00  0.00000000000E+00  0.14253432862E+04  0.14253432862E+04  0.25500000920E-02 0. -1.
        2   -1    0    0  501    0  0.00000000000E+00  0.00000000000E+00 -0.24017637812E+04  0.24017637812E+04  0.25500000920E-02 0.  1.
    10030    2    1    2    0    0  0.00000000000E+00  0.00000000000E+00 -0.97642049500E+03  0.38271070674E+04  0.37004528807E+04 0.  0.
        3    1    3    3  502    0 -0.93276737844E+03  0.25730195226E+02  0.11641657944E+04  0.14919782278E+04  0.10100000352E+00 0. -1.
       -3    1    3    3    0  502  0.93276737844E+03 -0.25730195226E+02 -0.21405862894E+04  0.23351288396E+04  0.10100000352E+00 0.  1.
</event>
<event>
 5   0  0.1825308E-08  0.3698587E+04  0.7818609E-02  0.8068275E-01
        2   -1    0    0  501    0  0.00000000000E+00  0.00000000000E+00  0.20229256108E+04  0.20229256108E+04  0.25500000920E-02 0. -1.
       -2   -1    0    0    0  501  0.00000000000E+00  0.00000000000E+00 -0.16905650355E+04  0.16905650355E+04  0.25500000920E-02 0.  1.
    10030    2    1    2    0    0  0.00000000000E+00  0.00000000000E+00  0.33236057524E+03  0.37134906463E+04  0.36985874639E+04 0.  0.
        4    1    3    3  502    0 -0.16082832647E+04  0.59901553930E+02 -0.74838109328E+03  0.17748913007E+04  0.12699999809E+01 0.  1.
       -4    1    3    3    0  502  0.16082832647E+04 -0.59901553930E+02  0.10807416685E+04  0.19385993456E+04  0.12699999809E+01 0. -1.
</event>
<event>
 5   0  0.5714125E-09  0.3699911E+04  0.7818609E-02  0.8067982E-01
       -1   -1    0    0    0  501  0.00000000000E+00  0.00000000000E+00  0.31343574589E+04  0.31343574589E+04  0.50400001928E-02 0.  1.
        1   -1    0    0  501    0  0.00000000000E+00  0.00000000000E+00 -0.10918776098E+04  0.10918776098E+04  0.50400001928E-02 0. -1.
    10030    2    1    2    0    0  0.00000000000E+00  0.00000000000E+00  0.20424798490E+04  0.42262350687E+04  0.36999106641E+04 0.  0.
        1    1    3    3  502    0  0.54809852929E+03 -0.11404276906E+03 -0.99279489172E+03  0.11397628911E+04  0.50400001928E-02 0. -1.
       -1    1    3    3    0  502 -0.54809852929E+03  0.11404276906E+03  0.30352747407E+04  0.30864721776E+04  0.50400001928E-02 0.  1.
</event>
<event>
 5   0  0.1740290E-08  0.3692148E+04  0.7818609E-02  0.8069704E-01
        2   -1    0    0  501    0  0.00000000000E+00  0.00000000000E+00  0.20979182267E+04  0.20979182267E+04  0.25500000920E-02 0. -1.
       -2   -1    0    0    0  501  0.00000000000E+00  0.00000000000E+00 -0.16244624443E+04  0.16244624443E+04  0.25500000920E-02 0.  1.
    10030    2    1    2    0    0  0.00000000000E+00  0.00000000000E+00  0.47345578241E+03  0.37223806711E+04  0.36921480851E+04 0.  0.
        5    1    3    3  502    0 -0.14443087212E+04  0.54848051710E+03 -0.78204566966E+03  0.17316108336E+04  0.46999998093E+01 0.  1.
       -5    1    3    3    0  502  0.14443087212E+04 -0.54848051710E+03  0.12555014521E+04  0.19907698375E+04  0.46999998093E+01 0. -1.
</event>
<event>
 5   0  0.1725865E-08  0.3700348E+04  0.7818609E-02  0.8067885E-01
       -2   -1    0    0    0  501  0.00000000000E+00  0.00000000000E+00  0.27803141503E+04  0.27803141503E+04  0.25500000920E-02 0. -1.
        2   -1    0    0  501    0  0.00000000000E+00  0.00000000000E+00 -0.12312078944E+04  0.12312078945E+04  0.25500000920E-02 0.  1.
    10030    2    1    2    0    0  0.00000000000E+00  0.00000000000E+00  0.15491062558E+04  0.40115220447E+04  0.37003484868E+04 0.  0.
        1    1    3    3  502    0 -0.59439278978E+02  0.96378248221E+03  0.24854755626E+04  0.26664580389E+04  0.50400001928E-02 0. -1.
       -1    1    3    3    0  502  0.59439278978E+02 -0.96378248221E+03 -0.93636930681E+03  0.13450640058E+04  0.50400001928E-02 0.  1.
</event>
<event>
 5   0  0.1757996E-08  0.3699296E+04  0.7818609E-02  0.8068118E-01
        2   -1    0    0  501    0  0.00000000000E+00  0.00000000000E+00  0.13825693336E+04  0.13825693336E+04  0.25500000920E-02 0. -1.
       -2   -1    0    0    0  501  0.00000000000E+00  0.00000000000E+00 -0.24745220469E+04  0.24745220469E+04  0.25500000920E-02 0.  1.
    10030    2    1    2    0    0  0.00000000000E+00  0.00000000000E+00 -0.10919527133E+04  0.38570913805E+04  0.36992963100E+04 0.  0.
        3    1    3    3  502    0  0.72126511546E+03 -0.14027614515E+03  0.12238671296E+04  0.14274983449E+04  0.10100000352E+00 0. -1.
       -3    1    3    3    0  502 -0.72126511546E+03  0.14027614515E+03 -0.23158198429E+04  0.24295930356E+04  0.10100000352E+00 0.  1.
</event>
<event>
 5   0  0.5714125E-09  0.3700368E+04  0.7818609E-02  0.8067880E-01
       -1   -1    0    0    0  501  0.00000000000E+00  0.00000000000E+00  0.11200364817E+04  0.11200364817E+04  0.50400001928E-02 0.  1.
        1   -1    0    0  501    0  0.00000000000E+00  0.00000000000E+00 -0.30563112355E+04  0.30563112355E+04  0.50400001928E-02 0. -1.
    10030    2    1    2    0    0  0.00000000000E+00  0.00000000000E+00 -0.19362747538E+04  0.41763477173E+04  0.37003675943E+04 0.  0.
        1    1    3    3  502    0 -0.82505290520E+03 -0.85475944340E+03 -0.25689850919E+04  0.28303728385E+04  0.50400001928E-02 0. -1.
       -1    1    3    3    0  502  0.82505290520E+03  0.85475944340E+03  0.63271033805E+03  0.13459748788E+04  0.50400001928E-02 0.  1.
</event>
<event>
 5   0  0.5714125E-09  0.3698083E+04  0.7818609E-02  0.8068387E-01
       -1   -1    0    0    0  501  0.00000000000E+00  0.00000000000E+00  0.17393046556E+04  0.17393046557E+04  0.50400001928E-02 0. -1.
        1   -1    0    0  501    0  0.00000000000E+00  0.00000000000E+00 -0.19657023432E+04  0.19657023432E+04  0.50400001928E-02 0.  1.
    10030    2    1    2    0    0  0.00000000000E+00  0.00000000000E+00 -0.22639768755E+03  0.37050069989E+04  0.36980834156E+04 0.  0.
        2    1    3    3  502    0 -0.14201065777E+04  0.11465585725E+04  0.18342299071E+03  0.18343781632E+04  0.25500000920E-02 0.  1.
       -2    1    3    3    0  502  0.14201065777E+04 -0.11465585725E+04 -0.40982067826E+03  0.18706288356E+04  0.25500000920E-02 0. -1.
</event>
<event>
 5   0  0.1725865E-08  0.3700370E+04  0.7818609E-02  0.8067880E-01
        2   -1    0    0  501    0  0.00000000000E+00  0.00000000000E+00  0.31667820928E+04  0.31667820928E+04  0.25500000920E-02 0. -1.
       -2   -1    0    0    0  501  0.00000000000E+00  0.00000000000E+00 -0.10809662876E+04  0.10809662876E+04  0.25500000920E-02 0.  1.
    10030    2    1    2    0    0  0.00000000000E+00  0.00000000000E+00  0.20858158053E+04  0.42477483804E+04  0.37003700801E+04 0.  0.
        1    1    3    3  502    0  0.34698239202E+03  0.18098033593E+04  0.12329223170E+04  0.22171789327E+04  0.50400001928E-02 0.  1.
       -1    1    3    3    0  502 -0.34698239202E+03 -0.18098033593E+04  0.85289348829E+03  0.20305694478E+04  0.50400001928E-02 0. -1.
</event>
<event>
 5   0  0.1757996E-08  0.3699659E+04  0.7818609E-02  0.8068037E-01
        2   -1    0    0  501    0  0.00000000000E+00  0.00000000000E+00  0.25431335389E+04  0.25431335389E+04  0.25500000920E-02 0.  1.
       -2   -1    0    0    0  501  0.00000000000E+00  0.00000000000E+00 -0.13455329521E+04  0.13455329521E+04  0.25500000920E-02 0. -1.
    10030    2    1    2    0    0  0.00000000000E+00  0.00000000000E+00  0.11976005868E+04  0.38886664910E+04  0.36996594320E+04 0.  0.
        3    1    3    3  502    0  0.60281605573E+03 -0.79219309734E+03  0.22375915816E+04  0.24490351563E+04  0.10100000352E+00 0.  1.
       -3    1    3    3    0  502 -0.60281605573E+03  0.79219309734E+03 -0.10399909948E+04  0.14396313347E+04  0.10100000352E+00 0. -1.
</event>
<event>
 5   0  0.5714125E-09  0.3701068E+04  0.7818609E-02  0.8067725E-01
        1   -1    0    0  501    0  0.00000000000E+00  0.00000000000E+00  0.98006440800E+03  0.98006440801E+03  0.50400001928E-02 0.  1.
       -1   -1    0    0    0  501  0.00000000000E+00  0.00000000000E+00 -0.34941337774E+04  0.34941337774E+04  0.50400001928E-02 0. -1.
    10030    2    1    2    0    0  0.00000000000E+00  0.00000000000E+00 -0.25140693694E+04  0.44741981854E+04  0.37010680361E+04 0.  0.
        5    1    3    3  502    0  0.55042560073E+03  0.65815615549E+03 -0.32391472869E+04  0.33508558762E+04  0.46999998093E+01 0. -1.
       -5    1    3    3    0  502 -0.55042560073E+03 -0.65815615549E+03  0.72507791756E+03  0.11233423091E+04  0.46999998093E+01 0.  1.
</event>
<event>
 5   0  0.1757996E-08  0.3694197E+04  0.7818609E-02  0.8069249E-01
        2   -1    0    0  501    0  0.00000000000E+00  0.00000000000E+00  0.23253294331E+04  0.23253294331E+04  0.25500000920E-02 0.  1.
       -2   -1    0    0    0  501  0.00000000000E+00  0.00000000000E+00 -0.14672213990E+04  0.14672213990E+04  0.25500000920E-02 0. -1.
    10030    2    1    2    0    0  0.00000000000E+00  0.00000000000E+00  0.85810803406E+03  0.37925508321E+04  0.36941971274E+04 0.  0.
        3    1    3    3  502    0 -0.42550178702E+03  0.15859015922E+04  0.12975301299E+04  0.20927780769E+04  0.10100000352E+00 0. -1.
       -3    1    3    3    0  502  0.42550178702E+03 -0.15859015922E+04 -0.43942209583E+03  0.16997727552E+04  0.10100000352E+00 0.  1.
</event>
<event>
 5   0  0.5714125E-09  0.3696415E+04  0.7818609E-02  0.8068757E-01
        1   -1    0    0  501    0  0.00000000000E+00  0.00000000000E+00  0.28856408282E+04  0.28856408282E+04  0.50400001928E-02 0.  1.
       -1   -1    0    0    0  501  0.00000000000E+00  0.00000000000E+00 -0.11837478094E+04  0.11837478094E+04  0.50400001928E-02 0. -1.
    10030    2    1    2    0    0  0.00000000000E+00  0.00000000000E+00  0.17018930188E+04  0.40693886376E+04  0.36964150249E+04 0.  0.
        4    1    3    3  502    0 -0.12627294168E+04  0.12305486858E+04  0.24083079501E+03  0.17795327288E+04  0.12699999809E+01 0. -1.
       -4    1    3    3    0  502  0.12627294168E+04 -0.12305486858E+04  0.14610622238E+04  0.22898559088E+04  0.12699999809E+01 0.  1.
</event>
<event>
 5   0  0.5714125E-09  0.3699497E+04  0.7818609E-02  0.8068073E-01
        1   -1    0    0  501    0  0.00000000000E+00  0.00000000000E+00  0.22747551078E+04  0.22747551079E+04  0.50400001928E-02 0.  1.
       -1   -1    0    0    0  501  0.00000000000E+00  0.00000000000E+00 -0.15041484897E+04  0.15041484897E+04  0.50400001928E-02 0. -1.
    10030    2    1    2    0    0  0.00000000000E+00  0.00000000000E+00  0.77060661814E+03  0.37789035976E+04  0.36994969712E+04 0.  0.
        4    1    3    3  502    0  0.27031095009E+03 -0.17625955675E+04 -0.11693796344E+03  0.17870330843E+04  0.12699999809E+01 0. -1.
       -4    1    3    3    0  502 -0.27031095009E+03  0.17625955675E+04  0.88754458158E+03  0.19918705132E+04  0.12699999809E+01 0.  1.
</event>
<event>
 5   0  0.1757996E-08  0.3699892E+04  0.7818609E-02  0.8067986E-01
       -2   -1    0    0    0  501  0.00000000000E+00  0.00000000000E+00  0.16591972922E+04  0.16591972922E+04  0.25500000920E-02 0.  1.
        2   -1    0    0  501    0  0.00000000000E+00  0.00000000000E+00 -0.20626240303E+04  0.20626240303E+04  0.25500000920E-02 0. -1.
    10030    2    1    2    0    0  0.00000000000E+00  0.00000000000E+00 -0.40342673810E+03  0.37218213226E+04  0.36998920017E+04 0.  0.
        3    1    3    3  502    0 -0.17849889587E+04 -0.39045473761E+03 -0.49266758329E+03  0.18924486368E+04  0.10100000352E+00 0. -1.
       -3    1    3    3    0  502  0.17849889587E+04  0.39045473761E+03  0.89240845190E+02  0.18293726858E+04  0.10100000352E+00 0.  1.
</event>
<event>
 5   0  0.5714125E-09  0.3699556E+04  0.7818609E-02  0.8068060E-01
       -1   -1    0    0    0  501  0.00000000000E+00  0.00000000000E+00  0.22959666449E+04  0.22959666449E+04  0.50400001928E-02 0.  1.
        1   -1    0    0  501    0  0.00000000000E+00  0.00000000000E+00 -0.14902996580E+04  0.14902996580E+04  0.50400001928E-02 0. -1.
    10030    2    1    2    0    0  0.00000000000E+00  0.00000000000E+00  0.80566698689E+03  0.37862663030E+04  0.36995558143E+04 0.  0.
        3    1    3    3  502    0 -0.10071209330E+03  0.16736436024E+04 -0.39679359389E+03  0.17229831688E+04  0.10100000352E+00 0.  1.
       -3    1    3    3    0  502  0.10071209330E+03 -0.16736436024E+04  0.12024605808E+04  0.20632831342E+04  0.10100000352E+00 0. -1.
</event>
<event>
 5   0  0.5714125E-09  0.3699540E+04  0.7818609E-02  0.8068064E-01
       -1   -1    0    0    0  501  0.00000000000E+00  0.00000000000E+00  0.22867304416E+04  0.22867304416E+04  0.50400001928E-02 0. -1.
        1   -1    0    0  501    0  0.00000000000E+00  0.00000000000E+00 -0.14963064873E+04  0.14963064873E+04  0.50400001928E-02 0.  1.
    10030    2    1    2    0    0  0.00000000000E+00  0.00000000000E+00  0.79042395423E+03  0.37830369289E+04  0.36995402928E+04 0.  0.
        1    1    3    3  502    0 -0.19998007915E+03 -0.59533444540E+03 -0.13839514737E+04  0.15197818316E+04  0.50400001928E-02 0.  1.
       -1    1    3    3    0  502  0.19998007915E+03  0.59533444540E+03  0.21743754279E+04  0.22632550973E+04  0.50400001928E-02 0. -1.
</event>
<event>
 5   0  0.5714125E-09  0.3700528E+04  0.7818609E-02  0.8067845E-01
       -1   -1    0    0    0  501  0.00000000000E+00  0.00000000000E+00  0.10918796286E+04  0.10918796286E+04  0.50400001928E-02 0. -1.
        1   -1    0    0  501    0  0.00000000000E+00  0.00000000000E+00 -0.31353981576E+04  0.31353981576E+04  0.50400001928E-02 0.  1.
    10030    2    1    2    0    0  0.00000000000E+00  0.00000000000E+00 -0.20435185291E+04  0.42272777862E+04  0.37005282736E+04 0.  0.
        4    1    3    3  502    0  0.24361635417E+03 -0.17184043035E+04 -0.17542982363E+04  0.24677573206E+04  0.12699999809E+01 0.  1.
       -4    1    3    3    0  502 -0.24361635417E+03  0.17184043035E+04 -0.28922029274E+03  0.17595204657E+04  0.12699999809E+01 0. -1.
</event>
<event>
 5   0  0.1856107E-08  0.3699225E+04  0.7818609E-02  0.8068134E-01
       -2   -1    0    0    0  501  0.00000000000E+00  0.00000000000E+00  0.12547879754E+04  0.12547879754E+04  0.25500000920E-02 0.  1.
        2   -1    0    0  501    0  0.00000000000E+00  0.00000000000E+00 -0.27264097197E+04  0.27264097197E+04  0.25500000920E-02 0. -1.
    10030    2    1    2    0    0  0.00000000000E+00  0.00000000000E+00 -0.14716217443E+04  0.39811976951E+04  0.36992248552E+04 0.  0.
        2    1    3    3  502    0 -0.83723340549E+03 -0.15226511475E+04 -0.14178690277E+04  0.22427168506E+04  0.25500000920E-02 0.  1.
       -2    1    3    3    0  502  0.83723340549E+03  0.15226511475E+04 -0.53752716532E+02  0.17384808445E+04  0.25500000920E-02 0. -1.
</event>
<event>
 5   0  0.1856107E-08  0.3703936E+04  0.7818609E-02  0.8067090E-01
        2   -1    0    0  501    0  0.00000000000E+00  0.00000000000E+00  0.25174866778E+04  0.25174866778E+04  0.25500000920E-02 0. -1.
       -2   -1    0    0    0  501  0.00000000000E+00  0.00000000000E+00 -0.13623846974E+04  0.13623846974E+04  0.25500000920E-02 0.  1.
    10030    2    1    2    0    0  0.00000000000E+00  0.00000000000E+00  0.11551019805E+04  0.38798713752E+04  0.37039359205E+04 0.  0.
        2    1    3    3  502    0  0.13951682712E+04 -0.35068604008E+03  0.17992742110E+04  0.23036629289E+04  0.25500000920E-02 0. -1.
       -2    1    3    3    0  502 -0.13951682712E+04  0.35068604008E+03 -0.64417223057E+03  0.15762084463E+04  0.25500000920E-02 0.  1.
</event>
<event>
 5   0  0.1856107E-08  0.3714595E+04  0.7818609E-02  0.8064735E-01
       -2   -1    0    0    0  501  0.00000000000E+00  0.00000000000E+00  0.17746768776E+04  0.17746768776E+04  0.25500000920E-02 0. -1.
        2   -1    0    0  501    0  0.00000000000E+00  0.00000000000E+00 -0.19437648522E+04  0.19437648522E+04  0.25500000920E-02 0.  1.
    10030    2    1    2    0    0  0.00000000000E+00  0.00000000000E+00 -0.16908797459E+03  0.37184417299E+04  0.37145952882E+04 0.  0.
        2    1    3    3  502    0  0.12051151001E+04 -0.13459291268E+04 -0.51595070644E+03  0.18788381384E+04  0.25500000920E-02 0.  1.
       -2    1    3    3    0  502 -0.12051151001E+04  0.13459291268E+04  0.34686273185E+03  0.18396035914E+04  0.25500000920E-02 0. -1.
</event>
<event>
 5   0  0.5714125E-09  0.3703357E+04  0.7818609E-02  0.8067218E-01
       -1   -1    0    0    0  501  0.00000000000E+00  0.00000000000E+00  0.15424396886E+04  0.15424396886E+04  0.50400001928E-02 0. -1.
        1   -1    0    0  501    0  0.00000000000E+00  0.00000000000E+00 -0.22229154131E+04  0.22229154131E+04  0.50400001928E-02 0.  1.
    10030    2    1    2    0    0  0.00000000000E+00  0.00000000000E+00 -0.68047572459E+03  0.37653551017E+04  0.37033568327E+04 0.  0.
        2    1    3    3  502    0 -0.79787910576E+03  0.14193579379E+04 -0.12367734684E+04  0.20446996443E+04  0.25500000920E-02 0.  1.
       -2    1    3    3    0  502  0.79787910576E+03 -0.14193579379E+04  0.55629774385E+03  0.17206554574E+04  0.25500000920E-02 0. -1.
</event>
<event>
 5   0  0.5714125E-09  0.3698952E+04  0.7818609E-02  0.8068194E-01
        1   -1    0    0  501    0  0.00000000000E+00  0.00000000000E+00  0.21985416659E+04  0.21985416659E+04  0.50400001928E-02 0.  1.
       -1   -1    0    0    0  501  0.00000000000E+00  0.00000000000E+00 -0.15558317235E+04  0.15558317235E+04  0.50400001928E-02 0. -1.
    10030    2    1    2    0    0  0.00000000000E+00  0.00000000000E+00  0.64270994239E+03  0.37543733894E+04  0.36989516728E+04 0.  0.
        4    1    3    3  502    0  0.93067440597E+03  0.24506766116E+03  0.19243684544E+04  0.21516060443E+04  0.12699999809E+01 0.  1.
       -4    1    3    3    0  502 -0.93067440597E+03 -0.24506766116E+03 -0.12816585120E+04  0.16027673452E+04  0.12699999809E+01 0. -1.
</event>
<event>
 5   0  0.5714125E-09  0.3700128E+04  0.7818609E-02  0.8067933E-01
       -1   -1    0    0    0  501  0.00000000000E+00  0.00000000000E+00  0.22638562003E+04  0.22638562003E+04  0.50400001928E-02 0.  1.
        1   -1    0    0  501    0  0.00000000000E+00  0.00000000000E+00 -0.15119055858E+04  0.15119055858E+04  0.50400001928E-02 0. -1.
    10030    2    1    2    0    0  0.00000000000E+00  0.00000000000E+00  0.75195061452E+03  0.37757617862E+04  0.37001280166E+04 0.  0.
        3    1    3    3  502    0  0.17693377416E+04 -0.50196947318E+03  0.17135864880E+03  0.18471310707E+04  0.10100000352E+00 0.  1.
       -3    1    3    3    0  502 -0.17693377416E+04  0.50196947318E+03  0.58059196572E+03  0.19286307155E+04  0.10100000352E+00 0. -1.
</event>
<event>
 5   0  0.1740290E-08  0.3700940E+04  0.7818609E-02  0.8067753E-01
        2   -1    0    0  501    0  0.00000000000E+00  0.00000000000E+00  0.16755885289E+04  0.16755885289E+04  0.25500000920E-02 0. -1.
       -2   -1    0    0    0  501  0.00000000000E+00  0.00000000000E+00 -0.20436043989E+04  0.20436043989E+04  0.25500000920E-02 0.  1.
    10030    2    1    2    0    0  0.00000000000E+00  0.00000000000E+00 -0.36801586991E+03  0.37191929278E+04  0.37009404688E+04 0.  0.
        5    1    3    3  502    0  0.56650676027E+03  0.56850112119E+03  0.14915767889E+04  0.16937965762E+04  0.46999998093E+01 0. -1.
       -5    1    3    3    0  502 -0.56650676027E+03 -0.56850112119E+03 -0.18595926588E+04  0.20253963516E+04  0.46999998093E+01 0.  1.
</event>
<event>
 5   0  0.5714125E-09  0.3703560E+04  0.7818609E-02  0.8067173E-01
       -1   -1    0    0    0  501  0.00000000000E+00  0.00000000000E+00  0.17130112061E+04  0.17130112061E+04  0.50400001928E-02 0.  1.
        1   -1    0    0  501    0  0.00000000000E+00  0.00000000000E+00 -0.20017906759E+04  0.20017906759E+04  0.50400001928E-02 0. -1.
    10030    2    1    2    0    0  0.00000000000E+00  0.00000000000E+00 -0.28877946981E+03  0.37148018820E+04  0.37035603735E+04 0.  0.
        4    1    3    3  502    0 -0.97846590020E+03  0.12951566782E+04  0.74952911573E+03  0.17879099103E+04  0.12699999809E+01 0. -1.
       -4    1    3    3    0  502  0.97846590020E+03 -0.12951566782E+04 -0.10383085855E+04  0.19268919717E+04  0.12699999809E+01 0.  1.
</event>
<event>
 5   0  0.1740290E-08  0.3701506E+04  0.7818609E-02  0.8067628E-01
        2   -1    0    0  501    0  0.00000000000E+00  0.00000000000E+00  0.17080561773E+04  0.17080561773E+04  0.25500000920E-02 0.  1.
       -2   -1    0    0    0  501  0.00000000000E+00  0.00000000000E+00 -0.20053709116E+04  0.20053709116E+04  0.25500000920E-02 0. -1.
    10030    2    1    2    0    0  0.00000000000E+00  0.00000000000E+00 -0.29731473427E+03  0.37134270889E+04  0.37015057332E+04 0.  0.
        5    1    3    3  502    0 -0.60603128453E+03  0.22690876213E+03  0.15908539764E+04  0.17174399461E+04  0.46999998093E+01 0.  1.
       -5    1    3    3    0  502  0.60603128453E+03 -0.22690876213E+03 -0.18881687107E+04  0.19959871428E+04  0.46999998093E+01 0. -1.
</event>
<event>
 5   0  0.5714125E-09  0.3701016E+04  0.7818609E-02  0.8067737E-01
        1   -1    0    0  501    0  0.00000000000E+00  0.00000000000E+00  0.18731562701E+04  0.18731562701E+04  0.50400001928E-02 0. -1.
       -1   -1    0    0    0  501  0.00000000000E+00  0.00000000000E+00 -0.18281337110E+04  0.18281337110E+04  0.50400001928E-02 0.  1.
    10030    2    1    2    0    0  0.00000000000E+00  0.00000000000E+00  0.45022559086E+02  0.37012899811E+04  0.37010161433E+04 0.  0.
        4    1    3    3  502    0  0.17073279143E+03 -0.21427057901E+03 -0.18077380458E+04  0.18283818042E+04  0.12699999809E+01 0.  1.
       -4    1    3    3    0  502 -0.17073279143E+03  0.21427057901E+03  0.18527606048E+04  0.18729081768E+04  0.12699999809E+01 0. -1.
</event>
<event>
 5   0  0.5714125E-09  0.3699728E+04  0.7818609E-02  0.8068022E-01
        3   -1    0    0  501    0  0.00000000000E+00  0.00000000000E+00  0.27078617275E+04  0.27078617293E+04  0.10100000352E+00 0.  1.
       -3   -1    0    0    0  501  0.00000000000E+00  0.00000000000E+00 -0.12637263087E+04  0.12637263128E+04  0.10100000352E+00 0. -1.
    10030    2    1    2    0    0  0.00000000000E+00  0.00000000000E+00  0.14441354187E+04  0.39715880421E+04  0.36997276209E+04 0.  0.
        2    1    3    3  502    0 -0.16480878426E+03 -0.16123575688E+04  0.16792959279E+04  0.23338581102E+04  0.25500000920E-02 0. -1.
       -2    1    3    3    0  502  0.16480878426E+03  0.16123575688E+04 -0.23516050914E+03  0.16377299320E+04  0.25500000920E-02 0.  1.
</event>
<event>
 5   0  0.5714125E-09  0.3699139E+04  0.7818609E-02  0.8068153E-01
       -1   -1    0    0    0  501  0.00000000000E+00  0.00000000000E+00  0.17069834089E+04  0.17069834089E+04  0.50400001928E-02 0.  1.
        1   -1    0    0  501    0  0.00000000000E+00  0.00000000000E+00 -0.20040654175E+04  0.20040654175E+04  0.50400001928E-02 0. -1.
    10030    2    1    2    0    0  0.00000000000E+00  0.00000000000E+00 -0.29708200863E+03  0.37110488265E+04  0.36991385041E+04 0.  0.
        3    1    3    3  502    0  0.39317931252E+03 -0.16774446579E+04  0.52630297705E+03  0.18015008703E+04  0.10100000352E+00 0. -1.
       -3    1    3    3    0  502 -0.39317931252E+03  0.16774446579E+04 -0.82338498568E+03  0.19095479561E+04  0.10100000352E+00 0.  1.
</event>
<event>
 5   0  0.5714125E-09  0.3702918E+04  0.7818609E-02  0.8067315E-01
        1   -1    0    0  501    0  0.00000000000E+00  0.00000000000E+00  0.26319188466E+04  0.26319188466E+04  0.50400001928E-02 0. -1.
       -1   -1    0    0    0  501  0.00000000000E+00  0.00000000000E+00 -0.13024342061E+04  0.13024342061E+04  0.50400001928E-02 0.  1.
    10030    2    1    2    0    0  0.00000000000E+00  0.00000000000E+00  0.13294846405E+04  0.39343530527E+04  0.37029183807E+04 0.  0.
        3    1    3    3  502    0 -0.91137000181E+03 -0.39515103324E+03  0.23248163137E+04  0.25281436909E+04  0.10100000352E+00 0. -1.
       -3    1    3    3    0  502  0.91137000181E+03  0.39515103324E+03 -0.99533167321E+03  0.14062093618E+04  0.10100000352E+00 0.  1.
</event>
<event>
 5   0  0.1825308E-08  0.3699972E+04  0.7818609E-02  0.8067968E-01
        2   -1    0    0  501    0  0.00000000000E+00  0.00000000000E+00  0.23895070818E+04  0.23895070818E+04  0.25500000920E-02 0. -1.
       -2   -1    0    0    0  501  0.00000000000E+00  0.00000000000E+00 -0.14322820504E+04  0.14322820504E+04  0.25500000920E-02 0.  1.
    10030    2    1    2    0    0  0.00000000000E+00  0.00000000000E+00  0.95722503134E+03  0.38217891322E+04  0.36999719472E+04 0.  0.
        4    1    3    3  502    0 -0.14339063648E+04  0.41581691773E+03 -0.64980903499E+03  0.16282642804E+04  0.12699999809E+01 0.  1.
       -4    1    3    3    0  502  0.14339063648E+04 -0.41581691773E+03  0.16070340663E+04  0.21935248518E+04  0.12699999809E+01 0. -1.
</event>
<event>
 5   0  0.1856107E-08  0.3726388E+04  0.7818609E-02  0.8062139E-01
       -2   -1    0    0    0  501  0.00000000000E+00  0.00000000000E+00  0.12858603012E+04  0.12858603013E+04  0.25500000920E-02 0. -1.
        2   -1    0    0  501    0  0.00000000000E+00  0.00000000000E+00 -0.26997419379E+04  0.26997419379E+04  0.25500000920E-02 0.  1.
    10030    2    1    2    0    0  0.00000000000E+00  0.00000000000E+00 -0.14138816366E+04  0.39856022391E+04  0.37263875169E+04 0.  0.
        2    1    3    3  502    0 -0.39867728452E+03  0.17601774083E+04 -0.21178689780E+03  0.18171466028E+04  0.25500000920E-02 0. -1.
       -2    1    3    3    0  502  0.39867728452E+03 -0.17601774083E+04 -0.12020947388E+04  0.21684556364E+04  0.25500000920E-02 0.  1.
</event>
<event>
 5   0  0.5714125E-09  0.3698995E+04  0.7818609E-02  0.8068184E-01
        1   -1    0    0  501    0  0.00000000000E+00  0.00000000000E+00  0.23643454703E+04  0.23643454704E+04  0.50400001928E-02 0.  1.
       -1   -1    0    0    0  501  0.00000000000E+00  0.00000000000E+00 -0.14467606211E+04  0.14467606211E+04  0.50400001928E-02 0. -1.
    10030    2    1    2    0    0  0.00000000000E+00  0.00000000000E+00  0.91758484927E+03  0.38111060914E+04  0.36989954967E+04 0.  0.
        3    1    3    3  502    0 -0.13814081326E+03  0.13109676597E+04 -0.87780104819E+03  0.15837467536E+04  0.10100000352E+00 0. -1.
       -3    1    3    3    0  502  0.13814081326E+03 -0.13109676597E+04  0.17953858975E+04  0.22273593379E+04  0.10100000352E+00 0.  1.
</event>
<event>
 5   0  0.1757996E-08  0.3697273E+04  0.7818609E-02  0.8068566E-01
        2   -1    0    0  501    0  0.00000000000E+00  0.00000000000E+00  0.19561933893E+04  0.19561933893E+04  0.25500000920E-02 0. -1.
       -2   -1    0    0    0  501  0.00000000000E+00  0.00000000000E+00 -0.17469935254E+04  0.17469935254E+04  0.25500000920E-02 0.  1.
    10030    2    1    2    0    0  0.00000000000E+00  0.00000000000E+00  0.20919986394E+03  0.37031869147E+04  0.36972731496E+04 0.  0.
        3    1    3    3  502    0  0.82936986301E+03  0.30536455572E+03  0.17308827198E+04  0.19434651738E+04  0.10100000352E+00 0. -1.
       -3    1    3    3    0  502 -0.82936986301E+03 -0.30536455572E+03 -0.15216828559E+04  0.17597217410E+04  0.10100000352E+00 0.  1.
</event>
<event>
 5   0  0.5714125E-09  0.3700646E+04  0.7818609E-02  0.8067819E-01
       -1   -1    0    0    0  501  0.00000000000E+00  0.00000000000E+00  0.19287714378E+04  0.19287714378E+04  0.50400001928E-02 0. -1.
        1   -1    0    0  501    0  0.00000000000E+00  0.00000000000E+00 -0.17750656325E+04  0.17750656325E+04  0.50400001928E-02 0.  1.
    10030    2    1    2    0    0  0.00000000000E+00  0.00000000000E+00  0.15370580528E+03  0.37038370703E+04  0.37006463717E+04 0.  0.
        1    1    3    3  502    0  0.11649386143E+03  0.22734854900E+03  0.19110370533E+04  0.19280354772E+04  0.50400001928E-02 0. -1.
       -1    1    3    3    0  502 -0.11649386143E+03 -0.22734854900E+03 -0.17573312480E+04  0.17758015930E+04  0.50400001928E-02 0.  1.
</event>
<event>
 5   0  0.5714125E-09  0.3699226E+04  0.7818609E-02  0.8068133E-01
       -1   -1    0    0    0  501  0.00000000000E+00  0.00000000000E+00  0.14322884736E+04  0.14322884736E+04  0.50400001928E-02 0.  1.
        1   -1    0    0  501    0  0.00000000000E+00  0.00000000000E+00 -0.23885335722E+04  0.23885335722E+04  0.50400001928E-02 0. -1.
    10030    2    1    2    0    0  0.00000000000E+00  0.00000000000E+00 -0.95624509861E+03  0.38208220459E+04  0.36992264621E+04 0.  0.
        4    1    3    3  502    0 -0.12944451385E+04 -0.98252173930E+03 -0.13904053071E+04  0.21387299306E+04  0.12699999809E+01 0. -1.
       -4    1    3    3    0  502  0.12944451385E+04  0.98252173930E+03  0.43416020854E+03  0.16820921153E+04  0.12699999809E+01 0.  1.
</event>
<event>
 5   0  0.5714125E-09  0.3698373E+04  0.7818609E-02  0.8068323E-01
       -1   -1    0    0    0  501  0.00000000000E+00  0.00000000000E+00  0.30517077545E+04  0.30517077545E+04  0.50400001928E-02 0. -1.
        1   -1    0    0  501    0  0.00000000000E+00  0.00000000000E+00 -0.11205170144E+04  0.11205170144E+04  0.50400001928E-02 0.  1.
    10030    2    1    2    0    0  0.00000000000E+00  0.00000000000E+00  0.19311907402E+04  0.41722247689E+04  0.36983728648E+04 0.  0.
        5    1    3    3  502    0  0.15371338594E+04  0.10277981749E+04  0.94545331987E+03  0.20767892672E+04  0.46999998093E+01 0. -1.
       -5    1    3    3    0  502 -0.15371338594E+04 -0.10277981749E+04  0.98573742028E+03  0.20954355017E+04  0.46999998093E+01 0.  1.
</event>
<event>
 5   0  0.1757996E-08  0.3700070E+04  0.7818609E-02  0.8067946E-01
       -2   -1    0    0    0  501  0.00000000000E+00  0.00000000000E+00  0.26954538036E+04  0.26954538036E+04  0.25500000920E-02 0. -1.
        2   -1    0    0  501    0  0.00000000000E+00  0.00000000000E+00 -0.12697785693E+04  0.12697785693E+04  0.25500000920E-02 0.  1.
    10030    2    1    2    0    0  0.00000000000E+00  0.00000000000E+00  0.14256752342E+04  0.39652323729E+04  0.37000699855E+04 0.  0.
        3    1    3    3  502    0  0.85324887989E+03 -0.91626763657E+03 -0.74677109821E+03  0.14578227314E+04  0.10100000352E+00 0.  1.
       -3    1    3    3    0  502 -0.85324887989E+03  0.91626763657E+03  0.21724463324E+04  0.25074096415E+04  0.10100000352E+00 0. -1.
</event>
<event>
 5   0  0.5714125E-09  0.3699247E+04  0.7818609E-02  0.8068129E-01
        1   -1    0    0  501    0  0.00000000000E+00  0.00000000000E+00  0.14075463940E+04  0.14075463940E+04  0.50400001928E-02 0. -1.
       -1   -1    0    0    0  501  0.00000000000E+00  0.00000000000E+00 -0.24305461613E+04  0.24305461613E+04  0.50400001928E-02 0.  1.
    10030    2    1    2    0    0  0.00000000000E+00  0.00000000000E+00 -0.10229997673E+04  0.38380925553E+04  0.36992466719E+04 0.  0.
        1    1    3    3  502    0  0.72611213468E+03 -0.72155753216E+02  0.12518985707E+04  0.14490325449E+04  0.50400001928E-02 0. -1.
       -1    1    3    3    0  502 -0.72611213468E+03  0.72155753216E+02 -0.22748983380E+04  0.23890600104E+04  0.50400001928E-02 0.  1.
</event>
<event>
 5   0  0.1725865E-08  0.3702637E+04  0.7818609E-02  0.8067378E-01
       -2   -1    0    0    0  501  0.00000000000E+00  0.00000000000E+00  0.20005633842E+04  0.20005633842E+04  0.25500000920E-02 0.  1.
        2   -1    0    0  501    0  0.00000000000E+00  0.00000000000E+00 -0.17132076069E+04  0.17132076069E+04  0.25500000920E-02 0. -1.
    10030    2    1    2    0    0  0.00000000000E+00  0.00000000000E+00  0.28735577730E+03  0.37137709910E+04  0.37026371185E+04 0.  0.
        1    1    3    3  502    0 -0.25730707230E+01 -0.97546811438E+03  0.17218882248E+04  0.19790006876E+04  0.50400001928E-02 0.  1.
       -1    1    3    3    0  502  0.25730707230E+01  0.97546811438E+03 -0.14345324475E+04  0.17347703034E+04  0.50400001928E-02 0. -1.
</event>
<event>
 5   0  0.5714125E-09  0.3700260E+04  0.7818609E-02  0.8067904E-01
        1   -1    0    0  501    0  0.00000000000E+00  0.00000000000E+00  0.23947028040E+04  0.23947028040E+04  0.50400001928E-02 0. -1.
       -1   -1    0    0    0  501  0.00000000000E+00  0.00000000000E+00 -0.14293968930E+04  0.14293968930E+04  0.50400001928E-02 0.  1.
    10030    2    1    2    0    0  0.00000000000E+00  0.00000000000E+00  0.96530591093E+03  0.38240996970E+04  0.37002598545E+04 0.  0.
        4    1    3    3  502    0 -0.18222317858E+03  0.45473201518E+03  0.23264571540E+04  0.23774757611E+04  0.12699999809E+01 0. -1.
       -4    1    3    3    0  502  0.18222317858E+03 -0.45473201518E+03 -0.13611512431E+04  0.14466239359E+04  0.12699999809E+01 0.  1.
</event>
<event>
 5   0  0.5714125E-09  0.3699641E+04  0.7818609E-02  0.8068041E-01
       -1   -1    0    0    0  501  0.00000000000E+00  0.00000000000E+00  0.14094051305E+04  0.14094051305E+04  0.50400001928E-02 0. -1.
        1   -1    0    0  501    0  0.00000000000E+00  0.00000000000E+00 -0.24278583814E+04  0.24278583814E+04  0.50400001928E-02 0.  1.
    10030    2    1    2    0    0  0.00000000000E+00  0.00000000000E+00 -0.10184532509E+04  0.38372635119E+04  0.36996410955E+04 0.  0.
        5    1    3    3  502    0  0.10829153046E+04 -0.13197207092E+04 -0.12480775157E+04  0.21147311609E+04  0.46999998093E+01 0.  1.
       -5    1    3    3    0  502 -0.10829153046E+04  0.13197207092E+04  0.22962426488E+03  0.17225323511E+04  0.46999998093E+01 0. -1.
</event>
<event>
 5   0  0.5714125E-09  0.3696288E+04  0.7818609E-02  0.8068785E-01
       -1   -1    0    0    0  501  0.00000000000E+00  0.00000000000E+00  0.17064325821E+04  0.17064325821E+04  0.50400001928E-02 0.  1.
        1   -1    0    0  501    0  0.00000000000E+00  0.00000000000E+00 -0.20016242212E+04  0.20016242213E+04  0.50400001928E-02 0. -1.
    10030    2    1    2    0    0  0.00000000000E+00  0.00000000000E+00 -0.29519163919E+03  0.37080568033E+04  0.36962882941E+04 0.  0.
        2    1    3    3  502    0 -0.14327955796E+04 -0.10354642476E+04  0.39314486131E+03  0.18109810223E+04  0.25500000920E-02 0. -1.
       -2    1    3    3    0  502  0.14327955796E+04  0.10354642476E+04 -0.68833650050E+03  0.18970757810E+04  0.25500000920E-02 0.  1.
</event>
<event>
 5   0  0.5714125E-09  0.3700116E+04  0.7818609E-02  0.8067936E-01
        1   -1    0    0  501    0  0.00000000000E+00  0.00000000000E+00  0.14163024912E+04  0.14163024912E+04  0.50400001928E-02 0.  1.
       -1   -1    0    0    0  501  0.00000000000E+00  0.00000000000E+00 -0.24166545458E+04  0.24166545458E+04  0.50400001928E-02 0. -1.
    10030    2    1    2    0    0  0.00000000000E+00  0.00000000000E+00 -0.10003520546E+04  0.38329570370E+04  0.37001155948E+04 0.  0.
        4    1    3    3  502    0 -0.10366123131E+04 -0.14614846033E+04 -0.22974871263E+02  0.17919352084E+04  0.12699999809E+01 0.  1.
       -4    1    3    3    0  502  0.10366123131E+04  0.14614846033E+04 -0.97737718333E+03  0.20410218286E+04  0.12699999809E+01 0. -1.
</event>
<event>
 5   0  0.5714125E-09  0.3699477E+04  0.7818609E-02  0.8068078E-01
       -1   -1    0    0    0  501  0.00000000000E+00  0.00000000000E+00  0.16330503973E+04  0.16330503973E+04  0.50400001928E-02 0. -1.
        1   -1    0    0  501    0  0.00000000000E+00  0.00000000000E+00 -0.20951782667E+04  0.20951782667E+04  0.50400001928E-02 0.  1.
    10030    2    1    2    0    0  0.00000000000E+00  0.00000000000E+00 -0.46212786945E+03  0.37282286640E+04  0.36994765581E+04 0.  0.
        5    1    3    3  502    0 -0.45141259867E+02  0.15136923010E+04  0.83936231786E+03  0.17314309995E+04  0.46999998093E+01 0. -1.
       -5    1    3    3    0  502  0.45141259867E+02 -0.15136923010E+04 -0.13014901873E+04  0.19967976645E+04  0.46999998093E+01 0.  1.
</event>
<event>
 5   0  0.1856107E-08  0.3701313E+04  0.7818609E-02  0.8067671E-01
       -2   -1    0    0    0  501  0.00000000000E+00  0.00000000000E+00  0.16840390513E+04  0.16840390513E+04  0.25500000920E-02 0.  1.
        2   -1    0    0  501    0  0.00000000000E+00  0.00000000000E+00 -0.20337586439E+04  0.20337586439E+04  0.25500000920E-02 0. -1.
    10030    2    1    2    0    0  0.00000000000E+00  0.00000000000E+00 -0.34971959262E+03  0.37177976952E+04  0.37013127278E+04 0.  0.
        2    1    3    3  502    0  0.10182675977E+04  0.12620183565E+04  0.72094731670E+03  0.17746335582E+04  0.25500000920E-02 0.  1.
       -2    1    3    3    0  502 -0.10182675977E+04 -0.12620183565E+04 -0.10706669093E+04  0.19431641370E+04  0.25500000920E-02 0. -1.
</event>
<event>
 5   0  0.5714125E-09  0.3700221E+04  0.7818609E-02  0.8067913E-01
        1   -1    0    0  501    0  0.00000000000E+00  0.00000000000E+00  0.20019909694E+04  0.20019909694E+04  0.50400001928E-02 0. -1.
       -1   -1    0    0    0  501  0.00000000000E+00  0.00000000000E+00 -0.17097523400E+04  0.17097523400E+04  0.50400001928E-02 0.  1.
    10030    2    1    2    0    0  0.00000000000E+00  0.00000000000E+00  0.29223862933E+03  0.37117433094E+04  0.37002209364E+04 0.  0.
        1    1    3    3  502    0 -0.75134912965E+03 -0.14664177760E+04  0.99016812544E+03  0.19223265916E+04  0.50400001928E-02 0.  1.
       -1    1    3    3    0  502  0.75134912965E+03  0.14664177760E+04 -0.69792949610E+03  0.17894167178E+04  0.50400001928E-02 0. -1.
</event>
<event>
 5   0  0.5714125E-09  0.3699032E+04  0.7818609E-02  0.8068176E-01
       -1   -1    0    0    0  501  0.00000000000E+00  0.00000000000E+00  0.20196207395E+04  0.20196207395E+04  0.50400001928E-02 0. -1.
        1   -1    0    0  501    0  0.00000000000E+00  0.00000000000E+00 -0.16937388258E+04  0.16937388258E+04  0.50400001928E-02 0.  1.
    10030    2    1    2    0    0  0.00000000000E+00  0.00000000000E+00  0.32588191370E+03  0.37133595652E+04  0.36990323382E+04 0.  0.
        1    1    3    3  502    0 -0.88988877152E+03  0.47518315705E+03 -0.13932273809E+04  0.17201115061E+04  0.50400001928E-02 0.  1.
       -1    1    3    3    0  502  0.88988877152E+03 -0.47518315705E+03  0.17191092946E+04  0.19932480591E+04  0.50400001928E-02 0. -1.
</event>
<event>
 5   0  0.5714125E-09  0.3714570E+04  0.7818609E-02  0.8064741E-01
        1   -1    0    0  501    0  0.00000000000E+00  0.00000000000E+00  0.25740612077E+04  0.25740612077E+04  0.50400001928E-02 0.  1.
       -1   -1    0    0    0  501  0.00000000000E+00  0.00000000000E+00 -0.13401029856E+04  0.13401029856E+04  0.50400001928E-02 0. -1.
    10030    2    1    2    0    0  0.00000000000E+00  0.00000000000E+00  0.12339582221E+04  0.39141641933E+04  0.37145697515E+04 0.  0.
        1    1    3    3  502    0  0.14874761639E+04 -0.76316853068E+03  0.14694584772E+04  0.22258301285E+04  0.50400001928E-02 0.  1.
       -1    1    3    3    0  502 -0.14874761639E+04  0.76316853068E+03 -0.23550025515E+03  0.16883340649E+04  0.50400001928E-02 0. -1.
</event>
<event>
 5   0  0.1825308E-08  0.3695787E+04  0.7818609E-02  0.8068896E-01
        2   -1    0    0  501    0  0.00000000000E+00  0.00000000000E+00  0.13773152449E+04  0.13773152449E+04  0.25500000920E-02 0. -1.
       -2   -1    0    0    0  501  0.00000000000E+00  0.00000000000E+00 -0.24792511091E+04  0.24792511091E+04  0.25500000920E-02 0.  1.
    10030    2    1    2    0    0  0.00000000000E+00  0.00000000000E+00 -0.11019358642E+04  0.38565663540E+04  0.36957869789E+04 0.  0.
        4    1    3    3  502    0  0.79795667495E+03 -0.12315458284E+04  0.62095133728E+03  0.15934309394E+04  0.12699999809E+01 0. -1.
       -4    1    3    3    0  502 -0.79795667495E+03  0.12315458284E+04 -0.17228872015E+04  0.22631354145E+04  0.12699999809E+01 0.  1.
</event>
<event>
 5   0  0.5714125E-09  0.3700620E+04  0.7818609E-02  0.8067825E-01
       -1   -1    0    0    0  501  0.00000000000E+00  0.00000000000E+00  0.15886741252E+04  0.15886741252E+04  0.50400001928E-02 0. -1.
        1   -1    0    0  501    0  0.00000000000E+00  0.00000000000E+00 -0.21550336483E+04  0.21550336483E+04  0.50400001928E-02 0.  1.
    10030    2    1    2    0    0  0.00000000000E+00  0.00000000000E+00 -0.56635952315E+03  0.37437077735E+04  0.37006195135E+04 0.  0.
        3    1    3    3  502    0 -0.60485937968E+03  0.13523816923E+04  0.83826488043E+03  0.17021983230E+04  0.10100000352E+00 0. -1.
       -3    1    3    3    0  502  0.60485937968E+03 -0.13523816923E+04 -0.14046244036E+04  0.20415094504E+04  0.10100000352E+00 0.  1.
</event>
<event>
 5   0  0.1825308E-08  0.3702243E+04  0.7818609E-02  0.8067465E-01
       -2   -1    0    0    0  501  0.00000000000E+00  0.00000000000E+00  0.12503603495E+04  0.12503603495E+04  0.25500000920E-02 0.  1.
        2   -1    0    0  501    0  0.00000000000E+00  0.00000000000E+00 -0.27405299874E+04  0.27405299874E+04  0.25500000920E-02 0. -1.
    10030    2    1    2    0    0  0.00000000000E+00  0.00000000000E+00 -0.14901696379E+04  0.39908903369E+04  0.37022425814E+04 0.  0.
        4    1    3    3  502    0 -0.17235864372E+04 -0.48219331149E+03 -0.23559598388E+03  0.18052057159E+04  0.12699999809E+01 0.  1.
       -4    1    3    3    0  502  0.17235864372E+04  0.48219331149E+03 -0.12545736540E+04  0.21856846210E+04  0.12699999809E+01 0. -1.
</event>
<event>
 5   0  0.1757996E-08  0.3704153E+04  0.7818609E-02  0.8067042E-01
        2   -1    0    0  501    0  0.00000000000E+00  0.00000000000E+00  0.20538244748E+04  0.20538244748E+04  0.25500000920E-02 0. -1.
       -2   -1    0    0    0  501  0.00000000000E+00  0.00000000000E+00 -0.16701463117E+04  0.16701463117E+04  0.25500000920E-02 0.  1.
    10030    2    1    2    0    0  0.00000000000E+00  0.00000000000E+00  0.38367816308E+03  0.37239707864E+04  0.37041530051E+04 0.  0.
        3    1    3    3  502    0  0.18480732260E+04  0.63148467572E+02  0.87239253759E+02  0.18512085445E+04  0.10100000352E+00 0. -1.
       -3    1    3    3    0  502 -0.18480732260E+04 -0.63148467572E+02  0.29643890932E+03  0.18727622419E+04  0.10100000352E+00 0.  1.
</event>
<event>
 5   0  0.1725865E-08  0.3700849E+04  0.7818609E-02  0.8067774E-01
        2   -1    0    0  501    0  0.00000000000E+00  0.00000000000E+00  0.26737747825E+04  0.26737747825E+04  0.25500000920E-02 0. -1.
       -2   -1    0    0    0  501  0.00000000000E+00  0.00000000000E+00 -0.12806127751E+04  0.12806127751E+04  0.25500000920E-02 0.  1.
    10030    2    1    2    0    0  0.00000000000E+00  0.00000000000E+00  0.13931620074E+04  0.39543875576E+04  0.37008486292E+04 0.  0.
        1    1    3    3  502    0 -0.80861736032E+03 -0.13643514284E+04 -0.32201251069E+03  0.16183352287E+04  0.50400001928E-02 0.  1.
       -1    1    3    3    0  502  0.80861736032E+03  0.13643514284E+04  0.17151745181E+04  0.23360523288E+04  0.50400001928E-02 0. -1.
</event>
<event>
 5   0  0.1825308E-08  0.3701546E+04  0.7818609E-02  0.8067619E-01
       -2   -1    0    0    0  501  0.00000000000E+00  0.00000000000E+00  0.21920783353E+04  0.21920783353E+04  0.25500000920E-02 0. -1.
        2   -1    0    0  501    0  0.00000000000E+00  0.00000000000E+00 -0.15626090454E+04  0.15626090454E+04  0.25500000920E-02 0.  1.
    10030    2    1    2    0    0  0.00000000000E+00  0.00000000000E+00  0.62946928992E+03  0.37546873807E+04  0.37015463985E+04 0.  0.
        4    1    3    3  502    0  0.10512386123E+04 -0.54698139693E+03 -0.11273179747E+04  0.16355851239E+04  0.12699999809E+01 0.  1.
       -4    1    3    3    0  502 -0.10512386123E+04  0.54698139693E+03  0.17567872647E+04  0.21191022568E+04  0.12699999809E+01 0. -1.
</event>
<event>
 5   0  0.5714125E-09  0.3699667E+04  0.7818609E-02  0.8068036E-01
        1   -1    0    0  501    0  0.00000000000E+00  0.00000000000E+00  0.23996495500E+04  0.23996495500E+04  0.50400001928E-02 0. -1.
       -1   -1    0    0    0  501  0.00000000000E+00  0.00000000000E+00 -0.14259933901E+04  0.14259933901E+04  0.50400001928E-02 0.  1.
    10030    2    1    2    0    0  0.00000000000E+00  0.00000000000E+00  0.97365615989E+03  0.38256429402E+04  0.36996672267E+04 0.  0.
        3    1    3    3  502    0  0.17471363201E+04  0.37106043828E+03 -0.10928688516E+02  0.17861384651E+04  0.10100000352E+00 0.  1.
       -3    1    3    3    0  502 -0.17471363201E+04 -0.37106043828E+03  0.98458484840E+03  0.20395044751E+04  0.10100000352E+00 0. -1.
</event>
<event>
 5   0  0.1757996E-08  0.3693837E+04  0.7818609E-02  0.8069329E-01
        2   -1    0    0  501    0  0.00000000000E+00  0.00000000000E+00  0.15970663451E+04  0.15970663451E+04  0.25500000920E-02 0. -1.
       -2   -1    0    0    0  501  0.00000000000E+00  0.00000000000E+00 -0.21358585487E+04  0.21358585487E+04  0.25500000920E-02 0.  1.
    10030    2    1    2    0    0  0.00000000000E+00  0.00000000000E+00 -0.53879220367E+03  0.37329248938E+04  0.36938369244E+04 0.  0.
        3    1    3    3  502    0  0.16318836468E+04  0.55745754304E+03 -0.93768397405E+03  0.19629198645E+04  0.10100000352E+00 0.  1.
       -3    1    3    3    0  502 -0.16318836468E+04 -0.55745754304E+03  0.39889177038E+03  0.17700050293E+04  0.10100000352E+00 0. -1.
</event>
<event>
 5   0  0.5714125E-09  0.3701242E+04  0.7818609E-02  0.8067687E-01
       -1   -1    0    0    0  501  0.00000000000E+00  0.00000000000E+00  0.25984120122E+04  0.25984120122E+04  0.50400001928E-02 0.  1.
        1   -1    0    0  501    0  0.00000000000E+00  0.00000000000E+00 -0.13180353202E+04  0.13180353202E+04  0.50400001928E-02 0. -1.
    10030    2    1    2    0    0  0.00000000000E+00  0.00000000000E+00  0.12803766920E+04  0.39164473324E+04  0.37012423906E+04 0.  0.
        3    1    3    3  502    0  0.10268694079E+04 -0.15390336327E+04  0.68398956249E+03  0.19725432911E+04  0.10100000352E+00 0.  1.
       -3    1    3    3    0  502 -0.10268694079E+04  0.15390336327E+04  0.59638712955E+03  0.19439040413E+04  0.10100000352E+00 0. -1.
</event>
<event>
 5   0  0.1825308E-08  0.3697090E+04  0.7818609E-02  0.8068607E-01
        2   -1    0    0  501    0  0.00000000000E+00  0.00000000000E+00  0.18579578231E+04  0.18579578231E+04  0.25500000920E-02 0.  1.
       -2   -1    0    0    0  501  0.00000000000E+00  0.00000000000E+00 -0.18391798827E+04  0.18391798827E+04  0.25500000920E-02 0. -1.
    10030    2    1    2    0    0  0.00000000000E+00  0.00000000000E+00  0.18777940399E+02  0.36971377057E+04  0.36970900184E+04 0.  0.
        4    1    3    3  502    0  0.15877557071E+03 -0.12308804392E+04  0.13793849988E+04  0.18555271287E+04  0.12699999809E+01 0.  1.
       -4    1    3    3    0  502 -0.15877557071E+03  0.12308804392E+04 -0.13606070584E+04  0.18416105771E+04  0.12699999809E+01 0. -1.
</event>
<event>
 5   0  0.1856107E-08  0.3698301E+04  0.7818609E-02  0.8068338E-01
       -2   -1    0    0    0  501  0.00000000000E+00  0.00000000000E+00  0.24820365018E+04  0.24820365018E+04  0.25500000920E-02 0. -1.
        2   -1    0    0  501    0  0.00000000000E+00  0.00000000000E+00 -0.13776421406E+04  0.13776421406E+04  0.25500000920E-02 0.  1.
    10030    2    1    2    0    0  0.00000000000E+00  0.00000000000E+00  0.11043943612E+04  0.38596786424E+04  0.36983012746E+04 0.  0.
        2    1    3    3  502    0  0.25942066086E+02  0.15651348438E+04 -0.47515480727E+03  0.16358765726E+04  0.25500000920E-02 0.  1.
       -2    1    3    3    0  502 -0.25942066086E+02 -0.15651348438E+04  0.15795491685E+04  0.22238020698E+04  0.25500000920E-02 0. -1.
</event>
<event>
 5   0  0.1725865E-08  0.3699768E+04  0.7818609E-02  0.8068013E-01
        2   -1    0    0  501    0  0.00000000000E+00  0.00000000000E+00  0.19143051907E+04  0.19143051907E+04  0.25500000920E-02 0.  1.
       -2   -1    0    0    0  501  0.00000000000E+00  0.00000000000E+00 -0.17876307272E+04  0.17876307272E+04  0.25500000920E-02 0. -1.
    10030    2    1    2    0    0  0.00000000000E+00  0.00000000000E+00  0.12667446353E+03  0.37019359179E+04  0.36997679820E+04 0.  0.
        1    1    3    3  502    0 -0.10260107781E+04  0.96753982916E+03  0.12612184828E+04  0.18919575839E+04  0.50400001928E-02 0.  1.
       -1    1    3    3    0  502  0.10260107781E+04 -0.96753982916E+03 -0.11345440193E+04  0.18099783340E+04  0.50400001928E-02 0. -1.
</event>
<event>
 5   0  0.1757996E-08  0.3702156E+04  0.7818609E-02  0.8067484E-01
        2   -1    0    0  501    0  0.00000000000E+00  0.00000000000E+00  0.23151832968E+04  0.23151832968E+04  0.25500000920E-02 0.  1.
       -2   -1    0    0    0  501  0.00000000000E+00  0.00000000000E+00 -0.14800080489E+04  0.14800080490E+04  0.25500000920E-02 0. -1.
    10030    2    1    2    0    0  0.00000000000E+00  0.00000000000E+00  0.83517524784E+03  0.37951913457E+04  0.37021560821E+04 0.  0.
        3    1    3    3  502    0 -0.36656521224E+03 -0.16151084603E+04  0.12651318165E+04  0.20841074628E+04  0.10100000352E+00 0.  1.
       -3    1    3    3    0  502  0.36656521224E+03  0.16151084603E+04 -0.42995656864E+03  0.17110838829E+04  0.10100000352E+00 0. -1.
</event>
<event>
 5   0  0.1856107E-08  0.3700828E+04  0.7818609E-02  0.8067778E-01
        2   -1    0    0  501    0  0.00000000000E+00  0.00000000000E+00  0.25122467456E+04  0.25122467456E+04  0.25500000920E-02 0.  1.
       -2   -1    0    0    0  501  0.00000000000E+00  0.00000000000E+00 -0.13629361637E+04  0.13629361637E+04  0.25500000920E-02 0. -1.
    10030    2    1    2    0    0  0.00000000000E+00  0.00000000000E+00  0.11493105819E+04  0.38751829093E+04  0.37008279840E+04 0.  0.
        2    1    3    3  502    0 -0.37097079269E+03 -0.12784118138E+03 -0.13188729261E+04  0.13760045392E+04  0.25500000920E-02 0. -1.
       -2    1    3    3    0  502  0.37097079269E+03  0.12784118138E+03  0.24681835080E+04  0.24991783702E+04  0.25500000920E-02 0.  1.
</event>
<event>
 5   0  0.5714125E-09  0.3696247E+04  0.7818609E-02  0.8068794E-01
        1   -1    0    0  501    0  0.00000000000E+00  0.00000000000E+00  0.23328751871E+04  0.23328751871E+04  0.50400001928E-02 0.  1.
       -1   -1    0    0    0  501  0.00000000000E+00  0.00000000000E+00 -0.14640990279E+04  0.14640990279E+04  0.50400001928E-02 0. -1.
    10030    2    1    2    0    0  0.00000000000E+00  0.00000000000E+00  0.86877615920E+03  0.37969742151E+04  0.36962469040E+04 0.  0.
        2    1    3    3  502    0 -0.12894679896E+04 -0.70805571682E+03 -0.71479788683E+03  0.16355447451E+04  0.25500000920E-02 0. -1.
       -2    1    3    3    0  502  0.12894679896E+04  0.70805571682E+03  0.15835740460E+04  0.21614294699E+04  0.25500000920E-02 0.  1.
</event>
<event>
 5   0  0.5714125E-09  0.3706223E+04  0.7818609E-02  0.8066584E-01
        1   -1    0    0  501    0  0.00000000000E+00  0.00000000000E+00  0.26792153191E+04  0.26792153191E+04  0.50400001928E-02 0. -1.
       -1   -1    0    0    0  501  0.00000000000E+00  0.00000000000E+00 -0.12817270350E+04  0.12817270350E+04  0.50400001928E-02 0.  1.
    10030    2    1    2    0    0  0.00000000000E+00  0.00000000000E+00  0.13974882841E+04  0.39609423541E+04  0.37062232567E+04 0.  0.
        2    1    3    3  502    0 -0.27869767826E+03 -0.10723668657E+04  0.22862197586E+04  0.25405597563E+04  0.25500000920E-02 0. -1.
       -2    1    3    3    0  502  0.27869767826E+03  0.10723668657E+04 -0.88873147448E+03  0.14203825978E+04  0.25500000920E-02 0.  1.
</event>
<event>
 5   0  0.5714125E-09  0.3701862E+04  0.7818609E-02  0.8067549E-01
        1   -1    0    0  501    0  0.00000000000E+00  0.00000000000E+00  0.21261382789E+04  0.21261382789E+04  0.50400001928E-02 0.  1.
       -1   -1    0    0    0  501  0.00000000000E+00  0.00000000000E+00 -0.16113464242E+04  0.16113464243E+04  0.50400001928E-02 0. -1.
    10030    2    1    2    0    0  0.00000000000E+00  0.00000000000E+00  0.51479185462E+03  0.37374847031E+04  0.37018618630E+04 0.  0.
        4    1    3    3  502    0  0.15780236334E+04  0.11005274973E+03 -0.71293183712E+03  0.17350918167E+04  0.12699999809E+01 0. -1.
       -4    1    3    3    0  502 -0.15780236334E+04 -0.11005274973E+03  0.12277236917E+04  0.20023928864E+04  0.12699999809E+01 0.  1.
</event>
<event>
 5   0  0.5714125E-09  0.3695342E+04  0.7818609E-02  0.8068995E-01
       -1   -1    0    0    0  501  0.00000000000E+00  0.00000000000E+00  0.27675283653E+04  0.27675283653E+04  0.50400001928E-02 0. -1.
        1   -1    0    0  501    0  0.00000000000E+00  0.00000000000E+00 -0.12335512246E+04  0.12335512246E+04  0.50400001928E-02 0.  1.
    10030    2    1    2    0    0  0.00000000000E+00  0.00000000000E+00  0.15339771407E+04  0.40010795899E+04  0.36953419350E+04 0.  0.
        5    1    3    3  502    0  0.12667276829E+04  0.28013324926E+03 -0.65745428592E+03  0.14544214960E+04  0.46999998093E+01 0.  1.
       -5    1    3    3    0  502 -0.12667276829E+04 -0.28013324926E+03  0.21914314266E+04  0.25466580939E+04  0.46999998093E+01 0. -1.
</event>
<event>
 5   0  0.5714125E-09  0.3702098E+04  0.7818609E-02  0.8067497E-01
        1   -1    0    0  501    0  0.00000000000E+00  0.00000000000E+00  0.18827331370E+04  0.18827331370E+04  0.50400001928E-02 0.  1.
       -1   -1    0    0    0  501  0.00000000000E+00  0.00000000000E+00 -0.18198983929E+04  0.18198983929E+04  0.50400001928E-02 0. -1.
    10030    2    1    2    0    0  0.00000000000E+00  0.00000000000E+00  0.62834744115E+02  0.37026315299E+04  0.37020983295E+04 0.  0.
        5    1    3    3  502    0  0.14653784702E+04 -0.91540446045E+03 -0.63280291631E+03  0.18400437516E+04  0.46999998093E+01 0. -1.
       -5    1    3    3    0  502 -0.14653784702E+04  0.91540446045E+03  0.69563766043E+03  0.18625877782E+04  0.46999998093E+01 0.  1.
</event>
<event>
 5   0  0.1757996E-08  0.3693168E+04  0.7818609E-02  0.8069478E-01
        2   -1    0    0  501    0  0.00000000000E+00  0.00000000000E+00  0.24228653093E+04  0.24228653093E+04  0.25500000920E-02 0. -1.
       -2   -1    0    0    0  501  0.00000000000E+00  0.00000000000E+00 -0.14073717012E+04  0.14073717012E+04  0.25500000920E-02 0.  1.
    10030    2    1    2    0    0  0.00000000000E+00  0.00000000000E+00  0.10154936081E+04  0.38302370105E+04  0.36931677851E+04 0.  0.
        3    1    3    3  502    0 -0.98039803880E+03  0.20145960902E+03 -0.11016546496E+04  0.14884250958E+04  0.10100000352E+00 0.  1.
       -3    1    3    3    0  502  0.98039803880E+03 -0.20145960902E+03  0.21171482577E+04  0.23418119147E+04  0.10100000352E+00 0. -1.
</event>
<event>
 5   0  0.1757996E-08  0.3700412E+04  0.7818609E-02  0.8067870E-01
       -2   -1    0    0    0  501  0.00000000000E+00  0.00000000000E+00  0.24455276649E+04  0.24455276649E+04  0.25500000920E-02 0. -1.
        2   -1    0    0  501    0  0.00000000000E+00  0.00000000000E+00 -0.13998052796E+04  0.13998052796E+04  0.25500000920E-02 0.  1.
    10030    2    1    2    0    0  0.00000000000E+00  0.00000000000E+00  0.10457223852E+04  0.38453329445E+04  0.37004121591E+04 0.  0.
        3    1    3    3  502    0 -0.16670072934E+04 -0.79899970835E+03  0.44271294589E+03  0.19008704882E+04  0.10100000352E+00 0.  1.
       -3    1    3    3    0  502  0.16670072934E+04  0.79899970835E+03  0.60300943931E+03  0.19444624564E+04  0.10100000352E+00 0. -1.
</event>
<event>
 5   0  0.5714125E-09  0.3700893E+04  0.7818609E-02  0.8067764E-01
       -3   -1    0    0    0  501  0.00000000000E+00  0.00000000000E+00  0.16143447956E+04  0.16143447988E+04  0.10100000352E+00 0.  1.
        3   -1    0    0  501    0  0.00000000000E+00  0.00000000000E+00 -0.21210782794E+04  0.21210782818E+04  0.10100000352E+00 0. -1.
    10030    2    1    2    0    0  0.00000000000E+00  0.00000000000E+00 -0.50673348379E+03  0.37354230806E+04  0.37008926988E+04 0.  0.
        2    1    3    3  502    0 -0.72167738961E+03  0.17837748751E+03  0.14569984206E+04  0.16356898179E+04  0.25500000920E-02 0.  1.
       -2    1    3    3    0  502  0.72167738961E+03 -0.17837748751E+03 -0.19637319043E+04  0.20997332628E+04  0.25500000920E-02 0. -1.
</event>
<event>
 5   0  0.1725865E-08  0.3701689E+04  0.7818609E-02  0.8067588E-01
       -2   -1    0    0    0  501  0.00000000000E+00  0.00000000000E+00  0.18210517431E+04  0.18210517431E+04  0.25500000920E-02 0.  1.
        2   -1    0    0  501    0  0.00000000000E+00  0.00000000000E+00 -0.18811248580E+04  0.18811248580E+04  0.25500000920E-02 0. -1.
    10030    2    1    2    0    0  0.00000000000E+00  0.00000000000E+00 -0.60073114925E+02  0.37021766011E+04  0.37016891828E+04 0.  0.
        1    1    3    3  502    0  0.11846587146E+04 -0.38414773216E+03 -0.13993917592E+04  0.18733080489E+04  0.50400001928E-02 0. -1.
       -1    1    3    3    0  502 -0.11846587146E+04  0.38414773216E+03  0.13393186443E+04  0.18288685522E+04  0.50400001928E-02 0.  1.
</event>
<event>
 5   0  0.5714125E-09  0.3701032E+04  0.7818609E-02  0.8067733E-01
       -1   -1    0    0    0  501  0.00000000000E+00  0.00000000000E+00  0.21091911616E+04  0.21091911616E+04  0.50400001928E-02 0. -1.
        1   -1    0    0  501    0  0.00000000000E+00  0.00000000000E+00 -0.16235651113E+04  0.16235651113E+04  0.50400001928E-02 0.  1.
    10030    2    1    2    0    0  0.00000000000E+00  0.00000000000E+00  0.48562605031E+03  0.37327562730E+04  0.37010318470E+04 0.  0.
        2    1    3    3  502    0 -0.11761519182E+04  0.25195380666E+03  0.16611371940E+04  0.20509000055E+04  0.25500000920E-02 0. -1.
       -2    1    3    3    0  502  0.11761519182E+04 -0.25195380666E+03 -0.11755111437E+04  0.16818562674E+04  0.25500000920E-02 0.  1.
</event>
<event>
 5   0  0.1757996E-08  0.3699571E+04  0.7818609E-02  0.8068057E-01
       -2   -1    0    0    0  501  0.00000000000E+00  0.00000000000E+00  0.16319620645E+04  0.16319620645E+04  0.25500000920E-02 0.  1.
        2   -1    0    0  501    0  0.00000000000E+00  0.00000000000E+00 -0.20966823389E+04  0.20966823389E+04  0.25500000920E-02 0. -1.
    10030    2    1    2    0    0  0.00000000000E+00  0.00000000000E+00 -0.46472027448E+03  0.37286444034E+04  0.36995708067E+04 0.  0.
        3    1    3    3  502    0  0.14057387497E+04  0.11960462858E+04 -0.35611712612E+03  0.18797466766E+04  0.10100000352E+00 0. -1.
       -3    1    3    3    0  502 -0.14057387497E+04 -0.11960462858E+04 -0.10860314836E+03  0.18488977268E+04  0.10100000352E+00 0.  1.
</event>
<event>
 5   0  0.1825308E-08  0.3700890E+04  0.7818609E-02  0.8067765E-01
       -2   -1    0    0    0  501  0.00000000000E+00  0.00000000000E+00  0.15866019900E+04  0.15866019901E+04  0.25500000920E-02 0.  1.
        2   -1    0    0  501    0  0.00000000000E+00  0.00000000000E+00 -0.21581639718E+04  0.21581639718E+04  0.25500000920E-02 0. -1.
    10030    2    1    2    0    0  0.00000000000E+00  0.00000000000E+00 -0.57156198170E+03  0.37447659618E+04  0.37008902996E+04 0.  0.
        4    1    3    3  502    0 -0.34603772674E+03 -0.74309073430E+03  0.13928684782E+04  0.16161714508E+04  0.12699999809E+01 0.  1.
       -4    1    3    3    0  502  0.34603772674E+03  0.74309073430E+03 -0.19644304599E+04  0.21285945111E+04  0.12699999809E+01 0. -1.
</event>
<event>
 5   0  0.1740290E-08  0.3699139E+04  0.7818609E-02  0.8068153E-01
       -2   -1    0    0    0  501  0.00000000000E+00  0.00000000000E+00  0.16223909477E+04  0.16223909477E+04  0.25500000920E-02 0.  1.
        2   -1    0    0  501    0  0.00000000000E+00  0.00000000000E+00 -0.21085593742E+04  0.21085593742E+04  0.25500000920E-02 0. -1.
    10030    2    1    2    0    0  0.00000000000E+00  0.00000000000E+00 -0.48616842646E+03  0.37309503219E+04  0.36991391655E+04 0.  0.
        5    1    3    3  502    0  0.25124580466E+02  0.51433482458E+03 -0.20347937861E+04  0.20989472119E+04  0.46999998093E+01 0. -1.
       -5    1    3    3    0  502 -0.25124580466E+02 -0.51433482458E+03  0.15486253597E+04  0.16320031100E+04  0.46999998093E+01 0.  1.
</event>
<event>
 5   0  0.5714125E-09  0.3699847E+04  0.7818609E-02  0.8067996E-01
       -1   -1    0    0    0  501  0.00000000000E+00  0.00000000000E+00  0.19328169376E+04  0.19328169376E+04  0.50400001928E-02 0.  1.
        1   -1    0    0  501    0  0.00000000000E+00  0.00000000000E+00 -0.17705846812E+04  0.17705846812E+04  0.50400001928E-02 0. -1.
    10030    2    1    2    0    0  0.00000000000E+00  0.00000000000E+00  0.16223225631E+03  0.37034016188E+04  0.36998465164E+04 0.  0.
        1    1    3    3  502    0  0.10767888685E+04  0.10229936293E+04  0.11850021012E+04  0.19000579498E+04  0.50400001928E-02 0.  1.
       -1    1    3    3    0  502 -0.10767888685E+04 -0.10229936293E+04 -0.10227698449E+04  0.18033436690E+04  0.50400001928E-02 0. -1.
</event>
<event>
 5   0  0.5714125E-09  0.3701423E+04  0.7818609E-02  0.8067646E-01
        1   -1    0    0  501    0  0.00000000000E+00  0.00000000000E+00  0.14067179180E+04  0.14067179181E+04  0.50400001928E-02 0. -1.
       -1   -1    0    0    0  501  0.00000000000E+00  0.00000000000E+00 -0.24348404865E+04  0.24348404865E+04  0.50400001928E-02 0.  1.
    10030    2    1    2    0    0  0.00000000000E+00  0.00000000000E+00 -0.10281225685E+04  0.38415584046E+04  0.37014233694E+04 0.  0.
        3    1    3    3  502    0  0.38049233307E+03 -0.94591440961E+03 -0.21170776936E+04  0.23497971097E+04  0.10100000352E+00 0.  1.
       -3    1    3    3    0  502 -0.38049233307E+03  0.94591440961E+03  0.10889551252E+04  0.14917612948E+04  0.10100000352E+00 0. -1.
</event>
<event>
 5   0  0.5714125E-09  0.3703292E+04  0.7818609E-02  0.8067233E-01
        1   -1    0    0  501    0  0.00000000000E+00  0.00000000000E+00  0.13327026089E+04  0.13327026089E+04  0.50400001928E-02 0.  1.
       -1   -1    0    0    0  501  0.00000000000E+00  0.00000000000E+00 -0.25726615020E+04  0.25726615020E+04  0.50400001928E-02 0. -1.
    10030    2    1    2    0    0  0.00000000000E+00  0.00000000000E+00 -0.12399588931E+04  0.39053641108E+04  0.37032918845E+04 0.  0.
        4    1    3    3  502    0  0.30945292774E+02  0.70014135739E+03 -0.24273939413E+04  0.25265388362E+04  0.12699999809E+01 0. -1.
       -4    1    3    3    0  502 -0.30945292774E+02 -0.70014135739E+03  0.11874350482E+04  0.13788252747E+04  0.12699999809E+01 0.  1.
</event>
<event>
 5   0  0.5714125E-09  0.3700625E+04  0.7818609E-02  0.8067823E-01
        1   -1    0    0  501    0  0.00000000000E+00  0.00000000000E+00  0.26931454884E+04  0.26931454885E+04  0.50400001928E-02 0.  1.
       -1   -1    0    0    0  501  0.00000000000E+00  0.00000000000E+00 -0.12712481048E+04  0.12712481049E+04  0.50400001928E-02 0. -1.
    10030    2    1    2    0    0  0.00000000000E+00  0.00000000000E+00  0.14218973836E+04  0.39643935933E+04  0.37006248652E+04 0.  0.
        5    1    3    3  502    0 -0.11605852968E+04 -0.10951584140E+04 -0.29245735650E+03  0.16223081022E+04  0.46999998093E+01 0.  1.
       -5    1    3    3    0  502  0.11605852968E+04  0.10951584140E+04  0.17143547401E+04  0.23420854912E+04  0.46999998093E+01 0. -1.
</event>
<event>
 5   0  0.1757996E-08  0.3700041E+04  0.7818609E-02  0.8067953E-01
        2   -1    0    0  501    0  0.00000000000E+00  0.00000000000E+00  0.14459011135E+04  0.14459011135E+04  0.25500000920E-02 0.  1.
       -2   -1    0    0    0  501  0.00000000000E+00  0.00000000000E+00 -0.23670882289E+04  0.23670882289E+04  0.25500000920E-02 0. -1.
    10030    2    1    2    0    0  0.00000000000E+00  0.00000000000E+00 -0.92118711535E+03  0.38129893424E+04  0.37000408138E+04 0.  0.
        3    1    3    3  502    0 -0.11513411637E+04  0.94898530685E+03  0.66660432984E+03  0.16341728583E+04  0.10100000352E+00 0.  1.
       -3    1    3    3    0  502  0.11513411637E+04 -0.94898530685E+03 -0.15877914452E+04  0.21788164841E+04  0.10100000352E+00 0. -1.
</event>
<event>
 5   0  0.5714125E-09  0.3700404E+04  0.7818609E-02  0.8067872E-01
       -1   -1    0    0    0  501  0.00000000000E+00  0.00000000000E+00  0.17079520335E+04  0.17079520335E+04  0.50400001928E-02 0. -1.
        1   -1    0    0  501    0  0.00000000000E+00  0.00000000000E+00 -0.20042992678E+04  0.20042992678E+04  0.50400001928E-02 0.  1.
    10030    2    1    2    0    0  0.00000000000E+00  0.00000000000E+00 -0.29634723432E+03  0.37122513014E+04  0.37004037673E+04 0.  0.
        2    1    3    3  502    0 -0.15410612675E+04 -0.66392666917E+02  0.87684580715E+03  0.17742988435E+04  0.25500000920E-02 0. -1.
       -2    1    3    3    0  502  0.15410612675E+04  0.66392666917E+02 -0.11731930415E+04  0.19379524579E+04  0.25500000920E-02 0.  1.
</event>
<event>
 5   0  0.5714125E-09  0.3694975E+04  0.7818609E-02  0.8069076E-01
        1   -1    0    0  501    0  0.00000000000E+00  0.00000000000E+00  0.11936678063E+04  0.11936678063E+04  0.50400001928E-02 0.  1.
       -1   -1    0    0    0  501  0.00000000000E+00  0.00000000000E+00 -0.28594299202E+04  0.28594299202E+04  0.50400001928E-02 0. -1.
    10030    2    1    2    0    0  0.00000000000E+00  0.00000000000E+00 -0.16657621139E+04  0.40530977265E+04  0.36949746630E+04 0.  0.
        4    1    3    3  502    0  0.45284225392E+03  0.95177112755E+03  0.83150497507E+03  0.13425112747E+04  0.12699999809E+01 0.  1.
       -4    1    3    3    0  502 -0.45284225392E+03 -0.95177112755E+03 -0.24972670890E+04  0.27105864518E+04  0.12699999809E+01 0. -1.
</event>
<event>
 5   0  0.5714125E-09  0.3694539E+04  0.7818609E-02  0.8069173E-01
       -1   -1    0    0    0  501  0.00000000000E+00  0.00000000000E+00  0.16629851223E+04  0.16629851223E+04  0.50400001928E-02 0. -1.
        1   -1    0    0  501    0  0.00000000000E+00  0.00000000000E+00 -0.20519752611E+04  0.20519752611E+04  0.50400001928E-02 0.  1.
    10030    2    1    2    0    0  0.00000000000E+00  0.00000000000E+00 -0.38899013889E+03  0.37149603834E+04  0.36945388511E+04 0.  0.
        3    1    3    3  502    0 -0.37473699625E+03 -0.14183733957E+04 -0.13232835059E+04  0.19756746071E+04  0.10100000352E+00 0.  1.
       -3    1    3    3    0  502  0.37473699625E+03  0.14183733957E+04  0.93429336701E+03  0.17392857763E+04  0.10100000352E+00 0. -1.
</event>
<event>
 5   0  0.5714125E-09  0.3699699E+04  0.7818609E-02  0.8068029E-01
       -1   -1    0    0    0  501  0.00000000000E+00  0.00000000000E+00  0.17822168211E+04  0.17822168211E+04  0.50400001928E-02 0. -1.
        1   -1    0    0  501    0  0.00000000000E+00  0.00000000000E+00 -0.19200489016E+04  0.19200489016E+04  0.50400001928E-02 0.  1.
    10030    2    1    2    0    0  0.00000000000E+00  0.00000000000E+00 -0.13783208057E+03  0.37022657227E+04  0.36996991498E+04 0.  0.
        4    1    3    3  502    0  0.78698119340E+03  0.68165336686E+02 -0.17427855974E+04  0.19134495455E+04  0.12699999809E+01 0.  1.
       -4    1    3    3    0  502 -0.78698119340E+03 -0.68165336686E+02  0.16049535168E+04  0.17888161772E+04  0.12699999809E+01 0. -1.
</event>
<event>
 5   0  0.1856107E-08  0.3701582E+04  0.7818609E-02  0.8067611E-01
       -2   -1    0    0    0  501  0.00000000000E+00  0.00000000000E+00  0.16603217175E+04  0.16603217175E+04  0.25500000920E-02 0. -1.
        2   -1    0    0  501    0  0.00000000000E+00  0.00000000000E+00 -0.20631105176E+04  0.20631105176E+04  0.25500000920E-02 0.  1.
    10030    2    1    2    0    0  0.00000000000E+00  0.00000000000E+00 -0.40278880013E+03  0.37234322352E+04  0.37015819311E+04 0.  0.
        2    1    3    3  502    0 -0.88759698755E+03  0.14653441263E+04  0.50300014997E+03  0.17855170040E+04  0.25500000920E-02 0. -1.
       -2    1    3    3    0  502  0.88759698755E+03 -0.14653441263E+04 -0.90578895010E+03  0.19379152311E+04  0.25500000920E-02 0.  1.
</event>
<event>
 5   0  0.1740290E-08  0.3701302E+04  0.7818609E-02  0.8067673E-01
       -2   -1    0    0    0  501  0.00000000000E+00  0.00000000000E+00  0.13003142080E+04  0.13003142080E+04  0.25500000920E-02 0. -1.
        2   -1    0    0  501    0  0.00000000000E+00  0.00000000000E+00 -0.26339092158E+04  0.26339092158E+04  0.25500000920E-02 0.  1.
    10030    2    1    2    0    0  0.00000000000E+00  0.00000000000E+00 -0.13335950078E+04  0.39342234239E+04  0.37013022444E+04 0.  0.
        5    1    3    3  502    0 -0.14989842674E+04  0.35251654565E+03 -0.17578757533E+04  0.23369576383E+04  0.46999998093E+01 0. -1.
       -5    1    3    3    0  502  0.14989842674E+04 -0.35251654565E+03  0.42428074552E+03  0.15972657856E+04  0.46999998093E+01 0.  1.
</event>
<event>
 5   0  0.1757996E-08  0.3701253E+04  0.7818609E-02  0.8067684E-01
        2   -1    0    0  501    0  0.00000000000E+00  0.00000000000E+00  0.22290416484E+04  0.22290416484E+04  0.25500000920E-02 0. -1.
       -2   -1    0    0    0  501  0.00000000000E+00  0.00000000000E+00 -0.15364536790E+04  0.15364536790E+04  0.25500000920E-02 0.  1.
    10030    2    1    2    0    0  0.00000000000E+00  0.00000000000E+00  0.69258796946E+03  0.37654953274E+04  0.37012534316E+04 0.  0.
        3    1    3    3  502    0  0.10152788548E+03 -0.40325009108E+03 -0.14883082857E+04  0.15453090665E+04  0.10100000352E+00 0.  1.
       -3    1    3    3    0  502 -0.10152788548E+03  0.40325009108E+03  0.21808962551E+04  0.22201862609E+04  0.10100000352E+00 0. -1.
</event>
<event>
 5   0  0.1740290E-08  0.3699527E+04  0.7818609E-02  0.8068067E-01
        2   -1    0    0  501    0  0.00000000000E+00  0.00000000000E+00  0.17469476172E+04  0.17469476172E+04  0.25500000920E-02 0.  1.
       -2   -1    0    0    0  501  0.00000000000E+00  0.00000000000E+00 -0.19586303749E+04  0.19586303749E+04  0.25500000920E-02 0. -1.
    10030    2    1    2    0    0  0.00000000000E+00  0.00000000000E+00 -0.21168275768E+03  0.37055779921E+04  0.36995268165E+04 0.  0.
        5    1    3    3  502    0 -0.68924338329E+03  0.75902055177E+03  0.14362982830E+04  0.17646935958E+04  0.46999998093E+01 0.  1.
       -5    1    3    3    0  502  0.68924338329E+03 -0.75902055177E+03 -0.16479810407E+04  0.19408843963E+04  0.46999998093E+01 0. -1.
</event>
<event>
 5   0  0.5714125E-09  0.3695663E+04  0.7818609E-02  0.8068924E-01
       -1   -1    0    0    0  501  0.00000000000E+00  0.00000000000E+00  0.20139973341E+04  0.20139973341E+04  0.50400001928E-02 0.  1.
        1   -1    0    0  501    0  0.00000000000E+00  0.00000000000E+00 -0.16953756248E+04  0.16953756248E+04  0.50400001928E-02 0. -1.
    10030    2    1    2    0    0  0.00000000000E+00  0.00000000000E+00  0.31862170926E+03  0.37093729589E+04  0.36956633985E+04 0.  0.
        4    1    3    3  502    0  0.14533593372E+03 -0.12505541406E+04  0.15169082566E+04  0.19712991818E+04  0.12699999809E+01 0.  1.
       -4    1    3    3    0  502 -0.14533593372E+03  0.12505541406E+04 -0.11982865473E+04  0.17380737771E+04  0.12699999809E+01 0. -1.
</event>
<event>
 5   0  0.5714125E-09  0.3699314E+04  0.7818609E-02  0.8068114E-01
       -1   -1    0    0    0  501  0.00000000000E+00  0.00000000000E+00  0.19567282609E+04  0.19567282609E+04  0.50400001928E-02 0. -1.
        1   -1    0    0  501    0  0.00000000000E+00  0.00000000000E+00 -0.17484444042E+04  0.17484444042E+04  0.50400001928E-02 0.  1.
    10030    2    1    2    0    0  0.00000000000E+00  0.00000000000E+00  0.20828385674E+03  0.37051726651E+04  0.36993137625E+04 0.  0.
        5    1    3    3  502    0 -0.72955503484E+03  0.21690097418E+03 -0.15843251182E+04  0.17576702625E+04  0.46999998093E+01 0.  1.
       -5    1    3    3    0  502  0.72955503484E+03 -0.21690097418E+03  0.17926089749E+04  0.19475024027E+04  0.46999998093E+01 0. -1.
</event>
<event>
 5   0  0.5714125E-09  0.3699842E+04  0.7818609E-02  0.8067997E-01
       -1   -1    0    0    0  501  0.00000000000E+00  0.00000000000E+00  0.19880374887E+04  0.19880374887E+04  0.50400001928E-02 0. -1.
        1   -1    0    0  501    0  0.00000000000E+00  0.00000000000E+00 -0.17214001458E+04  0.17214001458E+04  0.50400001928E-02 0.  1.
    10030    2    1    2    0    0  0.00000000000E+00  0.00000000000E+00  0.26663734295E+03  0.37094376345E+04  0.36998421712E+04 0.  0.
        3    1    3    3  502    0 -0.17019476506E+04 -0.54684235666E+03 -0.34388385464E+03  0.18204171182E+04  0.10100000352E+00 0.  1.
       -3    1    3    3    0  502  0.17019476506E+04  0.54684235666E+03  0.61052119759E+03  0.18890205164E+04  0.10100000352E+00 0. -1.
</event>
<event>
 5   0  0.5714125E-09  0.3702298E+04  0.7818609E-02  0.8067453E-01
        1   -1    0    0  501    0  0.00000000000E+00  0.00000000000E+00  0.16271940768E+04  0.16271940768E+04  0.50400001928E-02 0.  1.
       -1   -1    0    0    0  501  0.00000000000E+00  0.00000000000E+00 -0.21059268781E+04  0.21059268781E+04  0.50400001928E-02 0. -1.
    10030    2    1    2    0    0  0.00000000000E+00  0.00000000000E+00 -0.47873280128E+03  0.37331209550E+04  0.37022975258E+04 0.  0.
        5    1    3    3  502    0 -0.14789939956E+04 -0.10636675005E+04  0.91877134149E+02  0.18240820399E+04  0.46999998093E+01 0. -1.
       -5    1    3    3    0  502  0.14789939956E+04  0.10636675005E+04 -0.57060993543E+03  0.19090389150E+04  0.46999998093E+01 0.  1.
</event>
<event>
 5   0  0.1856107E-08  0.3699101E+04  0.7818609E-02  0.8068161E-01
        2   -1    0    0  501    0  0.00000000000E+00  0.00000000000E+00  0.12889855983E+04  0.12889855983E+04  0.25500000920E-02 0. -1.
       -2   -1    0    0    0  501  0.00000000000E+00  0.00000000000E+00 -0.26538987760E+04  0.26538987760E+04  0.25500000920E-02 0.  1.
    10030    2    1    2    0    0  0.00000000000E+00  0.00000000000E+00 -0.13649131777E+04  0.39428843742E+04  0.36991011349E+04 0.  0.
        2    1    3    3  502    0  0.26903910268E+03  0.46377272871E+03 -0.25692471066E+04  0.26245948025E+04  0.25500000920E-02 0.  1.
       -2    1    3    3    0  502 -0.26903910268E+03 -0.46377272871E+03  0.12043339289E+04  0.13182895717E+04  0.25500000920E-02 0. -1.
</event>
<event>
 5   0  0.1757996E-08  0.3701711E+04  0.7818609E-02  0.8067583E-01
       -2   -1    0    0    0  501  0.00000000000E+00  0.00000000000E+00  0.20428802589E+04  0.20428802589E+04  0.25500000920E-02 0. -1.
        2   -1    0    0  501    0  0.00000000000E+00  0.00000000000E+00 -0.16768803484E+04  0.16768803484E+04  0.25500000920E-02 0.  1.
    10030    2    1    2    0    0  0.00000000000E+00  0.00000000000E+00  0.36599991053E+03  0.37197606073E+04  0.37017108262E+04 0.  0.
        3    1    3    3  502    0 -0.41028420700E+02  0.58933244277E+02  0.20414799433E+04  0.20427424771E+04  0.10100000352E+00 0. -1.
       -3    1    3    3    0  502  0.41028420700E+02 -0.58933244277E+02 -0.16754800328E+04  0.16770181302E+04  0.10100000352E+00 0.  1.
</event>
<event>
 5   0  0.1757996E-08  0.3701842E+04  0.7818609E-02  0.8067554E-01
       -2   -1    0    0    0  501  0.00000000000E+00  0.00000000000E+00  0.25834881319E+04  0.25834881319E+04  0.25500000920E-02 0. -1.
        2   -1    0    0  501    0  0.00000000000E+00  0.00000000000E+00 -0.13260785444E+04  0.13260785444E+04  0.25500000920E-02 0.  1.
    10030    2    1    2    0    0  0.00000000000E+00  0.00000000000E+00  0.12574095875E+04  0.39095666763E+04  0.37018418018E+04 0.  0.
        3    1    3    3  502    0  0.19219056166E+03  0.14096366956E+04  0.18791612291E+04  0.23569598556E+04  0.10100000352E+00 0. -1.
       -3    1    3    3    0  502 -0.19219056166E+03 -0.14096366956E+04 -0.62175164156E+03  0.15526068207E+04  0.10100000352E+00 0.  1.
</event>
<event>
 5   0  0.5714125E-09  0.3701248E+04  0.7818609E-02  0.8067685E-01
        1   -1    0    0  501    0  0.00000000000E+00  0.00000000000E+00  0.18106801462E+04  0.18106801462E+04  0.50400001928E-02 0. -1.
       -1   -1    0    0    0  501  0.00000000000E+00  0.00000000000E+00 -0.18914494582E+04  0.18914494582E+04  0.50400001928E-02 0.  1.
    10030    2    1    2    0    0  0.00000000000E+00  0.00000000000E+00 -0.80769312024E+02  0.37021296044E+04  0.37012484280E+04 0.  0.
        2    1    3    3  502    0  0.12715767951E+03  0.14090911357E+04 -0.12336075061E+04  0.18770973291E+04  0.25500000920E-02 0.  1.
       -2    1    3    3    0  502 -0.12715767951E+03 -0.14090911357E+04  0.11528381940E+04  0.18250322753E+04  0.25500000920E-02 0. -1.
</event>
<event>
 5   0  0.1825308E-08  0.3698820E+04  0.7818609E-02  0.8068223E-01
       -2   -1    0    0    0  501  0.00000000000E+00  0.00000000000E+00  0.18217867405E+04  0.18217867405E+04  0.25500000920E-02 0. -1.
        2   -1    0    0  501    0  0.00000000000E+00  0.00000000000E+00 -0.18774520370E+04  0.18774520370E+04  0.25500000920E-02 0.  1.
    10030    2    1    2    0    0  0.00000000000E+00  0.00000000000E+00 -0.55665296449E+02  0.36992387775E+04  0.36988199344E+04 0.  0.
        4    1    3    3  502    0 -0.16271312530E+04 -0.50510456938E+03 -0.74737841424E+03  0.18604469483E+04  0.12699999809E+01 0.  1.
       -4    1    3    3    0  502  0.16271312530E+04  0.50510456938E+03  0.69171311779E+03  0.18387918291E+04  0.12699999809E+01 0. -1.
</event>
<event>
 5   0  0.1757996E-08  0.3699786E+04  0.7818609E-02  0.8068009E-01
       -2   -1    0    0    0  501  0.00000000000E+00  0.00000000000E+00  0.22845820643E+04  0.22845820643E+04  0.25500000920E-02 0.  1.
        2   -1    0    0  501    0  0.00000000000E+00  0.00000000000E+00 -0.14979124778E+04  0.14979124778E+04  0.25500000920E-02 0. -1.
    10030    2    1    2    0    0  0.00000000000E+00  0.00000000000E+00  0.78666958655E+03  0.37824945421E+04  0.36997859293E+04 0.  0.
        3    1    3    3  502    0  0.34787930544E+03  0.28008958270E+03  0.22286353297E+04  0.22729464640E+04  0.10100000352E+00 0.  1.
       -3    1    3    3    0  502 -0.34787930544E+03 -0.28008958270E+03 -0.14419657431E+04  0.15095480781E+04  0.10100000352E+00 0. -1.
</event>
<event>
 5   0  0.1757996E-08  0.3700185E+04  0.7818609E-02  0.8067921E-01
        2   -1    0    0  501    0  0.00000000000E+00  0.00000000000E+00  0.19551246710E+04  0.19551246710E+04  0.25500000920E-02 0. -1.
       -2   -1    0    0    0  501  0.00000000000E+00  0.00000000000E+00 -0.17507031631E+04  0.17507031631E+04  0.25500000920E-02 0.  1.
    10030    2    1    2    0    0  0.00000000000E+00  0.00000000000E+00  0.20442150787E+03  0.37058278342E+04  0.37001853715E+04 0.  0.
        3    1    3    3  502    0  0.93845570509E+03 -0.10662806287E+04  0.12894252663E+04  0.19184032468E+04  0.10100000352E+00 0. -1.
       -3    1    3    3    0  502 -0.93845570509E+03  0.10662806287E+04 -0.10850037584E+04  0.17874245874E+04  0.10100000352E+00 0.  1.
</event>
<event>
 5   0  0.1757996E-08  0.3701015E+04  0.7818609E-02  0.8067737E-01
       -2   -1    0    0    0  501  0.00000000000E+00  0.00000000000E+00  0.18225480760E+04  0.18225480760E+04  0.25500000920E-02 0. -1.
        2   -1    0    0  501    0  0.00000000000E+00  0.00000000000E+00 -0.18788963045E+04  0.18788963045E+04  0.25500000920E-02 0.  1.
    10030    2    1    2    0    0  0.00000000000E+00  0.00000000000E+00 -0.56348228509E+02  0.37014443805E+04  0.37010154524E+04 0.  0.
        3    1    3    3  502    0 -0.65006015975E+02  0.10726458560E+04 -0.15348625412E+04  0.18736589725E+04  0.10100000352E+00 0.  1.
       -3    1    3    3    0  502  0.65006015975E+02 -0.10726458560E+04  0.14785143127E+04  0.18277854080E+04  0.10100000352E+00 0. -1.
</event>
<event>
 5   0  0.1740290E-08  0.3704019E+04  0.7818609E-02  0.8067072E-01
        2   -1    0    0  501    0  0.00000000000E+00  0.00000000000E+00  0.21099916403E+04  0.21099916403E+04  0.25500000920E-02 0. -1.
       -2   -1    0    0    0  501  0.00000000000E+00  0.00000000000E+00 -0.16255699937E+04  0.16255699937E+04  0.25500000920E-02 0.  1.
    10030    2    1    2    0    0  0.00000000000E+00  0.00000000000E+00  0.48442164660E+03  0.37355616340E+04  0.37040189510E+04 0.  0.
        5    1    3    3  502    0  0.12003721932E+04  0.13371117522E+04  0.69453411379E+03  0.19264373765E+04  0.46999998093E+01 0. -1.
       -5    1    3    3    0  502 -0.12003721932E+04 -0.13371117522E+04 -0.21011246719E+03  0.18091242575E+04  0.46999998093E+01 0.  1.
</event>
<event>
 5   0  0.5714125E-09  0.3698860E+04  0.7818609E-02  0.8068215E-01
       -1   -1    0    0    0  501  0.00000000000E+00  0.00000000000E+00  0.15483047887E+04  0.15483047887E+04  0.50400001928E-02 0.  1.
        1   -1    0    0  501    0  0.00000000000E+00  0.00000000000E+00 -0.22091201551E+04  0.22091201551E+04  0.50400001928E-02 0. -1.
    10030    2    1    2    0    0  0.00000000000E+00  0.00000000000E+00 -0.66081536638E+03  0.37574249437E+04  0.36988599946E+04 0.  0.
        3    1    3    3  502    0  0.96620827982E+03 -0.73904374100E+03 -0.17455356616E+04  0.21275899152E+04  0.10100000352E+00 0. -1.
       -3    1    3    3    0  502 -0.96620827982E+03  0.73904374100E+03  0.10847202952E+04  0.16298350285E+04  0.10100000352E+00 0.  1.
</event>
<event>
 5   0  0.5714125E-09  0.3688100E+04  0.7818609E-02  0.8070604E-01
       -1   -1    0    0    0  501  0.00000000000E+00  0.00000000000E+00  0.14221451447E+04  0.14221451447E+04  0.50400001928E-02 0. -1.
        1   -1    0    0  501    0  0.00000000000E+00  0.00000000000E+00 -0.23911199481E+04  0.23911199481E+04  0.50400001928E-02 0.  1.
    10030    2    1    2    0    0  0.00000000000E+00  0.00000000000E+00 -0.96897480340E+03  0.38132650929E+04  0.36880995782E+04 0.  0.
        2    1    3    3  502    0 -0.34344419247E+02  0.18189084445E+03 -0.23814899627E+04  0.23886729079E+04  0.25500000920E-02 0.  1.
       -2    1    3    3    0  502  0.34344419247E+02 -0.18189084445E+03  0.14125151593E+04  0.14245921850E+04  0.25500000920E-02 0. -1.
</event>
<event>
 5   0  0.5714125E-09  0.3701197E+04  0.7818609E-02  0.8067697E-01
        1   -1    0    0  501    0  0.00000000000E+00  0.00000000000E+00  0.12863478598E+04  0.12863478598E+04  0.50400001928E-02 0.  1.
       -1   -1    0    0    0  501  0.00000000000E+00  0.00000000000E+00 -0.26623548796E+04  0.26623548796E+04  0.50400001928E-02 0. -1.
    10030    2    1    2    0    0  0.00000000000E+00  0.00000000000E+00 -0.13760070197E+04  0.39487027394E+04  0.37011968342E+04 0.  0.
        4    1    3    3  502    0  0.86951430856E+03 -0.15592427026E+04 -0.12078449100E+04  0.21555008415E+04  0.12699999809E+01 0. -1.
       -4    1    3    3    0  502 -0.86951430856E+03  0.15592427026E+04 -0.16816210975E+03  0.17932018979E+04  0.12699999809E+01 0.  1.
</event>
<event>
 5   0  0.1757996E-08  0.3700152E+04  0.7818609E-02  0.8067928E-01
        2   -1    0    0  501    0  0.00000000000E+00  0.00000000000E+00  0.18077866777E+04  0.18077866777E+04  0.25500000920E-02 0.  1.
       -2   -1    0    0    0  501  0.00000000000E+00  0.00000000000E+00 -0.18933545506E+04  0.18933545506E+04  0.25500000920E-02 0. -1.
    10030    2    1    2    0    0  0.00000000000E+00  0.00000000000E+00 -0.85567872904E+02  0.37011412283E+04  0.37001519606E+04 0.  0.
        3    1    3    3  502    0 -0.11125496324E+04 -0.14616513167E+04 -0.26327396328E+03  0.18556681939E+04  0.10100000352E+00 0.  1.
       -3    1    3    3    0  502  0.11125496324E+04  0.14616513167E+04  0.17770609038E+03  0.18454730344E+04  0.10100000352E+00 0. -1.
</event>
<event>
 5   0  0.1757996E-08  0.3699463E+04  0.7818609E-02  0.8068081E-01
       -2   -1    0    0    0  501  0.00000000000E+00  0.00000000000E+00  0.13013604837E+04  0.13013604837E+04  0.25500000920E-02 0.  1.
        2   -1    0    0  501    0  0.00000000000E+00  0.00000000000E+00 -0.26291764934E+04  0.26291764934E+04  0.25500000920E-02 0. -1.
    10030    2    1    2    0    0  0.00000000000E+00  0.00000000000E+00 -0.13278160097E+04  0.39305369771E+04  0.36994628763E+04 0.  0.
        3    1    3    3  502    0 -0.19498009466E+03  0.19394068731E+03  0.12795185997E+04  0.13087391202E+04  0.10100000352E+00 0.  1.
       -3    1    3    3    0  502  0.19498009466E+03 -0.19394068731E+03 -0.26073346093E+04  0.26217978570E+04  0.10100000352E+00 0. -1.
</event>
<event>
 5   0  0.1725865E-08  0.3700545E+04  0.7818609E-02  0.8067841E-01
       -2   -1    0    0    0  501  0.00000000000E+00  0.00000000000E+00  0.17428241957E+04  0.17428241957E+04  0.25500000920E-02 0. -1.
        2   -1    0    0  501    0  0.00000000000E+00  0.00000000000E+00 -0.19643449227E+04  0.19643449227E+04  0.25500000920E-02 0.  1.
    10030    2    1    2    0    0  0.00000000000E+00  0.00000000000E+00 -0.22152072707E+03  0.37071691184E+04  0.37005447491E+04 0.  0.
        1    1    3    3  502    0 -0.23203958245E+03 -0.11549158395E+04  0.13186206711E+04  0.17681723441E+04  0.50400001928E-02 0. -1.
       -1    1    3    3    0  502  0.23203958245E+03  0.11549158395E+04 -0.15401413982E+04  0.19389967743E+04  0.50400001928E-02 0.  1.
</event>
<event>
 5   0  0.5714125E-09  0.3702280E+04  0.7818609E-02  0.8067457E-01
       -1   -1    0    0    0  501  0.00000000000E+00  0.00000000000E+00  0.18041561810E+04  0.18041561810E+04  0.50400001928E-02 0.  1.
        1   -1    0    0  501    0  0.00000000000E+00  0.00000000000E+00 -0.18993474443E+04  0.18993474443E+04  0.50400001928E-02 0. -1.
    10030    2    1    2    0    0  0.00000000000E+00  0.00000000000E+00 -0.95191263313E+02  0.37035036253E+04  0.37022800713E+04 0.  0.
        1    1    3    3  502    0  0.11635409312E+04 -0.14266553987E+04  0.14623709943E+03  0.18467697242E+04  0.50400001928E-02 0. -1.
       -1    1    3    3    0  502 -0.11635409312E+04  0.14266553987E+04 -0.24142836274E+03  0.18567339011E+04  0.50400001928E-02 0.  1.
</event>
<event>
 5   0  0.1856107E-08  0.3702248E+04  0.7818609E-02  0.8067464E-01
        2   -1    0    0  501    0  0.00000000000E+00  0.00000000000E+00  0.21922011141E+04  0.21922011141E+04  0.25500000920E-02 0.  1.
       -2   -1    0    0    0  501  0.00000000000E+00  0.00000000000E+00 -0.15631140692E+04  0.15631140692E+04  0.25500000920E-02 0. -1.
    10030    2    1    2    0    0  0.00000000000E+00  0.00000000000E+00  0.62908704488E+03  0.37553151832E+04  0.37022481839E+04 0.  0.
        2    1    3    3  502    0 -0.12786951541E+04 -0.12506663569E+04 -0.16919133703E+03  0.17966227601E+04  0.25500000920E-02 0. -1.
       -2    1    3    3    0  502  0.12786951541E+04  0.12506663569E+04  0.79827838191E+03  0.19586924232E+04  0.25500000920E-02 0.  1.
</event>
<event>
 5   0  0.1757996E-08  0.3700338E+04  0.7818609E-02  0.8067887E-01
        2   -1    0    0  501    0  0.00000000000E+00  0.00000000000E+00  0.12923170994E+04  0.12923170994E+04  0.25500000920E-02 0.  1.
       -2   -1    0    0    0  501  0.00000000000E+00  0.00000000000E+00 -0.26488283435E+04  0.26488283435E+04  0.25500000920E-02 0. -1.
    10030    2    1    2    0    0  0.00000000000E+00  0.00000000000E+00 -0.13565112441E+04  0.39411454430E+04  0.37003384504E+04 0.  0.
        3    1    3    3  502    0 -0.47907666778E+03  0.60921631476E+03 -0.24676063076E+04  0.25864531450E+04  0.10100000352E+00 0. -1.
       -3    1    3    3    0  502  0.47907666778E+03 -0.60921631476E+03  0.11110950635E+04  0.13546922980E+04  0.10100000352E+00 0.  1.
</event>
<event>
 5   0  0.5714125E-09  0.3698171E+04  0.7818609E-02  0.8068367E-01
       -1   -1    0    0    0  501  0.00000000000E+00  0.00000000000E+00  0.19975504073E+04  0.19975504073E+04  0.50400001928E-02 0. -1.
        1   -1    0    0  501    0  0.00000000000E+00  0.00000000000E+00 -0.17116554305E+04  0.17116554305E+04  0.50400001928E-02 0.  1.
    10030    2    1    2    0    0  0.00000000000E+00  0.00000000000E+00  0.28589497674E+03  0.37092058378E+04  0.36981714413E+04 0.  0.
        1    1    3    3  502    0 -0.10253112422E+04  0.14755064249E+04  0.58098351391E+03  0.18883654829E+04  0.50400001928E-02 0.  1.
       -1    1    3    3    0  502  0.10253112422E+04 -0.14755064249E+04 -0.29508853718E+03  0.18208403549E+04  0.50400001928E-02 0. -1.
</event>
<event>
 5   0  0.1825308E-08  0.3699560E+04  0.7818609E-02  0.8068059E-01
        2   -1    0    0  501    0  0.00000000000E+00  0.00000000000E+00  0.25342098208E+04  0.25342098208E+04  0.25500000920E-02 0. -1.
       -2   -1    0    0    0  501  0.00000000000E+00  0.00000000000E+00 -0.13501983910E+04  0.13501983910E+04  0.25500000920E-02 0.  1.
    10030    2    1    2    0    0  0.00000000000E+00  0.00000000000E+00  0.11840114298E+04  0.38844082119E+04  0.36995599861E+04 0.  0.
        4    1    3    3  502    0 -0.18383725637E+04 -0.83781804086E+01  0.80718585744E+03  0.20077934401E+04  0.12699999809E+01 0. -1.
       -4    1    3    3    0  502  0.18383725637E+04  0.83781804086E+01  0.37682557239E+03  0.18766147718E+04  0.12699999809E+01 0.  1.
</event>
<event>
 5   0  0.5714125E-09  0.3701019E+04  0.7818609E-02  0.8067736E-01
        3   -1    0    0  501    0  0.00000000000E+00  0.00000000000E+00  0.18213840134E+04  0.18213840162E+04  0.10100000352E+00 0.  1.
       -3   -1    0    0    0  501  0.00000000000E+00  0.00000000000E+00 -0.18801009797E+04  0.18801009824E+04  0.10100000352E+00 0. -1.
    10030    2    1    2    0    0  0.00000000000E+00  0.00000000000E+00 -0.58716966297E+02  0.37014849986E+04  0.37010192533E+04 0.  0.
        4    1    3    3  502    0 -0.70522124456E+03  0.96590349775E+03  0.13829373802E+04  0.18283391319E+04  0.12699999809E+01 0.  1.
       -4    1    3    3    0  502  0.70522124456E+03 -0.96590349775E+03 -0.14416543465E+04  0.18731458668E+04  0.12699999809E+01 0. -1.
</event>
<event>
 5   0  0.1740290E-08  0.3700706E+04  0.7818609E-02  0.8067805E-01
       -2   -1    0    0    0  501  0.00000000000E+00  0.00000000000E+00  0.13680069597E+04  0.13680069597E+04  0.25500000920E-02 0. -1.
        2   -1    0    0  501    0  0.00000000000E+00  0.00000000000E+00 -0.25027689424E+04  0.25027689424E+04  0.25500000920E-02 0.  1.
    10030    2    1    2    0    0  0.00000000000E+00  0.00000000000E+00 -0.11347619827E+04  0.38707759021E+04  0.37007055175E+04 0.  0.
        5    1    3    3  502    0 -0.10590295353E+04  0.48990574052E+03 -0.20694236505E+04  0.23757288411E+04  0.46999998093E+01 0.  1.
       -5    1    3    3    0  502  0.10590295353E+04 -0.48990574052E+03  0.93466166783E+03  0.14950470610E+04  0.46999998093E+01 0. -1.
</event>
<event>
 5   0  0.1825308E-08  0.3702554E+04  0.7818609E-02  0.8067396E-01
        2   -1    0    0  501    0  0.00000000000E+00  0.00000000000E+00  0.20025096047E+04  0.20025096047E+04  0.25500000920E-02 0.  1.
       -2   -1    0    0    0  501  0.00000000000E+00  0.00000000000E+00 -0.17114654668E+04  0.17114654668E+04  0.25500000920E-02 0. -1.
    10030    2    1    2    0    0  0.00000000000E+00  0.00000000000E+00  0.29104413786E+03  0.37139750715E+04  0.37025537325E+04 0.  0.
        4    1    3    3  502    0  0.29064527453E+03  0.87935156465E+03  0.17534298204E+04  0.19829905692E+04  0.12699999809E+01 0.  1.
       -4    1    3    3    0  502 -0.29064527453E+03 -0.87935156465E+03 -0.14623856825E+04  0.17309845023E+04  0.12699999809E+01 0. -1.
</event>
<event>
 5   0  0.1757996E-08  0.3690019E+04  0.7818609E-02  0.8070177E-01
        2   -1    0    0  501    0  0.00000000000E+00  0.00000000000E+00  0.18950086824E+04  0.18950086824E+04  0.25500000920E-02 0. -1.
       -2   -1    0    0    0  501  0.00000000000E+00  0.00000000000E+00 -0.17963299402E+04  0.17963299402E+04  0.25500000920E-02 0.  1.
    10030    2    1    2    0    0  0.00000000000E+00  0.00000000000E+00  0.98678742215E+02  0.36913386226E+04  0.36900194217E+04 0.  0.
        3    1    3    3  502    0  0.13426706540E+04 -0.12546002110E+04  0.21454879401E+03  0.18500857736E+04  0.10100000352E+00 0. -1.
       -3    1    3    3    0  502 -0.13426706540E+04  0.12546002110E+04 -0.11587005179E+03  0.18412528489E+04  0.10100000352E+00 0.  1.
</event>
<event>
 5   0  0.1757996E-08  0.3699689E+04  0.7818609E-02  0.8068031E-01
       -2   -1    0    0    0  501  0.00000000000E+00  0.00000000000E+00  0.13565305917E+04  0.13565305917E+04  0.25500000920E-02 0. -1.
        2   -1    0    0  501    0  0.00000000000E+00  0.00000000000E+00 -0.25225562515E+04  0.25225562515E+04  0.25500000920E-02 0.  1.
    10030    2    1    2    0    0  0.00000000000E+00  0.00000000000E+00 -0.11660256599E+04  0.38790868432E+04  0.36996890271E+04 0.  0.
        3    1    3    3  502    0  0.15784926206E+04 -0.94709091050E+03 -0.39166824150E+03  0.18820266118E+04  0.10100000352E+00 0. -1.
       -3    1    3    3    0  502 -0.15784926206E+04  0.94709091050E+03 -0.77435741837E+03  0.19970602313E+04  0.10100000352E+00 0.  1.
</event>
<event>
 5   0  0.1825308E-08  0.3699244E+04  0.7818609E-02  0.8068129E-01
       -2   -1    0    0    0  501  0.00000000000E+00  0.00000000000E+00  0.29874598589E+04  0.29874598589E+04  0.25500000920E-02 0.  1.
        2   -1    0    0  501    0  0.00000000000E+00  0.00000000000E+00 -0.11451538980E+04  0.11451538980E+04  0.25500000920E-02 0. -1.
    10030    2    1    2    0    0  0.00000000000E+00  0.00000000000E+00  0.18423059610E+04  0.41326137569E+04  0.36992438700E+04 0.  0.
        4    1    3    3  502    0 -0.75247073641E+03  0.16198660996E+04  0.38431423728E+03  0.18269858882E+04  0.12699999809E+01 0. -1.
       -4    1    3    3    0  502  0.75247073641E+03 -0.16198660996E+04  0.14579917237E+04  0.23056278687E+04  0.12699999809E+01 0.  1.
</event>
<event>
 5   0  0.1757996E-08  0.3704844E+04  0.7818609E-02  0.8066889E-01
       -2   -1    0    0    0  501  0.00000000000E+00  0.00000000000E+00  0.13580393444E+04  0.13580393444E+04  0.25500000920E-02 0. -1.
        2   -1    0    0  501    0  0.00000000000E+00  0.00000000000E+00 -0.25267798560E+04  0.25267798560E+04  0.25500000920E-02 0.  1.
    10030    2    1    2    0    0  0.00000000000E+00  0.00000000000E+00 -0.11687405116E+04  0.38848192004E+04  0.37048435643E+04 0.  0.
        3    1    3    3  502    0 -0.12363311093E+03 -0.74733323085E+03  0.11882157026E+04  0.14091304659E+04  0.10100000352E+00 0. -1.
       -3    1    3    3    0  502  0.12363311093E+03  0.74733323085E+03 -0.23569562142E+04  0.24756887344E+04  0.10100000352E+00 0.  1.
</event>
<event>
 5   0  0.5714125E-09  0.3700069E+04  0.7818609E-02  0.8067947E-01
        1   -1    0    0  501    0  0.00000000000E+00  0.00000000000E+00  0.14995232817E+04  0.14995232817E+04  0.50400001928E-02 0. -1.
       -1   -1    0    0    0  501  0.00000000000E+00  0.00000000000E+00 -0.22824767045E+04  0.22824767045E+04  0.50400001928E-02 0.  1.
    10030    2    1    2    0    0  0.00000000000E+00  0.00000000000E+00 -0.78295342286E+03  0.37819999862E+04  0.37000686255E+04 0.  0.
        5    1    3    3  502    0 -0.91188070189E+03  0.62865534373E+03  0.11231832550E+04  0.15774335707E+04  0.46999998093E+01 0. -1.
       -5    1    3    3    0  502  0.91188070189E+03 -0.62865534373E+03 -0.19061366779E+04  0.22045664155E+04  0.46999998093E+01 0.  1.
</event>
<event>
 5   0  0.1725865E-08  0.3700199E+04  0.7818609E-02  0.8067918E-01
        2   -1    0    0  501    0  0.00000000000E+00  0.00000000000E+00  0.19291149415E+04  0.19291149415E+04  0.25500000920E-02 0.  1.
       -2   -1    0    0    0  501  0.00000000000E+00  0.00000000000E+00 -0.17743205741E+04  0.17743205741E+04  0.25500000920E-02 0. -1.
    10030    2    1    2    0    0  0.00000000000E+00  0.00000000000E+00  0.15479436746E+03  0.37034355156E+04  0.37001990922E+04 0.  0.
        1    1    3    3  502    0  0.23737184164E+03  0.20909651821E+03 -0.17470525371E+04  0.17754603100E+04  0.50400001928E-02 0. -1.
       -1    1    3    3    0  502 -0.23737184164E+03 -0.20909651821E+03  0.19018469045E+04  0.19279752056E+04  0.50400001928E-02 0.  1.
</event>
<event>
 5   0  0.5714125E-09  0.3700172E+04  0.7818609E-02  0.8067924E-01
       -1   -1    0    0    0  501  0.00000000000E+00  0.00000000000E+00  0.17142131544E+04  0.17142131544E+04  0.50400001928E-02 0.  1.
        1   -1    0    0  501    0  0.00000000000E+00  0.00000000000E+00 -0.19967286729E+04  0.19967286729E+04  0.50400001928E-02 0. -1.
    10030    2    1    2    0    0  0.00000000000E+00  0.00000000000E+00 -0.28251551853E+03  0.37109418273E+04  0.37001721889E+04 0.  0.
        3    1    3    3  502    0 -0.93204130654E+03 -0.15008750511E+04  0.40942292342E+03  0.18135473681E+04  0.10100000352E+00 0. -1.
       -3    1    3    3    0  502  0.93204130654E+03  0.15008750511E+04 -0.69193844195E+03  0.18973944592E+04  0.10100000352E+00 0.  1.
</event>
<event>
 5   0  0.1825308E-08  0.3699656E+04  0.7818609E-02  0.8068038E-01
       -2   -1    0    0    0  501  0.00000000000E+00  0.00000000000E+00  0.17225120088E+04  0.17225120088E+04  0.25500000920E-02 0. -1.
        2   -1    0    0  501    0  0.00000000000E+00  0.00000000000E+00 -0.19865547527E+04  0.19865547527E+04  0.25500000920E-02 0.  1.
    10030    2    1    2    0    0  0.00000000000E+00  0.00000000000E+00 -0.26404274390E+03  0.37090667615E+04  0.36996564260E+04 0.  0.
        4    1    3    3  502    0  0.22328179302E+03 -0.64573266430E+03 -0.18554160394E+04  0.19772191899E+04  0.12699999809E+01 0.  1.
       -4    1    3    3    0  502 -0.22328179302E+03  0.64573266430E+03  0.15913732955E+04  0.17318475716E+04  0.12699999809E+01 0. -1.
</event>
<event>
 5   0  0.1825308E-08  0.3698580E+04  0.7818609E-02  0.8068277E-01
       -2   -1    0    0    0  501  0.00000000000E+00  0.00000000000E+00  0.13512742796E+04  0.13512742796E+04  0.25500000920E-02 0.  1.
        2   -1    0    0  501    0  0.00000000000E+00  0.00000000000E+00 -0.25308510891E+04  0.25308510891E+04  0.25500000920E-02 0. -1.
    10030    2    1    2    0    0  0.00000000000E+00  0.00000000000E+00 -0.11795768094E+04  0.38821253687E+04  0.36985802586E+04 0.  0.
        4    1    3    3  502    0 -0.59700995726E+03 -0.44770980152E+03  0.11862229799E+04  0.14014248201E+04  0.12699999809E+01 0.  1.
       -4    1    3    3    0  502  0.59700995726E+03  0.44770980152E+03 -0.23657997894E+04  0.24807005486E+04  0.12699999809E+01 0. -1.
</event>
<event>
 5   0  0.1825308E-08  0.3706677E+04  0.7818609E-02  0.8066484E-01
       -2   -1    0    0    0  501  0.00000000000E+00  0.00000000000E+00  0.21832215376E+04  0.21832215376E+04  0.25500000920E-02 0.  1.
        2   -1    0    0  501    0  0.00000000000E+00  0.00000000000E+00 -0.15733009360E+04  0.15733009360E+04  0.25500000920E-02 0. -1.
    10030    2    1    2    0    0  0.00000000000E+00  0.00000000000E+00  0.60992060152E+03  0.37565224736E+04  0.37066774818E+04 0.  0.
        4    1    3    3  502    0 -0.13993062870E+04 -0.87451542024E+03  0.11601246688E+04  0.20171083672E+04  0.12699999809E+01 0.  1.
       -4    1    3    3    0  502  0.13993062870E+04  0.87451542024E+03 -0.55020406726E+03  0.17394141064E+04  0.12699999809E+01 0. -1.
</event>
<event>
 5   0  0.1725865E-08  0.3700278E+04  0.7818609E-02  0.8067900E-01
        2   -1    0    0  501    0  0.00000000000E+00  0.00000000000E+00  0.30303664088E+04  0.30303664088E+04  0.25500000920E-02 0. -1.
       -2   -1    0    0    0  501  0.00000000000E+00  0.00000000000E+00 -0.11295708769E+04  0.11295708769E+04  0.25500000920E-02 0.  1.
    10030    2    1    2    0    0  0.00000000000E+00  0.00000000000E+00  0.19007955320E+04  0.41599372857E+04  0.37002776337E+04 0.  0.
        1    1    3    3  502    0 -0.10335309707E+04  0.52593097429E+03 -0.67028737001E+03  0.13394307805E+04  0.50400001928E-02 0.  1.
       -1    1    3    3    0  502  0.10335309707E+04 -0.52593097429E+03  0.25710829020E+04  0.28205065052E+04  0.50400001928E-02 0. -1.
</event>
<event>
 5   0  0.5714125E-09  0.3699430E+04  0.7818609E-02  0.8068088E-01
        1   -1    0    0  501    0  0.00000000000E+00  0.00000000000E+00  0.17640466989E+04  0.17640466989E+04  0.50400001928E-02 0. -1.
       -1   -1    0    0    0  501  0.00000000000E+00  0.00000000000E+00 -0.19395432387E+04  0.19395432387E+04  0.50400001928E-02 0.  1.
    10030    2    1    2    0    0  0.00000000000E+00  0.00000000000E+00 -0.17549653977E+03  0.37035899376E+04  0.36994296034E+04 0.  0.
        4    1    3    3  502    0  0.81361807983E+03  0.13387277808E+04 -0.10723566097E+04  0.18984511482E+04  0.12699999809E+01 0. -1.
       -4    1    3    3    0  502 -0.81361807983E+03 -0.13387277808E+04  0.89686006995E+03  0.18051387894E+04  0.12699999809E+01 0.  1.
</event>
<event>
 5   0  0.5714125E-09  0.3699692E+04  0.7818609E-02  0.8068030E-01
        1   -1    0    0  501    0  0.00000000000E+00  0.00000000000E+00  0.15054066602E+04  0.15054066602E+04  0.50400001928E-02 0. -1.
       -1   -1    0    0    0  501  0.00000000000E+00  0.00000000000E+00 -0.22730939854E+04  0.22730939854E+04  0.50400001928E-02 0.  1.
    10030    2    1    2    0    0  0.00000000000E+00  0.00000000000E+00 -0.76768732524E+03  0.37785006456E+04  0.36996923250E+04 0.  0.
        5    1    3    3  502    0  0.14262775753E+04 -0.85164942267E+03 -0.12150187288E+04  0.20581222176E+04  0.46999998093E+01 0.  1.
       -5    1    3    3    0  502 -0.14262775753E+04  0.85164942267E+03  0.44733140361E+03  0.17203784281E+04  0.46999998093E+01 0. -1.
</event>
<event>
 5   0  0.1825308E-08  0.3699589E+04  0.7818609E-02  0.8068053E-01
        2   -1    0    0  501    0  0.00000000000E+00  0.00000000000E+00  0.14978090237E+04  0.14978090237E+04  0.25500000920E-02 0.  1.
       -2   -1    0    0    0  501  0.00000000000E+00  0.00000000000E+00 -0.22844966936E+04  0.22844966937E+04  0.25500000920E-02 0. -1.
    10030    2    1    2    0    0  0.00000000000E+00  0.00000000000E+00 -0.78668766997E+03  0.37823057173E+04  0.36995890379E+04 0.  0.
        4    1    3    3  502    0 -0.64537199092E+02 -0.12209907109E+04 -0.18124548407E+04  0.21863159718E+04  0.12699999809E+01 0. -1.
       -4    1    3    3    0  502  0.64537199092E+02  0.12209907109E+04  0.10257671708E+04  0.15959897455E+04  0.12699999809E+01 0.  1.
</event>
<event>
 5   0  0.1725865E-08  0.3692185E+04  0.7818609E-02  0.8069696E-01
        2   -1    0    0  501    0  0.00000000000E+00  0.00000000000E+00  0.23283624538E+04  0.23283624538E+04  0.25500000920E-02 0.  1.
       -2   -1    0    0    0  501  0.00000000000E+00  0.00000000000E+00 -0.14637143016E+04  0.14637143016E+04  0.25500000920E-02 0. -1.
    10030    2    1    2    0    0  0.00000000000E+00  0.00000000000E+00  0.86464815224E+03  0.37920767554E+04  0.36921849482E+04 0.  0.
        1    1    3    3  502    0 -0.76400578025E+03  0.26169639677E+02 -0.12935156753E+04  0.15025220413E+04  0.50400001928E-02 0. -1.
       -1    1    3    3    0  502  0.76400578025E+03 -0.26169639677E+02  0.21581638275E+04  0.22895547141E+04  0.50400001928E-02 0.  1.
</event>
<event>
 5   0  0.1825308E-08  0.3684225E+04  0.7818609E-02  0.8071467E-01
        2   -1    0    0  501    0  0.00000000000E+00  0.00000000000E+00  0.13526489568E+04  0.13526489568E+04  0.25500000920E-02 0.  1.
       -2   -1    0    0    0  501  0.00000000000E+00  0.00000000000E+00 -0.25086909889E+04  0.25086909889E+04  0.25500000920E-02 0. -1.
    10030    2    1    2    0    0  0.00000000000E+00  0.00000000000E+00 -0.11560420321E+04  0.38613399457E+04  0.36842248841E+04 0.  0.
        4    1    3    3  502    0  0.33045259038E+03  0.17284571092E+04 -0.72163150240E+01  0.17597774237E+04  0.12699999809E+01 0.  1.
       -4    1    3    3    0  502 -0.33045259038E+03 -0.17284571092E+04 -0.11488257171E+04  0.21015625220E+04  0.12699999809E+01 0. -1.
</event>
<event>
 5   0  0.1740290E-08  0.3701809E+04  0.7818609E-02  0.8067561E-01
       -2   -1    0    0    0  501  0.00000000000E+00  0.00000000000E+00  0.16537095490E+04  0.16537095490E+04  0.25500000920E-02 0.  1.
        2   -1    0    0  501    0  0.00000000000E+00  0.00000000000E+00 -0.20716133839E+04  0.20716133839E+04  0.25500000920E-02 0. -1.
    10030    2    1    2    0    0  0.00000000000E+00  0.00000000000E+00 -0.41790383492E+03  0.37253229329E+04  0.37018086578E+04 0.  0.
        5    1    3    3  502    0  0.17705303154E+04 -0.44460401211E+03  0.98561391625E+02  0.18281648621E+04  0.46999998093E+01 0. -1.
       -5    1    3    3    0  502 -0.17705303154E+04  0.44460401211E+03 -0.51646522655E+03  0.18971580708E+04  0.46999998093E+01 0.  1.
</event>
<event>
 5   0  0.1856107E-08  0.3696425E+04  0.7818609E-02  0.8068754E-01
       -2   -1    0    0    0  501  0.00000000000E+00  0.00000000000E+00  0.17465113340E+04  0.17465113340E+04  0.25500000920E-02 0. -1.
        2   -1    0    0  501    0  0.00000000000E+00  0.00000000000E+00 -0.19558361424E+04  0.19558361424E+04  0.25500000920E-02 0.  1.
    10030    2    1    2    0    0  0.00000000000E+00  0.00000000000E+00 -0.20932480833E+03  0.37023474764E+04  0.36964252949E+04 0.  0.
        2    1    3    3  502    0  0.11513278303E+03  0.73021300171E+03 -0.18013135738E+04  0.19470996833E+04  0.25500000920E-02 0.  1.
       -2    1    3    3    0  502 -0.11513278303E+03 -0.73021300171E+03  0.15919887655E+04  0.17552477931E+04  0.25500000920E-02 0. -1.
</event>
<event>
 5   0  0.5714125E-09  0.3698918E+04  0.7818609E-02  0.8068202E-01
       -1   -1    0    0    0  501  0.00000000000E+00  0.00000000000E+00  0.14040746014E+04  0.14040746014E+04  0.50400001928E-02 0. -1.
        1   -1    0    0  501    0  0.00000000000E+00  0.00000000000E+00 -0.24361224961E+04  0.24361224961E+04  0.50400001928E-02 0.  1.
    10030    2    1    2    0    0  0.00000000000E+00  0.00000000000E+00 -0.10320478947E+04  0.38401970975E+04  0.36989175295E+04 0.  0.
        3    1    3    3  502    0  0.34364949625E+03 -0.88350652303E+03  0.11326539638E+04  0.14770185390E+04  0.10100000352E+00 0. -1.
       -3    1    3    3    0  502 -0.34364949625E+03  0.88350652303E+03 -0.21647018586E+04  0.23631785585E+04  0.10100000352E+00 0.  1.
</event>
<event>
 5   0  0.1725865E-08  0.3700426E+04  0.7818609E-02  0.8067867E-01
        2   -1    0    0  501    0  0.00000000000E+00  0.00000000000E+00  0.21017452331E+04  0.21017452331E+04  0.25500000920E-02 0.  1.
       -2   -1    0    0    0  501  0.00000000000E+00  0.00000000000E+00 -0.16287833277E+04  0.16287833277E+04  0.25500000920E-02 0. -1.
    10030    2    1    2    0    0  0.00000000000E+00  0.00000000000E+00  0.47296190540E+03  0.37305285608E+04  0.37004257024E+04 0.  0.
        1    1    3    3  502    0 -0.10082010519E+04 -0.84330102497E+03  0.15492498388E+04  0.20316990533E+04  0.50400001928E-02 0.  1.
       -1    1    3    3    0  502  0.10082010519E+04  0.84330102497E+03 -0.10762879334E+04  0.16988295075E+04  0.50400001928E-02 0. -1.
</event>
<event>
 5   0  0.5714125E-09  0.3699874E+04  0.7818609E-02  0.8067990E-01
        1   -1    0    0  501    0  0.00000000000E+00  0.00000000000E+00  0.25349057195E+04  0.25349057195E+04  0.50400001928E-02 0. -1.
       -1   -1    0    0    0  501  0.00000000000E+00  0.00000000000E+00 -0.13500570724E+04  0.13500570724E+04  0.50400001928E-02 0.  1.
    10030    2    1    2    0    0  0.00000000000E+00  0.00000000000E+00  0.11848486471E+04  0.38849627919E+04  0.36998742652E+04 0.  0.
        2    1    3    3  502    0 -0.15890139691E+02  0.61395642466E+03  0.24247333042E+04  0.25013049763E+04  0.25500000920E-02 0. -1.
       -2    1    3    3    0  502  0.15890139691E+02 -0.61395642466E+03 -0.12398846571E+04  0.13836578156E+04  0.25500000920E-02 0.  1.
</event>
<event>
 5   0  0.5714125E-09  0.3697581E+04  0.7818609E-02  0.8068498E-01
       -1   -1    0    0    0  501  0.00000000000E+00  0.00000000000E+00  0.18883113933E+04  0.18883113933E+04  0.50400001928E-02 0. -1.
        1   -1    0    0  501    0  0.00000000000E+00  0.00000000000E+00 -0.18100969462E+04  0.18100969462E+04  0.50400001928E-02 0.  1.
    10030    2    1    2    0    0  0.00000000000E+00  0.00000000000E+00  0.78214447089E+02  0.36984083395E+04  0.36975812021E+04 0.  0.
        4    1    3    3  502    0  0.16611098172E+04  0.67849909454E+03 -0.40638911839E+03  0.18397827520E+04  0.12699999809E+01 0. -1.
       -4    1    3    3    0  502 -0.16611098172E+04 -0.67849909454E+03  0.48460356548E+03  0.18586255875E+04  0.12699999809E+01 0.  1.
</event>
<event>
 5   0  0.1757996E-08  0.3699277E+04  0.7818609E-02  0.8068122E-01
        2   -1    0    0  501    0  0.00000000000E+00  0.00000000000E+00  0.17424572944E+04  0.17424572944E+04  0.25500000920E-02 0.  1.
       -2   -1    0    0    0  501  0.00000000000E+00  0.00000000000E+00 -0.19634121279E+04  0.19634121279E+04  0.25500000920E-02 0. -1.
    10030    2    1    2    0    0  0.00000000000E+00  0.00000000000E+00 -0.22095483342E+03  0.37058694223E+04  0.36992765694E+04 0.  0.
        3    1    3    3  502    0 -0.14826980324E+04  0.16618416074E+03  0.98470062252E+03  0.17876369757E+04  0.10100000352E+00 0.  1.
       -3    1    3    3    0  502  0.14826980324E+04 -0.16618416074E+03 -0.12056554559E+04  0.19182324466E+04  0.10100000352E+00 0. -1.
</event>
<event>
 5   0  0.1740290E-08  0.3699612E+04  0.7818609E-02  0.8068048E-01
        2   -1    0    0  501    0  0.00000000000E+00  0.00000000000E+00  0.20107860795E+04  0.20107860795E+04  0.25500000920E-02 0. -1.
       -2   -1    0    0    0  501  0.00000000000E+00  0.00000000000E+00 -0.17017136817E+04  0.17017136817E+04  0.25500000920E-02 0.  1.
    10030    2    1    2    0    0  0.00000000000E+00  0.00000000000E+00  0.30907239782E+03  0.37124997611E+04  0.36996119701E+04 0.  0.
        5    1    3    3  502    0  0.86746788659E+03 -0.90173589896E+03  0.15216815151E+04  0.19700672296E+04  0.46999998093E+01 0. -1.
       -5    1    3    3    0  502 -0.86746788659E+03  0.90173589896E+03 -0.12126091173E+04  0.17424325316E+04  0.46999998093E+01 0.  1.
</event>
<event>
 5   0  0.1740290E-08  0.3700940E+04  0.7818609E-02  0.8067754E-01
       -2   -1    0    0    0  501  0.00000000000E+00  0.00000000000E+00  0.14454478602E+04  0.14454478602E+04  0.25500000920E-02 0.  1.
        2   -1    0    0  501    0  0.00000000000E+00  0.00000000000E+00 -0.23689813930E+04  0.23689813930E+04  0.25500000920E-02 0. -1.
    10030    2    1    2    0    0  0.00000000000E+00  0.00000000000E+00 -0.92353353279E+03  0.38144292531E+04  0.37009399267E+04 0.  0.
        5    1    3    3  502    0  0.14738726730E+04 -0.24406468228E+03 -0.15871985672E+04  0.21796994304E+04  0.46999998093E+01 0. -1.
       -5    1    3    3    0  502 -0.14738726730E+04  0.24406468228E+03  0.66366503438E+03  0.16347298227E+04  0.46999998093E+01 0.  1.
</event>
<event>
 5   0  0.1725865E-08  0.3700780E+04  0.7818609E-02  0.8067789E-01
       -2   -1    0    0    0  501  0.00000000000E+00  0.00000000000E+00  0.14078768729E+04  0.14078768729E+04  0.25500000920E-02 0.  1.
        2   -1    0    0  501    0  0.00000000000E+00  0.00000000000E+00 -0.24319904485E+04  0.24319904485E+04  0.25500000920E-02 0. -1.
    10030    2    1    2    0    0  0.00000000000E+00  0.00000000000E+00 -0.10241135756E+04  0.38398673215E+04  0.37007799760E+04 0.  0.
        1    1    3    3  502    0 -0.37192359739E+03  0.18722873381E+03  0.13586345544E+04  0.14210100681E+04  0.50400001928E-02 0.  1.
       -1    1    3    3    0  502  0.37192359739E+03 -0.18722873381E+03 -0.23827481300E+04  0.24188572534E+04  0.50400001928E-02 0. -1.
</event>
<event>
 5   0  0.5714125E-09  0.3699981E+04  0.7818609E-02  0.8067966E-01
       -1   -1    0    0    0  501  0.00000000000E+00  0.00000000000E+00  0.14463443235E+04  0.14463443235E+04  0.50400001928E-02 0.  1.
        1   -1    0    0  501    0  0.00000000000E+00  0.00000000000E+00 -0.23662857553E+04  0.23662857553E+04  0.50400001928E-02 0. -1.
    10030    2    1    2    0    0  0.00000000000E+00  0.00000000000E+00 -0.91994143179E+03  0.38126300788E+04  0.36999805243E+04 0.  0.
        4    1    3    3  502    0 -0.62509885248E+03  0.79355092467E+03 -0.20569926965E+04  0.22916570886E+04  0.12699999809E+01 0. -1.
       -4    1    3    3    0  502  0.62509885248E+03 -0.79355092467E+03  0.11370512647E+04  0.15209729902E+04  0.12699999809E+01 0.  1.
</event>
<event>
 5   0  0.5714125E-09  0.3700188E+04  0.7818609E-02  0.8067920E-01
        3   -1    0    0  501    0  0.00000000000E+00  0.00000000000E+00  0.16323095071E+04  0.16323095102E+04  0.10100000352E+00 0.  1.
       -3   -1    0    0    0  501  0.00000000000E+00  0.00000000000E+00 -0.20969351373E+04  0.20969351397E+04  0.10100000352E+00 0. -1.
    10030    2    1    2    0    0  0.00000000000E+00  0.00000000000E+00 -0.46462563017E+03  0.37292446500E+04  0.37001876551E+04 0.  0.
        4    1    3    3  502    0 -0.12538971345E+04  0.92577576292E+02 -0.16001800089E+04  0.20350445462E+04  0.12699999809E+01 0. -1.
       -4    1    3    3    0  502  0.12538971345E+04 -0.92577576292E+02  0.11355543787E+04  0.16942001037E+04  0.12699999809E+01 0.  1.
</event>
<event>
 5   0  0.1740290E-08  0.3693262E+04  0.7818609E-02  0.8069457E-01
        2   -1    0    0  501    0  0.00000000000E+00  0.00000000000E+00  0.22774542236E+04  0.22774542236E+04  0.25500000920E-02 0.  1.
       -2   -1    0    0    0  501  0.00000000000E+00  0.00000000000E+00 -0.14973060646E+04  0.14973060646E+04  0.25500000920E-02 0. -1.
    10030    2    1    2    0    0  0.00000000000E+00  0.00000000000E+00  0.78014815901E+03  0.37747602881E+04  0.36932619840E+04 0.  0.
        5    1    3    3  502    0 -0.19732261138E+03 -0.15008129241E+04  0.14710749464E+04  0.21107958769E+04  0.46999998093E+01 0.  1.
       -5    1    3    3    0  502  0.19732261138E+03  0.15008129241E+04 -0.69092678739E+03  0.16639644112E+04  0.46999998093E+01 0. -1.
</event>
<event>
 5   0  0.1856107E-08  0.3700711E+04  0.7818609E-02  0.8067804E-01
        2   -1    0    0  501    0  0.00000000000E+00  0.00000000000E+00  0.14961497376E+04  0.14961497376E+04  0.25500000920E-02 0. -1.
       -2   -1    0    0    0  501  0.00000000000E+00  0.00000000000E+00 -0.22884171789E+04  0.22884171789E+04  0.25500000920E-02 0.  1.
    10030    2    1    2    0    0  0.00000000000E+00  0.00000000000E+00 -0.79226744131E+03  0.37845669165E+04  0.37007106138E+04 0.  0.
        2    1    3    3  502    0  0.75738457424E+03 -0.16882471423E+04 -0.39385730641E+03  0.18918069100E+04  0.25500000920E-02 0. -1.
       -2    1    3    3    0  502 -0.75738457424E+03  0.16882471423E+04 -0.39841013490E+03  0.18927600065E+04  0.25500000920E-02 0.  1.
</event>
<event>
 5   0  0.1757996E-08  0.3700326E+04  0.7818609E-02  0.8067890E-01
       -2   -1    0    0    0  501  0.00000000000E+00  0.00000000000E+00  0.17222255953E+04  0.17222255953E+04  0.25500000920E-02 0.  1.
        2   -1    0    0  501    0  0.00000000000E+00  0.00000000000E+00 -0.19876041545E+04  0.19876041545E+04  0.25500000920E-02 0. -1.
    10030    2    1    2    0    0  0.00000000000E+00  0.00000000000E+00 -0.26537855918E+03  0.37098297498E+04  0.37003257955E+04 0.  0.
        3    1    3    3  502    0 -0.56164192266E+03  0.14152625901E+04 -0.11864325054E+04  0.19302932286E+04  0.10100000352E+00 0. -1.
       -3    1    3    3    0  502  0.56164192266E+03 -0.14152625901E+04  0.92105394618E+03  0.17795365212E+04  0.10100000352E+00 0.  1.
</event>
<event>
 5   0  0.5714125E-09  0.3700086E+04  0.7818609E-02  0.8067943E-01
       -1   -1    0    0    0  501  0.00000000000E+00  0.00000000000E+00  0.15457816953E+04  0.15457816953E+04  0.50400001928E-02 0.  1.
        1   -1    0    0  501    0  0.00000000000E+00  0.00000000000E+00 -0.22141933850E+04  0.22141933850E+04  0.50400001928E-02 0. -1.
    10030    2    1    2    0    0  0.00000000000E+00  0.00000000000E+00 -0.66841168964E+03  0.37599750803E+04  0.37000862717E+04 0.  0.
        1    1    3    3  502    0  0.69940294970E+03  0.14698576868E+04 -0.12276484433E+04  0.20388150494E+04  0.50400001928E-02 0. -1.
       -1    1    3    3    0  502 -0.69940294970E+03 -0.14698576868E+04  0.55923675364E+03  0.17211600309E+04  0.50400001928E-02 0.  1.
</event>
<event>
 5   0  0.1757996E-08  0.3700330E+04  0.7818609E-02  0.8067889E-01
       -2   -1    0    0    0  501  0.00000000000E+00  0.00000000000E+00  0.17348356344E+04  0.17348356344E+04  0.25500000920E-02 0.  1.
        2   -1    0    0  501    0  0.00000000000E+00  0.00000000000E+00 -0.19731612345E+04  0.19731612345E+04  0.25500000920E-02 0. -1.
    10030    2    1    2    0    0  0.00000000000E+00  0.00000000000E+00 -0.23832560011E+03  0.37079968688E+04  0.37003299431E+04 0.  0.
        3    1    3    3  502    0 -0.39262821997E+02  0.94179554491E+03  0.14761754085E+04  0.17514606089E+04  0.10100000352E+00 0.  1.
       -3    1    3    3    0  502  0.39262821997E+02 -0.94179554491E+03 -0.17145010086E+04  0.19565362599E+04  0.10100000352E+00 0. -1.
</event>
<event>
 5   0  0.1740290E-08  0.3700280E+04  0.7818609E-02  0.8067900E-01
        2   -1    0    0  501    0  0.00000000000E+00  0.00000000000E+00  0.25224172709E+04  0.25224172709E+04  0.25500000920E-02 0.  1.
       -2   -1    0    0    0  501  0.00000000000E+00  0.00000000000E+00 -0.13570390608E+04  0.13570390608E+04  0.25500000920E-02 0. -1.
    10030    2    1    2    0    0  0.00000000000E+00  0.00000000000E+00  0.11653782101E+04  0.38794563317E+04  0.37002804025E+04 0.  0.
        5    1    3    3  502    0  0.17926441964E+04  0.30741247742E+03  0.93810429379E+03  0.20464939292E+04  0.46999998093E+01 0. -1.
       -5    1    3    3    0  502 -0.17926441964E+04 -0.30741247742E+03  0.22727391629E+03  0.18329624025E+04  0.46999998093E+01 0.  1.
</event>
<event>
 5   0  0.5714125E-09  0.3700193E+04  0.7818609E-02  0.8067919E-01
        1   -1    0    0  501    0  0.00000000000E+00  0.00000000000E+00  0.11524882399E+04  0.11524882399E+04  0.50400001928E-02 0. -1.
       -1   -1    0    0    0  501  0.00000000000E+00  0.00000000000E+00 -0.29699710699E+04  0.29699710699E+04  0.50400001928E-02 0.  1.
    10030    2    1    2    0    0  0.00000000000E+00  0.00000000000E+00 -0.18174828300E+04  0.41224593098E+04  0.37001928225E+04 0.  0.
        1    1    3    3  502    0 -0.51060728114E+03  0.10301001166E+04 -0.25236510249E+04  0.27732004149E+04  0.50400001928E-02 0.  1.
       -1    1    3    3    0  502  0.51060728114E+03 -0.10301001166E+04  0.70616819492E+03  0.13492588949E+04  0.50400001928E-02 0. -1.
</event>
<event>
 5   0  0.5714125E-09  0.3698263E+04  0.7818609E-02  0.8068347E-01
       -1   -1    0    0    0  501  0.00000000000E+00  0.00000000000E+00  0.26025642169E+04  0.26025642169E+04  0.50400001928E-02 0. -1.
        1   -1    0    0  501    0  0.00000000000E+00  0.00000000000E+00 -0.13138146300E+04  0.13138146300E+04  0.50400001928E-02 0.  1.
    10030    2    1    2    0    0  0.00000000000E+00  0.00000000000E+00  0.12887495869E+04  0.39163788470E+04  0.36982628050E+04 0.  0.
        2    1    3    3  502    0 -0.14505679338E+04  0.11429930284E+04  0.74318685944E+03  0.19907051770E+04  0.25500000920E-02 0.  1.
       -2    1    3    3    0  502  0.14505679338E+04 -0.11429930284E+04  0.54556272748E+03  0.19256736700E+04  0.25500000920E-02 0. -1.
</event>
<event>
 5   0  0.1825308E-08  0.3699194E+04  0.7818609E-02  0.8068141E-01
        2   -1    0    0  501    0  0.00000000000E+00  0.00000000000E+00  0.21758457595E+04  0.21758457595E+04  0.25500000920E-02 0. -1.
       -2   -1    0    0    0  501  0.00000000000E+00  0.00000000000E+00 -0.15722659346E+04  0.15722659346E+04  0.25500000920E-02 0.  1.
    10030    2    1    2    0    0  0.00000000000E+00  0.00000000000E+00  0.60357982489E+03  0.37481116941E+04  0.36991935157E+04 0.  0.
        4    1    3    3  502    0  0.14114357708E+04  0.11697239863E+04  0.52360964906E+02  0.18338888796E+04  0.12699999809E+01 0. -1.
       -4    1    3    3    0  502 -0.14114357708E+04 -0.11697239863E+04  0.55121885998E+03  0.19142228145E+04  0.12699999809E+01 0.  1.
</event>
<event>
 5   0  0.1825308E-08  0.3699590E+04  0.7818609E-02  0.8068053E-01
       -2   -1    0    0    0  501  0.00000000000E+00  0.00000000000E+00  0.16026376557E+04  0.16026376558E+04  0.25500000920E-02 0. -1.
        2   -1    0    0  501    0  0.00000000000E+00  0.00000000000E+00 -0.21350692374E+04  0.21350692374E+04  0.25500000920E-02 0.  1.
    10030    2    1    2    0    0  0.00000000000E+00  0.00000000000E+00 -0.53243158170E+03  0.37377068932E+04  0.36995904409E+04 0.  0.
        4    1    3    3  502    0  0.98460587998E+03  0.29758909850E+03  0.12870678835E+04  0.16475901675E+04  0.12699999809E+01 0. -1.
       -4    1    3    3    0  502 -0.98460587998E+03 -0.29758909850E+03 -0.18194994652E+04  0.20901167257E+04  0.12699999809E+01 0.  1.
</event>
<event>
 5   0  0.1856107E-08  0.3699778E+04  0.7818609E-02  0.8068011E-01
        2   -1    0    0  501    0  0.00000000000E+00  0.00000000000E+00  0.28963086949E+04  0.28963086949E+04  0.25500000920E-02 0. -1.
       -2   -1    0    0    0  501  0.00000000000E+00  0.00000000000E+00 -0.11815350117E+04  0.11815350117E+04  0.25500000920E-02 0.  1.
    10030    2    1    2    0    0  0.00000000000E+00  0.00000000000E+00  0.17147736833E+04  0.40778437066E+04  0.36997784408E+04 0.  0.
        2    1    3    3  502    0 -0.15679015066E+03 -0.11949924849E+04 -0.68940846151E+03  0.13884791022E+04  0.25500000920E-02 0.  1.
       -2    1    3    3    0  502  0.15679015066E+03  0.11949924849E+04  0.24041821448E+04  0.26893646044E+04  0.25500000920E-02 0. -1.
</event>
<event>
 5   0  0.1725865E-08  0.3700427E+04  0.7818609E-02  0.8067867E-01
        2   -1    0    0  501    0  0.00000000000E+00  0.00000000000E+00  0.19329610783E+04  0.19329610783E+04  0.25500000920E-02 0.  1.
       -2   -1    0    0    0  501  0.00000000000E+00  0.00000000000E+00 -0.17710083818E+04  0.17710083818E+04  0.25500000920E-02 0. -1.
    10030    2    1    2    0    0  0.00000000000E+00  0.00000000000E+00  0.16195269651E+03  0.37039694601E+04  0.37004271491E+04 0.  0.
        1    1    3    3  502    0 -0.13772699273E+04 -0.11883988141E+04 -0.25717255556E+03  0.18371994767E+04  0.50400001928E-02 0. -1.
       -1    1    3    3    0  502  0.13772699273E+04  0.11883988141E+04  0.41912525207E+03  0.18667699834E+04  0.50400001928E-02 0.  1.
</event>
<event>
 5   0  0.1825308E-08  0.3699746E+04  0.7818609E-02  0.8068018E-01
       -2   -1    0    0    0  501  0.00000000000E+00  0.00000000000E+00  0.18110944539E+04  0.18110944539E+04  0.25500000920E-02 0.  1.
        2   -1    0    0  501    0  0.00000000000E+00  0.00000000000E+00 -0.18894821983E+04  0.18894821983E+04  0.25500000920E-02 0. -1.
    10030    2    1    2    0    0  0.00000000000E+00  0.00000000000E+00 -0.78387744398E+02  0.37005766522E+04  0.36997463319E+04 0.  0.
        4    1    3    3  502    0 -0.11528081826E+04 -0.14364869307E+04 -0.21118509984E+03  0.18539315433E+04  0.12699999809E+01 0. -1.
       -4    1    3    3    0  502  0.11528081826E+04  0.14364869307E+04  0.13279735544E+03  0.18466451090E+04  0.12699999809E+01 0.  1.
</event>
<event>
 5   0  0.1757996E-08  0.3700366E+04  0.7818609E-02  0.8067881E-01
        2   -1    0    0  501    0  0.00000000000E+00  0.00000000000E+00  0.26650504113E+04  0.26650504113E+04  0.25500000920E-02 0. -1.
       -2   -1    0    0    0  501  0.00000000000E+00  0.00000000000E+00 -0.12844696784E+04  0.12844696784E+04  0.25500000920E-02 0.  1.
    10030    2    1    2    0    0  0.00000000000E+00  0.00000000000E+00  0.13805807329E+04  0.39495200898E+04  0.37003656278E+04 0.  0.
        3    1    3    3  502    0 -0.12402739283E+04 -0.90004929859E+03  0.17968254555E+04  0.23615566656E+04  0.10100000352E+00 0. -1.
       -3    1    3    3    0  502  0.12402739283E+04  0.90004929859E+03 -0.41624472265E+03  0.15879634242E+04  0.10100000352E+00 0.  1.
</event>
<event>
 5   0  0.5714125E-09  0.3697983E+04  0.7818609E-02  0.8068409E-01
        1   -1    0    0  501    0  0.00000000000E+00  0.00000000000E+00  0.28280698228E+04  0.28280698228E+04  0.50400001928E-02 0.  1.
       -1   -1    0    0    0  501  0.00000000000E+00  0.00000000000E+00 -0.12088700273E+04  0.12088700274E+04  0.50400001928E-02 0. -1.
    10030    2    1    2    0    0  0.00000000000E+00  0.00000000000E+00  0.16191997954E+04  0.40369398501E+04  0.36979826090E+04 0.  0.
        3    1    3    3  502    0  0.25383780237E+03  0.83560364183E+03  0.25887384426E+04  0.27320750009E+04  0.10100000352E+00 0.  1.
       -3    1    3    3    0  502 -0.25383780237E+03 -0.83560364183E+03 -0.96953864718E+03  0.13048648492E+04  0.10100000352E+00 0. -1.
</event>
<event>
 5   0  0.5714125E-09  0.3700265E+04  0.7818609E-02  0.8067903E-01
        1   -1    0    0  501    0  0.00000000000E+00  0.00000000000E+00  0.19453652087E+04  0.19453652087E+04  0.50400001928E-02 0.  1.
       -1   -1    0    0    0  501  0.00000000000E+00  0.00000000000E+00 -0.17595616022E+04  0.17595616022E+04  0.50400001928E-02 0. -1.
    10030    2    1    2    0    0  0.00000000000E+00  0.00000000000E+00  0.18580360652E+03  0.37049268108E+04  0.37002648140E+04 0.  0.
        3    1    3    3  502    0  0.12267902416E+04  0.32179433373E+02 -0.12933786458E+04  0.17829408696E+04  0.10100000352E+00 0. -1.
       -3    1    3    3    0  502 -0.12267902416E+04 -0.32179433373E+02  0.14791822523E+04  0.19219859413E+04  0.10100000352E+00 0.  1.
</event>
<event>
 5   0  0.5714125E-09  0.3701579E+04  0.7818609E-02  0.8067612E-01
       -1   -1    0    0    0  501  0.00000000000E+00  0.00000000000E+00  0.23703444882E+04  0.23703444882E+04  0.50400001928E-02 0.  1.
        1   -1    0    0  501    0  0.00000000000E+00  0.00000000000E+00 -0.14451157167E+04  0.14451157167E+04  0.50400001928E-02 0. -1.
    10030    2    1    2    0    0  0.00000000000E+00  0.00000000000E+00  0.92522877152E+03  0.38154602049E+04  0.37015791624E+04 0.  0.
        4    1    3    3  502    0  0.14330402855E+04  0.59121139798E+03  0.15048019786E+04  0.21604550411E+04  0.12699999809E+01 0.  1.
       -4    1    3    3    0  502 -0.14330402855E+04 -0.59121139798E+03 -0.57957320707E+03  0.16550051638E+04  0.12699999809E+01 0. -1.
</event>
<event>
 5   0  0.5714125E-09  0.3698843E+04  0.7818609E-02  0.8068218E-01
       -1   -1    0    0    0  501  0.00000000000E+00  0.00000000000E+00  0.16462436490E+04  0.16462436491E+04  0.50400001928E-02 0. -1.
        1   -1    0    0  501    0  0.00000000000E+00  0.00000000000E+00 -0.20776754045E+04  0.20776754046E+04  0.50400001928E-02 0.  1.
    10030    2    1    2    0    0  0.00000000000E+00  0.00000000000E+00 -0.43143175550E+03  0.37239190536E+04  0.36988430297E+04 0.  0.
        1    1    3    3  502    0  0.70557489700E+03  0.27359814625E+02  0.15051924982E+04  0.16625850208E+04  0.50400001928E-02 0. -1.
       -1    1    3    3    0  502 -0.70557489700E+03 -0.27359814625E+02 -0.19366242537E+04  0.20613340328E+04  0.50400001928E-02 0.  1.
</event>
<event>
 5   0  0.1725865E-08  0.3703845E+04  0.7818609E-02  0.8067110E-01
       -2   -1    0    0    0  501  0.00000000000E+00  0.00000000000E+00  0.17658259676E+04  0.17658259676E+04  0.25500000920E-02 0. -1.
        2   -1    0    0  501    0  0.00000000000E+00  0.00000000000E+00 -0.19422172996E+04  0.19422172996E+04  0.25500000920E-02 0.  1.
    10030    2    1    2    0    0  0.00000000000E+00  0.00000000000E+00 -0.17639133206E+03  0.37080432672E+04  0.37038454300E+04 0.  0.
        1    1    3    3  502    0 -0.79723463371E+03  0.13099863980E+04 -0.11276258883E+04  0.19034672490E+04  0.50400001928E-02 0.  1.
       -1    1    3    3    0  502  0.79723463371E+03 -0.13099863980E+04  0.95123455624E+03  0.18045760181E+04  0.50400001928E-02 0. -1.
</event>
<event>
 5   0  0.1825308E-08  0.3700079E+04  0.7818609E-02  0.8067944E-01
       -2   -1    0    0    0  501  0.00000000000E+00  0.00000000000E+00  0.29823424780E+04  0.29823424780E+04  0.25500000920E-02 0.  1.
        2   -1    0    0  501    0  0.00000000000E+00  0.00000000000E+00 -0.11476368488E+04  0.11476368488E+04  0.25500000920E-02 0. -1.
    10030    2    1    2    0    0  0.00000000000E+00  0.00000000000E+00  0.18347056291E+04  0.41299793268E+04  0.37000789848E+04 0.  0.
        4    1    3    3  502    0 -0.71813165468E+03 -0.16653040269E+04  0.13254773798E+04  0.22462952773E+04  0.12699999809E+01 0.  1.
       -4    1    3    3    0  502  0.71813165468E+03  0.16653040269E+04  0.50922824938E+03  0.18836840495E+04  0.12699999809E+01 0. -1.
</event>
<event>
 5   0  0.1856107E-08  0.3701616E+04  0.7818609E-02  0.8067604E-01
       -2   -1    0    0    0  501  0.00000000000E+00  0.00000000000E+00  0.30142530621E+04  0.30142530621E+04  0.25500000920E-02 0.  1.
        2   -1    0    0  501    0  0.00000000000E+00  0.00000000000E+00 -0.11364307167E+04  0.11364307167E+04  0.25500000920E-02 0. -1.
    10030    2    1    2    0    0  0.00000000000E+00  0.00000000000E+00  0.18778223454E+04  0.41506837789E+04  0.37016157379E+04 0.  0.
        2    1    3    3  502    0 -0.13549694030E+04  0.30879238465E+03  0.23095781404E+04  0.26954491289E+04  0.25500000920E-02 0.  1.
       -2    1    3    3    0  502  0.13549694030E+04 -0.30879238465E+03 -0.43175579496E+03  0.14552346500E+04  0.25500000920E-02 0. -1.
</event>
<event>
 5   0  0.5714125E-09  0.3699382E+04  0.7818609E-02  0.8068099E-01
       -1   -1    0    0    0  501  0.00000000000E+00  0.00000000000E+00  0.19581241238E+04  0.19581241238E+04  0.50400001928E-02 0.  1.
        1   -1    0    0  501    0  0.00000000000E+00  0.00000000000E+00 -0.17472628045E+04  0.17472628045E+04  0.50400001928E-02 0. -1.
    10030    2    1    2    0    0  0.00000000000E+00  0.00000000000E+00  0.21086131931E+03  0.37053869283E+04  0.36993823528E+04 0.  0.
        5    1    3    3  502    0 -0.14088568923E+03  0.81813759437E+03  0.17610314205E+04  0.19469082297E+04  0.46999998093E+01 0.  1.
       -5    1    3    3    0  502  0.14088568923E+03 -0.81813759437E+03 -0.15501701012E+04  0.17584786986E+04  0.46999998093E+01 0. -1.
</event>
<event>
 5   0  0.5714125E-09  0.3716849E+04  0.7818609E-02  0.8064238E-01
        1   -1    0    0  501    0  0.00000000000E+00  0.00000000000E+00  0.19889687468E+04  0.19889687468E+04  0.50400001928E-02 0.  1.
       -1   -1    0    0    0  501  0.00000000000E+00  0.00000000000E+00 -0.17364483017E+04  0.17364483017E+04  0.50400001928E-02 0. -1.
    10030    2    1    2    0    0  0.00000000000E+00  0.00000000000E+00  0.25252044512E+03  0.37254170485E+04  0.37168488818E+04 0.  0.
        3    1    3    3  502    0 -0.35850411637E+03 -0.16584882020E+04  0.88605324939E+03  0.19142096772E+04  0.10100000352E+00 0.  1.
       -3    1    3    3    0  502  0.35850411637E+03  0.16584882020E+04 -0.63353280427E+03  0.18112073713E+04  0.10100000352E+00 0. -1.
</event>
<event>
 5   0  0.1725865E-08  0.3701191E+04  0.7818609E-02  0.8067698E-01
        2   -1    0    0  501    0  0.00000000000E+00  0.00000000000E+00  0.20196736132E+04  0.20196736132E+04  0.25500000920E-02 0.  1.
       -2   -1    0    0    0  501  0.00000000000E+00  0.00000000000E+00 -0.16956720043E+04  0.16956720043E+04  0.25500000920E-02 0. -1.
    10030    2    1    2    0    0  0.00000000000E+00  0.00000000000E+00  0.32400160889E+03  0.37153456174E+04  0.37011911616E+04 0.  0.
        1    1    3    3  502    0  0.82783658470E+03  0.49089803777E+03 -0.14246798732E+04  0.17193042301E+04  0.50400001928E-02 0. -1.
       -1    1    3    3    0  502 -0.82783658470E+03 -0.49089803777E+03  0.17486814820E+04  0.19960413874E+04  0.50400001928E-02 0.  1.
</event>
<event>
 5   0  0.5714125E-09  0.3701119E+04  0.7818609E-02  0.8067714E-01
        1   -1    0    0  501    0  0.00000000000E+00  0.00000000000E+00  0.10148820654E+04  0.10148820654E+04  0.50400001928E-02 0.  1.
       -1   -1    0    0    0  501  0.00000000000E+00  0.00000000000E+00 -0.33743525722E+04  0.33743525722E+04  0.50400001928E-02 0. -1.
    10030    2    1    2    0    0  0.00000000000E+00  0.00000000000E+00 -0.23594705068E+04  0.43892346375E+04  0.37011186999E+04 0.  0.
        4    1    3    3  502    0  0.10004194919E+04  0.42445775398E+02 -0.30253300304E+04  0.31867325287E+04  0.12699999809E+01 0. -1.
       -4    1    3    3    0  502 -0.10004194919E+04 -0.42445775398E+02  0.66585952359E+03  0.12025021088E+04  0.12699999809E+01 0.  1.
</event>
<event>
 5   0  0.5714125E-09  0.3702849E+04  0.7818609E-02  0.8067331E-01
       -1   -1    0    0    0  501  0.00000000000E+00  0.00000000000E+00  0.17094531803E+04  0.17094531803E+04  0.50400001928E-02 0.  1.
        1   -1    0    0  501    0  0.00000000000E+00  0.00000000000E+00 -0.20051870935E+04  0.20051870935E+04  0.50400001928E-02 0. -1.
    10030    2    1    2    0    0  0.00000000000E+00  0.00000000000E+00 -0.29573391328E+03  0.37146402738E+04  0.37028494185E+04 0.  0.
        3    1    3    3  502    0  0.10639694824E+04 -0.67134813122E+03  0.12147786081E+04  0.17488357412E+04  0.10100000352E+00 0.  1.
       -3    1    3    3    0  502 -0.10639694824E+04  0.67134813122E+03 -0.15105125214E+04  0.19658045326E+04  0.10100000352E+00 0. -1.
</event>
<event>
 5   0  0.5714125E-09  0.3698398E+04  0.7818609E-02  0.8068317E-01
        1   -1    0    0  501    0  0.00000000000E+00  0.00000000000E+00  0.13368154790E+04  0.13368154790E+04  0.50400001928E-02 0. -1.
       -1   -1    0    0    0  501  0.00000000000E+00  0.00000000000E+00 -0.25579729316E+04  0.25579729316E+04  0.50400001928E-02 0.  1.
    10030    2    1    2    0    0  0.00000000000E+00  0.00000000000E+00 -0.12211574527E+04  0.38947884106E+04  0.36983984695E+04 0.  0.
        1    1    3    3  502    0  0.94669320049E+03  0.10423134448E+04  0.65177859671E+03  0.15515993917E+04  0.50400001928E-02 0. -1.
       -1    1    3    3    0  502 -0.94669320049E+03 -0.10423134448E+04 -0.18729360494E+04  0.23431890189E+04  0.50400001928E-02 0.  1.
</event>
<event>
 5   0  0.5714125E-09  0.3700090E+04  0.7818609E-02  0.8067942E-01
        1   -1    0    0  501    0  0.00000000000E+00  0.00000000000E+00  0.99994409696E+03  0.99994409697E+03  0.50400001928E-02 0.  1.
       -1   -1    0    0    0  501  0.00000000000E+00  0.00000000000E+00 -0.34228574259E+04  0.34228574259E+04  0.50400001928E-02 0. -1.
    10030    2    1    2    0    0  0.00000000000E+00  0.00000000000E+00 -0.24229133289E+04  0.44228015229E+04  0.37000897707E+04 0.  0.
        5    1    3    3  502    0 -0.93760316238E+03 -0.14468638991E+04 -0.40949471810E+03  0.17720673934E+04  0.46999998093E+01 0. -1.
       -5    1    3    3    0  502  0.93760316238E+03  0.14468638991E+04 -0.20134186108E+04  0.26507341295E+04  0.46999998093E+01 0.  1.
</event>
<event>
 5   0  0.5714125E-09  0.3699089E+04  0.7818609E-02  0.8068164E-01
       -1   -1    0    0    0  501  0.00000000000E+00  0.00000000000E+00  0.18207763624E+04  0.18207763624E+04  0.50400001928E-02 0. -1.
        1   -1    0    0  501    0  0.00000000000E+00  0.00000000000E+00 -0.18787668260E+04  0.18787668260E+04  0.50400001928E-02 0.  1.
    10030    2    1    2    0    0  0.00000000000E+00  0.00000000000E+00 -0.57990463649E+02  0.36995431884E+04  0.36990886593E+04 0.  0.
        3    1    3    3  502    0 -0.10221401085E+03  0.89560215875E+03 -0.16442055313E+04  0.18750900699E+04  0.10100000352E+00 0.  1.
       -3    1    3    3    0  502  0.10221401085E+03 -0.89560215875E+03  0.15862150677E+04  0.18244531186E+04  0.10100000352E+00 0. -1.
</event>
<event>
 5   0  0.1825308E-08  0.3701525E+04  0.7818609E-02  0.8067624E-01
        2   -1    0    0  501    0  0.00000000000E+00  0.00000000000E+00  0.30949091724E+04  0.30949091724E+04  0.25500000920E-02 0.  1.
       -2   -1    0    0    0  501  0.00000000000E+00  0.00000000000E+00 -0.11067598175E+04  0.11067598175E+04  0.25500000920E-02 0. -1.
    10030    2    1    2    0    0  0.00000000000E+00  0.00000000000E+00  0.19881493549E+04  0.42016689899E+04  0.37015246107E+04 0.  0.
        4    1    3    3  502    0 -0.75959889067E+03  0.16673560206E+04  0.69752201721E+03  0.19605114515E+04  0.12699999809E+01 0.  1.
       -4    1    3    3    0  502  0.75959889067E+03 -0.16673560206E+04  0.12906273377E+04  0.22411575384E+04  0.12699999809E+01 0. -1.
</event>
<event>
 5   0  0.1725865E-08  0.3700256E+04  0.7818609E-02  0.8067905E-01
        2   -1    0    0  501    0  0.00000000000E+00  0.00000000000E+00  0.13441906732E+04  0.13441906732E+04  0.25500000920E-02 0. -1.
       -2   -1    0    0    0  501  0.00000000000E+00  0.00000000000E+00 -0.25464940100E+04  0.25464940100E+04  0.25500000920E-02 0.  1.
    10030    2    1    2    0    0  0.00000000000E+00  0.00000000000E+00 -0.12023033368E+04  0.38906846831E+04  0.37002559357E+04 0.  0.
        1    1    3    3  502    0 -0.58177823504E+03  0.24090170168E+00 -0.24478127150E+04  0.25159994159E+04  0.50400001928E-02 0.  1.
       -1    1    3    3    0  502  0.58177823504E+03 -0.24090170168E+00  0.12455093782E+04  0.13746852673E+04  0.50400001928E-02 0. -1.
</event>
<event>
 5   0  0.5714125E-09  0.3700864E+04  0.7818609E-02  0.8067770E-01
       -1   -1    0    0    0  501  0.00000000000E+00  0.00000000000E+00  0.18605098287E+04  0.18605098287E+04  0.50400001928E-02 0. -1.
        1   -1    0    0  501    0  0.00000000000E+00  0.00000000000E+00 -0.18404083661E+04  0.18404083661E+04  0.50400001928E-02 0.  1.
    10030    2    1    2    0    0  0.00000000000E+00  0.00000000000E+00  0.20101462577E+02  0.37009181947E+04  0.37008636040E+04 0.  0.
        4    1    3    3  502    0 -0.53958545601E+03 -0.16019850226E+04 -0.74268061469E+03  0.18463706522E+04  0.12699999809E+01 0.  1.
       -4    1    3    3    0  502  0.53958545601E+03  0.16019850226E+04  0.76278207727E+03  0.18545475425E+04  0.12699999809E+01 0. -1.
</event>
<event>
 5   0  0.1740290E-08  0.3700441E+04  0.7818609E-02  0.8067864E-01
        2   -1    0    0  501    0  0.00000000000E+00  0.00000000000E+00  0.17265080278E+04  0.17265080278E+04  0.25500000920E-02 0. -1.
       -2   -1    0    0    0  501  0.00000000000E+00  0.00000000000E+00 -0.19827973590E+04  0.19827973590E+04  0.25500000920E-02 0.  1.
    10030    2    1    2    0    0  0.00000000000E+00  0.00000000000E+00 -0.25628933119E+03  0.37093053868E+04  0.37004408158E+04 0.  0.
        5    1    3    3  502    0  0.56335824109E+03 -0.16861476696E+04  0.38575000472E+03  0.18191458511E+04  0.46999998093E+01 0. -1.
       -5    1    3    3    0  502 -0.56335824109E+03  0.16861476696E+04 -0.64203933591E+03  0.18901595357E+04  0.46999998093E+01 0.  1.
</event>
<event>
 5   0  0.5714125E-09  0.3699733E+04  0.7818609E-02  0.8068021E-01
       -1   -1    0    0    0  501  0.00000000000E+00  0.00000000000E+00  0.11971742078E+04  0.11971742079E+04  0.50400001928E-02 0.  1.
        1   -1    0    0  501    0  0.00000000000E+00  0.00000000000E+00 -0.28584020249E+04  0.28584020249E+04  0.50400001928E-02 0. -1.
    10030    2    1    2    0    0  0.00000000000E+00  0.00000000000E+00 -0.16612278171E+04  0.40555762328E+04  0.36997325200E+04 0.  0.
        4    1    3    3  502    0  0.87056332291E+03 -0.86906616684E+03 -0.23451087891E+04  0.26481490417E+04  0.12699999809E+01 0. -1.
       -4    1    3    3    0  502 -0.87056332291E+03  0.86906616684E+03  0.68388097197E+03  0.14074271911E+04  0.12699999809E+01 0.  1.
</event>
<event>
 5   0  0.5714125E-09  0.3700936E+04  0.7818609E-02  0.8067754E-01
       -1   -1    0    0    0  501  0.00000000000E+00  0.00000000000E+00  0.23203839136E+04  0.23203839136E+04  0.50400001928E-02 0. -1.
        1   -1    0    0  501    0  0.00000000000E+00  0.00000000000E+00 -0.14757180913E+04  0.14757180914E+04  0.50400001928E-02 0.  1.
    10030    2    1    2    0    0  0.00000000000E+00  0.00000000000E+00  0.84466582225E+03  0.37961020050E+04  0.37009363789E+04 0.  0.
        1    1    3    3  502    0  0.41565686173E+03  0.19111416292E+03 -0.14167974168E+04  0.14888284556E+04  0.50400001928E-02 0.  1.
       -1    1    3    3    0  502 -0.41565686173E+03 -0.19111416292E+03  0.22614632390E+04  0.23072735493E+04  0.50400001928E-02 0. -1.
</event>
<event>
 5   0  0.5714125E-09  0.3700007E+04  0.7818609E-02  0.8067960E-01
        1   -1    0    0  501    0  0.00000000000E+00  0.00000000000E+00  0.13970598730E+04  0.13970598731E+04  0.50400001928E-02 0. -1.
       -1   -1    0    0    0  501  0.00000000000E+00  0.00000000000E+00 -0.24497964606E+04  0.24497964606E+04  0.50400001928E-02 0.  1.
    10030    2    1    2    0    0  0.00000000000E+00  0.00000000000E+00 -0.10527365876E+04  0.38468563337E+04  0.37000066661E+04 0.  0.
        1    1    3    3  502    0  0.12646595539E+04 -0.10380523436E+04  0.37138128424E+03  0.16777486443E+04  0.50400001928E-02 0. -1.
       -1    1    3    3    0  502 -0.12646595539E+04  0.10380523436E+04 -0.14241178718E+04  0.21691076894E+04  0.50400001928E-02 0.  1.
</event>
<event>
 5   0  0.5714125E-09  0.3701370E+04  0.7818609E-02  0.8067658E-01
       -1   -1    0    0    0  501  0.00000000000E+00  0.00000000000E+00  0.14289010093E+04  0.14289010093E+04  0.50400001928E-02 0.  1.
        1   -1    0    0  501    0  0.00000000000E+00  0.00000000000E+00 -0.23969720298E+04  0.23969720298E+04  0.50400001928E-02 0. -1.
    10030    2    1    2    0    0  0.00000000000E+00  0.00000000000E+00 -0.96807102055E+03  0.38258730391E+04  0.37013704233E+04 0.  0.
        3    1    3    3  502    0 -0.99949193483E+03 -0.11168522779E+04 -0.16062303901E+04  0.21968885304E+04  0.10100000352E+00 0. -1.
       -3    1    3    3    0  502  0.99949193483E+03  0.11168522779E+04  0.63815936954E+03  0.16289845087E+04  0.10100000352E+00 0.  1.
</event>
<event>
 5   0  0.1740290E-08  0.3703182E+04  0.7818609E-02  0.8067257E-01
       -2   -1    0    0    0  501  0.00000000000E+00  0.00000000000E+00  0.15136103978E+04  0.15136103978E+04  0.25500000920E-02 0. -1.
        2   -1    0    0  501    0  0.00000000000E+00  0.00000000000E+00 -0.22650405119E+04  0.22650405119E+04  0.25500000920E-02 0.  1.
    10030    2    1    2    0    0  0.00000000000E+00  0.00000000000E+00 -0.75143011416E+03  0.37786509097E+04  0.37031818050E+04 0.  0.
        5    1    3    3  502    0 -0.16064505424E+04  0.77943894856E+03  0.12433167422E+03  0.17898851569E+04  0.46999998093E+01 0.  1.
       -5    1    3    3    0  502  0.16064505424E+04 -0.77943894856E+03 -0.87576178839E+03  0.19887657528E+04  0.46999998093E+01 0. -1.
</event>
<event>
 5   0  0.1725865E-08  0.3699416E+04  0.7818609E-02  0.8068091E-01
        2   -1    0    0  501    0  0.00000000000E+00  0.00000000000E+00  0.21969211817E+04  0.21969211817E+04  0.25500000920E-02 0.  1.
       -2   -1    0    0    0  501  0.00000000000E+00  0.00000000000E+00 -0.15573705104E+04  0.15573705104E+04  0.25500000920E-02 0. -1.
    10030    2    1    2    0    0  0.00000000000E+00  0.00000000000E+00  0.63955067132E+03  0.37542916921E+04  0.36994163118E+04 0.  0.
        1    1    3    3  502    0  0.28451783038E+03 -0.14847496480E+04 -0.76186218452E+03  0.16928868542E+04  0.50400001928E-02 0. -1.
       -1    1    3    3    0  502 -0.28451783038E+03  0.14847496480E+04  0.14014128558E+04  0.20614048379E+04  0.50400001928E-02 0.  1.
</event>
<event>
 5   0  0.5714125E-09  0.3702118E+04  0.7818609E-02  0.8067493E-01
       -1   -1    0    0    0  501  0.00000000000E+00  0.00000000000E+00  0.25433903940E+04  0.25433903940E+04  0.50400001928E-02 0. -1.
        1   -1    0    0  501    0  0.00000000000E+00  0.00000000000E+00 -0.13471860001E+04  0.13471860001E+04  0.50400001928E-02 0.  1.
    10030    2    1    2    0    0  0.00000000000E+00  0.00000000000E+00  0.11962043939E+04  0.38905763941E+04  0.37021182756E+04 0.  0.
        4    1    3    3  502    0  0.56780530113E+03 -0.19216090322E+03  0.24385643572E+04  0.25111603712E+04  0.12699999809E+01 0. -1.
       -4    1    3    3    0  502 -0.56780530113E+03  0.19216090322E+03 -0.12423599633E+04  0.13794160229E+04  0.12699999809E+01 0.  1.
</event>
<event>
 5   0  0.5714125E-09  0.3700466E+04  0.7818609E-02  0.8067859E-01
        1   -1    0    0  501    0  0.00000000000E+00  0.00000000000E+00  0.21958453600E+04  0.21958453600E+04  0.50400001928E-02 0. -1.
       -1   -1    0    0    0  501  0.00000000000E+00  0.00000000000E+00 -0.15590179549E+04  0.15590179549E+04  0.50400001928E-02 0.  1.
    10030    2    1    2    0    0  0.00000000000E+00  0.00000000000E+00  0.63682740507E+03  0.37548633149E+04  0.37004661017E+04 0.  0.
        3    1    3    3  502    0 -0.36779551663E+03  0.18039094714E+04  0.13131387540E+03  0.18456993979E+04  0.10100000352E+00 0.  1.
       -3    1    3    3    0  502  0.36779551663E+03 -0.18039094714E+04  0.50551352967E+03  0.19091639170E+04  0.10100000352E+00 0. -1.
</event>
<event>
 5   0  0.1740290E-08  0.3698676E+04  0.7818609E-02  0.8068255E-01
        2   -1    0    0  501    0  0.00000000000E+00  0.00000000000E+00  0.13699252680E+04  0.13699252680E+04  0.25500000920E-02 0.  1.
       -2   -1    0    0    0  501  0.00000000000E+00  0.00000000000E+00 -0.24965239496E+04  0.24965239496E+04  0.25500000920E-02 0. -1.
    10030    2    1    2    0    0  0.00000000000E+00  0.00000000000E+00 -0.11265986816E+04  0.38664492175E+04  0.36986761094E+04 0.  0.
        5    1    3    3  502    0  0.71787305016E+03  0.17004712460E+04 -0.68287766779E+03  0.19680671162E+04  0.46999998093E+01 0. -1.
       -5    1    3    3    0  502 -0.71787305016E+03 -0.17004712460E+04 -0.44372101380E+03  0.18983821013E+04  0.46999998093E+01 0.  1.
</event>
<event>
 5   0  0.5714125E-09  0.3701047E+04  0.7818609E-02  0.8067730E-01
        1   -1    0    0  501    0  0.00000000000E+00  0.00000000000E+00  0.15449331210E+04  0.15449331210E+04  0.50400001928E-02 0.  1.
       -1   -1    0    0    0  501  0.00000000000E+00  0.00000000000E+00 -0.22165597780E+04  0.22165597780E+04  0.50400001928E-02 0. -1.
    10030    2    1    2    0    0  0.00000000000E+00  0.00000000000E+00 -0.67162665700E+03  0.37614928991E+04  0.37010466714E+04 0.  0.
        3    1    3    3  502    0 -0.15891783705E+04  0.76456406575E+03 -0.90567624055E+03  0.19824973056E+04  0.10100000352E+00 0.  1.
       -3    1    3    3    0  502  0.15891783705E+04 -0.76456406575E+03  0.23404958356E+03  0.17789955935E+04  0.10100000352E+00 0. -1.
</event>
<event>
 5   0  0.5714125E-09  0.3702735E+04  0.7818609E-02  0.8067356E-01
        1   -1    0    0  501    0  0.00000000000E+00  0.00000000000E+00  0.18478071200E+04  0.18478071200E+04  0.50400001928E-02 0. -1.
       -1   -1    0    0    0  501  0.00000000000E+00  0.00000000000E+00 -0.18549350485E+04  0.18549350485E+04  0.50400001928E-02 0.  1.
    10030    2    1    2    0    0  0.00000000000E+00  0.00000000000E+00 -0.71279284937E+01  0.37027421685E+04  0.37027353077E+04 0.  0.
        3    1    3    3  502    0  0.14450012974E+04  0.56584221066E+03 -0.10131974622E+04  0.18533146696E+04  0.10100000352E+00 0.  1.
       -3    1    3    3    0  502 -0.14450012974E+04 -0.56584221066E+03  0.10060695337E+04  0.18494274989E+04  0.10100000352E+00 0. -1.
</event>
<event>
 5   0  0.1825308E-08  0.3701046E+04  0.7818609E-02  0.8067730E-01
       -2   -1    0    0    0  501  0.00000000000E+00  0.00000000000E+00  0.19915300310E+04  0.19915300310E+04  0.25500000920E-02 0.  1.
        2   -1    0    0  501    0  0.00000000000E+00  0.00000000000E+00 -0.17194994318E+04  0.17194994319E+04  0.25500000920E-02 0. -1.
    10030    2    1    2    0    0  0.00000000000E+00  0.00000000000E+00  0.27203059919E+03  0.37110294629E+04  0.37010456668E+04 0.  0.
        4    1    3    3  502    0 -0.12981611387E+02 -0.18177711669E+04 -0.21128967647E+03  0.18300561406E+04  0.12699999809E+01 0.  1.
       -4    1    3    3    0  502  0.12981611387E+02  0.18177711669E+04  0.48332027566E+03  0.18809733223E+04  0.12699999809E+01 0. -1.
</event>
<event>
 5   0  0.1856107E-08  0.3701633E+04  0.7818609E-02  0.8067600E-01
        2   -1    0    0  501    0  0.00000000000E+00  0.00000000000E+00  0.26117786451E+04  0.26117786451E+04  0.25500000920E-02 0. -1.
       -2   -1    0    0    0  501  0.00000000000E+00  0.00000000000E+00 -0.13115666717E+04  0.13115666717E+04  0.25500000920E-02 0.  1.
    10030    2    1    2    0    0  0.00000000000E+00  0.00000000000E+00  0.13002119734E+04  0.39233453168E+04  0.37016330584E+04 0.  0.
        2    1    3    3  502    0  0.13494119639E+04  0.14160401406E+03 -0.68408243800E+03  0.15195173994E+04  0.25500000920E-02 0.  1.
       -2    1    3    3    0  502 -0.13494119639E+04 -0.14160401406E+03  0.19842944114E+04  0.24038279173E+04  0.25500000920E-02 0. -1.
</event>
<event>
 5   0  0.5714125E-09  0.3697494E+04  0.7818609E-02  0.8068518E-01
        1   -1    0    0  501    0  0.00000000000E+00  0.00000000000E+00  0.20862672590E+04  0.20862672590E+04  0.50400001928E-02 0. -1.
       -1   -1    0    0    0  501  0.00000000000E+00  0.00000000000E+00 -0.16382678552E+04  0.16382678552E+04  0.50400001928E-02 0.  1.
    10030    2    1    2    0    0  0.00000000000E+00  0.00000000000E+00  0.44799940376E+03  0.37245351142E+04  0.36974935228E+04 0.  0.
        2    1    3    3  502    0  0.35682910925E+03  0.10093562787E+04 -0.12942518110E+04  0.16796472430E+04  0.25500000920E-02 0.  1.
       -2    1    3    3    0  502 -0.35682910925E+03 -0.10093562787E+04  0.17422512148E+04  0.20448878712E+04  0.25500000920E-02 0. -1.
</event>
<event>
 5   0  0.1856107E-08  0.3701208E+04  0.7818609E-02  0.8067694E-01
       -2   -1    0    0    0  501  0.00000000000E+00  0.00000000000E+00  0.21430487988E+04  0.21430487988E+04  0.25500000920E-02 0.  1.
        2   -1    0    0  501    0  0.00000000000E+00  0.00000000000E+00 -0.15980672225E+04  0.15980672225E+04  0.25500000920E-02 0. -1.
    10030    2    1    2    0    0  0.00000000000E+00  0.00000000000E+00  0.54498157625E+03  0.37411160213E+04  0.37012084738E+04 0.  0.
        2    1    3    3  502    0  0.73618897498E+03 -0.14940660376E+04 -0.54275919117E+03  0.17517976685E+04  0.25500000920E-02 0. -1.
       -2    1    3    3    0  502 -0.73618897498E+03  0.14940660376E+04  0.10877407674E+04  0.19893183528E+04  0.25500000920E-02 0.  1.
</event>
<event>
 5   0  0.5714125E-09  0.3699970E+04  0.7818609E-02  0.8067968E-01
       -1   -1    0    0    0  501  0.00000000000E+00  0.00000000000E+00  0.12603944080E+04  0.12603944080E+04  0.50400001928E-02 0.  1.
        1   -1    0    0  501    0  0.00000000000E+00  0.00000000000E+00 -0.27153762541E+04  0.27153762541E+04  0.50400001928E-02 0. -1.
    10030    2    1    2    0    0  0.00000000000E+00  0.00000000000E+00 -0.14549818461E+04  0.39757706621E+04  0.36999702951E+04 0.  0.
        2    1    3    3  502    0  0.14349575479E+04 -0.11238102494E+04 -0.10679567418E+04  0.21124829569E+04  0.25500000920E-02 0. -1.
       -2    1    3    3    0  502 -0.14349575479E+04  0.11238102494E+04 -0.38702510426E+03  0.18632877052E+04  0.25500000920E-02 0.  1.
</event>
<event>
 5   0  0.5714125E-09  0.3701606E+04  0.7818609E-02  0.8067606E-01
       -1   -1    0    0    0  501  0.00000000000E+00  0.00000000000E+00  0.21397890773E+04  0.21397890773E+04  0.50400001928E-02 0.  1.
        1   -1    0    0  501    0  0.00000000000E+00  0.00000000000E+00 -0.16008453119E+04  0.16008453119E+04  0.50400001928E-02 0. -1.
    10030    2    1    2    0    0  0.00000000000E+00  0.00000000000E+00  0.53894376542E+03  0.37406343892E+04  0.37016057666E+04 0.  0.
        1    1    3    3  502    0  0.11794604462E+04  0.13975670785E+04  0.55734495742E+03  0.19117934210E+04  0.50400001928E-02 0.  1.
       -1    1    3    3    0  502 -0.11794604462E+04 -0.13975670785E+04 -0.18401191998E+02  0.18288409682E+04  0.50400001928E-02 0. -1.
</event>
<event>
 5   0  0.1856107E-08  0.3700144E+04  0.7818609E-02  0.8067930E-01
       -2   -1    0    0    0  501  0.00000000000E+00  0.00000000000E+00  0.28562819072E+04  0.28562819072E+04  0.25500000920E-02 0. -1.
        2   -1    0    0  501    0  0.00000000000E+00  0.00000000000E+00 -0.11983291814E+04  0.11983291814E+04  0.25500000920E-02 0.  1.
    10030    2    1    2    0    0  0.00000000000E+00  0.00000000000E+00  0.16579527258E+04  0.40546110885E+04  0.37001437591E+04 0.  0.
        2    1    3    3  502    0  0.16737675302E+04 -0.41228667699E+03  0.92841382037E+02  0.17262959107E+04  0.25500000920E-02 0.  1.
       -2    1    3    3    0  502 -0.16737675302E+04  0.41228667699E+03  0.15651113437E+04  0.23283151778E+04  0.25500000920E-02 0. -1.
</event>
<event>
 5   0  0.1825308E-08  0.3699500E+04  0.7818609E-02  0.8068073E-01
       -2   -1    0    0    0  501  0.00000000000E+00  0.00000000000E+00  0.18628629623E+04  0.18628629623E+04  0.25500000920E-02 0.  1.
        2   -1    0    0  501    0  0.00000000000E+00  0.00000000000E+00 -0.18367290489E+04  0.18367290489E+04  0.25500000920E-02 0. -1.
    10030    2    1    2    0    0  0.00000000000E+00  0.00000000000E+00  0.26133913332E+02  0.36995920112E+04  0.36994997051E+04 0.  0.
        4    1    3    3  502    0  0.61357428705E+03 -0.71614758148E+03 -0.15782716323E+04  0.18385547918E+04  0.12699999809E+01 0. -1.
       -4    1    3    3    0  502 -0.61357428705E+03  0.71614758148E+03  0.16044055456E+04  0.18610372194E+04  0.12699999809E+01 0.  1.
</event>
<event>
 5   0  0.1725865E-08  0.3699947E+04  0.7818609E-02  0.8067974E-01
       -2   -1    0    0    0  501  0.00000000000E+00  0.00000000000E+00  0.17550433583E+04  0.17550433583E+04  0.25500000920E-02 0.  1.
        2   -1    0    0  501    0  0.00000000000E+00  0.00000000000E+00 -0.19500386872E+04  0.19500386872E+04  0.25500000920E-02 0. -1.
    10030    2    1    2    0    0  0.00000000000E+00  0.00000000000E+00 -0.19499532893E+03  0.37050820454E+04  0.36999472679E+04 0.  0.
        1    1    3    3  502    0  0.81053763157E+03 -0.15943902101E+04 -0.57075384676E+03  0.18774480946E+04  0.50400001928E-02 0. -1.
       -1    1    3    3    0  502 -0.81053763157E+03  0.15943902101E+04  0.37575851782E+03  0.18276339508E+04  0.50400001928E-02 0.  1.
</event>
<event>
 5   0  0.1725865E-08  0.3699511E+04  0.7818609E-02  0.8068070E-01
        2   -1    0    0  501    0  0.00000000000E+00  0.00000000000E+00  0.23297821837E+04  0.23297821837E+04  0.25500000920E-02 0.  1.
       -2   -1    0    0    0  501  0.00000000000E+00  0.00000000000E+00 -0.14686331246E+04  0.14686331246E+04  0.25500000920E-02 0. -1.
    10030    2    1    2    0    0  0.00000000000E+00  0.00000000000E+00  0.86114905903E+03  0.37984153083E+04  0.36995109342E+04 0.  0.
        1    1    3    3  502    0  0.35488997585E+03  0.14558803366E+04 -0.68288138546E+03  0.16467730372E+04  0.50400001928E-02 0. -1.
       -1    1    3    3    0  502 -0.35488997585E+03 -0.14558803366E+04  0.15440304445E+04  0.21516422711E+04  0.50400001928E-02 0.  1.
</event>
<event>
 5   0  0.5714125E-09  0.3699555E+04  0.7818609E-02  0.8068060E-01
       -1   -1    0    0    0  501  0.00000000000E+00  0.00000000000E+00  0.18560603031E+04  0.18560603031E+04  0.50400001928E-02 0.  1.
        1   -1    0    0  501    0  0.00000000000E+00  0.00000000000E+00 -0.18435157911E+04  0.18435157911E+04  0.50400001928E-02 0. -1.
    10030    2    1    2    0    0  0.00000000000E+00  0.00000000000E+00  0.12544511989E+02  0.36995760942E+04  0.36995548262E+04 0.  0.
        2    1    3    3  502    0 -0.51049195258E+03  0.15290898374E+04  0.91344819024E+03  0.18528640967E+04  0.25500000920E-02 0.  1.
       -2    1    3    3    0  502  0.51049195258E+03 -0.15290898374E+04 -0.90090367825E+03  0.18467119976E+04  0.25500000920E-02 0. -1.
</event>
<event>
 5   0  0.1740290E-08  0.3699540E+04  0.7818609E-02  0.8068064E-01
       -2   -1    0    0    0  501  0.00000000000E+00  0.00000000000E+00  0.17722407436E+04  0.17722407436E+04  0.25500000920E-02 0.  1.
        2   -1    0    0  501    0  0.00000000000E+00  0.00000000000E+00 -0.19306909592E+04  0.19306909592E+04  0.25500000920E-02 0. -1.
    10030    2    1    2    0    0  0.00000000000E+00  0.00000000000E+00 -0.15845021559E+03  0.37029317027E+04  0.36995400693E+04 0.  0.
        5    1    3    3  502    0  0.95104521199E+03 -0.15865326325E+04 -0.71849373382E+02  0.18511502402E+04  0.46999998093E+01 0. -1.
       -5    1    3    3    0  502 -0.95104521199E+03  0.15865326325E+04 -0.86600842212E+02  0.18517814626E+04  0.46999998093E+01 0.  1.
</event>
<event>
 5   0  0.1725865E-08  0.3692611E+04  0.7818609E-02  0.8069601E-01
       -2   -1    0    0    0  501  0.00000000000E+00  0.00000000000E+00  0.28835695168E+04  0.28835695168E+04  0.25500000920E-02 0.  1.
        2   -1    0    0  501    0  0.00000000000E+00  0.00000000000E+00 -0.11821610852E+04  0.11821610852E+04  0.25500000920E-02 0. -1.
    10030    2    1    2    0    0  0.00000000000E+00  0.00000000000E+00  0.17014084316E+04  0.40657306021E+04  0.36926108213E+04 0.  0.
        1    1    3    3  502    0 -0.86965066709E+03  0.15614322308E+04  0.13606209278E+04  0.22462529251E+04  0.50400001928E-02 0. -1.
       -1    1    3    3    0  502  0.86965066709E+03 -0.15614322308E+04  0.34078750375E+03  0.18194776770E+04  0.50400001928E-02 0.  1.
</event>
<event>
 5   0  0.1740290E-08  0.3698279E+04  0.7818609E-02  0.8068343E-01
       -2   -1    0    0    0  501  0.00000000000E+00  0.00000000000E+00  0.17512404129E+04  0.17512404129E+04  0.25500000920E-02 0. -1.
        2   -1    0    0  501    0  0.00000000000E+00  0.00000000000E+00 -0.19525115952E+04  0.19525115952E+04  0.25500000920E-02 0.  1.
    10030    2    1    2    0    0  0.00000000000E+00  0.00000000000E+00 -0.20127118237E+03  0.37037520081E+04  0.36982791740E+04 0.  0.
        5    1    3    3  502    0 -0.60292762083E+03  0.34740480803E+02  0.16496825766E+04  0.17567593206E+04  0.46999998093E+01 0. -1.
       -5    1    3    3    0  502  0.60292762083E+03 -0.34740480803E+02 -0.18509537590E+04  0.19469926875E+04  0.46999998093E+01 0.  1.
</event>
<event>
 5   0  0.1825308E-08  0.3680604E+04  0.7818609E-02  0.8072274E-01
       -2   -1    0    0    0  501  0.00000000000E+00  0.00000000000E+00  0.15916757297E+04  0.15916757297E+04  0.25500000920E-02 0. -1.
        2   -1    0    0  501    0  0.00000000000E+00  0.00000000000E+00 -0.21277647927E+04  0.21277647927E+04  0.25500000920E-02 0.  1.
    10030    2    1    2    0    0  0.00000000000E+00  0.00000000000E+00 -0.53608906297E+03  0.37194405225E+04  0.36806040695E+04 0.  0.
        4    1    3    3  502    0  0.74192978591E+03  0.15250898754E+04  0.45388201943E+03  0.17556678034E+04  0.12699999809E+01 0. -1.
       -4    1    3    3    0  502 -0.74192978591E+03 -0.15250898754E+04 -0.98997108241E+03  0.19637727191E+04  0.12699999809E+01 0.  1.
</event>
<event>
 5   0  0.5714125E-09  0.3698551E+04  0.7818609E-02  0.8068283E-01
        1   -1    0    0  501    0  0.00000000000E+00  0.00000000000E+00  0.29783162396E+04  0.29783162396E+04  0.50400001928E-02 0.  1.
       -1   -1    0    0    0  501  0.00000000000E+00  0.00000000000E+00 -0.11482390853E+04  0.11482390853E+04  0.50400001928E-02 0. -1.
    10030    2    1    2    0    0  0.00000000000E+00  0.00000000000E+00  0.18300771543E+04  0.41265553249E+04  0.36985505890E+04 0.  0.
        1    1    3    3  502    0  0.45839668590E+03  0.10217115851E+04  0.25570076986E+04  0.27914710200E+04  0.50400001928E-02 0.  1.
       -1    1    3    3    0  502 -0.45839668590E+03 -0.10217115851E+04 -0.72693054438E+03  0.13350843049E+04  0.50400001928E-02 0. -1.
</event>
<event>
 5   0  0.1757996E-08  0.3699231E+04  0.7818609E-02  0.8068132E-01
        2   -1    0    0  501    0  0.00000000000E+00  0.00000000000E+00  0.28911426445E+04  0.28911426445E+04  0.25500000920E-02 0.  1.
       -2   -1    0    0    0  501  0.00000000000E+00  0.00000000000E+00 -0.11832957150E+04  0.11832957150E+04  0.25500000920E-02 0. -1.
    10030    2    1    2    0    0  0.00000000000E+00  0.00000000000E+00  0.17078469295E+04  0.40744383595E+04  0.36992305700E+04 0.  0.
        3    1    3    3  502    0 -0.36064907553E+03  0.13104902090E+03 -0.11389730619E+04  0.12018740564E+04  0.10100000352E+00 0. -1.
       -3    1    3    3    0  502  0.36064907553E+03 -0.13104902090E+03  0.28468199914E+04  0.28725643031E+04  0.10100000352E+00 0.  1.
</event>
<event>
 5   0  0.1725865E-08  0.3699605E+04  0.7818609E-02  0.8068049E-01
        2   -1    0    0  501    0  0.00000000000E+00  0.00000000000E+00  0.23325438897E+04  0.23325438897E+04  0.25500000920E-02 0. -1.
       -2   -1    0    0    0  501  0.00000000000E+00  0.00000000000E+00 -0.14669691399E+04  0.14669691399E+04  0.25500000920E-02 0.  1.
    10030    2    1    2    0    0  0.00000000000E+00  0.00000000000E+00  0.86557474972E+03  0.37995130296E+04  0.36996053323E+04 0.  0.
        1    1    3    3  502    0 -0.57216193225E+02  0.14590439107E+03 -0.14601385453E+04  0.14685252315E+04  0.50400001928E-02 0.  1.
       -1    1    3    3    0  502  0.57216193225E+02 -0.14590439107E+03  0.23257132950E+04  0.23309877981E+04  0.50400001928E-02 0. -1.
</event>
<event>
 5   0  0.5714125E-09  0.3700075E+04  0.7818609E-02  0.8067945E-01
       -1   -1    0    0    0  501  0.00000000000E+00  0.00000000000E+00  0.20936299123E+04  0.20936299123E+04  0.50400001928E-02 0.  1.
        1   -1    0    0  501    0  0.00000000000E+00  0.00000000000E+00 -0.16347872147E+04  0.16347872147E+04  0.50400001928E-02 0. -1.
    10030    2    1    2    0    0  0.00000000000E+00  0.00000000000E+00  0.45884269761E+03  0.37284171271E+04  0.37000753576E+04 0.  0.
        4    1    3    3  502    0  0.51002429523E+03  0.68916534732E+03  0.18813578298E+04  0.20675063613E+04  0.12699999809E+01 0.  1.
       -4    1    3    3    0  502 -0.51002429523E+03 -0.68916534732E+03 -0.14225151321E+04  0.16609107657E+04  0.12699999809E+01 0. -1.
</event>
<event>
 5   0  0.1757996E-08  0.3704322E+04  0.7818609E-02  0.8067005E-01
       -2   -1    0    0    0  501  0.00000000000E+00  0.00000000000E+00  0.12322934263E+04  0.12322934263E+04  0.25500000920E-02 0.  1.
        2   -1    0    0  501    0  0.00000000000E+00  0.00000000000E+00 -0.27838334979E+04  0.27838334979E+04  0.25500000920E-02 0. -1.
    10030    2    1    2    0    0  0.00000000000E+00  0.00000000000E+00 -0.15515400716E+04  0.40161269241E+04  0.37043216487E+04 0.  0.
        3    1    3    3  502    0 -0.68140404491E+03 -0.39447055000E+03  0.10418236698E+04  0.13058771215E+04  0.10100000352E+00 0.  1.
       -3    1    3    3    0  502  0.68140404491E+03  0.39447055000E+03 -0.25933637414E+04  0.27102498027E+04  0.10100000352E+00 0. -1.
</event>
<event>
 5   0  0.1725865E-08  0.3700445E+04  0.7818609E-02  0.8067863E-01
        2   -1    0    0  501    0  0.00000000000E+00  0.00000000000E+00  0.17725051885E+04  0.17725051885E+04  0.25500000920E-02 0.  1.
       -2   -1    0    0    0  501  0.00000000000E+00  0.00000000000E+00 -0.19313479274E+04  0.19313479274E+04  0.25500000920E-02 0. -1.
    10030    2    1    2    0    0  0.00000000000E+00  0.00000000000E+00 -0.15884273897E+03  0.37038531159E+04  0.37004454986E+04 0.  0.
        1    1    3    3  502    0 -0.10985655514E+04 -0.14837599316E+04  0.42897618513E+02  0.18466808091E+04  0.50400001928E-02 0. -1.
       -1    1    3    3    0  502  0.10985655514E+04  0.14837599316E+04 -0.20174035748E+03  0.18571723068E+04  0.50400001928E-02 0.  1.
</event>
<event>
 5   0  0.5714125E-09  0.3704107E+04  0.7818609E-02  0.8067052E-01
        1   -1    0    0  501    0  0.00000000000E+00  0.00000000000E+00  0.22243267806E+04  0.22243267806E+04  0.50400001928E-02 0.  1.
       -1   -1    0    0    0  501  0.00000000000E+00  0.00000000000E+00 -0.15420859185E+04  0.15420859186E+04  0.50400001928E-02 0. -1.
    10030    2    1    2    0    0  0.00000000000E+00  0.00000000000E+00  0.68224086210E+03  0.37664126992E+04  0.37041074535E+04 0.  0.
        2    1    3    3  502    0  0.10554856213E+04  0.44402299159E+03 -0.11390073846E+04  0.16150988007E+04  0.25500000920E-02 0. -1.
       -2    1    3    3    0  502 -0.10554856213E+04 -0.44402299159E+03  0.18212482467E+04  0.21513138985E+04  0.25500000920E-02 0.  1.
</event>
<event>
 5   0  0.1740290E-08  0.3699871E+04  0.7818609E-02  0.8067990E-01
       -2   -1    0    0    0  501  0.00000000000E+00  0.00000000000E+00  0.26943935148E+04  0.26943935148E+04  0.25500000920E-02 0.  1.
        2   -1    0    0  501    0  0.00000000000E+00  0.00000000000E+00 -0.12701414394E+04  0.12701414394E+04  0.25500000920E-02 0. -1.
    10030    2    1    2    0    0  0.00000000000E+00  0.00000000000E+00  0.14242520754E+04  0.39645349541E+04  0.36998707313E+04 0.  0.
        5    1    3    3  502    0 -0.47204972525E+03  0.17661270875E+04  0.10155856022E+04  0.20912847816E+04  0.46999998093E+01 0.  1.
       -5    1    3    3    0  502  0.47204972525E+03 -0.17661270875E+04  0.40866647318E+03  0.18732501725E+04  0.46999998093E+01 0. -1.
</event>
<event>
 5   0  0.5714125E-09  0.3700192E+04  0.7818609E-02  0.8067919E-01
       -1   -1    0    0    0  501  0.00000000000E+00  0.00000000000E+00  0.14583932725E+04  0.14583932725E+04  0.50400001928E-02 0. -1.
        1   -1    0    0  501    0  0.00000000000E+00  0.00000000000E+00 -0.23470042380E+04  0.23470042380E+04  0.50400001928E-02 0.  1.
    10030    2    1    2    0    0  0.00000000000E+00  0.00000000000E+00 -0.88861096544E+03  0.38053975105E+04  0.37001919903E+04 0.  0.
        1    1    3    3  502    0 -0.23998252151E+03  0.11091614930E+04 -0.19470224449E+04  0.22536031659E+04  0.50400001928E-02 0.  1.
       -1    1    3    3    0  502  0.23998252151E+03 -0.11091614930E+04  0.10584114795E+04  0.15517943446E+04  0.50400001928E-02 0. -1.
</event>
<event>
 5   0  0.1725865E-08  0.3699018E+04  0.7818609E-02  0.8068179E-01
        2   -1    0    0  501    0  0.00000000000E+00  0.00000000000E+00  0.20783491040E+04  0.20783491040E+04  0.25500000920E-02 0.  1.
       -2   -1    0    0    0  501  0.00000000000E+00  0.00000000000E+00 -0.16458660804E+04  0.16458660804E+04  0.25500000920E-02 0. -1.
    10030    2    1    2    0    0  0.00000000000E+00  0.00000000000E+00  0.43248302359E+03  0.37242151844E+04  0.36990184068E+04 0.  0.
        1    1    3    3  502    0 -0.10620764907E+04  0.11910009271E+04 -0.72511111109E+03  0.17527908614E+04  0.50400001928E-02 0. -1.
       -1    1    3    3    0  502  0.10620764907E+04 -0.11910009271E+04  0.11575941347E+04  0.19714243229E+04  0.50400001928E-02 0.  1.
</event>
<event>
 5   0  0.1856107E-08  0.3698254E+04  0.7818609E-02  0.8068349E-01
       -2   -1    0    0    0  501  0.00000000000E+00  0.00000000000E+00  0.11635489252E+04  0.11635489252E+04  0.25500000920E-02 0. -1.
        2   -1    0    0  501    0  0.00000000000E+00  0.00000000000E+00 -0.29386572101E+04  0.29386572101E+04  0.25500000920E-02 0.  1.
    10030    2    1    2    0    0  0.00000000000E+00  0.00000000000E+00 -0.17751082849E+04  0.41022061353E+04  0.36982544198E+04 0.  0.
        2    1    3    3  502    0  0.10710057431E+04 -0.11925998173E+04  0.13505740696E+03  0.16085981877E+04  0.25500000920E-02 0. -1.
       -2    1    3    3    0  502 -0.10710057431E+04  0.11925998173E+04 -0.19101656918E+04  0.24936079476E+04  0.25500000920E-02 0.  1.
</event>
<event>
 5   0  0.5714125E-09  0.3696131E+04  0.7818609E-02  0.8068820E-01
       -1   -1    0    0    0  501  0.00000000000E+00  0.00000000000E+00  0.11226009798E+04  0.11226009798E+04  0.50400001928E-02 0.  1.
        1   -1    0    0  501    0  0.00000000000E+00  0.00000000000E+00 -0.30423508048E+04  0.30423508048E+04  0.50400001928E-02 0. -1.
    10030    2    1    2    0    0  0.00000000000E+00  0.00000000000E+00 -0.19197498251E+04  0.41649517846E+04  0.36961309470E+04 0.  0.
        5    1    3    3  502    0  0.11803027858E+04 -0.64583859043E+03  0.46774932861E+03  0.14244415311E+04  0.46999998093E+01 0.  1.
       -5    1    3    3    0  502 -0.11803027858E+04  0.64583859043E+03 -0.23874991537E+04  0.27405102536E+04  0.46999998093E+01 0. -1.
</event>
<event>
 5   0  0.5714125E-09  0.3700108E+04  0.7818609E-02  0.8067938E-01
       -1   -1    0    0    0  501  0.00000000000E+00  0.00000000000E+00  0.17224768227E+04  0.17224768227E+04  0.50400001928E-02 0. -1.
        1   -1    0    0  501    0  0.00000000000E+00  0.00000000000E+00 -0.19870806388E+04  0.19870806388E+04  0.50400001928E-02 0.  1.
    10030    2    1    2    0    0  0.00000000000E+00  0.00000000000E+00 -0.26460381610E+03  0.37095574616E+04  0.37001082932E+04 0.  0.
        3    1    3    3  502    0 -0.17211743127E+04  0.11067356942E+03  0.53874341218E+03  0.18069128723E+04  0.10100000352E+00 0.  1.
       -3    1    3    3    0  502  0.17211743127E+04 -0.11067356942E+03 -0.80334722828E+03  0.19026445893E+04  0.10100000352E+00 0. -1.
</event>
<event>
 5   0  0.1757996E-08  0.3702290E+04  0.7818609E-02  0.8067454E-01
       -2   -1    0    0    0  501  0.00000000000E+00  0.00000000000E+00  0.21147005506E+04  0.21147005506E+04  0.25500000920E-02 0. -1.
        2   -1    0    0  501    0  0.00000000000E+00  0.00000000000E+00 -0.16204366721E+04  0.16204366721E+04  0.25500000920E-02 0.  1.
    10030    2    1    2    0    0  0.00000000000E+00  0.00000000000E+00  0.49426387847E+03  0.37351372227E+04  0.37022902764E+04 0.  0.
        3    1    3    3  502    0 -0.77558739672E+03  0.16689426807E+04  0.45779598197E+02  0.18409240243E+04  0.10100000352E+00 0.  1.
       -3    1    3    3    0  502  0.77558739672E+03 -0.16689426807E+04  0.44848428028E+03  0.18942131984E+04  0.10100000352E+00 0. -1.
</event>
<event>
 5   0  0.1740290E-08  0.3697693E+04  0.7818609E-02  0.8068473E-01
        2   -1    0    0  501    0  0.00000000000E+00  0.00000000000E+00  0.17092598627E+04  0.17092598627E+04  0.25500000920E-02 0.  1.
       -2   -1    0    0    0  501  0.00000000000E+00  0.00000000000E+00 -0.19998328903E+04  0.19998328903E+04  0.25500000920E-02 0. -1.
    10030    2    1    2    0    0  0.00000000000E+00  0.00000000000E+00 -0.29057302757E+03  0.37090927531E+04  0.36976933846E+04 0.  0.
        5    1    3    3  502    0 -0.18078131181E+03  0.68853704558E+03  0.15662699505E+04  0.17204617966E+04  0.46999998093E+01 0.  1.
       -5    1    3    3    0  502  0.18078131181E+03 -0.68853704558E+03 -0.18568429780E+04  0.19886309564E+04  0.46999998093E+01 0. -1.
</event>
<event>
 5   0  0.5714125E-09  0.3684253E+04  0.7818609E-02  0.8071461E-01
       -1   -1    0    0    0  501  0.00000000000E+00  0.00000000000E+00  0.24820387276E+04  0.24820387276E+04  0.50400001928E-02 0. -1.
        1   -1    0    0  501    0  0.00000000000E+00  0.00000000000E+00 -0.13671943861E+04  0.13671943861E+04  0.50400001928E-02 0.  1.
    10030    2    1    2    0    0  0.00000000000E+00  0.00000000000E+00  0.11148443414E+04  0.38492331137E+04  0.36842526594E+04 0.  0.
        5    1    3    3  502    0  0.77297302455E+03  0.16248703592E+04  0.14514251339E+03  0.18052089685E+04  0.46999998093E+01 0.  1.
       -5    1    3    3    0  502 -0.77297302455E+03 -0.16248703592E+04  0.96970182804E+03  0.20440241452E+04  0.46999998093E+01 0. -1.
</event>
<event>
 5   0  0.1725865E-08  0.3706367E+04  0.7818609E-02  0.8066552E-01
       -2   -1    0    0    0  501  0.00000000000E+00  0.00000000000E+00  0.17133383036E+04  0.17133383036E+04  0.25500000920E-02 0. -1.
        2   -1    0    0  501    0  0.00000000000E+00  0.00000000000E+00 -0.20044430227E+04  0.20044430227E+04  0.25500000920E-02 0.  1.
    10030    2    1    2    0    0  0.00000000000E+00  0.00000000000E+00 -0.29110471912E+03  0.37177813263E+04  0.37063669587E+04 0.  0.
        1    1    3    3  502    0 -0.89146433377E+02 -0.18451745435E+04 -0.29322267141E+03  0.18704533455E+04  0.50400001928E-02 0. -1.
       -1    1    3    3    0  502  0.89146433377E+02  0.18451745435E+04  0.21179522909E+01  0.18473279808E+04  0.50400001928E-02 0.  1.
</event>
<event>
 5   0  0.5714125E-09  0.3700002E+04  0.7818609E-02  0.8067961E-01
        1   -1    0    0  501    0  0.00000000000E+00  0.00000000000E+00  0.18871877218E+04  0.18871877218E+04  0.50400001928E-02 0.  1.
       -1   -1    0    0    0  501  0.00000000000E+00  0.00000000000E+00 -0.18135471467E+04  0.18135471467E+04  0.50400001928E-02 0. -1.
    10030    2    1    2    0    0  0.00000000000E+00  0.00000000000E+00  0.73640575128E+02  0.37007348686E+04  0.37000021126E+04 0.  0.
        1    1    3    3  502    0  0.83804609279E+03 -0.44690273765E+03  0.16247305529E+04  0.18819651113E+04  0.50400001928E-02 0.  1.
       -1    1    3    3    0  502 -0.83804609279E+03  0.44690273765E+03 -0.15510899778E+04  0.18187697572E+04  0.50400001928E-02 0. -1.
</event>
<event>
 5   0  0.1757996E-08  0.3699434E+04  0.7818609E-02  0.8068087E-01
       -2   -1    0    0    0  501  0.00000000000E+00  0.00000000000E+00  0.17078966023E+04  0.17078966023E+04  0.25500000920E-02 0. -1.
        2   -1    0    0  501    0  0.00000000000E+00  0.00000000000E+00 -0.20033143430E+04  0.20033143430E+04  0.25500000920E-02 0.  1.
    10030    2    1    2    0    0  0.00000000000E+00  0.00000000000E+00 -0.29541774073E+03  0.37112109453E+04  0.36994344215E+04 0.  0.
        3    1    3    3  502    0 -0.88160019283E+03  0.16098914188E+04 -0.37753304638E+03  0.18738998083E+04  0.10100000352E+00 0.  1.
       -3    1    3    3    0  502  0.88160019283E+03 -0.16098914188E+04  0.82115305655E+02  0.18373111370E+04  0.10100000352E+00 0. -1.
</event>
<event>
 5   0  0.1825308E-08  0.3698747E+04  0.7818609E-02  0.8068239E-01
       -2   -1    0    0    0  501  0.00000000000E+00  0.00000000000E+00  0.15324107013E+04  0.15324107013E+04  0.25500000920E-02 0. -1.
        2   -1    0    0  501    0  0.00000000000E+00  0.00000000000E+00 -0.22318971960E+04  0.22318971960E+04  0.25500000920E-02 0.  1.
    10030    2    1    2    0    0  0.00000000000E+00  0.00000000000E+00 -0.69948649470E+03  0.37643078973E+04  0.36987474352E+04 0.  0.
        4    1    3    3  502    0  0.14628479245E+04 -0.74257479383E+03  0.51911036110E+03  0.17207029245E+04  0.12699999809E+01 0. -1.
       -4    1    3    3    0  502 -0.14628479245E+04  0.74257479383E+03 -0.12185968558E+04  0.20436049727E+04  0.12699999809E+01 0.  1.
</event>
<event>
 5   0  0.1856107E-08  0.3708439E+04  0.7818609E-02  0.8066094E-01
        2   -1    0    0  501    0  0.00000000000E+00  0.00000000000E+00  0.25465405817E+04  0.25465405817E+04  0.25500000920E-02 0. -1.
       -2   -1    0    0    0  501  0.00000000000E+00  0.00000000000E+00 -0.13501176556E+04  0.13501176556E+04  0.25500000920E-02 0.  1.
    10030    2    1    2    0    0  0.00000000000E+00  0.00000000000E+00  0.11964229261E+04  0.38966582373E+04  0.37084387012E+04 0.  0.
        2    1    3    3  502    0  0.17395326156E+04 -0.51935587056E+02 -0.74155074313E+02  0.17418869082E+04  0.25500000920E-02 0.  1.
       -2    1    3    3    0  502 -0.17395326156E+04  0.51935587056E+02  0.12705780004E+04  0.21547713292E+04  0.25500000920E-02 0. -1.
</event>
<event>
 5   0  0.1825308E-08  0.3700376E+04  0.7818609E-02  0.8067878E-01
       -2   -1    0    0    0  501  0.00000000000E+00  0.00000000000E+00  0.14116471313E+04  0.14116471313E+04  0.25500000920E-02 0. -1.
        2   -1    0    0  501    0  0.00000000000E+00  0.00000000000E+00 -0.24249658620E+04  0.24249658620E+04  0.25500000920E-02 0.  1.
    10030    2    1    2    0    0  0.00000000000E+00  0.00000000000E+00 -0.10133187306E+04  0.38366129933E+04  0.37003762526E+04 0.  0.
        4    1    3    3  502    0 -0.66270876346E+03  0.17260993920E+04 -0.43639656697E+03  0.18997488236E+04  0.12699999809E+01 0.  1.
       -4    1    3    3    0  502  0.66270876346E+03 -0.17260993920E+04 -0.57692216364E+03  0.19368641697E+04  0.12699999809E+01 0. -1.
</event>
<event>
 5   0  0.1725865E-08  0.3700428E+04  0.7818609E-02  0.8067867E-01
        2   -1    0    0  501    0  0.00000000000E+00  0.00000000000E+00  0.13577194693E+04  0.13577194693E+04  0.25500000920E-02 0. -1.
       -2   -1    0    0    0  501  0.00000000000E+00  0.00000000000E+00 -0.25213536465E+04  0.25213536465E+04  0.25500000920E-02 0.  1.
    10030    2    1    2    0    0  0.00000000000E+00  0.00000000000E+00 -0.11636341772E+04  0.38790731158E+04  0.37004275076E+04 0.  0.
        1    1    3    3  502    0  0.67125860263E+03  0.15119948943E+04 -0.14504170877E+04  0.22000969070E+04  0.50400001928E-02 0.  1.
       -1    1    3    3    0  502 -0.67125860263E+03 -0.15119948943E+04  0.28678291042E+03  0.16789762088E+04  0.50400001928E-02 0. -1.
</event>
<event>
 5   0  0.5714125E-09  0.3701002E+04  0.7818609E-02  0.8067740E-01
        1   -1    0    0  501    0  0.00000000000E+00  0.00000000000E+00  0.24376355850E+04  0.24376355850E+04  0.50400001928E-02 0. -1.
       -1   -1    0    0    0  501  0.00000000000E+00  0.00000000000E+00 -0.14047848223E+04  0.14047848223E+04  0.50400001928E-02 0.  1.
    10030    2    1    2    0    0  0.00000000000E+00  0.00000000000E+00  0.10328507627E+04  0.38424204073E+04  0.37010017412E+04 0.  0.
        5    1    3    3  502    0 -0.83669840395E+03  0.12490771116E+04  0.16365743882E+04  0.22223086347E+04  0.46999998093E+01 0. -1.
       -5    1    3    3    0  502  0.83669840395E+03 -0.12490771116E+04 -0.60372362545E+03  0.16201117726E+04  0.46999998093E+01 0.  1.
</event>
<event>
 5   0  0.5714125E-09  0.3697369E+04  0.7818609E-02  0.8068545E-01
        1   -1    0    0  501    0  0.00000000000E+00  0.00000000000E+00  0.28469812364E+04  0.28469812364E+04  0.50400001928E-02 0.  1.
       -1   -1    0    0    0  501  0.00000000000E+00  0.00000000000E+00 -0.12004415013E+04  0.12004415013E+04  0.50400001928E-02 0. -1.
    10030    2    1    2    0    0  0.00000000000E+00  0.00000000000E+00  0.16465397351E+04  0.40474227377E+04  0.36973690265E+04 0.  0.
        1    1    3    3  502    0 -0.71963450967E+03  0.12738518317E+04  0.20603327571E+04  0.25269632737E+04  0.50400001928E-02 0.  1.
       -1    1    3    3    0  502  0.71963450967E+03 -0.12738518317E+04 -0.41379302199E+03  0.15204594640E+04  0.50400001928E-02 0. -1.
</event>
<event>
 5   0  0.1725865E-08  0.3699921E+04  0.7818609E-02  0.8067979E-01
        2   -1    0    0  501    0  0.00000000000E+00  0.00000000000E+00  0.17698563253E+04  0.17698563253E+04  0.25500000920E-02 0. -1.
       -2   -1    0    0    0  501  0.00000000000E+00  0.00000000000E+00 -0.19336899812E+04  0.19336899812E+04  0.25500000920E-02 0.  1.
    10030    2    1    2    0    0  0.00000000000E+00  0.00000000000E+00 -0.16383365591E+03  0.37035463064E+04  0.36999207798E+04 0.  0.
        1    1    3    3  502    0 -0.47103630571E+03  0.61965733926E+03 -0.17618053578E+04  0.19260863267E+04  0.50400001928E-02 0.  1.
       -1    1    3    3    0  502  0.47103630571E+03 -0.61965733926E+03  0.15979717019E+04  0.17774599797E+04  0.50400001928E-02 0. -1.
</event>
<event>
 5   0  0.5714125E-09  0.3697497E+04  0.7818609E-02  0.8068517E-01
        1   -1    0    0  501    0  0.00000000000E+00  0.00000000000E+00  0.18097475185E+04  0.18097475185E+04  0.50400001928E-02 0.  1.
       -1   -1    0    0    0  501  0.00000000000E+00  0.00000000000E+00 -0.18885902754E+04  0.18885902754E+04  0.50400001928E-02 0. -1.
    10030    2    1    2    0    0  0.00000000000E+00  0.00000000000E+00 -0.78842756972E+02  0.36983377939E+04  0.36974972965E+04 0.  0.
        2    1    3    3  502    0 -0.11582261328E+04 -0.36767428665E+03  0.13541646566E+04  0.18194598300E+04  0.25500000920E-02 0.  1.
       -2    1    3    3    0  502  0.11582261328E+04  0.36767428665E+03 -0.14330074136E+04  0.18788779639E+04  0.25500000920E-02 0. -1.
</event>
<event>
 5   0  0.5714125E-09  0.3698888E+04  0.7818609E-02  0.8068208E-01
        1   -1    0    0  501    0  0.00000000000E+00  0.00000000000E+00  0.20478434784E+04  0.20478434784E+04  0.50400001928E-02 0.  1.
       -1   -1    0    0    0  501  0.00000000000E+00  0.00000000000E+00 -0.16702656732E+04  0.16702656732E+04  0.50400001928E-02 0. -1.
    10030    2    1    2    0    0  0.00000000000E+00  0.00000000000E+00  0.37757780518E+03  0.37181091516E+04  0.36988877604E+04 0.  0.
        3    1    3    3  502    0 -0.14513055477E+04  0.32444559219E+03  0.12939977687E+04  0.19712896719E+04  0.10100000352E+00 0.  1.
       -3    1    3    3    0  502  0.14513055477E+04 -0.32444559219E+03 -0.91641996347E+03  0.17468194797E+04  0.10100000352E+00 0. -1.
</event>
<event>
 5   0  0.5714125E-09  0.3701714E+04  0.7818609E-02  0.8067582E-01
        1   -1    0    0  501    0  0.00000000000E+00  0.00000000000E+00  0.24175116851E+04  0.24175116851E+04  0.50400001928E-02 0.  1.
       -1   -1    0    0    0  501  0.00000000000E+00  0.00000000000E+00 -0.14170236321E+04  0.14170236321E+04  0.50400001928E-02 0. -1.
    10030    2    1    2    0    0  0.00000000000E+00  0.00000000000E+00  0.10004880530E+04  0.38345353172E+04  0.37017137592E+04 0.  0.
        4    1    3    3  502    0 -0.17895417714E+04  0.11596797262E+03  0.25813588994E+02  0.17934816075E+04  0.12699999809E+01 0.  1.
       -4    1    3    3    0  502  0.17895417714E+04 -0.11596797262E+03  0.97467446404E+03  0.20410537097E+04  0.12699999809E+01 0. -1.
</event>
<event>
 5   0  0.1725865E-08  0.3700112E+04  0.7818609E-02  0.8067937E-01
       -2   -1    0    0    0  501  0.00000000000E+00  0.00000000000E+00  0.13628595173E+04  0.13628595173E+04  0.25500000920E-02 0. -1.
        2   -1    0    0  501    0  0.00000000000E+00  0.00000000000E+00 -0.25114155684E+04  0.25114155684E+04  0.25500000920E-02 0.  1.
    10030    2    1    2    0    0  0.00000000000E+00  0.00000000000E+00 -0.11485560511E+04  0.38742750857E+04  0.37001116790E+04 0.  0.
        1    1    3    3  502    0 -0.39566691544E+03  0.13120593128E+03 -0.24616018422E+04  0.24966479395E+04  0.50400001928E-02 0.  1.
       -1    1    3    3    0  502  0.39566691544E+03 -0.13120593128E+03  0.13130457911E+04  0.13776271462E+04  0.50400001928E-02 0. -1.
</event>
<event>
 5   0  0.5714125E-09  0.3699788E+04  0.7818609E-02  0.8068009E-01
       -1   -1    0    0    0  501  0.00000000000E+00  0.00000000000E+00  0.29307311822E+04  0.29307311822E+04  0.50400001928E-02 0. -1.
        1   -1    0    0  501    0  0.00000000000E+00  0.00000000000E+00 -0.11676633571E+04  0.11676633571E+04  0.50400001928E-02 0.  1.
    10030    2    1    2    0    0  0.00000000000E+00  0.00000000000E+00  0.17630678250E+04  0.40983945393E+04  0.36997877837E+04 0.  0.
        2    1    3    3  502    0 -0.11210105735E+02  0.18327859322E+04  0.11593033655E+04  0.21686895198E+04  0.25500000920E-02 0. -1.
       -2    1    3    3    0  502  0.11210105735E+02 -0.18327859322E+04  0.60376445948E+03  0.19297050195E+04  0.25500000920E-02 0.  1.
</event>
<event>
 5   0  0.5714125E-09  0.3701564E+04  0.7818609E-02  0.8067615E-01
        1   -1    0    0  501    0  0.00000000000E+00  0.00000000000E+00  0.22104726469E+04  0.22104726469E+04  0.50400001928E-02 0. -1.
       -1   -1    0    0    0  501  0.00000000000E+00  0.00000000000E+00 -0.15496203890E+04  0.15496203891E+04  0.50400001928E-02 0.  1.
    10030    2    1    2    0    0  0.00000000000E+00  0.00000000000E+00  0.66085225783E+03  0.37600930359E+04  0.37015637145E+04 0.  0.
        5    1    3    3  502    0  0.29083822742E+03 -0.16507394732E+04 -0.46673959467E+03  0.17399412697E+04  0.46999998093E+01 0.  1.
       -5    1    3    3    0  502 -0.29083822742E+03  0.16507394732E+04  0.11275918525E+04  0.20201517662E+04  0.46999998093E+01 0. -1.
</event>
<event>
 5   0  0.5714125E-09  0.3699819E+04  0.7818609E-02  0.8068002E-01
        1   -1    0    0  501    0  0.00000000000E+00  0.00000000000E+00  0.20514053977E+04  0.20514053977E+04  0.50400001928E-02 0.  1.
       -1   -1    0    0    0  501  0.00000000000E+00  0.00000000000E+00 -0.16682051989E+04  0.16682051989E+04  0.50400001928E-02 0. -1.
    10030    2    1    2    0    0  0.00000000000E+00  0.00000000000E+00  0.38320019884E+03  0.37196105966E+04  0.36998189953E+04 0.  0.
        5    1    3    3  502    0 -0.87450154332E+03 -0.15219608340E+04 -0.39549751720E+03  0.17993215682E+04  0.46999998093E+01 0.  1.
       -5    1    3    3    0  502  0.87450154332E+03  0.15219608340E+04  0.77869771605E+03  0.19202890284E+04  0.46999998093E+01 0. -1.
</event>
<event>
 5   0  0.1725865E-08  0.3705342E+04  0.7818609E-02  0.8066779E-01
        2   -1    0    0  501    0  0.00000000000E+00  0.00000000000E+00  0.24874843046E+04  0.24874843046E+04  0.25500000920E-02 0. -1.
       -2   -1    0    0    0  501  0.00000000000E+00  0.00000000000E+00 -0.13798642312E+04  0.13798642312E+04  0.25500000920E-02 0.  1.
    10030    2    1    2    0    0  0.00000000000E+00  0.00000000000E+00  0.11076200734E+04  0.38673485358E+04  0.37053424228E+04 0.  0.
        1    1    3    3  502    0 -0.60389656563E+03 -0.60223690654E+03 -0.11627912098E+04  0.14420345874E+04  0.50400001928E-02 0.  1.
       -1    1    3    3    0  502  0.60389656563E+03  0.60223690654E+03  0.22704112832E+04  0.24253139484E+04  0.50400001928E-02 0. -1.
</event>
<event>
 5   0  0.5714125E-09  0.3699891E+04  0.7818609E-02  0.8067986E-01
        1   -1    0    0  501    0  0.00000000000E+00  0.00000000000E+00  0.26579999479E+04  0.26579999479E+04  0.50400001928E-02 0. -1.
       -1   -1    0    0    0  501  0.00000000000E+00  0.00000000000E+00 -0.12875466077E+04  0.12875466077E+04  0.50400001928E-02 0.  1.
    10030    2    1    2    0    0  0.00000000000E+00  0.00000000000E+00  0.13704533402E+04  0.39455465556E+04  0.36998912504E+04 0.  0.
        5    1    3    3  502    0 -0.89232707372E+03  0.15142178547E+04  0.13007625579E+04  0.21865746363E+04  0.46999998093E+01 0. -1.
       -5    1    3    3    0  502  0.89232707372E+03 -0.15142178547E+04  0.69690782291E+02  0.17589719193E+04  0.46999998093E+01 0.  1.
</event>
<event>
 5   0  0.1856107E-08  0.3699760E+04  0.7818609E-02  0.8068015E-01
       -2   -1    0    0    0  501  0.00000000000E+00  0.00000000000E+00  0.16268912470E+04  0.16268912470E+04  0.25500000920E-02 0.  1.
        2   -1    0    0  501    0  0.00000000000E+00  0.00000000000E+00 -0.21034329820E+04  0.21034329820E+04  0.25500000920E-02 0. -1.
    10030    2    1    2    0    0  0.00000000000E+00  0.00000000000E+00 -0.47654173501E+03  0.37303242290E+04  0.36997603745E+04 0.  0.
        2    1    3    3  502    0  0.67234992494E+03 -0.23390597229E+03 -0.19597980593E+04  0.20850838973E+04  0.25500000920E-02 0. -1.
       -2    1    3    3    0  502 -0.67234992494E+03  0.23390597229E+03  0.14832563243E+04  0.16452403317E+04  0.25500000920E-02 0.  1.
</event>
<event>
 5   0  0.5714125E-09  0.3699669E+04  0.7818609E-02  0.8068035E-01
       -1   -1    0    0    0  501  0.00000000000E+00  0.00000000000E+00  0.16690257087E+04  0.16690257087E+04  0.50400001928E-02 0. -1.
        1   -1    0    0  501    0  0.00000000000E+00  0.00000000000E+00 -0.20502304133E+04  0.20502304133E+04  0.50400001928E-02 0.  1.
    10030    2    1    2    0    0  0.00000000000E+00  0.00000000000E+00 -0.38120470461E+03  0.37192561221E+04  0.36996687791E+04 0.  0.
        2    1    3    3  502    0 -0.17411243320E+04 -0.32149203933E+03  0.34797296436E+03  0.18044268494E+04  0.25500000920E-02 0. -1.
       -2    1    3    3    0  502  0.17411243320E+04  0.32149203933E+03 -0.72917766897E+03  0.19148292727E+04  0.25500000920E-02 0.  1.
</event>
<event>
 5   0  0.1740290E-08  0.3700356E+04  0.7818609E-02  0.8067883E-01
        2   -1    0    0  501    0  0.00000000000E+00  0.00000000000E+00  0.29251497175E+04  0.29251497175E+04  0.25500000920E-02 0.  1.
       -2   -1    0    0    0  501  0.00000000000E+00  0.00000000000E+00 -0.11702510448E+04  0.11702510448E+04  0.25500000920E-02 0. -1.
    10030    2    1    2    0    0  0.00000000000E+00  0.00000000000E+00  0.17548986727E+04  0.40954007623E+04  0.37003564764E+04 0.  0.
        5    1    3    3  502    0  0.14161078912E+03  0.18347536700E+04  0.66524365703E+03  0.19567692399E+04  0.46999998093E+01 0.  1.
       -5    1    3    3    0  502 -0.14161078912E+03 -0.18347536700E+04  0.10896550157E+04  0.21386315223E+04  0.46999998093E+01 0. -1.
</event>
<event>
 5   0  0.1825308E-08  0.3699249E+04  0.7818609E-02  0.8068128E-01
        2   -1    0    0  501    0  0.00000000000E+00  0.00000000000E+00  0.32005695178E+04  0.32005695178E+04  0.25500000920E-02 0. -1.
       -2   -1    0    0    0  501  0.00000000000E+00  0.00000000000E+00 -0.10689070863E+04  0.10689070863E+04  0.25500000920E-02 0.  1.
    10030    2    1    2    0    0  0.00000000000E+00  0.00000000000E+00  0.21316624315E+04  0.42694766041E+04  0.36992493496E+04 0.  0.
        4    1    3    3  502    0  0.16856736947E+04  0.71771699962E+03  0.13589397927E+04  0.22810814255E+04  0.12699999809E+01 0.  1.
       -4    1    3    3    0  502 -0.16856736947E+04 -0.71771699962E+03  0.77272263878E+03  0.19883951786E+04  0.12699999809E+01 0. -1.
</event>
<event>
 5   0  0.1825308E-08  0.3700491E+04  0.7818609E-02  0.8067853E-01
        2   -1    0    0  501    0  0.00000000000E+00  0.00000000000E+00  0.23925948013E+04  0.23925948013E+04  0.25500000920E-02 0.  1.
       -2   -1    0    0    0  501  0.00000000000E+00  0.00000000000E+00 -0.14308353707E+04  0.14308353707E+04  0.25500000920E-02 0. -1.
    10030    2    1    2    0    0  0.00000000000E+00  0.00000000000E+00  0.96175943058E+03  0.38234301720E+04  0.37004914644E+04 0.  0.
        4    1    3    3  502    0  0.21983645831E+03 -0.28523337165E+03  0.23560348106E+04  0.23833983692E+04  0.12699999809E+01 0.  1.
       -4    1    3    3    0  502 -0.21983645831E+03  0.28523337165E+03 -0.13942753801E+04  0.14400318028E+04  0.12699999809E+01 0. -1.
</event>
<event>
 5   0  0.5714125E-09  0.3700120E+04  0.7818609E-02  0.8067935E-01
        1   -1    0    0  501    0  0.00000000000E+00  0.00000000000E+00  0.19564008951E+04  0.19564008951E+04  0.50400001928E-02 0. -1.
       -1   -1    0    0    0  501  0.00000000000E+00  0.00000000000E+00 -0.17494992813E+04  0.17494992813E+04  0.50400001928E-02 0.  1.
    10030    2    1    2    0    0  0.00000000000E+00  0.00000000000E+00  0.20690161382E+03  0.37059001764E+04  0.37001199764E+04 0.  0.
        5    1    3    3  502    0  0.13019223020E+04  0.74431327168E+03  0.11885157000E+04  0.19135296146E+04  0.46999998093E+01 0. -1.
       -5    1    3    3    0  502 -0.13019223020E+04 -0.74431327168E+03 -0.98161408614E+03  0.17923705618E+04  0.46999998093E+01 0.  1.
</event>
<event>
 5   0  0.5714125E-09  0.3699899E+04  0.7818609E-02  0.8067984E-01
        3   -1    0    0  501    0  0.00000000000E+00  0.00000000000E+00  0.22608261101E+04  0.22608261123E+04  0.10100000352E+00 0.  1.
       -3   -1    0    0    0  501  0.00000000000E+00  0.00000000000E+00 -0.15137446205E+04  0.15137446238E+04  0.10100000352E+00 0. -1.
    10030    2    1    2    0    0  0.00000000000E+00  0.00000000000E+00  0.74708148958E+03  0.37745707362E+04  0.36998991189E+04 0.  0.
        1    1    3    3  502    0 -0.18154694254E+04  0.12970998211E+03  0.35862855453E+02  0.18204505097E+04  0.50400001928E-02 0. -1.
       -1    1    3    3    0  502  0.18154694254E+04 -0.12970998211E+03  0.71121863413E+03  0.19541202265E+04  0.50400001928E-02 0.  1.
</event>
<event>
 5   0  0.5714125E-09  0.3699415E+04  0.7818609E-02  0.8068091E-01
        1   -1    0    0  501    0  0.00000000000E+00  0.00000000000E+00  0.13645659504E+04  0.13645659504E+04  0.50400001928E-02 0.  1.
       -1   -1    0    0    0  501  0.00000000000E+00  0.00000000000E+00 -0.25073304788E+04  0.25073304788E+04  0.50400001928E-02 0. -1.
    10030    2    1    2    0    0  0.00000000000E+00  0.00000000000E+00 -0.11427645283E+04  0.38718964292E+04  0.36994149796E+04 0.  0.
        5    1    3    3  502    0 -0.98550523625E+02 -0.14986207644E+04  0.55869022516E+03  0.16024148211E+04  0.46999998093E+01 0.  1.
       -5    1    3    3    0  502  0.98550523625E+02  0.14986207644E+04 -0.17014547535E+04  0.22694816081E+04  0.46999998093E+01 0. -1.
</event>
<event>
 5   0  0.1725865E-08  0.3700332E+04  0.7818609E-02  0.8067888E-01
       -2   -1    0    0    0  501  0.00000000000E+00  0.00000000000E+00  0.15921645919E+04  0.15921645919E+04  0.25500000920E-02 0. -1.
        2   -1    0    0  501    0  0.00000000000E+00  0.00000000000E+00 -0.21499750399E+04  0.21499750399E+04  0.25500000920E-02 0.  1.
    10030    2    1    2    0    0  0.00000000000E+00  0.00000000000E+00 -0.55781044801E+03  0.37421396318E+04  0.37003319483E+04 0.  0.
        1    1    3    3  502    0 -0.15245264171E+03  0.40611590557E+03 -0.20978208982E+04  0.21422008444E+04  0.50400001928E-02 0.  1.
       -1    1    3    3    0  502  0.15245264171E+03 -0.40611590557E+03  0.15400104502E+04  0.15999387874E+04  0.50400001928E-02 0. -1.
</event>
<event>
 5   0  0.1740290E-08  0.3700039E+04  0.7818609E-02  0.8067953E-01
       -2   -1    0    0    0  501  0.00000000000E+00  0.00000000000E+00  0.23776462409E+04  0.23776462409E+04  0.25500000920E-02 0. -1.
        2   -1    0    0  501    0  0.00000000000E+00  0.00000000000E+00 -0.14394793768E+04  0.14394793768E+04  0.25500000920E-02 0.  1.
    10030    2    1    2    0    0  0.00000000000E+00  0.00000000000E+00  0.93816686415E+03  0.38171256177E+04  0.37000393128E+04 0.  0.
        5    1    3    3  502    0  0.11208841276E+04 -0.18368153187E+02  0.19873306683E+04  0.22817151206E+04  0.46999998093E+01 0. -1.
       -5    1    3    3    0  502 -0.11208841276E+04  0.18368153187E+02 -0.10491638041E+04  0.15354104970E+04  0.46999998093E+01 0.  1.
</event>
<event>
 5   0  0.5714125E-09  0.3704405E+04  0.7818609E-02  0.8066986E-01
       -1   -1    0    0    0  501  0.00000000000E+00  0.00000000000E+00  0.15127521112E+04  0.15127521112E+04  0.50400001928E-02 0. -1.
        1   -1    0    0  501    0  0.00000000000E+00  0.00000000000E+00 -0.22678230807E+04  0.22678230807E+04  0.50400001928E-02 0.  1.
    10030    2    1    2    0    0  0.00000000000E+00  0.00000000000E+00 -0.75507096948E+03  0.37805751919E+04  0.37044050281E+04 0.  0.
        3    1    3    3  502    0  0.90590512421E+03 -0.16020005616E+04 -0.16447436695E+03  0.18477342128E+04  0.10100000352E+00 0.  1.
       -3    1    3    3    0  502 -0.90590512421E+03  0.16020005616E+04 -0.59059660253E+03  0.19328409791E+04  0.10100000352E+00 0. -1.
</event>
<event>
 5   0  0.1825308E-08  0.3700079E+04  0.7818609E-02  0.8067944E-01
       -2   -1    0    0    0  501  0.00000000000E+00  0.00000000000E+00  0.28846339724E+04  0.28846339724E+04  0.25500000920E-02 0.  1.
        2   -1    0    0  501    0  0.00000000000E+00  0.00000000000E+00 -0.11865096153E+04  0.11865096153E+04  0.25500000920E-02 0. -1.
    10030    2    1    2    0    0  0.00000000000E+00  0.00000000000E+00  0.16981243571E+04  0.40711435877E+04  0.37000788882E+04 0.  0.
        4    1    3    3  502    0 -0.13404256630E+04  0.66120525519E+03  0.20486818378E+04  0.25359479950E+04  0.12699999809E+01 0.  1.
       -4    1    3    3    0  502  0.13404256630E+04 -0.66120525519E+03 -0.35055748074E+03  0.15351955927E+04  0.12699999809E+01 0. -1.
</event>
<event>
 5   0  0.1725865E-08  0.3700800E+04  0.7818609E-02  0.8067785E-01
       -2   -1    0    0    0  501  0.00000000000E+00  0.00000000000E+00  0.29583965443E+04  0.29583965443E+04  0.25500000920E-02 0.  1.
        2   -1    0    0  501    0  0.00000000000E+00  0.00000000000E+00 -0.11573771746E+04  0.11573771746E+04  0.25500000920E-02 0. -1.
    10030    2    1    2    0    0  0.00000000000E+00  0.00000000000E+00  0.18010193696E+04  0.41157737189E+04  0.37008002561E+04 0.  0.
        1    1    3    3  502    0 -0.11722504022E+04 -0.10005570219E+04 -0.23837695858E+03  0.15595220210E+04  0.50400001928E-02 0. -1.
       -1    1    3    3    0  502  0.11722504022E+04  0.10005570219E+04  0.20393963282E+04  0.25562516979E+04  0.50400001928E-02 0.  1.
</event>
<event>
 5   0  0.5714125E-09  0.3696960E+04  0.7818609E-02  0.8068636E-01
        1   -1    0    0  501    0  0.00000000000E+00  0.00000000000E+00  0.25856112156E+04  0.25856112156E+04  0.50400001928E-02 0.  1.
       -1   -1    0    0    0  501  0.00000000000E+00  0.00000000000E+00 -0.13214975552E+04  0.13214975552E+04  0.50400001928E-02 0. -1.
    10030    2    1    2    0    0  0.00000000000E+00  0.00000000000E+00  0.12641136604E+04  0.39071087708E+04  0.36969603190E+04 0.  0.
        3    1    3    3  502    0  0.55304527921E+03 -0.16656326099E+04  0.12452882722E+04  0.21519604929E+04  0.10100000352E+00 0.  1.
       -3    1    3    3    0  502 -0.55304527921E+03  0.16656326099E+04  0.18825388181E+02  0.17551482779E+04  0.10100000352E+00 0. -1.
</event>
<event>
 5   0  0.1757996E-08  0.3701602E+04  0.7818609E-02  0.8067607E-01
        2   -1    0    0  501    0  0.00000000000E+00  0.00000000000E+00  0.16772520608E+04  0.16772520608E+04  0.25500000920E-02 0.  1.
       -2   -1    0    0    0  501  0.00000000000E+00  0.00000000000E+00 -0.20423070184E+04  0.20423070184E+04  0.25500000920E-02 0. -1.
    10030    2    1    2    0    0  0.00000000000E+00  0.00000000000E+00 -0.36505495761E+03  0.37195590792E+04  0.37016016293E+04 0.  0.
        3    1    3    3  502    0 -0.65812194219E+03  0.16736270495E+04  0.25698630157E+03  0.18166435977E+04  0.10100000352E+00 0.  1.
       -3    1    3    3    0  502  0.65812194219E+03 -0.16736270495E+04 -0.62204125918E+03  0.19029154816E+04  0.10100000352E+00 0. -1.
</event>
<event>
 5   0  0.5714125E-09  0.3700721E+04  0.7818609E-02  0.8067802E-01
       -1   -1    0    0    0  501  0.00000000000E+00  0.00000000000E+00  0.22347118021E+04  0.22347118021E+04  0.50400001928E-02 0.  1.
        1   -1    0    0  501    0  0.00000000000E+00  0.00000000000E+00 -0.15321139470E+04  0.15321139470E+04  0.50400001928E-02 0. -1.
    10030    2    1    2    0    0  0.00000000000E+00  0.00000000000E+00  0.70259785504E+03  0.37668257491E+04  0.37007205350E+04 0.  0.
        3    1    3    3  502    0 -0.32481445692E+03 -0.59000667009E+03  0.21055171116E+04  0.22106140820E+04  0.10100000352E+00 0.  1.
       -3    1    3    3    0  502  0.32481445692E+03  0.59000667009E+03 -0.14029192566E+04  0.15562116671E+04  0.10100000352E+00 0. -1.
</event>
<event>
 5   0  0.5714125E-09  0.3695923E+04  0.7818609E-02  0.8068866E-01
       -1   -1    0    0    0  501  0.00000000000E+00  0.00000000000E+00  0.17205414294E+04  0.17205414294E+04  0.50400001928E-02 0.  1.
        1   -1    0    0  501    0  0.00000000000E+00  0.00000000000E+00 -0.19848177987E+04  0.19848177987E+04  0.50400001928E-02 0. -1.
    10030    2    1    2    0    0  0.00000000000E+00  0.00000000000E+00 -0.26427636925E+03  0.37053592281E+04  0.36959227548E+04 0.  0.
        5    1    3    3  502    0  0.11586530017E+04  0.13940481205E+04 -0.49234959871E+03  0.18783708787E+04  0.46999998093E+01 0. -1.
       -5    1    3    3    0  502 -0.11586530017E+04 -0.13940481205E+04  0.22807322946E+03  0.18269883494E+04  0.46999998093E+01 0.  1.
</event>
<event>
 5   0  0.5714125E-09  0.3698698E+04  0.7818609E-02  0.8068250E-01
        1   -1    0    0  501    0  0.00000000000E+00  0.00000000000E+00  0.13478174430E+04  0.13478174431E+04  0.50400001928E-02 0. -1.
       -1   -1    0    0    0  501  0.00000000000E+00  0.00000000000E+00 -0.25375033717E+04  0.25375033717E+04  0.50400001928E-02 0.  1.
    10030    2    1    2    0    0  0.00000000000E+00  0.00000000000E+00 -0.11896859286E+04  0.38853208147E+04  0.36986977742E+04 0.  0.
        1    1    3    3  502    0  0.20272039180E+02 -0.14786327736E+04 -0.17614293109E+04  0.22998693554E+04  0.50400001928E-02 0.  1.
       -1    1    3    3    0  502 -0.20272039180E+02  0.14786327736E+04  0.57174338228E+03  0.15854514593E+04  0.50400001928E-02 0. -1.
</event>
<event>
 5   0  0.5714125E-09  0.3699223E+04  0.7818609E-02  0.8068134E-01
       -1   -1    0    0    0  501  0.00000000000E+00  0.00000000000E+00  0.24238563792E+04  0.24238563792E+04  0.50400001928E-02 0. -1.
        1   -1    0    0  501    0  0.00000000000E+00  0.00000000000E+00 -0.14114127717E+04  0.14114127717E+04  0.50400001928E-02 0.  1.
    10030    2    1    2    0    0  0.00000000000E+00  0.00000000000E+00  0.10124436074E+04  0.38352691509E+04  0.36992225402E+04 0.  0.
        1    1    3    3  502    0 -0.47898232034E+03  0.86896470105E+03 -0.11121264932E+04  0.14904190859E+04  0.50400001928E-02 0.  1.
       -1    1    3    3    0  502  0.47898232034E+03 -0.86896470105E+03  0.21245701006E+04  0.23448500650E+04  0.50400001928E-02 0. -1.
</event>
<event>
 5   0  0.1757996E-08  0.3697984E+04  0.7818609E-02  0.8068409E-01
        2   -1    0    0  501    0  0.00000000000E+00  0.00000000000E+00  0.33885770243E+04  0.33885770243E+04  0.25500000920E-02 0.  1.
       -2   -1    0    0    0  501  0.00000000000E+00  0.00000000000E+00 -0.10089107010E+04  0.10089107010E+04  0.25500000920E-02 0. -1.
    10030    2    1    2    0    0  0.00000000000E+00  0.00000000000E+00  0.23796663232E+04  0.43974877253E+04  0.36979841108E+04 0.  0.
        3    1    3    3  502    0  0.70886206228E+03 -0.75909044925E+03 -0.62925531433E+03  0.12143582644E+04  0.10100000352E+00 0. -1.
       -3    1    3    3    0  502 -0.70886206228E+03  0.75909044925E+03  0.30089216376E+04  0.31831294609E+04  0.10100000352E+00 0.  1.
</event>
<event>
 5   0  0.5714125E-09  0.3696519E+04  0.7818609E-02  0.8068734E-01
        1   -1    0    0  501    0  0.00000000000E+00  0.00000000000E+00  0.22669134371E+04  0.22669134371E+04  0.50400001928E-02 0.  1.
       -1   -1    0    0    0  501  0.00000000000E+00  0.00000000000E+00 -0.15069225478E+04  0.15069225478E+04  0.50400001928E-02 0. -1.
    10030    2    1    2    0    0  0.00000000000E+00  0.00000000000E+00  0.75999088933E+03  0.37738359849E+04  0.36965188879E+04 0.  0.
        1    1    3    3  502    0 -0.45449183588E+03  0.17881092856E+04  0.26739192430E+03  0.18642414241E+04  0.50400001928E-02 0.  1.
       -1    1    3    3    0  502  0.45449183588E+03 -0.17881092856E+04  0.49259896503E+03  0.19095945608E+04  0.50400001928E-02 0. -1.
</event>
<event>
 5   0  0.5714125E-09  0.3700374E+04  0.7818609E-02  0.8067879E-01
       -1   -1    0    0    0  501  0.00000000000E+00  0.00000000000E+00  0.18208820807E+04  0.18208820807E+04  0.50400001928E-02 0.  1.
        1   -1    0    0  501    0  0.00000000000E+00  0.00000000000E+00 -0.18799639758E+04  0.18799639758E+04  0.50400001928E-02 0. -1.
    10030    2    1    2    0    0  0.00000000000E+00  0.00000000000E+00 -0.59081895166E+02  0.37008460565E+04  0.37003744221E+04 0.  0.
        2    1    3    3  502    0 -0.20549464669E+03  0.17677370307E+04 -0.53563949120E+03  0.18585026027E+04  0.25500000920E-02 0. -1.
       -2    1    3    3    0  502  0.20549464669E+03 -0.17677370307E+04  0.47655759604E+03  0.18423434538E+04  0.25500000920E-02 0.  1.
</event>
<event>
 5   0  0.5714125E-09  0.3694387E+04  0.7818609E-02  0.8069207E-01
       -1   -1    0    0    0  501  0.00000000000E+00  0.00000000000E+00  0.15459352076E+04  0.15459352077E+04  0.50400001928E-02 0.  1.
        1   -1    0    0  501    0  0.00000000000E+00  0.00000000000E+00 -0.22071584597E+04  0.22071584597E+04  0.50400001928E-02 0. -1.
    10030    2    1    2    0    0  0.00000000000E+00  0.00000000000E+00 -0.66122325209E+03  0.37530936674E+04  0.36943870787E+04 0.  0.
        5    1    3    3  502    0 -0.99591991787E+03 -0.11586584468E+04  0.72403564195E+03  0.16907381760E+04  0.46999998093E+01 0.  1.
       -5    1    3    3    0  502  0.99591991787E+03  0.11586584468E+04 -0.13852588940E+04  0.20623554913E+04  0.46999998093E+01 0. -1.
</event>
<event>
 5   0  0.1725865E-08  0.3697922E+04  0.7818609E-02  0.8068422E-01
       -2   -1    0    0    0  501  0.00000000000E+00  0.00000000000E+00  0.11928362307E+04  0.11928362307E+04  0.25500000920E-02 0.  1.
        2   -1    0    0  501    0  0.00000000000E+00  0.00000000000E+00 -0.28659904748E+04  0.28659904748E+04  0.25500000920E-02 0. -1.
    10030    2    1    2    0    0  0.00000000000E+00  0.00000000000E+00 -0.16731542441E+04  0.40588267055E+04  0.36979222681E+04 0.  0.
        1    1    3    3  502    0 -0.13742906167E+04 -0.12244762288E+04 -0.64444899663E+03  0.19502131277E+04  0.50400001928E-02 0.  1.
       -1    1    3    3    0  502  0.13742906167E+04  0.12244762288E+04 -0.10287052475E+04  0.21086135778E+04  0.50400001928E-02 0. -1.
</event>
<event>
 5   0  0.1757996E-08  0.3700067E+04  0.7818609E-02  0.8067947E-01
       -2   -1    0    0    0  501  0.00000000000E+00  0.00000000000E+00  0.17881734718E+04  0.17881734718E+04  0.25500000920E-02 0.  1.
        2   -1    0    0  501    0  0.00000000000E+00  0.00000000000E+00 -0.19140330296E+04  0.19140330296E+04  0.25500000920E-02 0. -1.
    10030    2    1    2    0    0  0.00000000000E+00  0.00000000000E+00 -0.12585955779E+03  0.37022065014E+04  0.37000665333E+04 0.  0.
        3    1    3    3  502    0  0.37134792864E+03  0.24018445275E+03 -0.18603638037E+04  0.19122085001E+04  0.10100000352E+00 0. -1.
       -3    1    3    3    0  502 -0.37134792864E+03 -0.24018445275E+03  0.17345042459E+04  0.17899980013E+04  0.10100000352E+00 0.  1.
</event>
<event>
 5   0  0.5714125E-09  0.3704324E+04  0.7818609E-02  0.8067004E-01
        1   -1    0    0  501    0  0.00000000000E+00  0.00000000000E+00  0.12746276392E+04  0.12746276392E+04  0.50400001928E-02 0. -1.
       -1   -1    0    0    0  501  0.00000000000E+00  0.00000000000E+00 -0.26913774305E+04  0.26913774305E+04  0.50400001928E-02 0.  1.
    10030    2    1    2    0    0  0.00000000000E+00  0.00000000000E+00 -0.14167497913E+04  0.39660050696E+04  0.37043239925E+04 0.  0.
        4    1    3    3  502    0 -0.56822822180E+02 -0.17417759980E+04 -0.13799756007E+04  0.22229140180E+04  0.12699999809E+01 0.  1.
       -4    1    3    3    0  502  0.56822822180E+02  0.17417759980E+04 -0.36774190601E+02  0.17430910516E+04  0.12699999809E+01 0. -1.
</event>
<event>
 5   0  0.5714125E-09  0.3702637E+04  0.7818609E-02  0.8067378E-01
        1   -1    0    0  501    0  0.00000000000E+00  0.00000000000E+00  0.15922079454E+04  0.15922079454E+04  0.50400001928E-02 0. -1.
       -1   -1    0    0    0  501  0.00000000000E+00  0.00000000000E+00 -0.21525959001E+04  0.21525959001E+04  0.50400001928E-02 0.  1.
    10030    2    1    2    0    0  0.00000000000E+00  0.00000000000E+00 -0.56038795476E+03  0.37448038455E+04  0.37026370577E+04 0.  0.
        2    1    3    3  502    0  0.11799941193E+04 -0.41562121709E+03  0.10999909893E+04  0.16658653289E+04  0.25500000920E-02 0. -1.
       -2    1    3    3    0  502 -0.11799941193E+04  0.41562121709E+03 -0.16603789441E+04  0.20789385165E+04  0.25500000920E-02 0.  1.
</event>
<event>
 5   0  0.5714125E-09  0.3699477E+04  0.7818609E-02  0.8068078E-01
        1   -1    0    0  501    0  0.00000000000E+00  0.00000000000E+00  0.26026854990E+04  0.26026854990E+04  0.50400001928E-02 0.  1.
       -1   -1    0    0    0  501  0.00000000000E+00  0.00000000000E+00 -0.13146161736E+04  0.13146161736E+04  0.50400001928E-02 0. -1.
    10030    2    1    2    0    0  0.00000000000E+00  0.00000000000E+00  0.12880693254E+04  0.39173016726E+04  0.36994769640E+04 0.  0.
        4    1    3    3  502    0 -0.11317332219E+03  0.13981362751E+04 -0.63275563457E+03  0.15388224558E+04  0.12699999809E+01 0. -1.
       -4    1    3    3    0  502  0.11317332219E+03 -0.13981362751E+04  0.19208249600E+04  0.23784792167E+04  0.12699999809E+01 0.  1.
</event>
<event>
 5   0  0.5714125E-09  0.3698973E+04  0.7818609E-02  0.8068189E-01
       -1   -1    0    0    0  501  0.00000000000E+00  0.00000000000E+00  0.20741218623E+04  0.20741218623E+04  0.50400001928E-02 0. -1.
        1   -1    0    0  501    0  0.00000000000E+00  0.00000000000E+00 -0.16491803321E+04  0.16491803321E+04  0.50400001928E-02 0.  1.
    10030    2    1    2    0    0  0.00000000000E+00  0.00000000000E+00  0.42494153017E+03  0.37233021944E+04  0.36989733612E+04 0.  0.
        1    1    3    3  502    0  0.23451914911E+03 -0.11093649088E+04  0.16832144607E+04  0.20295074902E+04  0.50400001928E-02 0. -1.
       -1    1    3    3    0  502 -0.23451914911E+03  0.11093649088E+04 -0.12582729305E+04  0.16937947042E+04  0.50400001928E-02 0.  1.
</event>
<event>
 5   0  0.5714125E-09  0.3699226E+04  0.7818609E-02  0.8068133E-01
       -1   -1    0    0    0  501  0.00000000000E+00  0.00000000000E+00  0.21003334477E+04  0.21003334477E+04  0.50400001928E-02 0.  1.
        1   -1    0    0  501    0  0.00000000000E+00  0.00000000000E+00 -0.16288214646E+04  0.16288214646E+04  0.50400001928E-02 0. -1.
    10030    2    1    2    0    0  0.00000000000E+00  0.00000000000E+00  0.47151198309E+03  0.37291549122E+04  0.36992259744E+04 0.  0.
        1    1    3    3  502    0  0.58209022459E+03  0.17086084840E+04  0.64262542847E+03  0.19160217698E+04  0.50400001928E-02 0.  1.
       -1    1    3    3    0  502 -0.58209022459E+03 -0.17086084840E+04 -0.17111344538E+03  0.18131331424E+04  0.50400001928E-02 0. -1.
</event>
<event>
 5   0  0.1825308E-08  0.3698431E+04  0.7818609E-02  0.8068310E-01
       -2   -1    0    0    0  501  0.00000000000E+00  0.00000000000E+00  0.15987065430E+04  0.15987065430E+04  0.25500000920E-02 0. -1.
        2   -1    0    0  501    0  0.00000000000E+00  0.00000000000E+00 -0.21389774762E+04  0.21389774762E+04  0.25500000920E-02 0.  1.
    10030    2    1    2    0    0  0.00000000000E+00  0.00000000000E+00 -0.54027093324E+03  0.37376840193E+04  0.36984306329E+04 0.  0.
        4    1    3    3  502    0  0.27346752624E+03  0.17695174127E+04 -0.73723062101E+03  0.19363592031E+04  0.12699999809E+01 0.  1.
       -4    1    3    3    0  502 -0.27346752624E+03 -0.17695174127E+04  0.19695968777E+03  0.18013248162E+04  0.12699999809E+01 0. -1.
</event>
<event>
 5   0  0.1825308E-08  0.3698906E+04  0.7818609E-02  0.8068204E-01
       -2   -1    0    0    0  501  0.00000000000E+00  0.00000000000E+00  0.16464049428E+04  0.16464049428E+04  0.25500000920E-02 0. -1.
        2   -1    0    0  501    0  0.00000000000E+00  0.00000000000E+00 -0.20775421048E+04  0.20775421048E+04  0.25500000920E-02 0.  1.
    10030    2    1    2    0    0  0.00000000000E+00  0.00000000000E+00 -0.43113716206E+03  0.37239470476E+04  0.36989055626E+04 0.  0.
        4    1    3    3  502    0 -0.83119928887E+03  0.15035063351E+04  0.47394054401E+03  0.17821461246E+04  0.12699999809E+01 0. -1.
       -4    1    3    3    0  502  0.83119928887E+03 -0.15035063351E+04 -0.90507770607E+03  0.19418009229E+04  0.12699999809E+01 0.  1.
</event>
<event>
 5   0  0.5714125E-09  0.3699287E+04  0.7818609E-02  0.8068120E-01
        1   -1    0    0  501    0  0.00000000000E+00  0.00000000000E+00  0.21915693863E+04  0.21915693863E+04  0.50400001928E-02 0.  1.
       -1   -1    0    0    0  501  0.00000000000E+00  0.00000000000E+00 -0.15610648412E+04  0.15610648412E+04  0.50400001928E-02 0. -1.
    10030    2    1    2    0    0  0.00000000000E+00  0.00000000000E+00  0.63050454510E+03  0.37526342275E+04  0.36992874535E+04 0.  0.
        1    1    3    3  502    0  0.12900947115E+04  0.15630648945E+03  0.16504419759E+04  0.21006510417E+04  0.50400001928E-02 0.  1.
       -1    1    3    3    0  502 -0.12900947115E+04 -0.15630648945E+03 -0.10199374308E+04  0.16519831857E+04  0.50400001928E-02 0. -1.
</event>
<event>
 5   0  0.5714125E-09  0.3699519E+04  0.7818609E-02  0.8068069E-01
       -1   -1    0    0    0  501  0.00000000000E+00  0.00000000000E+00  0.30001264309E+04  0.30001264309E+04  0.50400001928E-02 0. -1.
        1   -1    0    0  501    0  0.00000000000E+00  0.00000000000E+00 -0.11404883934E+04  0.11404883934E+04  0.50400001928E-02 0.  1.
    10030    2    1    2    0    0  0.00000000000E+00  0.00000000000E+00  0.18596380375E+04  0.41406148243E+04  0.36995185488E+04 0.  0.
        4    1    3    3  502    0 -0.38663779449E+03 -0.79933473494E+03 -0.88636621894E+03  0.12546200579E+04  0.12699999809E+01 0.  1.
       -4    1    3    3    0  502  0.38663779449E+03  0.79933473494E+03  0.27460042564E+04  0.28859947664E+04  0.12699999809E+01 0. -1.
</event>
<event>
 5   0  0.1825308E-08  0.3700735E+04  0.7818609E-02  0.8067799E-01
       -2   -1    0    0    0  501  0.00000000000E+00  0.00000000000E+00  0.19784699884E+04  0.19784699884E+04  0.25500000920E-02 0. -1.
        2   -1    0    0  501    0  0.00000000000E+00  0.00000000000E+00 -0.17305590858E+04  0.17305590858E+04  0.25500000920E-02 0.  1.
    10030    2    1    2    0    0  0.00000000000E+00  0.00000000000E+00  0.24791090261E+03  0.37090290742E+04  0.37007346375E+04 0.  0.
        4    1    3    3  502    0  0.22395686148E+03 -0.18224867755E+04  0.35303474898E+03  0.18698261603E+04  0.12699999809E+01 0. -1.
       -4    1    3    3    0  502 -0.22395686148E+03  0.18224867755E+04 -0.10512384638E+03  0.18392029139E+04  0.12699999809E+01 0.  1.
</event>
<event>
 5   0  0.1825308E-08  0.3699974E+04  0.7818609E-02  0.8067968E-01
        2   -1    0    0  501    0  0.00000000000E+00  0.00000000000E+00  0.29476935408E+04  0.29476935408E+04  0.25500000920E-02 0. -1.
       -2   -1    0    0    0  501  0.00000000000E+00  0.00000000000E+00 -0.11610611450E+04  0.11610611450E+04  0.25500000920E-02 0.  1.
    10030    2    1    2    0    0  0.00000000000E+00  0.00000000000E+00  0.17866323958E+04  0.41087546859E+04  0.36999742906E+04 0.  0.
        4    1    3    3  502    0  0.61644357697E+03 -0.15620225870E+04  0.31326384548E+02  0.16795535719E+04  0.12699999809E+01 0.  1.
       -4    1    3    3    0  502 -0.61644357697E+03  0.15620225870E+04  0.17553060113E+04  0.24292011139E+04  0.12699999809E+01 0. -1.
</event>
<event>
 5   0  0.1740290E-08  0.3699758E+04  0.7818609E-02  0.8068015E-01
        2   -1    0    0  501    0  0.00000000000E+00  0.00000000000E+00  0.25198677993E+04  0.25198677993E+04  0.25500000920E-02 0. -1.
       -2   -1    0    0    0  501  0.00000000000E+00  0.00000000000E+00 -0.13580286087E+04  0.13580286087E+04  0.25500000920E-02 0.  1.
    10030    2    1    2    0    0  0.00000000000E+00  0.00000000000E+00  0.11618391906E+04  0.38778964081E+04  0.36997581335E+04 0.  0.
        5    1    3    3  502    0  0.93126475560E+03 -0.67778304226E+03 -0.93632272612E+03  0.14843740212E+04  0.46999998093E+01 0.  1.
       -5    1    3    3    0  502 -0.93126475560E+03  0.67778304226E+03  0.20981619167E+04  0.23935223868E+04  0.46999998093E+01 0. -1.
</event>
<event>
 5   0  0.1725865E-08  0.3700213E+04  0.7818609E-02  0.8067915E-01
       -2   -1    0    0    0  501  0.00000000000E+00  0.00000000000E+00  0.14541418104E+04  0.14541418104E+04  0.25500000920E-02 0. -1.
        2   -1    0    0  501    0  0.00000000000E+00  0.00000000000E+00 -0.23538932696E+04  0.23538932696E+04  0.25500000920E-02 0.  1.
    10030    2    1    2    0    0  0.00000000000E+00  0.00000000000E+00 -0.89975145915E+03  0.38080350800E+04  0.37002133022E+04 0.  0.
        1    1    3    3  502    0 -0.78761880596E+03  0.95791561405E+03  0.96306509177E+03  0.15701719900E+04  0.50400001928E-02 0. -1.
       -1    1    3    3    0  502  0.78761880596E+03 -0.95791561405E+03 -0.18628165509E+04  0.22378630900E+04  0.50400001928E-02 0.  1.
</event>
<event>
 5   0  0.5714125E-09  0.3699183E+04  0.7818609E-02  0.8068143E-01
        1   -1    0    0  501    0  0.00000000000E+00  0.00000000000E+00  0.19959527978E+04  0.19959527978E+04  0.50400001928E-02 0. -1.
       -1   -1    0    0    0  501  0.00000000000E+00  0.00000000000E+00 -0.17139627816E+04  0.17139627816E+04  0.50400001928E-02 0.  1.
    10030    2    1    2    0    0  0.00000000000E+00  0.00000000000E+00  0.28199001624E+03  0.37099155794E+04  0.36991830499E+04 0.  0.
        5    1    3    3  502    0 -0.73924138825E+03  0.15122502478E+04  0.90976193670E+03  0.19133916257E+04  0.46999998093E+01 0. -1.
       -5    1    3    3    0  502  0.73924138825E+03 -0.15122502478E+04 -0.62777192045E+03  0.17965239536E+04  0.46999998093E+01 0.  1.
</event>
<event>
 5   0  0.1740290E-08  0.3696001E+04  0.7818609E-02  0.8068849E-01
        2   -1    0    0  501    0  0.00000000000E+00  0.00000000000E+00  0.15344894307E+04  0.15344894307E+04  0.25500000920E-02 0. -1.
       -2   -1    0    0    0  501  0.00000000000E+00  0.00000000000E+00 -0.22255653361E+04  0.22255653361E+04  0.25500000920E-02 0.  1.
    10030    2    1    2    0    0  0.00000000000E+00  0.00000000000E+00 -0.69107590535E+03  0.37600547668E+04  0.36960013450E+04 0.  0.
        5    1    3    3  502    0  0.14473866182E+04  0.11488739064E+04 -0.32961031051E+03  0.18770999766E+04  0.46999998093E+01 0. -1.
       -5    1    3    3    0  502 -0.14473866182E+04 -0.11488739064E+04 -0.36146559483E+03  0.18829547901E+04  0.46999998093E+01 0.  1.
</event>
<event>
 5   0  0.5714125E-09  0.3701272E+04  0.7818609E-02  0.8067680E-01
       -1   -1    0    0    0  501  0.00000000000E+00  0.00000000000E+00  0.19384946621E+04  0.19384946621E+04  0.50400001928E-02 0.  1.
        1   -1    0    0  501    0  0.00000000000E+00  0.00000000000E+00 -0.17667597459E+04  0.17667597459E+04  0.50400001928E-02 0. -1.
    10030    2    1    2    0    0  0.00000000000E+00  0.00000000000E+00  0.17173491618E+03  0.37052544079E+04  0.37012723956E+04 0.  0.
        2    1    3    3  502    0 -0.22904831510E+03  0.18240919086E+03 -0.17434238625E+04  0.17678413412E+04  0.25500000920E-02 0. -1.
       -2    1    3    3    0  502  0.22904831510E+03 -0.18240919086E+03  0.19151587787E+04  0.19374130667E+04  0.25500000920E-02 0.  1.
</event>
<event>
 5   0  0.1740290E-08  0.3701937E+04  0.7818609E-02  0.8067533E-01
        2   -1    0    0  501    0  0.00000000000E+00  0.00000000000E+00  0.27716135867E+04  0.27716135867E+04  0.25500000920E-02 0.  1.
       -2   -1    0    0    0  501  0.00000000000E+00  0.00000000000E+00 -0.12361336007E+04  0.12361336007E+04  0.25500000920E-02 0. -1.
    10030    2    1    2    0    0  0.00000000000E+00  0.00000000000E+00  0.15354799861E+04  0.40077471874E+04  0.37019371592E+04 0.  0.
        5    1    3    3  502    0 -0.54308285653E+02 -0.14996641169E+04  0.19408200603E+04  0.24533133615E+04  0.46999998093E+01 0.  1.
       -5    1    3    3    0  502  0.54308285653E+02  0.14996641169E+04 -0.40534007423E+03  0.15544338259E+04  0.46999998093E+01 0. -1.
</event>
<event>
 5   0  0.5714125E-09  0.3700243E+04  0.7818609E-02  0.8067908E-01
        1   -1    0    0  501    0  0.00000000000E+00  0.00000000000E+00  0.16997633254E+04  0.16997633254E+04  0.50400001928E-02 0. -1.
       -1   -1    0    0    0  501  0.00000000000E+00  0.00000000000E+00 -0.20137804935E+04  0.20137804935E+04  0.50400001928E-02 0.  1.
    10030    2    1    2    0    0  0.00000000000E+00  0.00000000000E+00 -0.31401716813E+03  0.37135438189E+04  0.37002433586E+04 0.  0.
        3    1    3    3  502    0 -0.24265941005E+03  0.55484974224E+03 -0.19114939374E+04  0.20051311450E+04  0.10100000352E+00 0.  1.
       -3    1    3    3    0  502  0.24265941005E+03 -0.55484974224E+03  0.15974767693E+04  0.17084126739E+04  0.10100000352E+00 0. -1.
</event>
<event>
 5   0  0.5714125E-09  0.3705156E+04  0.7818609E-02  0.8066820E-01
       -1   -1    0    0    0  501  0.00000000000E+00  0.00000000000E+00  0.18062747706E+04  0.18062747706E+04  0.50400001928E-02 0.  1.
        1   -1    0    0  501    0  0.00000000000E+00  0.00000000000E+00 -0.19000686083E+04  0.19000686083E+04  0.50400001928E-02 0. -1.
    10030    2    1    2    0    0  0.00000000000E+00  0.00000000000E+00 -0.93793837626E+02  0.37063433789E+04  0.37051564013E+04 0.  0.
        4    1    3    3  502    0  0.11867475002E+04 -0.85414443337E+03 -0.11848518065E+04  0.18819691173E+04  0.12699999809E+01 0. -1.
       -4    1    3    3    0  502 -0.11867475002E+04  0.85414443337E+03  0.10910579688E+04  0.18243742616E+04  0.12699999809E+01 0.  1.
</event>
<event>
 5   0  0.5714125E-09  0.3703011E+04  0.7818609E-02  0.8067295E-01
        1   -1    0    0  501    0  0.00000000000E+00  0.00000000000E+00  0.13926098627E+04  0.13926098627E+04  0.50400001928E-02 0.  1.
       -1   -1    0    0    0  501  0.00000000000E+00  0.00000000000E+00 -0.24616179141E+04  0.24616179141E+04  0.50400001928E-02 0. -1.
    10030    2    1    2    0    0  0.00000000000E+00  0.00000000000E+00 -0.10690080515E+04  0.38542277768E+04  0.37030114153E+04 0.  0.
        3    1    3    3  502    0  0.36033770205E+03 -0.14907223565E+04  0.54514802586E+03  0.16276617536E+04  0.10100000352E+00 0.  1.
       -3    1    3    3    0  502 -0.36033770205E+03  0.14907223565E+04 -0.16141560773E+04  0.22265660232E+04  0.10100000352E+00 0. -1.
</event>
<event>
 5   0  0.5714125E-09  0.3699855E+04  0.7818609E-02  0.8067994E-01
       -1   -1    0    0    0  501  0.00000000000E+00  0.00000000000E+00  0.28713110460E+04  0.28713110460E+04  0.50400001928E-02 0. -1.
        1   -1    0    0  501    0  0.00000000000E+00  0.00000000000E+00 -0.11918705148E+04  0.11918705148E+04  0.50400001928E-02 0.  1.
    10030    2    1    2    0    0  0.00000000000E+00  0.00000000000E+00  0.16794405312E+04  0.40631815609E+04  0.36998545781E+04 0.  0.
        3    1    3    3  502    0  0.14220446698E+04  0.10660154093E+04  0.27584912249E+03  0.17985251303E+04  0.10100000352E+00 0.  1.
       -3    1    3    3    0  502 -0.14220446698E+04 -0.10660154093E+04  0.14035914087E+04  0.22646564306E+04  0.10100000352E+00 0. -1.
</event>
<event>
 5   0  0.1856107E-08  0.3701213E+04  0.7818609E-02  0.8067693E-01
        2   -1    0    0  501    0  0.00000000000E+00  0.00000000000E+00  0.16306128833E+04  0.16306128833E+04  0.25500000920E-02 0. -1.
       -2   -1    0    0    0  501  0.00000000000E+00  0.00000000000E+00 -0.21002801140E+04  0.21002801140E+04  0.25500000920E-02 0.  1.
    10030    2    1    2    0    0  0.00000000000E+00  0.00000000000E+00 -0.46966723069E+03  0.37308929973E+04  0.37012126728E+04 0.  0.
        2    1    3    3  502    0  0.92784686500E+03  0.13942055942E+04  0.55890365758E+03  0.17655260809E+04  0.25500000920E-02 0.  1.
       -2    1    3    3    0  502 -0.92784686500E+03 -0.13942055942E+04 -0.10285708883E+04  0.19653669164E+04  0.25500000920E-02 0. -1.
</event>
<event>
 5   0  0.5714125E-09  0.3699607E+04  0.7818609E-02  0.8068049E-01
       -1   -1    0    0    0  501  0.00000000000E+00  0.00000000000E+00  0.21142979661E+04  0.21142979661E+04  0.50400001928E-02 0. -1.
        1   -1    0    0  501    0  0.00000000000E+00  0.00000000000E+00 -0.16183968878E+04  0.16183968878E+04  0.50400001928E-02 0.  1.
    10030    2    1    2    0    0  0.00000000000E+00  0.00000000000E+00  0.49590107828E+03  0.37326948539E+04  0.36996071403E+04 0.  0.
        5    1    3    3  502    0  0.14082572588E+04  0.54526271534E+03  0.13257985060E+04  0.20095431581E+04  0.46999998093E+01 0. -1.
       -5    1    3    3    0  502 -0.14082572588E+04 -0.54526271534E+03 -0.82989742777E+03  0.17231516957E+04  0.46999998093E+01 0.  1.
</event>
<event>
 5   0  0.5714125E-09  0.3699467E+04  0.7818609E-02  0.8068080E-01
        1   -1    0    0  501    0  0.00000000000E+00  0.00000000000E+00  0.15565029034E+04  0.15565029034E+04  0.50400001928E-02 0.  1.
       -1   -1    0    0    0  501  0.00000000000E+00  0.00000000000E+00 -0.21982063524E+04  0.21982063524E+04  0.50400001928E-02 0. -1.
    10030    2    1    2    0    0  0.00000000000E+00  0.00000000000E+00 -0.64170344902E+03  0.37547092558E+04  0.36994672967E+04 0.  0.
        2    1    3    3  502    0 -0.15773552526E+04 -0.69132093220E+03  0.36416400520E+03  0.17602811273E+04  0.25500000920E-02 0.  1.
       -2    1    3    3    0  502  0.15773552526E+04  0.69132093220E+03 -0.10058674542E+04  0.19944281285E+04  0.25500000920E-02 0. -1.
</event>
<event>
 5   0  0.5714125E-09  0.3700545E+04  0.7818609E-02  0.8067841E-01
       -1   -1    0    0    0  501  0.00000000000E+00  0.00000000000E+00  0.12635310745E+04  0.12635310745E+04  0.50400001928E-02 0. -1.
        1   -1    0    0  501    0  0.00000000000E+00  0.00000000000E+00 -0.27094762854E+04  0.27094762854E+04  0.50400001928E-02 0.  1.
    10030    2    1    2    0    0  0.00000000000E+00  0.00000000000E+00 -0.14459452109E+04  0.39730073599E+04  0.37005445449E+04 0.  0.
        3    1    3    3  502    0  0.12199840796E+04 -0.54251623799E+03  0.65228649621E+03  0.14859887975E+04  0.10100000352E+00 0. -1.
       -3    1    3    3    0  502 -0.12199840796E+04  0.54251623799E+03 -0.20982317071E+04  0.24870185624E+04  0.10100000352E+00 0.  1.
</event>
<event>
 5   0  0.1725865E-08  0.3699947E+04  0.7818609E-02  0.8067974E-01
        2   -1    0    0  501    0  0.00000000000E+00  0.00000000000E+00  0.18387209622E+04  0.18387209622E+04  0.25500000920E-02 0. -1.
       -2   -1    0    0    0  501  0.00000000000E+00  0.00000000000E+00 -0.18612944234E+04  0.18612944234E+04  0.25500000920E-02 0.  1.
    10030    2    1    2    0    0  0.00000000000E+00  0.00000000000E+00 -0.22573461236E+02  0.37000153856E+04  0.36999465256E+04 0.  0.
        1    1    3    3  502    0 -0.60806641395E+03  0.68313650455E+02 -0.17571684586E+04  0.18606591602E+04  0.50400001928E-02 0.  1.
       -1    1    3    3    0  502  0.60806641395E+03 -0.68313650455E+02  0.17345949974E+04  0.18393562253E+04  0.50400001928E-02 0. -1.
</event>
<event>
 5   0  0.1856107E-08  0.3700843E+04  0.7818609E-02  0.8067775E-01
       -2   -1    0    0    0  501  0.00000000000E+00  0.00000000000E+00  0.22577890324E+04  0.22577890324E+04  0.25500000920E-02 0. -1.
        2   -1    0    0  501    0  0.00000000000E+00  0.00000000000E+00 -0.15165543989E+04  0.15165543989E+04  0.25500000920E-02 0.  1.
    10030    2    1    2    0    0  0.00000000000E+00  0.00000000000E+00  0.74123463346E+03  0.37743434313E+04  0.37008430871E+04 0.  0.
        2    1    3    3  502    0  0.15811663139E+04 -0.89918416447E+03  0.71713103657E+03  0.19552227488E+04  0.25500000920E-02 0. -1.
       -2    1    3    3    0  502 -0.15811663139E+04  0.89918416447E+03  0.24103596891E+02  0.18191206825E+04  0.25500000920E-02 0.  1.
</event>
<event>
 5   0  0.5714125E-09  0.3696367E+04  0.7818609E-02  0.8068767E-01
        1   -1    0    0  501    0  0.00000000000E+00  0.00000000000E+00  0.24425034321E+04  0.24425034321E+04  0.50400001928E-02 0.  1.
       -1   -1    0    0    0  501  0.00000000000E+00  0.00000000000E+00 -0.13984759470E+04  0.13984759471E+04  0.50400001928E-02 0. -1.
    10030    2    1    2    0    0  0.00000000000E+00  0.00000000000E+00  0.10440274850E+04  0.38409793791E+04  0.36963670274E+04 0.  0.
        3    1    3    3  502    0 -0.48785666530E+03  0.94511860387E+03  0.20926124101E+04  0.23473985623E+04  0.10100000352E+00 0.  1.
       -3    1    3    3    0  502  0.48785666530E+03 -0.94511860387E+03 -0.10485849250E+04  0.14935808169E+04  0.10100000352E+00 0. -1.
</event>
<event>
 5   0  0.1725865E-08  0.3695662E+04  0.7818609E-02  0.8068924E-01
       -2   -1    0    0    0  501  0.00000000000E+00  0.00000000000E+00  0.23943283230E+04  0.23943283230E+04  0.25500000920E-02 0.  1.
        2   -1    0    0  501    0  0.00000000000E+00  0.00000000000E+00 -0.14260701471E+04  0.14260701471E+04  0.25500000920E-02 0. -1.
    10030    2    1    2    0    0  0.00000000000E+00  0.00000000000E+00  0.96825817592E+03  0.38203984701E+04  0.36956624000E+04 0.  0.
        1    1    3    3  502    0  0.85062929050E+03 -0.16269221435E+04  0.70105522564E+03  0.19651779259E+04  0.50400001928E-02 0.  1.
       -1    1    3    3    0  502 -0.85062929050E+03  0.16269221435E+04  0.26720295028E+03  0.18552205442E+04  0.50400001928E-02 0. -1.
</event>
<event>
 5   0  0.5714125E-09  0.3698609E+04  0.7818609E-02  0.8068270E-01
       -1   -1    0    0    0  501  0.00000000000E+00  0.00000000000E+00  0.18788740525E+04  0.18788740525E+04  0.50400001928E-02 0. -1.
        1   -1    0    0  501    0  0.00000000000E+00  0.00000000000E+00 -0.18202000926E+04  0.18202000926E+04  0.50400001928E-02 0.  1.
    10030    2    1    2    0    0  0.00000000000E+00  0.00000000000E+00  0.58673959864E+02  0.36990741451E+04  0.36986087787E+04 0.  0.
        1    1    3    3  502    0 -0.41304473132E+03 -0.64106082300E+02  0.18310106113E+04  0.18781148524E+04  0.50400001928E-02 0. -1.
       -1    1    3    3    0  502  0.41304473132E+03  0.64106082300E+02 -0.17723366514E+04  0.18209592928E+04  0.50400001928E-02 0.  1.
</event>
<event>
 5   0  0.5714125E-09  0.3703832E+04  0.7818609E-02  0.8067113E-01
        1   -1    0    0  501    0  0.00000000000E+00  0.00000000000E+00  0.18305620144E+04  0.18305620144E+04  0.50400001928E-02 0.  1.
       -1   -1    0    0    0  501  0.00000000000E+00  0.00000000000E+00 -0.18735195770E+04  0.18735195770E+04  0.50400001928E-02 0. -1.
    10030    2    1    2    0    0  0.00000000000E+00  0.00000000000E+00 -0.42957562589E+02  0.37040815914E+04  0.37038324859E+04 0.  0.
        3    1    3    3  502    0  0.46396890464E+03 -0.16254646125E+04 -0.77796300389E+03  0.18608140145E+04  0.10100000352E+00 0. -1.
       -3    1    3    3    0  502 -0.46396890464E+03  0.16254646125E+04  0.73500544130E+03  0.18432675769E+04  0.10100000352E+00 0.  1.
</event>
<event>
 5   0  0.1825308E-08  0.3699098E+04  0.7818609E-02  0.8068162E-01
       -2   -1    0    0    0  501  0.00000000000E+00  0.00000000000E+00  0.15049413884E+04  0.15049413884E+04  0.25500000920E-02 0.  1.
        2   -1    0    0  501    0  0.00000000000E+00  0.00000000000E+00 -0.22730662359E+04  0.22730662359E+04  0.25500000920E-02 0. -1.
    10030    2    1    2    0    0  0.00000000000E+00  0.00000000000E+00 -0.76812484755E+03  0.37780076243E+04  0.36990979748E+04 0.  0.
        4    1    3    3  502    0  0.83282857262E+03  0.13659633768E+04  0.56383639957E+03  0.16962819567E+04  0.12699999809E+01 0.  1.
       -4    1    3    3    0  502 -0.83282857262E+03 -0.13659633768E+04 -0.13319612471E+04  0.20817256676E+04  0.12699999809E+01 0. -1.
</event>
<event>
 5   0  0.1740290E-08  0.3701855E+04  0.7818609E-02  0.8067551E-01
       -2   -1    0    0    0  501  0.00000000000E+00  0.00000000000E+00  0.13965175551E+04  0.13965175551E+04  0.25500000920E-02 0.  1.
        2   -1    0    0  501    0  0.00000000000E+00  0.00000000000E+00 -0.24531971088E+04  0.24531971088E+04  0.25500000920E-02 0. -1.
    10030    2    1    2    0    0  0.00000000000E+00  0.00000000000E+00 -0.10566795536E+04  0.38497146639E+04  0.37018551180E+04 0.  0.
        5    1    3    3  502    0 -0.62126319602E+03  0.15232562488E+02  0.12847748166E+04  0.14271889886E+04  0.46999998093E+01 0.  1.
       -5    1    3    3    0  502  0.62126319602E+03 -0.15232562488E+02 -0.23414543702E+04  0.24225256753E+04  0.46999998093E+01 0. -1.
</event>
<event>
 5   0  0.1725865E-08  0.3694538E+04  0.7818609E-02  0.8069173E-01
        2   -1    0    0  501    0  0.00000000000E+00  0.00000000000E+00  0.13554019284E+04  0.13554019284E+04  0.25500000920E-02 0. -1.
       -2   -1    0    0    0  501  0.00000000000E+00  0.00000000000E+00 -0.25176319986E+04  0.25176319986E+04  0.25500000920E-02 0.  1.
    10030    2    1    2    0    0  0.00000000000E+00  0.00000000000E+00 -0.11622300702E+04  0.38730339270E+04  0.36945382747E+04 0.  0.
        1    1    3    3  502    0 -0.55931789894E+03 -0.13645725339E+04 -0.17472940870E+04  0.22864669993E+04  0.50400001928E-02 0.  1.
       -1    1    3    3    0  502  0.55931789894E+03  0.13645725339E+04  0.58506401677E+03  0.15865669277E+04  0.50400001928E-02 0. -1.
</event>
<event>
 5   0  0.1740290E-08  0.3701280E+04  0.7818609E-02  0.8067678E-01
       -2   -1    0    0    0  501  0.00000000000E+00  0.00000000000E+00  0.12121969574E+04  0.12121969574E+04  0.25500000920E-02 0. -1.
        2   -1    0    0  501    0  0.00000000000E+00  0.00000000000E+00 -0.28253400601E+04  0.28253400601E+04  0.25500000920E-02 0.  1.
    10030    2    1    2    0    0  0.00000000000E+00  0.00000000000E+00 -0.16131431027E+04  0.40375370175E+04  0.37012801161E+04 0.  0.
        5    1    3    3  502    0  0.74250824481E+03 -0.54867093194E+03 -0.25561815938E+04  0.27178014489E+04  0.46999998093E+01 0.  1.
       -5    1    3    3    0  502 -0.74250824481E+03  0.54867093194E+03  0.94303849111E+03  0.13197355685E+04  0.46999998093E+01 0. -1.
</event>
<event>
 5   0  0.1825308E-08  0.3700062E+04  0.7818609E-02  0.8067948E-01
       -2   -1    0    0    0  501  0.00000000000E+00  0.00000000000E+00  0.14475519211E+04  0.14475519211E+04  0.25500000920E-02 0.  1.
        2   -1    0    0  501    0  0.00000000000E+00  0.00000000000E+00 -0.23644156906E+04  0.23644156906E+04  0.25500000920E-02 0. -1.
    10030    2    1    2    0    0  0.00000000000E+00  0.00000000000E+00 -0.91686376946E+03  0.38119676116E+04  0.37000618779E+04 0.  0.
        4    1    3    3  502    0  0.17014987615E+04  0.60560693202E+03 -0.87150083932E+03  0.20053361607E+04  0.12699999809E+01 0. -1.
       -4    1    3    3    0  502 -0.17014987615E+04 -0.60560693202E+03 -0.45362930146E+02  0.18066314510E+04  0.12699999809E+01 0.  1.
</event>
<event>
 5   0  0.5714125E-09  0.3705382E+04  0.7818609E-02  0.8066770E-01
       -1   -1    0    0    0  501  0.00000000000E+00  0.00000000000E+00  0.13893016993E+04  0.13893016993E+04  0.50400001928E-02 0. -1.
        1   -1    0    0  501    0  0.00000000000E+00  0.00000000000E+00 -0.24706403528E+04  0.24706403529E+04  0.50400001928E-02 0.  1.
    10030    2    1    2    0    0  0.00000000000E+00  0.00000000000E+00 -0.10813386535E+04  0.38599420522E+04  0.37053824854E+04 0.  0.
        3    1    3    3  502    0 -0.55532584633E+01  0.69219340113E+03 -0.23308698979E+04  0.24314845330E+04  0.10100000352E+00 0.  1.
       -3    1    3    3    0  502  0.55532584633E+01 -0.69219340113E+03  0.12495312444E+04  0.14284575192E+04  0.10100000352E+00 0. -1.
</event>
<event>
 5   0  0.5714125E-09  0.3700145E+04  0.7818609E-02  0.8067930E-01
       -1   -1    0    0    0  501  0.00000000000E+00  0.00000000000E+00  0.23519551245E+04  0.23519551245E+04  0.50400001928E-02 0.  1.
        1   -1    0    0  501    0  0.00000000000E+00  0.00000000000E+00 -0.14552865743E+04  0.14552865743E+04  0.50400001928E-02 0. -1.
    10030    2    1    2    0    0  0.00000000000E+00  0.00000000000E+00  0.89666855024E+03  0.38072416988E+04  0.37001452491E+04 0.  0.
        3    1    3    3  502    0  0.42029742613E+03  0.49476362976E+03 -0.13342430843E+04  0.14837943233E+04  0.10100000352E+00 0. -1.
       -3    1    3    3    0  502 -0.42029742613E+03 -0.49476362976E+03  0.22309116345E+04  0.23234473755E+04  0.10100000352E+00 0.  1.
</event>
<event>
 5   0  0.1757996E-08  0.3699105E+04  0.7818609E-02  0.8068160E-01
        2   -1    0    0  501    0  0.00000000000E+00  0.00000000000E+00  0.24004836033E+04  0.24004836033E+04  0.25500000920E-02 0. -1.
       -2   -1    0    0    0  501  0.00000000000E+00  0.00000000000E+00 -0.14250646835E+04  0.14250646835E+04  0.25500000920E-02 0.  1.
    10030    2    1    2    0    0  0.00000000000E+00  0.00000000000E+00  0.97541891980E+03  0.38255482867E+04  0.36991049762E+04 0.  0.
        3    1    3    3  502    0  0.23500695696E+03  0.18019846152E+04  0.13175308367E+03  0.18220141900E+04  0.10100000352E+00 0.  1.
       -3    1    3    3    0  502 -0.23500695696E+03 -0.18019846152E+04  0.84366583613E+03  0.20035340967E+04  0.10100000352E+00 0. -1.
</event>
<event>
 5   0  0.1825308E-08  0.3700241E+04  0.7818609E-02  0.8067908E-01
       -2   -1    0    0    0  501  0.00000000000E+00  0.00000000000E+00  0.13010457019E+04  0.13010457020E+04  0.25500000920E-02 0. -1.
        2   -1    0    0  501    0  0.00000000000E+00  0.00000000000E+00 -0.26309194177E+04  0.26309194178E+04  0.25500000920E-02 0.  1.
    10030    2    1    2    0    0  0.00000000000E+00  0.00000000000E+00 -0.13298737158E+04  0.39319651197E+04  0.37002412898E+04 0.  0.
        4    1    3    3  502    0 -0.85669105787E+03 -0.15888696102E+04 -0.23392711355E+03  0.18202059538E+04  0.12699999809E+01 0.  1.
       -4    1    3    3    0  502  0.85669105787E+03  0.15888696102E+04 -0.10959466023E+04  0.21117591659E+04  0.12699999809E+01 0. -1.
</event>
<event>
 5   0  0.5714125E-09  0.3700595E+04  0.7818609E-02  0.8067830E-01
       -1   -1    0    0    0  501  0.00000000000E+00  0.00000000000E+00  0.15243114749E+04  0.15243114750E+04  0.50400001928E-02 0.  1.
        1   -1    0    0  501    0  0.00000000000E+00  0.00000000000E+00 -0.22459986031E+04  0.22459986031E+04  0.50400001928E-02 0. -1.
    10030    2    1    2    0    0  0.00000000000E+00  0.00000000000E+00 -0.72168712813E+03  0.37703100780E+04  0.37005953269E+04 0.  0.
        2    1    3    3  502    0  0.26129048461E+03 -0.85861695833E+03  0.12876947928E+04  0.15696030319E+04  0.25500000920E-02 0.  1.
       -2    1    3    3    0  502 -0.26129048461E+03  0.85861695833E+03 -0.20093819209E+04  0.22007070461E+04  0.25500000920E-02 0. -1.
</event>
<event>
 5   0  0.5714125E-09  0.3700654E+04  0.7818609E-02  0.8067817E-01
        1   -1    0    0  501    0  0.00000000000E+00  0.00000000000E+00  0.16064750066E+04  0.16064750066E+04  0.50400001928E-02 0. -1.
       -1   -1    0    0    0  501  0.00000000000E+00  0.00000000000E+00 -0.21311944138E+04  0.21311944138E+04  0.50400001928E-02 0.  1.
    10030    2    1    2    0    0  0.00000000000E+00  0.00000000000E+00 -0.52471940718E+03  0.37376694204E+04  0.37006542989E+04 0.  0.
        1    1    3    3  502    0  0.16470044494E+04 -0.98921805167E+02 -0.11081734075E+04  0.19875757799E+04  0.50400001928E-02 0.  1.
       -1    1    3    3    0  502 -0.16470044494E+04  0.98921805167E+02  0.58345400037E+03  0.17500936404E+04  0.50400001928E-02 0. -1.
</event>
<event>
 5   0  0.5714125E-09  0.3693881E+04  0.7818609E-02  0.8069319E-01
       -1   -1    0    0    0  501  0.00000000000E+00  0.00000000000E+00  0.13572338868E+04  0.13572338868E+04  0.50400001928E-02 0. -1.
        1   -1    0    0  501    0  0.00000000000E+00  0.00000000000E+00 -0.25133393627E+04  0.25133393627E+04  0.50400001928E-02 0.  1.
    10030    2    1    2    0    0  0.00000000000E+00  0.00000000000E+00 -0.11561054759E+04  0.38705732496E+04  0.36938810767E+04 0.  0.
        2    1    3    3  502    0 -0.13682757970E+04  0.72604793984E+03 -0.16320844723E+04  0.22501164397E+04  0.25500000920E-02 0.  1.
       -2    1    3    3    0  502  0.13682757970E+04 -0.72604793984E+03  0.47597899638E+03  0.16204568098E+04  0.25500000920E-02 0. -1.
</event>
<event>
 5   0  0.1825308E-08  0.3700112E+04  0.7818609E-02  0.8067937E-01
        2   -1    0    0  501    0  0.00000000000E+00  0.00000000000E+00  0.23308114624E+04  0.23308114624E+04  0.25500000920E-02 0.  1.
       -2   -1    0    0    0  501  0.00000000000E+00  0.00000000000E+00 -0.14684616783E+04  0.14684616783E+04  0.25500000920E-02 0. -1.
    10030    2    1    2    0    0  0.00000000000E+00  0.00000000000E+00  0.86234978406E+03  0.37992731407E+04  0.37001120588E+04 0.  0.
        4    1    3    3  502    0  0.78284210792E+03 -0.12496656108E+04 -0.71599487715E+03  0.16392547641E+04  0.12699999809E+01 0. -1.
       -4    1    3    3    0  502 -0.78284210792E+03  0.12496656108E+04  0.15783446612E+04  0.21600183766E+04  0.12699999809E+01 0.  1.
</event>
<event>
 5   0  0.1825308E-08  0.3700493E+04  0.7818609E-02  0.8067853E-01
       -2   -1    0    0    0  501  0.00000000000E+00  0.00000000000E+00  0.13518367574E+04  0.13518367574E+04  0.25500000920E-02 0. -1.
        2   -1    0    0  501    0  0.00000000000E+00  0.00000000000E+00 -0.25324153250E+04  0.25324153250E+04  0.25500000920E-02 0.  1.
    10030    2    1    2    0    0  0.00000000000E+00  0.00000000000E+00 -0.11805785676E+04  0.38842520823E+04  0.37004930056E+04 0.  0.
        4    1    3    3  502    0 -0.10135980046E+04 -0.35554092715E+03  0.99104766167E+03  0.14614949013E+04  0.12699999809E+01 0. -1.
       -4    1    3    3    0  502  0.10135980046E+04  0.35554092715E+03 -0.21716262293E+04  0.24227571811E+04  0.12699999809E+01 0.  1.
</event>
<event>
 5   0  0.1740290E-08  0.3700875E+04  0.7818609E-02  0.8067768E-01
        2   -1    0    0  501    0  0.00000000000E+00  0.00000000000E+00  0.15728899670E+04  0.15728899670E+04  0.25500000920E-02 0.  1.
       -2   -1    0    0    0  501  0.00000000000E+00  0.00000000000E+00 -0.21769606687E+04  0.21769606687E+04  0.25500000920E-02 0. -1.
    10030    2    1    2    0    0  0.00000000000E+00  0.00000000000E+00 -0.60407070167E+03  0.37498506357E+04  0.37008753528E+04 0.  0.
        5    1    3    3  502    0 -0.35367472227E+03  0.14899115879E+04 -0.13546162394E+04  0.20444876118E+04  0.46999998093E+01 0. -1.
       -5    1    3    3    0  502  0.35367472227E+03 -0.14899115879E+04  0.75054553776E+03  0.17053630238E+04  0.46999998093E+01 0.  1.
</event>
<event>
 5   0  0.5714125E-09  0.3701290E+04  0.7818609E-02  0.8067676E-01
        1   -1    0    0  501    0  0.00000000000E+00  0.00000000000E+00  0.19588344659E+04  0.19588344659E+04  0.50400001928E-02 0.  1.
       -1   -1    0    0    0  501  0.00000000000E+00  0.00000000000E+00 -0.17484313960E+04  0.17484313960E+04  0.50400001928E-02 0. -1.
    10030    2    1    2    0    0  0.00000000000E+00  0.00000000000E+00  0.21040306985E+03  0.37072658619E+04  0.37012904127E+04 0.  0.
        3    1    3    3  502    0  0.21530189297E+03 -0.17264940082E+03 -0.17277049536E+04  0.17496077096E+04  0.10100000352E+00 0. -1.
       -3    1    3    3    0  502 -0.21530189297E+03  0.17264940082E+03  0.19381080234E+04  0.19576581523E+04  0.10100000352E+00 0.  1.
</event>
<event>
 5   0  0.5714125E-09  0.3700015E+04  0.7818609E-02  0.8067959E-01
        1   -1    0    0  501    0  0.00000000000E+00  0.00000000000E+00  0.13508252173E+04  0.13508252173E+04  0.50400001928E-02 0.  1.
       -1   -1    0    0    0  501  0.00000000000E+00  0.00000000000E+00 -0.25336568973E+04  0.25336568973E+04  0.50400001928E-02 0. -1.
    10030    2    1    2    0    0  0.00000000000E+00  0.00000000000E+00 -0.11828316800E+04  0.38844821146E+04  0.37000149345E+04 0.  0.
        2    1    3    3  502    0 -0.45027433481E+03 -0.38168537470E+03  0.12493071118E+04  0.13817376601E+04  0.25500000920E-02 0.  1.
       -2    1    3    3    0  502  0.45027433481E+03  0.38168537470E+03 -0.24321387918E+04  0.25027444545E+04  0.25500000920E-02 0. -1.
</event>
<event>
 5   0  0.1725865E-08  0.3699168E+04  0.7818609E-02  0.8068146E-01
        2   -1    0    0  501    0  0.00000000000E+00  0.00000000000E+00  0.22542479887E+04  0.22542479887E+04  0.25500000920E-02 0. -1.
       -2   -1    0    0    0  501  0.00000000000E+00  0.00000000000E+00 -0.15175617216E+04  0.15175617216E+04  0.25500000920E-02 0.  1.
    10030    2    1    2    0    0  0.00000000000E+00  0.00000000000E+00  0.73668626705E+03  0.37718097103E+04  0.36991677219E+04 0.  0.
        1    1    3    3  502    0  0.15293811051E+04  0.10101851162E+04  0.62116370944E+03  0.19352841878E+04  0.50400001928E-02 0. -1.
       -1    1    3    3    0  502 -0.15293811051E+04 -0.10101851162E+04  0.11552255761E+03  0.18365255225E+04  0.50400001928E-02 0.  1.
</event>
<event>
 5   0  0.5714125E-09  0.3698956E+04  0.7818609E-02  0.8068193E-01
        1   -1    0    0  501    0  0.00000000000E+00  0.00000000000E+00  0.20032347286E+04  0.20032347286E+04  0.50400001928E-02 0. -1.
       -1   -1    0    0    0  501  0.00000000000E+00  0.00000000000E+00 -0.17075223864E+04  0.17075223864E+04  0.50400001928E-02 0.  1.
    10030    2    1    2    0    0  0.00000000000E+00  0.00000000000E+00  0.29571234222E+03  0.37107571150E+04  0.36989556062E+04 0.  0.
        4    1    3    3  502    0  0.14394811750E+04  0.60096877373E+03  0.11446545451E+04  0.19348139861E+04  0.12699999809E+01 0. -1.
       -4    1    3    3    0  502 -0.14394811750E+04 -0.60096877373E+03 -0.84894220292E+03  0.17759431289E+04  0.12699999809E+01 0.  1.
</event>
<event>
 5   0  0.1725865E-08  0.3698670E+04  0.7818609E-02  0.8068257E-01
       -2   -1    0    0    0  501  0.00000000000E+00  0.00000000000E+00  0.11537955452E+04  0.11537955452E+04  0.25500000920E-02 0.  1.
        2   -1    0    0  501    0  0.00000000000E+00  0.00000000000E+00 -0.29641648678E+04  0.29641648678E+04  0.25500000920E-02 0. -1.
    10030    2    1    2    0    0  0.00000000000E+00  0.00000000000E+00 -0.18103693226E+04  0.41179604130E+04  0.36986701500E+04 0.  0.
        1    1    3    3  502    0 -0.11771948587E+04 -0.77579091554E+03  0.42732038855E+03  0.14731741223E+04  0.50400001928E-02 0.  1.
       -1    1    3    3    0  502  0.11771948587E+04  0.77579091554E+03 -0.22376897112E+04  0.26447862907E+04  0.50400001928E-02 0. -1.
</event>
<event>
 5   0  0.1856107E-08  0.3701133E+04  0.7818609E-02  0.8067711E-01
        2   -1    0    0  501    0  0.00000000000E+00  0.00000000000E+00  0.26282605418E+04  0.26282605418E+04  0.25500000920E-02 0. -1.
       -2   -1    0    0    0  501  0.00000000000E+00  0.00000000000E+00 -0.13029894789E+04  0.13029894789E+04  0.25500000920E-02 0.  1.
    10030    2    1    2    0    0  0.00000000000E+00  0.00000000000E+00  0.13252710629E+04  0.39312500207E+04  0.37011327097E+04 0.  0.
        2    1    3    3  502    0  0.58475184548E+03 -0.62551871799E+02  0.25263660006E+04  0.25939106820E+04  0.25500000920E-02 0. -1.
       -2    1    3    3    0  502 -0.58475184548E+03  0.62551871799E+02 -0.12010949377E+04  0.13373393387E+04  0.25500000920E-02 0.  1.
</event>
<event>
 5   0  0.5714125E-09  0.3700809E+04  0.7818609E-02  0.8067783E-01
       -1   -1    0    0    0  501  0.00000000000E+00  0.00000000000E+00  0.33140385946E+04  0.33140385946E+04  0.50400001928E-02 0. -1.
        1   -1    0    0  501    0  0.00000000000E+00  0.00000000000E+00 -0.10331794387E+04  0.10331794387E+04  0.50400001928E-02 0.  1.
    10030    2    1    2    0    0  0.00000000000E+00  0.00000000000E+00  0.22808591559E+04  0.43472180333E+04  0.37008088494E+04 0.  0.
        4    1    3    3  502    0  0.23996652034E+03 -0.17180242493E+04  0.18969768400E+04  0.25705474118E+04  0.12699999809E+01 0. -1.
       -4    1    3    3    0  502 -0.23996652034E+03  0.17180242493E+04  0.38388231588E+03  0.17766706215E+04  0.12699999809E+01 0.  1.
</event>
<event>
 5   0  0.1825308E-08  0.3700284E+04  0.7818609E-02  0.8067899E-01
       -2   -1    0    0    0  501  0.00000000000E+00  0.00000000000E+00  0.20063310053E+04  0.20063310053E+04  0.25500000920E-02 0. -1.
        2   -1    0    0  501    0  0.00000000000E+00  0.00000000000E+00 -0.17061121851E+04  0.17061121851E+04  0.25500000920E-02 0.  1.
    10030    2    1    2    0    0  0.00000000000E+00  0.00000000000E+00  0.30021882028E+03  0.37124431904E+04  0.37002841920E+04 0.  0.
        4    1    3    3  502    0  0.10401178833E+04  0.84844157707E+03 -0.11273875890E+04  0.17529126360E+04  0.12699999809E+01 0.  1.
       -4    1    3    3    0  502 -0.10401178833E+04 -0.84844157707E+03  0.14276064093E+04  0.19595305544E+04  0.12699999809E+01 0. -1.
</event>
<event>
 5   0  0.5714125E-09  0.3699039E+04  0.7818609E-02  0.8068175E-01
       -1   -1    0    0    0  501  0.00000000000E+00  0.00000000000E+00  0.13407803686E+04  0.13407803686E+04  0.50400001928E-02 0. -1.
        1   -1    0    0  501    0  0.00000000000E+00  0.00000000000E+00 -0.25512926586E+04  0.25512926586E+04  0.50400001928E-02 0.  1.
    10030    2    1    2    0    0  0.00000000000E+00  0.00000000000E+00 -0.12105122900E+04  0.38920730272E+04  0.36990393949E+04 0.  0.
        3    1    3    3  502    0 -0.98602012236E+03  0.23726822580E+01 -0.22516755001E+04  0.24581057502E+04  0.10100000352E+00 0.  1.
       -3    1    3    3    0  502  0.98602012236E+03 -0.23726822580E+01  0.10411632101E+04  0.14339672770E+04  0.10100000352E+00 0. -1.
</event>
<event>
 5   0  0.1740290E-08  0.3700838E+04  0.7818609E-02  0.8067776E-01
        2   -1    0    0  501    0  0.00000000000E+00  0.00000000000E+00  0.15883710594E+04  0.15883710594E+04  0.25500000920E-02 0. -1.
       -2   -1    0    0    0  501  0.00000000000E+00  0.00000000000E+00 -0.21556994781E+04  0.21556994781E+04  0.25500000920E-02 0.  1.
    10030    2    1    2    0    0  0.00000000000E+00  0.00000000000E+00 -0.56732841872E+03  0.37440705375E+04  0.37008381017E+04 0.  0.
        5    1    3    3  502    0 -0.37686324744E+03 -0.44209770669E+03 -0.20610461145E+04  0.21413569216E+04  0.46999998093E+01 0.  1.
       -5    1    3    3    0  502  0.37686324744E+03  0.44209770669E+03  0.14937176958E+04  0.16027136158E+04  0.46999998093E+01 0. -1.
</event>
<event>
 5   0  0.1740290E-08  0.3708612E+04  0.7818609E-02  0.8066056E-01
       -2   -1    0    0    0  501  0.00000000000E+00  0.00000000000E+00  0.13690809030E+04  0.13690809030E+04  0.25500000920E-02 0.  1.
        2   -1    0    0  501    0  0.00000000000E+00  0.00000000000E+00 -0.25115024992E+04  0.25115024992E+04  0.25500000920E-02 0. -1.
    10030    2    1    2    0    0  0.00000000000E+00  0.00000000000E+00 -0.11424215962E+04  0.38805834022E+04  0.37086116591E+04 0.  0.
        5    1    3    3  502    0 -0.10747159039E+04  0.14621428572E+04 -0.17200690595E+03  0.18227683546E+04  0.46999998093E+01 0.  1.
       -5    1    3    3    0  502  0.10747159039E+04 -0.14621428572E+04 -0.97041469029E+03  0.20578150476E+04  0.46999998093E+01 0. -1.
</event>
<event>
 5   0  0.1725865E-08  0.3698409E+04  0.7818609E-02  0.8068315E-01
        2   -1    0    0  501    0  0.00000000000E+00  0.00000000000E+00  0.21434796272E+04  0.21434796272E+04  0.25500000920E-02 0. -1.
       -2   -1    0    0    0  501  0.00000000000E+00  0.00000000000E+00 -0.15953296255E+04  0.15953296255E+04  0.25500000920E-02 0.  1.
    10030    2    1    2    0    0  0.00000000000E+00  0.00000000000E+00  0.54815000166E+03  0.37388092527E+04  0.36984086042E+04 0.  0.
        1    1    3    3  502    0 -0.76506119962E+03 -0.84374163284E+03 -0.11986636675E+04  0.16534851587E+04  0.50400001928E-02 0.  1.
       -1    1    3    3    0  502  0.76506119962E+03  0.84374163284E+03  0.17468136692E+04  0.20853240940E+04  0.50400001928E-02 0. -1.
</event>
<event>
 5   0  0.5714125E-09  0.3700340E+04  0.7818609E-02  0.8067886E-01
       -1   -1    0    0    0  501  0.00000000000E+00  0.00000000000E+00  0.14034745112E+04  0.14034745112E+04  0.50400001928E-02 0. -1.
        1   -1    0    0  501    0  0.00000000000E+00  0.00000000000E+00 -0.24390390904E+04  0.24390390904E+04  0.50400001928E-02 0.  1.
    10030    2    1    2    0    0  0.00000000000E+00  0.00000000000E+00 -0.10355645791E+04  0.38425136016E+04  0.37003400899E+04 0.  0.
        2    1    3    3  502    0  0.13817540448E+04 -0.88085365672E+02 -0.17921783327E+04  0.22647089103E+04  0.25500000920E-02 0.  1.
       -2    1    3    3    0  502 -0.13817540448E+04  0.88085365672E+02  0.75661375360E+03  0.15778046914E+04  0.25500000920E-02 0. -1.
</event>
<event>
 5   0  0.5714125E-09  0.3701370E+04  0.7818609E-02  0.8067658E-01
        1   -1    0    0  501    0  0.00000000000E+00  0.00000000000E+00  0.18934518043E+04  0.18934518043E+04  0.50400001928E-02 0. -1.
       -1   -1    0    0    0  501  0.00000000000E+00  0.00000000000E+00 -0.18088839560E+04  0.18088839560E+04  0.50400001928E-02 0.  1.
    10030    2    1    2    0    0  0.00000000000E+00  0.00000000000E+00  0.84567848344E+02  0.37023357604E+04  0.37013697953E+04 0.  0.
        3    1    3    3  502    0 -0.14168684667E+04  0.21898354573E+02  0.12329889718E+04  0.18783656738E+04  0.10100000352E+00 0. -1.
       -3    1    3    3    0  502  0.14168684667E+04 -0.21898354573E+02 -0.11484211234E+04  0.18239700866E+04  0.10100000352E+00 0.  1.
</event>
<event>
 5   0  0.5714125E-09  0.3701052E+04  0.7818609E-02  0.8067729E-01
       -1   -1    0    0    0  501  0.00000000000E+00  0.00000000000E+00  0.20079761169E+04  0.20079761169E+04  0.50400001928E-02 0. -1.
        1   -1    0    0  501    0  0.00000000000E+00  0.00000000000E+00 -0.17054219070E+04  0.17054219070E+04  0.50400001928E-02 0.  1.
    10030    2    1    2    0    0  0.00000000000E+00  0.00000000000E+00  0.30255420996E+03  0.37133980239E+04  0.37010519902E+04 0.  0.
        3    1    3    3  502    0 -0.13864956794E+04 -0.10085260482E+04  0.84998462916E+03  0.19136271682E+04  0.10100000352E+00 0. -1.
       -3    1    3    3    0  502  0.13864956794E+04  0.10085260482E+04 -0.54743041920E+03  0.17997708557E+04  0.10100000352E+00 0.  1.
</event>
<event>
 5   0  0.1825308E-08  0.3698954E+04  0.7818609E-02  0.8068194E-01
        2   -1    0    0  501    0  0.00000000000E+00  0.00000000000E+00  0.16677544495E+04  0.16677544495E+04  0.25500000920E-02 0. -1.
       -2   -1    0    0    0  501  0.00000000000E+00  0.00000000000E+00 -0.20510006816E+04  0.20510006816E+04  0.25500000920E-02 0.  1.
    10030    2    1    2    0    0  0.00000000000E+00  0.00000000000E+00 -0.38324623205E+03  0.37187551311E+04  0.36989541833E+04 0.  0.
        4    1    3    3  502    0  0.74763696330E+02  0.13693768134E+04  0.10558987585E+04  0.17308108702E+04  0.12699999809E+01 0. -1.
       -4    1    3    3    0  502 -0.74763696330E+02 -0.13693768134E+04 -0.14391449905E+04  0.19879442608E+04  0.12699999809E+01 0.  1.
</event>
<event>
 5   0  0.5714125E-09  0.3727176E+04  0.7818609E-02  0.8061966E-01
       -1   -1    0    0    0  501  0.00000000000E+00  0.00000000000E+00  0.15414104409E+04  0.15414104409E+04  0.50400001928E-02 0.  1.
        1   -1    0    0  501    0  0.00000000000E+00  0.00000000000E+00 -0.22531052979E+04  0.22531052979E+04  0.50400001928E-02 0. -1.
    10030    2    1    2    0    0  0.00000000000E+00  0.00000000000E+00 -0.71169485706E+03  0.37945157388E+04  0.37271758910E+04 0.  0.
        5    1    3    3  502    0 -0.24286844300E+03 -0.82330065145E+03 -0.20398577411E+04  0.22131088399E+04  0.46999998093E+01 0. -1.
       -5    1    3    3    0  502  0.24286844300E+03  0.82330065145E+03  0.13281628841E+04  0.15814068989E+04  0.46999998093E+01 0.  1.
</event>
<event>
 5   0  0.5714125E-09  0.3697278E+04  0.7818609E-02  0.8068565E-01
        1   -1    0    0  501    0  0.00000000000E+00  0.00000000000E+00  0.20321547830E+04  0.20321547830E+04  0.50400001928E-02 0.  1.
       -1   -1    0    0    0  501  0.00000000000E+00  0.00000000000E+00 -0.16816961511E+04  0.16816961511E+04  0.50400001928E-02 0. -1.
    10030    2    1    2    0    0  0.00000000000E+00  0.00000000000E+00  0.35045863184E+03  0.37138509341E+04  0.36972783920E+04 0.  0.
        4    1    3    3  502    0 -0.13437524854E+03 -0.18107961688E+04 -0.17335036728E+03  0.18240316431E+04  0.12699999809E+01 0. -1.
       -4    1    3    3    0  502  0.13437524854E+03  0.18107961688E+04  0.52380899913E+03  0.18898192910E+04  0.12699999809E+01 0.  1.
</event>
<event>
 5   0  0.5714125E-09  0.3698376E+04  0.7818609E-02  0.8068322E-01
       -1   -1    0    0    0  501  0.00000000000E+00  0.00000000000E+00  0.14367667152E+04  0.14367667152E+04  0.50400001928E-02 0.  1.
        1   -1    0    0  501    0  0.00000000000E+00  0.00000000000E+00 -0.23799941255E+04  0.23799941255E+04  0.50400001928E-02 0. -1.
    10030    2    1    2    0    0  0.00000000000E+00  0.00000000000E+00 -0.94322741033E+03  0.38167608407E+04  0.36983760446E+04 0.  0.
        2    1    3    3  502    0 -0.15433314274E+04 -0.10084072538E+04 -0.32299260080E+03  0.18716520254E+04  0.25500000920E-02 0.  1.
       -2    1    3    3    0  502  0.15433314274E+04  0.10084072538E+04 -0.62023480953E+03  0.19451088152E+04  0.25500000920E-02 0. -1.
</event>
<event>
 5   0  0.1757996E-08  0.3701280E+04  0.7818609E-02  0.8067678E-01
       -2   -1    0    0    0  501  0.00000000000E+00  0.00000000000E+00  0.27277602287E+04  0.27277602287E+04  0.25500000920E-02 0. -1.
        2   -1    0    0  501    0  0.00000000000E+00  0.00000000000E+00 -0.12555605722E+04  0.12555605722E+04  0.25500000920E-02 0.  1.
    10030    2    1    2    0    0  0.00000000000E+00  0.00000000000E+00  0.14721996564E+04  0.39833208009E+04  0.37012798833E+04 0.  0.
        3    1    3    3  502    0 -0.17852264739E+04  0.36280577578E+03  0.38537291842E+03  0.18620348789E+04  0.10100000352E+00 0.  1.
       -3    1    3    3    0  502  0.17852264739E+04 -0.36280577578E+03  0.10868267380E+04  0.21212859219E+04  0.10100000352E+00 0. -1.
</event>
<event>
 5   0  0.1825308E-08  0.3697764E+04  0.7818609E-02  0.8068458E-01
        2   -1    0    0  501    0  0.00000000000E+00  0.00000000000E+00  0.19640684284E+04  0.19640684284E+04  0.25500000920E-02 0. -1.
       -2   -1    0    0    0  501  0.00000000000E+00  0.00000000000E+00 -0.17404508792E+04  0.17404508792E+04  0.25500000920E-02 0.  1.
    10030    2    1    2    0    0  0.00000000000E+00  0.00000000000E+00  0.22361754917E+03  0.37045193076E+04  0.36977639855E+04 0.  0.
        4    1    3    3  502    0  0.64972219510E+03  0.78311882853E+03 -0.14346916597E+04  0.17589075592E+04  0.12699999809E+01 0.  1.
       -4    1    3    3    0  502 -0.64972219510E+03 -0.78311882853E+03  0.16583092089E+04  0.19456117484E+04  0.12699999809E+01 0. -1.
</event>
<event>
 5   0  0.1725865E-08  0.3700023E+04  0.7818609E-02  0.8067957E-01
        2   -1    0    0  501    0  0.00000000000E+00  0.00000000000E+00  0.14073869571E+04  0.14073869571E+04  0.25500000920E-02 0. -1.
       -2   -1    0    0    0  501  0.00000000000E+00  0.00000000000E+00 -0.24318420306E+04  0.24318420306E+04  0.25500000920E-02 0.  1.
    10030    2    1    2    0    0  0.00000000000E+00  0.00000000000E+00 -0.10244550735E+04  0.38392289877E+04  0.37000231110E+04 0.  0.
        1    1    3    3  502    0 -0.46099207980E+03 -0.11409982340E+03  0.13430615766E+04  0.14245514613E+04  0.50400001928E-02 0. -1.
       -1    1    3    3    0  502  0.46099207980E+03  0.11409982340E+03 -0.23675166502E+04  0.24146775263E+04  0.50400001928E-02 0.  1.
</event>
<event>
 5   0  0.1757996E-08  0.3716578E+04  0.7818609E-02  0.8064298E-01
        2   -1    0    0  501    0  0.00000000000E+00  0.00000000000E+00  0.18743108324E+04  0.18743108324E+04  0.25500000920E-02 0. -1.
       -2   -1    0    0    0  501  0.00000000000E+00  0.00000000000E+00 -0.18424045356E+04  0.18424045356E+04  0.25500000920E-02 0.  1.
    10030    2    1    2    0    0  0.00000000000E+00  0.00000000000E+00  0.31906296810E+02  0.37167153681E+04  0.37165784151E+04 0.  0.
        3    1    3    3  502    0 -0.14047477079E+04 -0.11705933466E+04  0.34707539547E+03  0.18612002167E+04  0.10100000352E+00 0.  1.
       -3    1    3    3    0  502  0.14047477079E+04  0.11705933466E+04 -0.31516909866E+03  0.18555151514E+04  0.10100000352E+00 0. -1.
</event>
<event>
 5   0  0.5714125E-09  0.3698878E+04  0.7818609E-02  0.8068211E-01
        1   -1    0    0  501    0  0.00000000000E+00  0.00000000000E+00  0.23965634005E+04  0.23965634005E+04  0.50400001928E-02 0.  1.
       -1   -1    0    0    0  501  0.00000000000E+00  0.00000000000E+00 -0.14272205206E+04  0.14272205206E+04  0.50400001928E-02 0. -1.
    10030    2    1    2    0    0  0.00000000000E+00  0.00000000000E+00  0.96934287987E+03  0.38237839211E+04  0.36988779186E+04 0.  0.
        5    1    3    3  502    0  0.14584082981E+03 -0.90295592645E+03 -0.11770303187E+04  0.14906446303E+04  0.46999998093E+01 0. -1.
       -5    1    3    3    0  502 -0.14584082981E+03  0.90295592645E+03  0.21463731986E+04  0.23331392908E+04  0.46999998093E+01 0.  1.
</event>
<event>
 5   0  0.5714125E-09  0.3699045E+04  0.7818609E-02  0.8068173E-01
        1   -1    0    0  501    0  0.00000000000E+00  0.00000000000E+00  0.26029895752E+04  0.26029895752E+04  0.50400001928E-02 0.  1.
       -1   -1    0    0    0  501  0.00000000000E+00  0.00000000000E+00 -0.13141557710E+04  0.13141557710E+04  0.50400001928E-02 0. -1.
    10030    2    1    2    0    0  0.00000000000E+00  0.00000000000E+00  0.12888338042E+04  0.39171453462E+04  0.36990451590E+04 0.  0.
        4    1    3    3  502    0  0.15148361555E+04 -0.71147401259E+03 -0.18928108055E+03  0.16842662465E+04  0.12699999809E+01 0. -1.
       -4    1    3    3    0  502 -0.15148361555E+04  0.71147401259E+03  0.14781148848E+04  0.22328790997E+04  0.12699999809E+01 0.  1.
</event>
<event>
 5   0  0.5714125E-09  0.3699679E+04  0.7818609E-02  0.8068033E-01
       -1   -1    0    0    0  501  0.00000000000E+00  0.00000000000E+00  0.24247046318E+04  0.24247046318E+04  0.50400001928E-02 0. -1.
        1   -1    0    0  501    0  0.00000000000E+00  0.00000000000E+00 -0.14112672022E+04  0.14112672022E+04  0.50400001928E-02 0.  1.
    10030    2    1    2    0    0  0.00000000000E+00  0.00000000000E+00  0.10134374296E+04  0.38359718340E+04  0.36996789709E+04 0.  0.
        5    1    3    3  502    0 -0.12270456782E+04 -0.13840806654E+04  0.53133457575E+03  0.19244892585E+04  0.46999998093E+01 0.  1.
       -5    1    3    3    0  502  0.12270456782E+04  0.13840806654E+04  0.48210285386E+03  0.19114825755E+04  0.46999998093E+01 0. -1.
</event>
<event>
 5   0  0.5714125E-09  0.3701063E+04  0.7818609E-02  0.8067726E-01
        1   -1    0    0  501    0  0.00000000000E+00  0.00000000000E+00  0.27390784984E+04  0.27390784984E+04  0.50400001928E-02 0.  1.
       -1   -1    0    0    0  501  0.00000000000E+00  0.00000000000E+00 -0.12502259101E+04  0.12502259101E+04  0.50400001928E-02 0. -1.
    10030    2    1    2    0    0  0.00000000000E+00  0.00000000000E+00  0.14888525883E+04  0.39893044085E+04  0.37010630411E+04 0.  0.
        1    1    3    3  502    0 -0.16056437823E+04 -0.13575856465E+03 -0.23635308014E+03  0.16286144793E+04  0.50400001928E-02 0. -1.
       -1    1    3    3    0  502  0.16056437823E+04  0.13575856465E+03  0.17252056684E+04  0.23606899292E+04  0.50400001928E-02 0.  1.
</event>
<event>
 5   0  0.1825308E-08  0.3700399E+04  0.7818609E-02  0.8067873E-01
       -2   -1    0    0    0  501  0.00000000000E+00  0.00000000000E+00  0.27704486744E+04  0.27704486744E+04  0.25500000920E-02 0.  1.
        2   -1    0    0  501    0  0.00000000000E+00  0.00000000000E+00 -0.12356258207E+04  0.12356258207E+04  0.25500000920E-02 0. -1.
    10030    2    1    2    0    0  0.00000000000E+00  0.00000000000E+00  0.15348228537E+04  0.40060744951E+04  0.37003988525E+04 0.  0.
        4    1    3    3  502    0  0.66836687135E+03 -0.16149694001E+04  0.14245059653E+04  0.22547858648E+04  0.12699999809E+01 0.  1.
       -4    1    3    3    0  502 -0.66836687135E+03  0.16149694001E+04  0.11031688835E+03  0.17512886303E+04  0.12699999809E+01 0. -1.
</event>
<event>
 5   0  0.1725865E-08  0.3698898E+04  0.7818609E-02  0.8068206E-01
       -2   -1    0    0    0  501  0.00000000000E+00  0.00000000000E+00  0.25745743889E+04  0.25745743889E+04  0.25500000920E-02 0. -1.
        2   -1    0    0  501    0  0.00000000000E+00  0.00000000000E+00 -0.13285545104E+04  0.13285545104E+04  0.25500000920E-02 0.  1.
    10030    2    1    2    0    0  0.00000000000E+00  0.00000000000E+00  0.12460198785E+04  0.39031288993E+04  0.36988984397E+04 0.  0.
        1    1    3    3  502    0  0.53549532290E+03 -0.11534588956E+04 -0.79398148940E+03  0.14992095484E+04  0.50400001928E-02 0.  1.
       -1    1    3    3    0  502 -0.53549532290E+03  0.11534588956E+04  0.20400013679E+04  0.24039193509E+04  0.50400001928E-02 0. -1.
</event>
<event>
 5   0  0.1856107E-08  0.3700502E+04  0.7818609E-02  0.8067851E-01
        2   -1    0    0  501    0  0.00000000000E+00  0.00000000000E+00  0.18701470828E+04  0.18701470828E+04  0.25500000920E-02 0. -1.
       -2   -1    0    0    0  501  0.00000000000E+00  0.00000000000E+00 -0.18305669398E+04  0.18305669398E+04  0.25500000920E-02 0.  1.
    10030    2    1    2    0    0  0.00000000000E+00  0.00000000000E+00  0.39580142986E+02  0.37007140226E+04  0.37005023563E+04 0.  0.
        2    1    3    3  502    0  0.29813569128E+03  0.11551332806E+03  0.18423106214E+04  0.18698493643E+04  0.25500000920E-02 0. -1.
       -2    1    3    3    0  502 -0.29813569128E+03 -0.11551332806E+03 -0.18027304784E+04  0.18308646583E+04  0.25500000920E-02 0.  1.
</event>
<event>
 5   0  0.5714125E-09  0.3702546E+04  0.7818609E-02  0.8067398E-01
       -1   -1    0    0    0  501  0.00000000000E+00  0.00000000000E+00  0.21012227695E+04  0.21012227695E+04  0.50400001928E-02 0. -1.
        1   -1    0    0  501    0  0.00000000000E+00  0.00000000000E+00 -0.16310562091E+04  0.16310562091E+04  0.50400001928E-02 0.  1.
    10030    2    1    2    0    0  0.00000000000E+00  0.00000000000E+00  0.47016656039E+03  0.37322789786E+04  0.37025463913E+04 0.  0.
        3    1    3    3  502    0  0.10996788164E+04 -0.89358125580E+03 -0.96588297715E+03  0.17148501088E+04  0.10100000352E+00 0.  1.
       -3    1    3    3    0  502 -0.10996788164E+04  0.89358125580E+03  0.14360495375E+04  0.20174288698E+04  0.10100000352E+00 0. -1.
</event>
<event>
 5   0  0.1757996E-08  0.3699952E+04  0.7818609E-02  0.8067972E-01
       -2   -1    0    0    0  501  0.00000000000E+00  0.00000000000E+00  0.28648018819E+04  0.28648018819E+04  0.25500000920E-02 0.  1.
        2   -1    0    0  501    0  0.00000000000E+00  0.00000000000E+00 -0.11946415321E+04  0.11946415321E+04  0.25500000920E-02 0. -1.
    10030    2    1    2    0    0  0.00000000000E+00  0.00000000000E+00  0.16701603498E+04  0.40594434140E+04  0.36999520588E+04 0.  0.
        3    1    3    3  502    0  0.14479197694E+03  0.18043772646E+04  0.41633061263E+03  0.18574372719E+04  0.10100000352E+00 0. -1.
       -3    1    3    3    0  502 -0.14479197694E+03 -0.18043772646E+04  0.12538297372E+04  0.22020061421E+04  0.10100000352E+00 0.  1.
</event>
<event>
 5   0  0.1740290E-08  0.3703650E+04  0.7818609E-02  0.8067153E-01
        2   -1    0    0  501    0  0.00000000000E+00  0.00000000000E+00  0.28953615029E+04  0.28953615029E+04  0.25500000920E-02 0. -1.
       -2   -1    0    0    0  501  0.00000000000E+00  0.00000000000E+00 -0.11843962599E+04  0.11843962599E+04  0.25500000920E-02 0.  1.
    10030    2    1    2    0    0  0.00000000000E+00  0.00000000000E+00  0.17109652430E+04  0.40797577628E+04  0.37036497324E+04 0.  0.
        5    1    3    3  502    0  0.14725711752E+03  0.22133955757E+03 -0.11632595568E+04  0.11932605520E+04  0.46999998093E+01 0.  1.
       -5    1    3    3    0  502 -0.14725711752E+03 -0.22133955757E+03  0.28742247998E+04  0.28864972109E+04  0.46999998093E+01 0. -1.
</event>
<event>
 5   0  0.1725865E-08  0.3700826E+04  0.7818609E-02  0.8067779E-01
        2   -1    0    0  501    0  0.00000000000E+00  0.00000000000E+00  0.20863621447E+04  0.20863621447E+04  0.25500000920E-02 0.  1.
       -2   -1    0    0    0  501  0.00000000000E+00  0.00000000000E+00 -0.16411478205E+04  0.16411478205E+04  0.25500000920E-02 0. -1.
    10030    2    1    2    0    0  0.00000000000E+00  0.00000000000E+00  0.44521432416E+03  0.37275099652E+04  0.37008262248E+04 0.  0.
        1    1    3    3  502    0 -0.11360434540E+04  0.14192380002E+04  0.57034633217E+03  0.19052889989E+04  0.50400001928E-02 0.  1.
       -1    1    3    3    0  502  0.11360434540E+04 -0.14192380002E+04 -0.12513200801E+03  0.18222209663E+04  0.50400001928E-02 0. -1.
</event>
<event>
 5   0  0.5714125E-09  0.3699766E+04  0.7818609E-02  0.8068014E-01
       -1   -1    0    0    0  501  0.00000000000E+00  0.00000000000E+00  0.32379711702E+04  0.32379711702E+04  0.50400001928E-02 0. -1.
        1   -1    0    0  501    0  0.00000000000E+00  0.00000000000E+00 -0.10568553598E+04  0.10568553598E+04  0.50400001928E-02 0.  1.
    10030    2    1    2    0    0  0.00000000000E+00  0.00000000000E+00  0.21811158105E+04  0.42948265300E+04  0.36997660391E+04 0.  0.
        3    1    3    3  502    0  0.29598416704E+03  0.15072680320E+04  0.22871799872E+04  0.27551144897E+04  0.10100000352E+00 0. -1.
       -3    1    3    3    0  502 -0.29598416704E+03 -0.15072680320E+04 -0.10606417671E+03  0.15397120403E+04  0.10100000352E+00 0.  1.
</event>
<event>
 5   0  0.5714125E-09  0.3699421E+04  0.7818609E-02  0.8068090E-01
        1   -1    0    0  501    0  0.00000000000E+00  0.00000000000E+00  0.11365150986E+04  0.11365150986E+04  0.50400001928E-02 0.  1.
       -1   -1    0    0    0  501  0.00000000000E+00  0.00000000000E+00 -0.30104568324E+04  0.30104568324E+04  0.50400001928E-02 0. -1.
    10030    2    1    2    0    0  0.00000000000E+00  0.00000000000E+00 -0.18739417338E+04  0.41469719310E+04  0.36994213838E+04 0.  0.
        4    1    3    3  502    0  0.12638669275E+04 -0.21907993542E+03  0.55695011263E+03  0.13984100505E+04  0.12699999809E+01 0.  1.
       -4    1    3    3    0  502 -0.12638669275E+04  0.21907993542E+03 -0.24308918465E+04  0.27485618805E+04  0.12699999809E+01 0. -1.
</event>
<event>
 5   0  0.5714125E-09  0.3700142E+04  0.7818609E-02  0.8067930E-01
        1   -1    0    0  501    0  0.00000000000E+00  0.00000000000E+00  0.10752133181E+04  0.10752133181E+04  0.50400001928E-02 0.  1.
       -1   -1    0    0    0  501  0.00000000000E+00  0.00000000000E+00 -0.31833330214E+04  0.31833330214E+04  0.50400001928E-02 0. -1.
    10030    2    1    2    0    0  0.00000000000E+00  0.00000000000E+00 -0.21081197033E+04  0.42585463395E+04  0.37001416517E+04 0.  0.
        3    1    3    3  502    0 -0.43789727905E+03 -0.12845505166E+03 -0.31175397227E+04  0.31507631869E+04  0.10100000352E+00 0. -1.
       -3    1    3    3    0  502  0.43789727905E+03  0.12845505166E+03  0.10094200195E+04  0.11077831526E+04  0.10100000352E+00 0.  1.
</event>
<event>
 5   0  0.1725865E-08  0.3697202E+04  0.7818609E-02  0.8068582E-01
        2   -1    0    0  501    0  0.00000000000E+00  0.00000000000E+00  0.21026065236E+04  0.21026065237E+04  0.25500000920E-02 0.  1.
       -2   -1    0    0    0  501  0.00000000000E+00  0.00000000000E+00 -0.16252805935E+04  0.16252805935E+04  0.25500000920E-02 0. -1.
    10030    2    1    2    0    0  0.00000000000E+00  0.00000000000E+00  0.47732593018E+03  0.37278871171E+04  0.36972019575E+04 0.  0.
        1    1    3    3  502    0 -0.14577097456E+04 -0.29151494219E+03 -0.86928663505E+03  0.17220795329E+04  0.50400001928E-02 0. -1.
       -1    1    3    3    0  502  0.14577097456E+04  0.29151494219E+03  0.13466125652E+04  0.20058075842E+04  0.50400001928E-02 0.  1.
</event>
<event>
 5   0  0.1740290E-08  0.3699416E+04  0.7818609E-02  0.8068091E-01
       -2   -1    0    0    0  501  0.00000000000E+00  0.00000000000E+00  0.13135096178E+04  0.13135096178E+04  0.25500000920E-02 0.  1.
        2   -1    0    0  501    0  0.00000000000E+00  0.00000000000E+00 -0.26047917854E+04  0.26047917854E+04  0.25500000920E-02 0. -1.
    10030    2    1    2    0    0  0.00000000000E+00  0.00000000000E+00 -0.12912821676E+04  0.39183014032E+04  0.36994156633E+04 0.  0.
        5    1    3    3  502    0 -0.12186508120E+04  0.52822746212E+03 -0.20091576390E+04  0.24084996495E+04  0.46999998093E+01 0. -1.
       -5    1    3    3    0  502  0.12186508120E+04 -0.52822746212E+03  0.71787547132E+03  0.15098017538E+04  0.46999998093E+01 0.  1.
</event>
<event>
 5   0  0.1856107E-08  0.3699657E+04  0.7818609E-02  0.8068038E-01
        2   -1    0    0  501    0  0.00000000000E+00  0.00000000000E+00  0.26542869423E+04  0.26542869423E+04  0.25500000920E-02 0.  1.
       -2   -1    0    0    0  501  0.00000000000E+00  0.00000000000E+00 -0.12891842381E+04  0.12891842381E+04  0.25500000920E-02 0. -1.
    10030    2    1    2    0    0  0.00000000000E+00  0.00000000000E+00  0.13651027042E+04  0.39434711803E+04  0.36996566810E+04 0.  0.
        2    1    3    3  502    0 -0.11369315896E+04  0.13588699580E+04  0.11579225679E+03  0.17755418466E+04  0.25500000920E-02 0.  1.
       -2    1    3    3    0  502  0.11369315896E+04 -0.13588699580E+04  0.12493104474E+04  0.21679293338E+04  0.25500000920E-02 0. -1.
</event>
<event>
 5   0  0.1757996E-08  0.3698825E+04  0.7818609E-02  0.8068222E-01
       -2   -1    0    0    0  501  0.00000000000E+00  0.00000000000E+00  0.13596323206E+04  0.13596323206E+04  0.25500000920E-02 0. -1.
        2   -1    0    0  501    0  0.00000000000E+00  0.00000000000E+00 -0.25156255936E+04  0.25156255936E+04  0.25500000920E-02 0.  1.
    10030    2    1    2    0    0  0.00000000000E+00  0.00000000000E+00 -0.11559932730E+04  0.38752579142E+04  0.36988246045E+04 0.  0.
        3    1    3    3  502    0  0.10288459718E+04 -0.41730427476E+02 -0.21875242505E+04  0.24177526381E+04  0.10100000352E+00 0.  1.
       -3    1    3    3    0  502 -0.10288459718E+04  0.41730427476E+02  0.10315309775E+04  0.14575052762E+04  0.10100000352E+00 0. -1.
</event>
<event>
 5   0  0.1856107E-08  0.3699777E+04  0.7818609E-02  0.8068011E-01
       -2   -1    0    0    0  501  0.00000000000E+00  0.00000000000E+00  0.16049072147E+04  0.16049072147E+04  0.25500000920E-02 0. -1.
        2   -1    0    0  501    0  0.00000000000E+00  0.00000000000E+00 -0.21322652009E+04  0.21322652009E+04  0.25500000920E-02 0.  1.
    10030    2    1    2    0    0  0.00000000000E+00  0.00000000000E+00 -0.52735798624E+03  0.37371724156E+04  0.36997771850E+04 0.  0.
        2    1    3    3  502    0  0.12776062770E+04  0.13032306261E+04  0.41700958593E+02  0.18254935863E+04  0.25500000920E-02 0. -1.
       -2    1    3    3    0  502 -0.12776062770E+04 -0.13032306261E+04 -0.56905894484E+03  0.19116788293E+04  0.25500000920E-02 0.  1.
</event>
<event>
 5   0  0.1757996E-08  0.3701061E+04  0.7818609E-02  0.8067727E-01
        2   -1    0    0  501    0  0.00000000000E+00  0.00000000000E+00  0.15304147875E+04  0.15304147875E+04  0.25500000920E-02 0. -1.
       -2   -1    0    0    0  501  0.00000000000E+00  0.00000000000E+00 -0.22376039767E+04  0.22376039767E+04  0.25500000920E-02 0.  1.
    10030    2    1    2    0    0  0.00000000000E+00  0.00000000000E+00 -0.70718918926E+03  0.37680187642E+04  0.37010605045E+04 0.  0.
        3    1    3    3  502    0  0.13795838279E+04 -0.21700446901E+03  0.88250439330E+03  0.16520158874E+04  0.10100000352E+00 0. -1.
       -3    1    3    3    0  502 -0.13795838279E+04  0.21700446901E+03 -0.15896935826E+04  0.21160028768E+04  0.10100000352E+00 0.  1.
</event>
<event>
 5   0  0.1757996E-08  0.3697662E+04  0.7818609E-02  0.8068480E-01
       -2   -1    0    0    0  501  0.00000000000E+00  0.00000000000E+00  0.14440519774E+04  0.14440519774E+04  0.25500000920E-02 0.  1.
        2   -1    0    0  501    0  0.00000000000E+00  0.00000000000E+00 -0.23670729198E+04  0.23670729198E+04  0.25500000920E-02 0. -1.
    10030    2    1    2    0    0  0.00000000000E+00  0.00000000000E+00 -0.92302094233E+03  0.38111248972E+04  0.36976621428E+04 0.  0.
        3    1    3    3  502    0 -0.66169049787E+03  0.79807696543E+02  0.13159274690E+04  0.14750826069E+04  0.10100000352E+00 0.  1.
       -3    1    3    3    0  502  0.66169049787E+03 -0.79807696543E+02 -0.22389484113E+04  0.23360422903E+04  0.10100000352E+00 0. -1.
</event>
<event>
 5   0  0.1825308E-08  0.3698736E+04  0.7818609E-02  0.8068242E-01
       -2   -1    0    0    0  501  0.00000000000E+00  0.00000000000E+00  0.17881436446E+04  0.17881436446E+04  0.25500000920E-02 0.  1.
        2   -1    0    0  501    0  0.00000000000E+00  0.00000000000E+00 -0.19126887819E+04  0.19126887819E+04  0.25500000920E-02 0. -1.
    10030    2    1    2    0    0  0.00000000000E+00  0.00000000000E+00 -0.12454513734E+03  0.37008324264E+04  0.36987361568E+04 0.  0.
        4    1    3    3  502    0  0.12773182997E+04  0.10622231494E+04 -0.87532194314E+03  0.18777779887E+04  0.12699999809E+01 0. -1.
       -4    1    3    3    0  502 -0.12773182997E+04 -0.10622231494E+04  0.75077680580E+03  0.18230544377E+04  0.12699999809E+01 0.  1.
</event>
<event>
 5   0  0.5714125E-09  0.3696940E+04  0.7818609E-02  0.8068640E-01
       -1   -1    0    0    0  501  0.00000000000E+00  0.00000000000E+00  0.15026488359E+04  0.15026488359E+04  0.50400001928E-02 0. -1.
        1   -1    0    0  501    0  0.00000000000E+00  0.00000000000E+00 -0.22738792096E+04  0.22738792096E+04  0.50400001928E-02 0.  1.
    10030    2    1    2    0    0  0.00000000000E+00  0.00000000000E+00 -0.77123037367E+03  0.37765280455E+04  0.36969403281E+04 0.  0.
        5    1    3    3  502    0 -0.10618556645E+04  0.56681204153E+03 -0.18186724328E+04  0.21809183502E+04  0.46999998093E+01 0.  1.
       -5    1    3    3    0  502  0.10618556645E+04 -0.56681204153E+03  0.10474420591E+04  0.15956096953E+04  0.46999998093E+01 0. -1.
</event>
<event>
 5   0  0.5714125E-09  0.3700634E+04  0.7818609E-02  0.8067821E-01
       -1   -1    0    0    0  501  0.00000000000E+00  0.00000000000E+00  0.19177349145E+04  0.19177349145E+04  0.50400001928E-02 0.  1.
        1   -1    0    0  501    0  0.00000000000E+00  0.00000000000E+00 -0.17852688814E+04  0.17852688814E+04  0.50400001928E-02 0. -1.
    10030    2    1    2    0    0  0.00000000000E+00  0.00000000000E+00  0.13246603316E+03  0.37030037959E+04  0.37006337109E+04 0.  0.
        2    1    3    3  502    0 -0.59952226942E+03 -0.16708189589E+04  0.58868762716E+03  0.18701914520E+04  0.25500000920E-02 0. -1.
       -2    1    3    3    0  502  0.59952226942E+03  0.16708189589E+04 -0.45622159399E+03  0.18328123438E+04  0.25500000920E-02 0.  1.
</event>
<event>
 5   0  0.5714125E-09  0.3701137E+04  0.7818609E-02  0.8067710E-01
        1   -1    0    0  501    0  0.00000000000E+00  0.00000000000E+00  0.26367821245E+04  0.26367821245E+04  0.50400001928E-02 0. -1.
       -1   -1    0    0    0  501  0.00000000000E+00  0.00000000000E+00 -0.12987815789E+04  0.12987815790E+04  0.50400001928E-02 0.  1.
    10030    2    1    2    0    0  0.00000000000E+00  0.00000000000E+00  0.13380005455E+04  0.39355637034E+04  0.37011371501E+04 0.  0.
        2    1    3    3  502    0  0.77476460664E+03  0.72960959221E+02  0.24543400824E+04  0.25747560540E+04  0.25500000920E-02 0. -1.
       -2    1    3    3    0  502 -0.77476460664E+03 -0.72960959221E+02 -0.11163395369E+04  0.13608076495E+04  0.25500000920E-02 0.  1.
</event>
<event>
 5   0  0.5714125E-09  0.3701406E+04  0.7818609E-02  0.8067650E-01
       -1   -1    0    0    0  501  0.00000000000E+00  0.00000000000E+00  0.13272752020E+04  0.13272752020E+04  0.50400001928E-02 0. -1.
        1   -1    0    0  501    0  0.00000000000E+00  0.00000000000E+00 -0.25805517256E+04  0.25805517256E+04  0.50400001928E-02 0.  1.
    10030    2    1    2    0    0  0.00000000000E+00  0.00000000000E+00 -0.12532765236E+04  0.39078269275E+04  0.37014063883E+04 0.  0.
        3    1    3    3  502    0 -0.47596699439E+01  0.18171220671E+04 -0.25614480533E+03  0.18350927586E+04  0.10100000352E+00 0. -1.
       -3    1    3    3    0  502  0.47596699439E+01 -0.18171220671E+04 -0.99713171826E+03  0.20727341689E+04  0.10100000352E+00 0.  1.
</event>
<event>
 5   0  0.1725865E-08  0.3701080E+04  0.7818609E-02  0.8067722E-01
        2   -1    0    0  501    0  0.00000000000E+00  0.00000000000E+00  0.12169665440E+04  0.12169665440E+04  0.25500000920E-02 0.  1.
       -2   -1    0    0    0  501  0.00000000000E+00  0.00000000000E+00 -0.28139629919E+04  0.28139629919E+04  0.25500000920E-02 0. -1.
    10030    2    1    2    0    0  0.00000000000E+00  0.00000000000E+00 -0.15969964479E+04  0.40309295359E+04  0.37010802841E+04 0.  0.
        1    1    3    3  502    0  0.11372962408E+04  0.97964392692E+03  0.38024919809E+03  0.15484619516E+04  0.50400001928E-02 0.  1.
       -1    1    3    3    0  502 -0.11372962408E+04 -0.97964392692E+03 -0.19772456460E+04  0.24824675844E+04  0.50400001928E-02 0. -1.
</event>
<event>
 5   0  0.5714125E-09  0.3701352E+04  0.7818609E-02  0.8067662E-01
       -1   -1    0    0    0  501  0.00000000000E+00  0.00000000000E+00  0.23913128614E+04  0.23913128615E+04  0.50400001928E-02 0. -1.
        1   -1    0    0  501    0  0.00000000000E+00  0.00000000000E+00 -0.14322684800E+04  0.14322684801E+04  0.50400001928E-02 0.  1.
    10030    2    1    2    0    0  0.00000000000E+00  0.00000000000E+00  0.95904438140E+03  0.38235813415E+04  0.37013522056E+04 0.  0.
        3    1    3    3  502    0 -0.51705030113E+02  0.10741462628E+04  0.20354268834E+04  0.23020482644E+04  0.10100000352E+00 0. -1.
       -3    1    3    3    0  502  0.51705030113E+02 -0.10741462628E+04 -0.10763825020E+04  0.15215330771E+04  0.10100000352E+00 0.  1.
</event>
<event>
 5   0  0.1757996E-08  0.3680734E+04  0.7818609E-02  0.8072245E-01
       -2   -1    0    0    0  501  0.00000000000E+00  0.00000000000E+00  0.19161627948E+04  0.19161627948E+04  0.25500000920E-02 0.  1.
        2   -1    0    0  501    0  0.00000000000E+00  0.00000000000E+00 -0.17675693465E+04  0.17675693465E+04  0.25500000920E-02 0. -1.
    10030    2    1    2    0    0  0.00000000000E+00  0.00000000000E+00  0.14859344834E+03  0.36837321413E+04  0.36807339589E+04 0.  0.
        3    1    3    3  502    0  0.81906517716E+03  0.95129395122E+03 -0.12725790698E+04  0.17875361381E+04  0.10100000352E+00 0. -1.
       -3    1    3    3    0  502 -0.81906517716E+03 -0.95129395122E+03  0.14211725181E+04  0.18961960032E+04  0.10100000352E+00 0.  1.
</event>
<event>
 5   0  0.5714125E-09  0.3698832E+04  0.7818609E-02  0.8068221E-01
       -1   -1    0    0    0  501  0.00000000000E+00  0.00000000000E+00  0.16440510796E+04  0.16440510796E+04  0.50400001928E-02 0. -1.
        1   -1    0    0  501    0  0.00000000000E+00  0.00000000000E+00 -0.20804334604E+04  0.20804334604E+04  0.50400001928E-02 0.  1.
    10030    2    1    2    0    0  0.00000000000E+00  0.00000000000E+00 -0.43638238085E+03  0.37244845400E+04  0.36988316407E+04 0.  0.
        1    1    3    3  502    0  0.15507849419E+04  0.37076109772E+03  0.72529232004E+03  0.17516982266E+04  0.50400001928E-02 0. -1.
       -1    1    3    3    0  502 -0.15507849419E+04 -0.37076109772E+03 -0.11616747009E+04  0.19727863134E+04  0.50400001928E-02 0.  1.
</event>
<event>
 5   0  0.1825308E-08  0.3699823E+04  0.7818609E-02  0.8068001E-01
       -2   -1    0    0    0  501  0.00000000000E+00  0.00000000000E+00  0.16078249052E+04  0.16078249052E+04  0.25500000920E-02 0.  1.
        2   -1    0    0  501    0  0.00000000000E+00  0.00000000000E+00 -0.21284483401E+04  0.21284483401E+04  0.25500000920E-02 0. -1.
    10030    2    1    2    0    0  0.00000000000E+00  0.00000000000E+00 -0.52062343487E+03  0.37362732453E+04  0.36998228339E+04 0.  0.
        4    1    3    3  502    0 -0.25779528489E+03  0.10954264070E+04 -0.17430251531E+04  0.20747423260E+04  0.12699999809E+01 0. -1.
       -4    1    3    3    0  502  0.25779528489E+03 -0.10954264070E+04  0.12224017182E+04  0.16615309193E+04  0.12699999809E+01 0.  1.
</event>
<event>
 5   0  0.1825308E-08  0.3699490E+04  0.7818609E-02  0.8068075E-01
       -2   -1    0    0    0  501  0.00000000000E+00  0.00000000000E+00  0.13883600671E+04  0.13883600671E+04  0.25500000920E-02 0. -1.
        2   -1    0    0  501    0  0.00000000000E+00  0.00000000000E+00 -0.24644596384E+04  0.24644596384E+04  0.25500000920E-02 0.  1.
    10030    2    1    2    0    0  0.00000000000E+00  0.00000000000E+00 -0.10760995713E+04  0.38528197054E+04  0.36994904237E+04 0.  0.
        4    1    3    3  502    0  0.79554788562E+03 -0.44994676194E+03 -0.22128709409E+04  0.23941904563E+04  0.12699999809E+01 0.  1.
       -4    1    3    3    0  502 -0.79554788562E+03  0.44994676194E+03  0.11367713696E+04  0.14586292492E+04  0.12699999809E+01 0. -1.
</event>
<event>
 5   0  0.5714125E-09  0.3701125E+04  0.7818609E-02  0.8067712E-01
       -1   -1    0    0    0  501  0.00000000000E+00  0.00000000000E+00  0.13888816321E+04  0.13888816321E+04  0.50400001928E-02 0. -1.
        1   -1    0    0  501    0  0.00000000000E+00  0.00000000000E+00 -0.24657121172E+04  0.24657121172E+04  0.50400001928E-02 0.  1.
    10030    2    1    2    0    0  0.00000000000E+00  0.00000000000E+00 -0.10768304851E+04  0.38545937494E+04  0.37011253801E+04 0.  0.
        5    1    3    3  502    0  0.40464574840E+03  0.16138636556E+04 -0.13821089314E+04  0.21629935896E+04  0.46999998093E+01 0.  1.
       -5    1    3    3    0  502 -0.40464574840E+03 -0.16138636556E+04  0.30527844626E+03  0.16916001597E+04  0.46999998093E+01 0. -1.
</event>
<event>
 5   0  0.5714125E-09  0.3700489E+04  0.7818609E-02  0.8067854E-01
       -1   -1    0    0    0  501  0.00000000000E+00  0.00000000000E+00  0.24797861597E+04  0.24797861597E+04  0.50400001928E-02 0.  1.
        1   -1    0    0  501    0  0.00000000000E+00  0.00000000000E+00 -0.13805238609E+04  0.13805238609E+04  0.50400001928E-02 0. -1.
    10030    2    1    2    0    0  0.00000000000E+00  0.00000000000E+00  0.10992622988E+04  0.38603100206E+04  0.37004885966E+04 0.  0.
        3    1    3    3  502    0 -0.68397307727E+03 -0.12841110213E+04  0.17420853231E+04  0.22697183897E+04  0.10100000352E+00 0.  1.
       -3    1    3    3    0  502  0.68397307727E+03  0.12841110213E+04 -0.64282302431E+03  0.15905916309E+04  0.10100000352E+00 0. -1.
</event>
<event>
 5   0  0.5714125E-09  0.3699858E+04  0.7818609E-02  0.8067993E-01
        1   -1    0    0  501    0  0.00000000000E+00  0.00000000000E+00  0.19875779546E+04  0.19875779546E+04  0.50400001928E-02 0. -1.
       -1   -1    0    0    0  501  0.00000000000E+00  0.00000000000E+00 -0.17218125929E+04  0.17218125929E+04  0.50400001928E-02 0.  1.
    10030    2    1    2    0    0  0.00000000000E+00  0.00000000000E+00  0.26576536170E+03  0.37093905476E+04  0.36998577009E+04 0.  0.
        2    1    3    3  502    0  0.75593386014E+03  0.16391226716E+04 -0.27322594264E+03  0.18255989563E+04  0.25500000920E-02 0.  1.
       -2    1    3    3    0  502 -0.75593386014E+03 -0.16391226716E+04  0.53899130434E+03  0.18837915913E+04  0.25500000920E-02 0. -1.
</event>
<event>
 5   0  0.1825308E-08  0.3702149E+04  0.7818609E-02  0.8067486E-01
        2   -1    0    0  501    0  0.00000000000E+00  0.00000000000E+00  0.23308564510E+04  0.23308564510E+04  0.25500000920E-02 0.  1.
       -2   -1    0    0    0  501  0.00000000000E+00  0.00000000000E+00 -0.14700505987E+04  0.14700505987E+04  0.25500000920E-02 0. -1.
    10030    2    1    2    0    0  0.00000000000E+00  0.00000000000E+00  0.86080585233E+03  0.38009070497E+04  0.37021490631E+04 0.  0.
        4    1    3    3  502    0 -0.12628283990E+03  0.10517178533E+04  0.19889284937E+04  0.22534187281E+04  0.12699999809E+01 0.  1.
       -4    1    3    3    0  502  0.12628283990E+03 -0.10517178533E+04 -0.11281226413E+04  0.15474883216E+04  0.12699999809E+01 0. -1.
</event>
<event>
 5   0  0.5714125E-09  0.3699915E+04  0.7818609E-02  0.8067981E-01
        1   -1    0    0  501    0  0.00000000000E+00  0.00000000000E+00  0.14382533888E+04  0.14382533888E+04  0.50400001928E-02 0.  1.
       -1   -1    0    0    0  501  0.00000000000E+00  0.00000000000E+00 -0.23795124832E+04  0.23795124832E+04  0.50400001928E-02 0. -1.
    10030    2    1    2    0    0  0.00000000000E+00  0.00000000000E+00 -0.94125909442E+03  0.38177658721E+04  0.36999145356E+04 0.  0.
        3    1    3    3  502    0 -0.92424744680E+03 -0.14360356154E+04  0.26329994309E+03  0.17279347505E+04  0.10100000352E+00 0.  1.
       -3    1    3    3    0  502  0.92424744680E+03  0.14360356154E+04 -0.12045590375E+04  0.20898311216E+04  0.10100000352E+00 0. -1.
</event>
<event>
 5   0  0.1856107E-08  0.3682192E+04  0.7818609E-02  0.8071920E-01
       -2   -1    0    0    0  501  0.00000000000E+00  0.00000000000E+00  0.20325156544E+04  0.20325156544E+04  0.25500000920E-02 0. -1.
        2   -1    0    0  501    0  0.00000000000E+00  0.00000000000E+00 -0.16677041252E+04  0.16677041252E+04  0.25500000920E-02 0.  1.
    10030    2    1    2    0    0  0.00000000000E+00  0.00000000000E+00  0.36481152927E+03  0.37002197796E+04  0.36821921413E+04 0.  0.
        2    1    3    3  502    0 -0.14766890285E+04  0.97460566307E+03  0.69398370503E+03  0.19005473075E+04  0.25500000920E-02 0. -1.
       -2    1    3    3    0  502  0.14766890285E+04 -0.97460566307E+03 -0.32917217576E+03  0.17996724720E+04  0.25500000920E-02 0.  1.
</event>
<event>
 5   0  0.1825308E-08  0.3700045E+04  0.7818609E-02  0.8067952E-01
       -2   -1    0    0    0  501  0.00000000000E+00  0.00000000000E+00  0.15227836336E+04  0.15227836336E+04  0.25500000920E-02 0. -1.
        2   -1    0    0  501    0  0.00000000000E+00  0.00000000000E+00 -0.22475836229E+04  0.22475836229E+04  0.25500000920E-02 0.  1.
    10030    2    1    2    0    0  0.00000000000E+00  0.00000000000E+00 -0.72479998927E+03  0.37703672564E+04  0.37000451651E+04 0.  0.
        4    1    3    3  502    0 -0.12225870516E+03  0.90256733023E+03 -0.20032862286E+04  0.22006208904E+04  0.12699999809E+01 0.  1.
       -4    1    3    3    0  502  0.12225870516E+03 -0.90256733023E+03  0.12784862393E+04  0.15697463660E+04  0.12699999809E+01 0. -1.
</event>
<event>
 5   0  0.5714125E-09  0.3698632E+04  0.7818609E-02  0.8068265E-01
       -1   -1    0    0    0  501  0.00000000000E+00  0.00000000000E+00  0.11458450363E+04  0.11458450364E+04  0.50400001928E-02 0. -1.
        1   -1    0    0  501    0  0.00000000000E+00  0.00000000000E+00 -0.29846702306E+04  0.29846702306E+04  0.50400001928E-02 0.  1.
    10030    2    1    2    0    0  0.00000000000E+00  0.00000000000E+00 -0.18388251943E+04  0.41305152670E+04  0.36986319465E+04 0.  0.
        5    1    3    3  502    0  0.36449351998E+03  0.17440306378E+04 -0.14726911374E+04  0.23115664966E+04  0.46999998093E+01 0.  1.
       -5    1    3    3    0  502 -0.36449351998E+03 -0.17440306378E+04 -0.36613405682E+03  0.18189487704E+04  0.46999998093E+01 0. -1.
</event>
<event>
 5   0  0.5714125E-09  0.3700467E+04  0.7818609E-02  0.8067858E-01
        1   -1    0    0  501    0  0.00000000000E+00  0.00000000000E+00  0.28443577510E+04  0.28443577510E+04  0.50400001928E-02 0. -1.
       -1   -1    0    0    0  501  0.00000000000E+00  0.00000000000E+00 -0.12035627702E+04  0.12035627702E+04  0.50400001928E-02 0.  1.
    10030    2    1    2    0    0  0.00000000000E+00  0.00000000000E+00  0.16407949807E+04  0.40479205212E+04  0.37004665081E+04 0.  0.
        2    1    3    3  502    0 -0.16536768671E+04  0.62063383145E+03  0.14230625255E+04  0.22682461253E+04  0.25500000920E-02 0. -1.
       -2    1    3    3    0  502  0.16536768671E+04 -0.62063383145E+03  0.21773245519E+03  0.17796743959E+04  0.25500000920E-02 0.  1.
</event>
<event>
 5   0  0.1856107E-08  0.3713923E+04  0.7818609E-02  0.8064883E-01
       -2   -1    0    0    0  501  0.00000000000E+00  0.00000000000E+00  0.22813687933E+04  0.22813687933E+04  0.25500000920E-02 0.  1.
        2   -1    0    0  501    0  0.00000000000E+00  0.00000000000E+00 -0.15115073822E+04  0.15115073822E+04  0.25500000920E-02 0. -1.
    10030    2    1    2    0    0  0.00000000000E+00  0.00000000000E+00  0.76986141111E+03  0.37928761755E+04  0.37139228708E+04 0.  0.
        2    1    3    3  502    0 -0.10271126534E+04 -0.32727784042E+03 -0.11592430947E+04  0.15830084460E+04  0.25500000920E-02 0. -1.
       -2    1    3    3    0  502  0.10271126534E+04  0.32727784042E+03  0.19291045058E+04  0.22098677295E+04  0.25500000920E-02 0.  1.
</event>
<event>
 5   0  0.1757996E-08  0.3700182E+04  0.7818609E-02  0.8067921E-01
        2   -1    0    0  501    0  0.00000000000E+00  0.00000000000E+00  0.18509501577E+04  0.18509501577E+04  0.25500000920E-02 0.  1.
       -2   -1    0    0    0  501  0.00000000000E+00  0.00000000000E+00 -0.18492326318E+04  0.18492326318E+04  0.25500000920E-02 0. -1.
    10030    2    1    2    0    0  0.00000000000E+00  0.00000000000E+00  0.17175258624E+01  0.37001827895E+04  0.37001823909E+04 0.  0.
        3    1    3    3  502    0 -0.11202802410E+04  0.53426078117E+03  0.13728556384E+04  0.18507282390E+04  0.10100000352E+00 0.  1.
       -3    1    3    3    0  502  0.11202802410E+04 -0.53426078117E+03 -0.13711381125E+04  0.18494545505E+04  0.10100000352E+00 0. -1.
</event>
<event>
 5   0  0.1740290E-08  0.3699900E+04  0.7818609E-02  0.8067984E-01
       -2   -1    0    0    0  501  0.00000000000E+00  0.00000000000E+00  0.17978198352E+04  0.17978198353E+04  0.25500000920E-02 0.  1.
        2   -1    0    0  501    0  0.00000000000E+00  0.00000000000E+00 -0.19035921688E+04  0.19035921688E+04  0.25500000920E-02 0. -1.
    10030    2    1    2    0    0  0.00000000000E+00  0.00000000000E+00 -0.10577233355E+03  0.37014120041E+04  0.36999004091E+04 0.  0.
        5    1    3    3  502    0  0.83399271914E+03 -0.60835273676E+03 -0.15886539812E+04  0.18945924284E+04  0.46999998093E+01 0. -1.
       -5    1    3    3    0  502 -0.83399271914E+03  0.60835273676E+03  0.14828816476E+04  0.18068195756E+04  0.46999998093E+01 0.  1.
</event>
<event>
 5   0  0.5714125E-09  0.3700182E+04  0.7818609E-02  0.8067921E-01
       -1   -1    0    0    0  501  0.00000000000E+00  0.00000000000E+00  0.33724629515E+04  0.33724629515E+04  0.50400001928E-02 0.  1.
        1   -1    0    0  501    0  0.00000000000E+00  0.00000000000E+00 -0.10149369020E+04  0.10149369020E+04  0.50400001928E-02 0. -1.
    10030    2    1    2    0    0  0.00000000000E+00  0.00000000000E+00  0.23575260495E+04  0.43873998536E+04  0.37001822119E+04 0.  0.
        2    1    3    3  502    0  0.13955200868E+04 -0.17875203814E+03  0.26033164265E+04  0.29591696504E+04  0.25500000920E-02 0.  1.
       -2    1    3    3    0  502 -0.13955200868E+04  0.17875203814E+03 -0.24579037698E+03  0.14282302031E+04  0.25500000920E-02 0. -1.
</event>
<event>
 5   0  0.1856107E-08  0.3700960E+04  0.7818609E-02  0.8067749E-01
       -2   -1    0    0    0  501  0.00000000000E+00  0.00000000000E+00  0.19875906221E+04  0.19875906221E+04  0.25500000920E-02 0. -1.
        2   -1    0    0  501    0  0.00000000000E+00  0.00000000000E+00 -0.17228274573E+04  0.17228274573E+04  0.25500000920E-02 0.  1.
    10030    2    1    2    0    0  0.00000000000E+00  0.00000000000E+00  0.26476316472E+03  0.37104180794E+04  0.37009597121E+04 0.  0.
        2    1    3    3  502    0  0.15081572394E+04  0.58359177355E+02 -0.94102345924E+03  0.17786144054E+04  0.25500000920E-02 0.  1.
       -2    1    3    3    0  502 -0.15081572394E+04 -0.58359177355E+02  0.12057866240E+04  0.19318036740E+04  0.25500000920E-02 0. -1.
</event>
<event>
 5   0  0.5714125E-09  0.3699875E+04  0.7818609E-02  0.8067990E-01
        1   -1    0    0  501    0  0.00000000000E+00  0.00000000000E+00  0.19694410309E+04  0.19694410309E+04  0.50400001928E-02 0. -1.
       -1   -1    0    0    0  501  0.00000000000E+00  0.00000000000E+00 -0.17376852169E+04  0.17376852169E+04  0.50400001928E-02 0.  1.
    10030    2    1    2    0    0  0.00000000000E+00  0.00000000000E+00  0.23175581403E+03  0.37071262478E+04  0.36998748979E+04 0.  0.
        2    1    3    3  502    0 -0.10337822778E+04 -0.56508723799E+03 -0.13131849911E+04  0.17642234001E+04  0.25500000920E-02 0.  1.
       -2    1    3    3    0  502  0.10337822778E+04  0.56508723799E+03  0.15449408051E+04  0.19429028478E+04  0.25500000920E-02 0. -1.
</event>
<event>
 5   0  0.1740290E-08  0.3701070E+04  0.7818609E-02  0.8067725E-01
        2   -1    0    0  501    0  0.00000000000E+00  0.00000000000E+00  0.28306735726E+04  0.28306735726E+04  0.25500000920E-02 0.  1.
       -2   -1    0    0    0  501  0.00000000000E+00  0.00000000000E+00 -0.12097753642E+04  0.12097753642E+04  0.25500000920E-02 0. -1.
    10030    2    1    2    0    0  0.00000000000E+00  0.00000000000E+00  0.16208982084E+04  0.40404489368E+04  0.37010696574E+04 0.  0.
        5    1    3    3  502    0 -0.98321931813E+02  0.21664340997E+03 -0.11930035697E+04  0.12165036690E+04  0.46999998093E+01 0. -1.
       -5    1    3    3    0  502  0.98321931813E+02 -0.21664340997E+03  0.28139017780E+04  0.28239452679E+04  0.46999998093E+01 0.  1.
</event>
<event>
 5   0  0.5714125E-09  0.3696534E+04  0.7818609E-02  0.8068730E-01
        1   -1    0    0  501    0  0.00000000000E+00  0.00000000000E+00  0.19703184008E+04  0.19703184008E+04  0.50400001928E-02 0. -1.
       -1   -1    0    0    0  501  0.00000000000E+00  0.00000000000E+00 -0.17337757486E+04  0.17337757486E+04  0.50400001928E-02 0.  1.
    10030    2    1    2    0    0  0.00000000000E+00  0.00000000000E+00  0.23654265223E+03  0.37040941495E+04  0.36965336522E+04 0.  0.
        1    1    3    3  502    0  0.48974652600E+03 -0.17383839254E+04 -0.27529135963E+03  0.18269142466E+04  0.50400001928E-02 0. -1.
       -1    1    3    3    0  502 -0.48974652600E+03  0.17383839254E+04  0.51183401186E+03  0.18771799028E+04  0.50400001928E-02 0.  1.
</event>
<event>
 5   0  0.5714125E-09  0.3700752E+04  0.7818609E-02  0.8067795E-01
        1   -1    0    0  501    0  0.00000000000E+00  0.00000000000E+00  0.16909239950E+04  0.16909239951E+04  0.50400001928E-02 0.  1.
       -1   -1    0    0    0  501  0.00000000000E+00  0.00000000000E+00 -0.20248646611E+04  0.20248646611E+04  0.50400001928E-02 0. -1.
    10030    2    1    2    0    0  0.00000000000E+00  0.00000000000E+00 -0.33394066604E+03  0.37157886561E+04  0.37007524868E+04 0.  0.
        2    1    3    3  502    0  0.16291836934E+04 -0.87341664862E+03 -0.24974370145E+03  0.18653332317E+04  0.25500000920E-02 0. -1.
       -2    1    3    3    0  502 -0.16291836934E+04  0.87341664862E+03 -0.84196964585E+02  0.18504554244E+04  0.25500000920E-02 0.  1.
</event>
<event>
 5   0  0.5714125E-09  0.3699141E+04  0.7818609E-02  0.8068152E-01
       -1   -1    0    0    0  501  0.00000000000E+00  0.00000000000E+00  0.23240342416E+04  0.23240342416E+04  0.50400001928E-02 0. -1.
        1   -1    0    0  501    0  0.00000000000E+00  0.00000000000E+00 -0.14719712002E+04  0.14719712002E+04  0.50400001928E-02 0.  1.
    10030    2    1    2    0    0  0.00000000000E+00  0.00000000000E+00  0.85206304136E+03  0.37960054418E+04  0.36991412365E+04 0.  0.
        1    1    3    3  502    0  0.17164475308E+04  0.46810120563E+03 -0.92776705524E+02  0.17815494328E+04  0.50400001928E-02 0.  1.
       -1    1    3    3    0  502 -0.17164475308E+04 -0.46810120563E+03  0.94483974689E+03  0.20144560089E+04  0.50400001928E-02 0. -1.
</event>
<event>
 5   0  0.1740290E-08  0.3697861E+04  0.7818609E-02  0.8068436E-01
       -2   -1    0    0    0  501  0.00000000000E+00  0.00000000000E+00  0.12560972611E+04  0.12560972611E+04  0.25500000920E-02 0. -1.
        2   -1    0    0  501    0  0.00000000000E+00  0.00000000000E+00 -0.27215592156E+04  0.27215592156E+04  0.25500000920E-02 0.  1.
    10030    2    1    2    0    0  0.00000000000E+00  0.00000000000E+00 -0.14654619544E+04  0.39776564767E+04  0.36978605039E+04 0.  0.
        5    1    3    3  502    0  0.13242993869E+04 -0.39904136302E+03 -0.20525662826E+04  0.24750865257E+04  0.46999998093E+01 0.  1.
       -5    1    3    3    0  502 -0.13242993869E+04  0.39904136302E+03  0.58710432811E+03  0.15025699510E+04  0.46999998093E+01 0. -1.
</event>
<event>
 5   0  0.5714125E-09  0.3701728E+04  0.7818609E-02  0.8067579E-01
        1   -1    0    0  501    0  0.00000000000E+00  0.00000000000E+00  0.18596377222E+04  0.18596377222E+04  0.50400001928E-02 0.  1.
       -1   -1    0    0    0  501  0.00000000000E+00  0.00000000000E+00 -0.18421313896E+04  0.18421313896E+04  0.50400001928E-02 0. -1.
    10030    2    1    2    0    0  0.00000000000E+00  0.00000000000E+00  0.17506332589E+02  0.37017691119E+04  0.37017277164E+04 0.  0.
        5    1    3    3  502    0  0.15068423924E+04  0.42893454495E+03  0.99421641366E+03  0.18555449891E+04  0.46999998093E+01 0.  1.
       -5    1    3    3    0  502 -0.15068423924E+04 -0.42893454495E+03 -0.97671008107E+03  0.18462241228E+04  0.46999998093E+01 0. -1.
</event>
<event>
 5   0  0.5714125E-09  0.3699428E+04  0.7818609E-02  0.8068089E-01
        1   -1    0    0  501    0  0.00000000000E+00  0.00000000000E+00  0.15200980064E+04  0.15200980064E+04  0.50400001928E-02 0.  1.
       -1   -1    0    0    0  501  0.00000000000E+00  0.00000000000E+00 -0.22508032266E+04  0.22508032266E+04  0.50400001928E-02 0. -1.
    10030    2    1    2    0    0  0.00000000000E+00  0.00000000000E+00 -0.73070522016E+03  0.37709012330E+04  0.36994277923E+04 0.  0.
        3    1    3    3  502    0  0.15128241343E+04  0.10490981415E+04 -0.54825658000E+03  0.19208927767E+04  0.10100000352E+00 0. -1.
       -3    1    3    3    0  502 -0.15128241343E+04 -0.10490981415E+04 -0.18244864015E+03  0.18500084563E+04  0.10100000352E+00 0.  1.
</event>
<event>
 5   0  0.1725865E-08  0.3700617E+04  0.7818609E-02  0.8067825E-01
        2   -1    0    0  501    0  0.00000000000E+00  0.00000000000E+00  0.25332230810E+04  0.25332230810E+04  0.25500000920E-02 0.  1.
       -2   -1    0    0    0  501  0.00000000000E+00  0.00000000000E+00 -0.13514964598E+04  0.13514964598E+04  0.25500000920E-02 0. -1.
    10030    2    1    2    0    0  0.00000000000E+00  0.00000000000E+00  0.11817266212E+04  0.38847195409E+04  0.37006172599E+04 0.  0.
        1    1    3    3  502    0 -0.61516900621E+03  0.32655137313E+03 -0.12086446233E+04  0.13949518023E+04  0.50400001928E-02 0. -1.
       -1    1    3    3    0  502  0.61516900621E+03 -0.32655137313E+03  0.23903712445E+04  0.24897677385E+04  0.50400001928E-02 0.  1.
</event>
<event>
 5   0  0.5714125E-09  0.3700067E+04  0.7818609E-02  0.8067947E-01
        1   -1    0    0  501    0  0.00000000000E+00  0.00000000000E+00  0.28850359811E+04  0.28850359811E+04  0.50400001928E-02 0. -1.
       -1   -1    0    0    0  501  0.00000000000E+00  0.00000000000E+00 -0.11863368271E+04  0.11863368271E+04  0.50400001928E-02 0.  1.
    10030    2    1    2    0    0  0.00000000000E+00  0.00000000000E+00  0.16986991540E+04  0.40713728082E+04  0.37000672599E+04 0.  0.
        3    1    3    3  502    0  0.13096417246E+04  0.88490005616E+03 -0.20859937658E+03  0.15942782901E+04  0.10100000352E+00 0.  1.
       -3    1    3    3    0  502 -0.13096417246E+04 -0.88490005616E+03  0.19072985306E+04  0.24770945180E+04  0.10100000352E+00 0. -1.
</event>
<event>
 5   0  0.1757996E-08  0.3705492E+04  0.7818609E-02  0.8066746E-01
        2   -1    0    0  501    0  0.00000000000E+00  0.00000000000E+00  0.23137881846E+04  0.23137881846E+04  0.25500000920E-02 0.  1.
       -2   -1    0    0    0  501  0.00000000000E+00  0.00000000000E+00 -0.14835701969E+04  0.14835701969E+04  0.25500000920E-02 0. -1.
    10030    2    1    2    0    0  0.00000000000E+00  0.00000000000E+00  0.83021798771E+03  0.37973583814E+04  0.37054917042E+04 0.  0.
        3    1    3    3  502    0  0.36636194657E+03  0.18128362321E+04  0.30251749388E+03  0.18740632659E+04  0.10100000352E+00 0.  1.
       -3    1    3    3    0  502 -0.36636194657E+03 -0.18128362321E+04  0.52770049384E+03  0.19232951156E+04  0.10100000352E+00 0. -1.
</event>
<event>
 5   0  0.5714125E-09  0.3699339E+04  0.7818609E-02  0.8068108E-01
        1   -1    0    0  501    0  0.00000000000E+00  0.00000000000E+00  0.19213124403E+04  0.19213124403E+04  0.50400001928E-02 0. -1.
       -1   -1    0    0    0  501  0.00000000000E+00  0.00000000000E+00 -0.17806979761E+04  0.17806979761E+04  0.50400001928E-02 0.  1.
    10030    2    1    2    0    0  0.00000000000E+00  0.00000000000E+00  0.14061446418E+03  0.37020104164E+04  0.36993389539E+04 0.  0.
        1    1    3    3  502    0 -0.23980181011E+03  0.10482851107E+04  0.15763427256E+04  0.19082093622E+04  0.50400001928E-02 0. -1.
       -1    1    3    3    0  502  0.23980181011E+03 -0.10482851107E+04 -0.14357282614E+04  0.17938010542E+04  0.50400001928E-02 0.  1.
</event>
<event>
 5   0  0.5714125E-09  0.3686189E+04  0.7818609E-02  0.8071029E-01
        1   -1    0    0  501    0  0.00000000000E+00  0.00000000000E+00  0.20430628427E+04  0.20430628427E+04  0.50400001928E-02 0.  1.
       -1   -1    0    0    0  501  0.00000000000E+00  0.00000000000E+00 -0.16626988157E+04  0.16626988157E+04  0.50400001928E-02 0. -1.
    10030    2    1    2    0    0  0.00000000000E+00  0.00000000000E+00  0.38036402696E+03  0.37057616584E+04  0.36861894520E+04 0.  0.
        1    1    3    3  502    0 -0.12269922351E+04  0.48920824864E+03 -0.11020078948E+04  0.17202488354E+04  0.50400001928E-02 0. -1.
       -1    1    3    3    0  502  0.12269922351E+04 -0.48920824864E+03  0.14823719218E+04  0.19855128229E+04  0.50400001928E-02 0.  1.
</event>
<event>
 5   0  0.1725865E-08  0.3702186E+04  0.7818609E-02  0.8067478E-01
       -2   -1    0    0    0  501  0.00000000000E+00  0.00000000000E+00  0.26693802127E+04  0.26693802127E+04  0.25500000920E-02 0. -1.
        2   -1    0    0  501    0  0.00000000000E+00  0.00000000000E+00 -0.12836479246E+04  0.12836479246E+04  0.25500000920E-02 0.  1.
    10030    2    1    2    0    0  0.00000000000E+00  0.00000000000E+00  0.13857322881E+04  0.39530281374E+04  0.37021855005E+04 0.  0.
        1    1    3    3  502    0 -0.11401509849E+04  0.14547745260E+04  0.80086884044E+03  0.20143743668E+04  0.50400001928E-02 0.  1.
       -1    1    3    3    0  502  0.11401509849E+04 -0.14547745260E+04  0.58486344767E+03  0.19386537706E+04  0.50400001928E-02 0. -1.
</event>
<event>
 5   0  0.5714125E-09  0.3700154E+04  0.7818609E-02  0.8067928E-01
       -1   -1    0    0    0  501  0.00000000000E+00  0.00000000000E+00  0.15999387156E+04  0.15999387156E+04  0.50400001928E-02 0. -1.
        1   -1    0    0  501    0  0.00000000000E+00  0.00000000000E+00 -0.21393228513E+04  0.21393228513E+04  0.50400001928E-02 0.  1.
    10030    2    1    2    0    0  0.00000000000E+00  0.00000000000E+00 -0.53938413575E+03  0.37392615669E+04  0.37001542967E+04 0.  0.
        3    1    3    3  502    0  0.15158344780E+04  0.69488234209E+03  0.54013251060E+03  0.17528145291E+04  0.10100000352E+00 0. -1.
       -3    1    3    3    0  502 -0.15158344780E+04 -0.69488234209E+03 -0.10795166464E+04  0.19864470378E+04  0.10100000352E+00 0.  1.
</event>
<event>
 5   0  0.5714125E-09  0.3699344E+04  0.7818609E-02  0.8068107E-01
       -1   -1    0    0    0  501  0.00000000000E+00  0.00000000000E+00  0.17959372272E+04  0.17959372272E+04  0.50400001928E-02 0.  1.
        1   -1    0    0  501    0  0.00000000000E+00  0.00000000000E+00 -0.19050141912E+04  0.19050141912E+04  0.50400001928E-02 0. -1.
    10030    2    1    2    0    0  0.00000000000E+00  0.00000000000E+00 -0.10907696397E+03  0.37009514184E+04  0.36993436738E+04 0.  0.
        1    1    3    3  502    0  0.12851793268E+04 -0.11523848638E+04 -0.71936406834E+03  0.18700699022E+04  0.50400001928E-02 0.  1.
       -1    1    3    3    0  502 -0.12851793268E+04  0.11523848638E+04  0.61028710437E+03  0.18308815161E+04  0.50400001928E-02 0. -1.
</event>
<event>
 5   0  0.1757996E-08  0.3699254E+04  0.7818609E-02  0.8068127E-01
        2   -1    0    0  501    0  0.00000000000E+00  0.00000000000E+00  0.22423501144E+04  0.22423501144E+04  0.25500000920E-02 0. -1.
       -2   -1    0    0    0  501  0.00000000000E+00  0.00000000000E+00 -0.15256848212E+04  0.15256848212E+04  0.25500000920E-02 0.  1.
    10030    2    1    2    0    0  0.00000000000E+00  0.00000000000E+00  0.71666529316E+03  0.37680349356E+04  0.36992537265E+04 0.  0.
        3    1    3    3  502    0 -0.11893214076E+04 -0.75223865932E+03 -0.86430649959E+03  0.16514763536E+04  0.10100000352E+00 0.  1.
       -3    1    3    3    0  502  0.11893214076E+04  0.75223865932E+03  0.15809717927E+04  0.21165585819E+04  0.10100000352E+00 0. -1.
</event>
<event>
 5   0  0.1740290E-08  0.3704016E+04  0.7818609E-02  0.8067073E-01
        2   -1    0    0  501    0  0.00000000000E+00  0.00000000000E+00  0.14674010492E+04  0.14674010492E+04  0.25500000920E-02 0.  1.
       -2   -1    0    0    0  501  0.00000000000E+00  0.00000000000E+00 -0.23374201825E+04  0.23374201825E+04  0.25500000920E-02 0. -1.
    10030    2    1    2    0    0  0.00000000000E+00  0.00000000000E+00 -0.87001913331E+03  0.38048212317E+04  0.37040155659E+04 0.  0.
        5    1    3    3  502    0  0.88388367465E+03 -0.21206240056E+03 -0.20925192896E+04  0.22814205837E+04  0.46999998093E+01 0. -1.
       -5    1    3    3    0  502 -0.88388367465E+03  0.21206240056E+03  0.12225001563E+04  0.15234006480E+04  0.46999998093E+01 0.  1.
</event>
<event>
 5   0  0.1856107E-08  0.3698881E+04  0.7818609E-02  0.8068210E-01
       -2   -1    0    0    0  501  0.00000000000E+00  0.00000000000E+00  0.16757929698E+04  0.16757929698E+04  0.25500000920E-02 0.  1.
        2   -1    0    0  501    0  0.00000000000E+00  0.00000000000E+00 -0.20410815066E+04  0.20410815066E+04  0.25500000920E-02 0. -1.
    10030    2    1    2    0    0  0.00000000000E+00  0.00000000000E+00 -0.36528853680E+03  0.37168744764E+04  0.36988809332E+04 0.  0.
        2    1    3    3  502    0  0.10018805428E+04  0.13599522154E+04  0.57414312493E+03  0.17840613718E+04  0.25500000920E-02 0.  1.
       -2    1    3    3    0  502 -0.10018805428E+04 -0.13599522154E+04 -0.93943166173E+03  0.19328131046E+04  0.25500000920E-02 0. -1.
</event>
<event>
 5   0  0.1856107E-08  0.3701137E+04  0.7818609E-02  0.8067710E-01
       -2   -1    0    0    0  501  0.00000000000E+00  0.00000000000E+00  0.16190022883E+04  0.16190022883E+04  0.25500000920E-02 0. -1.
        2   -1    0    0  501    0  0.00000000000E+00  0.00000000000E+00 -0.21152558107E+04  0.21152558107E+04  0.25500000920E-02 0.  1.
    10030    2    1    2    0    0  0.00000000000E+00  0.00000000000E+00 -0.49625352243E+03  0.37342580990E+04  0.37011371214E+04 0.  0.
        2    1    3    3  502    0  0.57111743683E+03  0.16297124507E+04 -0.91926070736E+03  0.19563174709E+04  0.25500000920E-02 0.  1.
       -2    1    3    3    0  502 -0.57111743683E+03 -0.16297124507E+04  0.42300718493E+03  0.17779406281E+04  0.25500000920E-02 0. -1.
</event>
<event>
 5   0  0.1757996E-08  0.3699659E+04  0.7818609E-02  0.8068037E-01
        2   -1    0    0  501    0  0.00000000000E+00  0.00000000000E+00  0.15944513034E+04  0.15944513034E+04  0.25500000920E-02 0.  1.
       -2   -1    0    0    0  501  0.00000000000E+00  0.00000000000E+00 -0.21461107479E+04  0.21461107479E+04  0.25500000920E-02 0. -1.
    10030    2    1    2    0    0  0.00000000000E+00  0.00000000000E+00 -0.55165944454E+03  0.37405620513E+04  0.36996589460E+04 0.  0.
        3    1    3    3  502    0 -0.12713103183E+04  0.49655032714E+03  0.98660503748E+03  0.16840966905E+04  0.10100000352E+00 0.  1.
       -3    1    3    3    0  502  0.12713103183E+04 -0.49655032714E+03 -0.15382644820E+04  0.20564653607E+04  0.10100000352E+00 0. -1.
</event>
<event>
 5   0  0.5714125E-09  0.3700146E+04  0.7818609E-02  0.8067929E-01
       -1   -1    0    0    0  501  0.00000000000E+00  0.00000000000E+00  0.20459746682E+04  0.20459746682E+04  0.50400001928E-02 0.  1.
        1   -1    0    0  501    0  0.00000000000E+00  0.00000000000E+00 -0.16729290784E+04  0.16729290784E+04  0.50400001928E-02 0. -1.
    10030    2    1    2    0    0  0.00000000000E+00  0.00000000000E+00  0.37304558978E+03  0.37189037467E+04  0.37001462221E+04 0.  0.
        2    1    3    3  502    0 -0.93149591425E+03 -0.43844826099E+03 -0.13584258064E+04  0.17044771008E+04  0.25500000920E-02 0. -1.
       -2    1    3    3    0  502  0.93149591425E+03  0.43844826099E+03  0.17314713961E+04  0.20144266459E+04  0.25500000920E-02 0.  1.
</event>
<event>
 5   0  0.1725865E-08  0.3699688E+04  0.7818609E-02  0.8068031E-01
       -2   -1    0    0    0  501  0.00000000000E+00  0.00000000000E+00  0.30290337936E+04  0.30290337936E+04  0.25500000920E-02 0. -1.
        2   -1    0    0  501    0  0.00000000000E+00  0.00000000000E+00 -0.11297074753E+04  0.11297074753E+04  0.25500000920E-02 0.  1.
    10030    2    1    2    0    0  0.00000000000E+00  0.00000000000E+00  0.18993263183E+04  0.41587412688E+04  0.36996876189E+04 0.  0.
        1    1    3    3  502    0 -0.68017333985E+03 -0.29399916131E+03  0.28549193646E+04  0.29495145121E+04  0.50400001928E-02 0. -1.
       -1    1    3    3    0  502  0.68017333985E+03  0.29399916131E+03 -0.95559304626E+03  0.12092267567E+04  0.50400001928E-02 0.  1.
</event>
<event>
 5   0  0.5714125E-09  0.3698559E+04  0.7818609E-02  0.8068281E-01
       -1   -1    0    0    0  501  0.00000000000E+00  0.00000000000E+00  0.17078015665E+04  0.17078015665E+04  0.50400001928E-02 0.  1.
        1   -1    0    0  501    0  0.00000000000E+00  0.00000000000E+00 -0.20024777976E+04  0.20024777976E+04  0.50400001928E-02 0. -1.
    10030    2    1    2    0    0  0.00000000000E+00  0.00000000000E+00 -0.29467623115E+03  0.37102793641E+04  0.36985590273E+04 0.  0.
        3    1    3    3  502    0 -0.10343554798E+04 -0.13202234074E+04  0.63420295309E+03  0.17930684594E+04  0.10100000352E+00 0.  1.
       -3    1    3    3    0  502  0.10343554798E+04  0.13202234074E+04 -0.92887918423E+03  0.19172109047E+04  0.10100000352E+00 0. -1.
</event>
<event>
 5   0  0.5714125E-09  0.3702047E+04  0.7818609E-02  0.8067508E-01
       -1   -1    0    0    0  501  0.00000000000E+00  0.00000000000E+00  0.13612965790E+04  0.13612965790E+04  0.50400001928E-02 0. -1.
        1   -1    0    0  501    0  0.00000000000E+00  0.00000000000E+00 -0.25169300525E+04  0.25169300525E+04  0.50400001928E-02 0.  1.
    10030    2    1    2    0    0  0.00000000000E+00  0.00000000000E+00 -0.11556334736E+04  0.38782266315E+04  0.37020471472E+04 0.  0.
        3    1    3    3  502    0 -0.99134189309E+03 -0.14157435634E+04  0.11644342181E+03  0.17322377628E+04  0.10100000352E+00 0. -1.
       -3    1    3    3    0  502  0.99134189309E+03  0.14157435634E+04 -0.12720768954E+04  0.21459888686E+04  0.10100000352E+00 0.  1.
</event>
<event>
 5   0  0.5714125E-09  0.3703584E+04  0.7818609E-02  0.8067168E-01
        1   -1    0    0  501    0  0.00000000000E+00  0.00000000000E+00  0.28217619019E+04  0.28217619019E+04  0.50400001928E-02 0. -1.
       -1   -1    0    0    0  501  0.00000000000E+00  0.00000000000E+00 -0.12152454632E+04  0.12152454632E+04  0.50400001928E-02 0.  1.
    10030    2    1    2    0    0  0.00000000000E+00  0.00000000000E+00  0.16065164387E+04  0.40370073651E+04  0.37035838587E+04 0.  0.
        4    1    3    3  502    0  0.18538616166E+03  0.13617547204E+04 -0.54960033696E+03  0.14801371865E+04  0.12699999809E+01 0.  1.
       -4    1    3    3    0  502 -0.18538616166E+03 -0.13617547204E+04  0.21561167756E+04  0.25568701787E+04  0.12699999809E+01 0. -1.
</event>
<event>
 5   0  0.1825308E-08  0.3700763E+04  0.7818609E-02  0.8067793E-01
       -2   -1    0    0    0  501  0.00000000000E+00  0.00000000000E+00  0.15307523705E+04  0.15307523705E+04  0.25500000920E-02 0.  1.
        2   -1    0    0  501    0  0.00000000000E+00  0.00000000000E+00 -0.22367503257E+04  0.22367503257E+04  0.25500000920E-02 0. -1.
    10030    2    1    2    0    0  0.00000000000E+00  0.00000000000E+00 -0.70599795521E+03  0.37675026961E+04  0.37007625501E+04 0.  0.
        4    1    3    3  502    0  0.10174392254E+04 -0.27093112102E+03  0.11960606819E+04  0.15934707457E+04  0.12699999809E+01 0.  1.
       -4    1    3    3    0  502 -0.10174392254E+04  0.27093112102E+03 -0.19020586371E+04  0.21740319504E+04  0.12699999809E+01 0. -1.
</event>
<event>
 5   0  0.5714125E-09  0.3699005E+04  0.7818609E-02  0.8068182E-01
        1   -1    0    0  501    0  0.00000000000E+00  0.00000000000E+00  0.14674503507E+04  0.14674503508E+04  0.50400001928E-02 0.  1.
       -1   -1    0    0    0  501  0.00000000000E+00  0.00000000000E+00 -0.23310223334E+04  0.23310223334E+04  0.50400001928E-02 0. -1.
    10030    2    1    2    0    0  0.00000000000E+00  0.00000000000E+00 -0.86357198266E+03  0.37984726842E+04  0.36990050234E+04 0.  0.
        3    1    3    3  502    0 -0.92322640333E+03 -0.15265300277E+04 -0.93277655622E+03  0.20131351249E+04  0.10100000352E+00 0. -1.
       -3    1    3    3    0  502  0.92322640333E+03  0.15265300277E+04  0.69204573560E+02  0.17853375592E+04  0.10100000352E+00 0.  1.
</event>
<event>
 5   0  0.1740290E-08  0.3700420E+04  0.7818609E-02  0.8067869E-01
        2   -1    0    0  501    0  0.00000000000E+00  0.00000000000E+00  0.15196727191E+04  0.15196727191E+04  0.25500000920E-02 0. -1.
       -2   -1    0    0    0  501  0.00000000000E+00  0.00000000000E+00 -0.22526413316E+04  0.22526413316E+04  0.25500000920E-02 0.  1.
    10030    2    1    2    0    0  0.00000000000E+00  0.00000000000E+00 -0.73296861251E+03  0.37723140507E+04  0.37004202883E+04 0.  0.
        5    1    3    3  502    0 -0.17633273185E+04 -0.51898583672E+03 -0.58174058743E+03  0.19279817768E+04  0.46999998093E+01 0.  1.
       -5    1    3    3    0  502  0.17633273185E+04  0.51898583672E+03 -0.15122802509E+03  0.18443322738E+04  0.46999998093E+01 0. -1.
</event>
<event>
 5   0  0.5714125E-09  0.3676741E+04  0.7818609E-02  0.8073136E-01
       -1   -1    0    0    0  501  0.00000000000E+00  0.00000000000E+00  0.18815190603E+04  0.18815190603E+04  0.50400001928E-02 0.  1.
        1   -1    0    0  501    0  0.00000000000E+00  0.00000000000E+00 -0.17962115862E+04  0.17962115862E+04  0.50400001928E-02 0. -1.
    10030    2    1    2    0    0  0.00000000000E+00  0.00000000000E+00  0.85307474121E+02  0.36777306466E+04  0.36767411309E+04 0.  0.
        3    1    3    3  502    0 -0.43151155270E+03 -0.86744054116E+03 -0.15201210544E+04  0.18026156947E+04  0.10100000352E+00 0. -1.
       -3    1    3    3    0  502  0.43151155270E+03  0.86744054116E+03  0.16054285285E+04  0.18751149519E+04  0.10100000352E+00 0.  1.
</event>
<event>
 5   0  0.1725865E-08  0.3700350E+04  0.7818609E-02  0.8067884E-01
       -2   -1    0    0    0  501  0.00000000000E+00  0.00000000000E+00  0.18449614343E+04  0.18449614343E+04  0.25500000920E-02 0.  1.
        2   -1    0    0  501    0  0.00000000000E+00  0.00000000000E+00 -0.18554035403E+04  0.18554035403E+04  0.25500000920E-02 0. -1.
    10030    2    1    2    0    0  0.00000000000E+00  0.00000000000E+00 -0.10442106041E+02  0.37003649746E+04  0.37003502412E+04 0.  0.
        1    1    3    3  502    0  0.20040162062E+03  0.85686018901E+03 -0.16327341488E+04  0.18547751868E+04  0.50400001928E-02 0. -1.
       -1    1    3    3    0  502 -0.20040162062E+03 -0.85686018901E+03  0.16222920427E+04  0.18455897878E+04  0.50400001928E-02 0.  1.
</event>
<event>
 5   0  0.5714125E-09  0.3700004E+04  0.7818609E-02  0.8067961E-01
        1   -1    0    0  501    0  0.00000000000E+00  0.00000000000E+00  0.16970435389E+04  0.16970435389E+04  0.50400001928E-02 0. -1.
       -1   -1    0    0    0  501  0.00000000000E+00  0.00000000000E+00 -0.20167470347E+04  0.20167470347E+04  0.50400001928E-02 0.  1.
    10030    2    1    2    0    0  0.00000000000E+00  0.00000000000E+00 -0.31970349577E+03  0.37137905736E+04  0.37000040674E+04 0.  0.
        3    1    3    3  502    0  0.16777811433E+04  0.27217450690E+03 -0.89296972178E+03  0.19200061097E+04  0.10100000352E+00 0.  1.
       -3    1    3    3    0  502 -0.16777811433E+04 -0.27217450690E+03  0.57326622602E+03  0.17937844639E+04  0.10100000352E+00 0. -1.
</event>
<event>
 5   0  0.1740290E-08  0.3702054E+04  0.7818609E-02  0.8067507E-01
        2   -1    0    0  501    0  0.00000000000E+00  0.00000000000E+00  0.20138129681E+04  0.20138129681E+04  0.25500000920E-02 0. -1.
       -2   -1    0    0    0  501  0.00000000000E+00  0.00000000000E+00 -0.17013995414E+04  0.17013995414E+04  0.25500000920E-02 0.  1.
    10030    2    1    2    0    0  0.00000000000E+00  0.00000000000E+00  0.31241342677E+03  0.37152125095E+04  0.37020537329E+04 0.  0.
        5    1    3    3  502    0  0.12666741747E+04  0.56829255101E+03  0.13848371148E+04  0.19609221843E+04  0.46999998093E+01 0. -1.
       -5    1    3    3    0  502 -0.12666741747E+04 -0.56829255101E+03 -0.10724236880E+04  0.17542903252E+04  0.46999998093E+01 0.  1.
</event>
<event>
 5   0  0.1757996E-08  0.3700019E+04  0.7818609E-02  0.8067958E-01
        2   -1    0    0  501    0  0.00000000000E+00  0.00000000000E+00  0.22339177989E+04  0.22339177989E+04  0.25500000920E-02 0. -1.
       -2   -1    0    0    0  501  0.00000000000E+00  0.00000000000E+00 -0.15320776119E+04  0.15320776119E+04  0.25500000920E-02 0.  1.
    10030    2    1    2    0    0  0.00000000000E+00  0.00000000000E+00  0.70184018693E+03  0.37659954108E+04  0.37000191602E+04 0.  0.
        3    1    3    3  502    0  0.17793766561E+04 -0.45536588208E+03  0.12562257061E+03  0.18410107037E+04  0.10100000352E+00 0.  1.
       -3    1    3    3    0  502 -0.17793766561E+04  0.45536588208E+03  0.57621761632E+03  0.19249847070E+04  0.10100000352E+00 0. -1.
</event>
<event>
 5   0  0.1757996E-08  0.3700516E+04  0.7818609E-02  0.8067848E-01
        2   -1    0    0  501    0  0.00000000000E+00  0.00000000000E+00  0.22587456701E+04  0.22587456701E+04  0.25500000920E-02 0. -1.
       -2   -1    0    0    0  501  0.00000000000E+00  0.00000000000E+00 -0.15156438087E+04  0.15156438087E+04  0.25500000920E-02 0.  1.
    10030    2    1    2    0    0  0.00000000000E+00  0.00000000000E+00  0.74310186144E+03  0.37743894788E+04  0.37005155804E+04 0.  0.
        3    1    3    3  502    0  0.20453255641E+03  0.18343540160E+04  0.50361806929E+03  0.19131961198E+04  0.10100000352E+00 0.  1.
       -3    1    3    3    0  502 -0.20453255641E+03 -0.18343540160E+04  0.23948379215E+03  0.18611933590E+04  0.10100000352E+00 0. -1.
</event>
<event>
 5   0  0.5714125E-09  0.3697426E+04  0.7818609E-02  0.8068532E-01
       -1   -1    0    0    0  501  0.00000000000E+00  0.00000000000E+00  0.13405555428E+04  0.13405555428E+04  0.50400001928E-02 0. -1.
        1   -1    0    0  501    0  0.00000000000E+00  0.00000000000E+00 -0.25494951227E+04  0.25494951227E+04  0.50400001928E-02 0.  1.
    10030    2    1    2    0    0  0.00000000000E+00  0.00000000000E+00 -0.12089395799E+04  0.38900506656E+04  0.36974260335E+04 0.  0.
        1    1    3    3  502    0 -0.96812610534E+02  0.17929301448E+04 -0.10675940168E+04  0.20889538459E+04  0.50400001928E-02 0.  1.
       -1    1    3    3    0  502  0.96812610534E+02 -0.17929301448E+04 -0.14134556316E+03  0.18010968197E+04  0.50400001928E-02 0. -1.
</event>
<event>
 5   0  0.5714125E-09  0.3702772E+04  0.7818609E-02  0.8067348E-01
       -1   -1    0    0    0  501  0.00000000000E+00  0.00000000000E+00  0.21331390219E+04  0.21331390219E+04  0.50400001928E-02 0.  1.
        1   -1    0    0  501    0  0.00000000000E+00  0.00000000000E+00 -0.16068480175E+04  0.16068480175E+04  0.50400001928E-02 0. -1.
    10030    2    1    2    0    0  0.00000000000E+00  0.00000000000E+00  0.52629100440E+03  0.37399870393E+04  0.37027720471E+04 0.  0.
        4    1    3    3  502    0  0.36811274620E+03  0.15076979031E+04 -0.75643971154E+03  0.17265174807E+04  0.12699999809E+01 0. -1.
       -4    1    3    3    0  502 -0.36811274620E+03 -0.15076979031E+04  0.12827307159E+04  0.20134695586E+04  0.12699999809E+01 0.  1.
</event>
<event>
 5   0  0.5714125E-09  0.3699372E+04  0.7818609E-02  0.8068101E-01
       -1   -1    0    0    0  501  0.00000000000E+00  0.00000000000E+00  0.13362289628E+04  0.13362289628E+04  0.50400001928E-02 0. -1.
        1   -1    0    0  501    0  0.00000000000E+00  0.00000000000E+00 -0.25604433212E+04  0.25604433212E+04  0.50400001928E-02 0.  1.
    10030    2    1    2    0    0  0.00000000000E+00  0.00000000000E+00 -0.12242143584E+04  0.38966722840E+04  0.36993721216E+04 0.  0.
        1    1    3    3  502    0  0.27165837584E+03 -0.18295685967E+04 -0.59651926295E+03  0.19434388991E+04  0.50400001928E-02 0.  1.
       -1    1    3    3    0  502 -0.27165837584E+03  0.18295685967E+04 -0.62769509546E+03  0.19532333850E+04  0.50400001928E-02 0. -1.
</event>
<event>
 5   0  0.5714125E-09  0.3701936E+04  0.7818609E-02  0.8067533E-01
       -3   -1    0    0    0  501  0.00000000000E+00  0.00000000000E+00  0.15490129666E+04  0.15490129699E+04  0.10100000352E+00 0.  1.
        3   -1    0    0  501    0  0.00000000000E+00  0.00000000000E+00 -0.22117841405E+04  0.22117841428E+04  0.10100000352E+00 0. -1.
    10030    2    1    2    0    0  0.00000000000E+00  0.00000000000E+00 -0.66277117389E+03  0.37607971127E+04  0.37019358847E+04 0.  0.
        1    1    3    3  502    0 -0.73825002203E+03  0.60791184657E+03  0.12785877241E+04  0.15966704346E+04  0.50400001928E-02 0.  1.
       -1    1    3    3    0  502  0.73825002203E+03 -0.60791184657E+03 -0.19413588980E+04  0.21641266782E+04  0.50400001928E-02 0. -1.
</event>
<event>
 5   0  0.5714125E-09  0.3699786E+04  0.7818609E-02  0.8068009E-01
       -1   -1    0    0    0  501  0.00000000000E+00  0.00000000000E+00  0.31875195633E+04  0.31875195633E+04  0.50400001928E-02 0.  1.
        1   -1    0    0  501    0  0.00000000000E+00  0.00000000000E+00 -0.10735946644E+04  0.10735946644E+04  0.50400001928E-02 0. -1.
    10030    2    1    2    0    0  0.00000000000E+00  0.00000000000E+00  0.21139248990E+04  0.42611142277E+04  0.36997859375E+04 0.  0.
        5    1    3    3  502    0  0.91576810309E+03  0.11401091745E+04 -0.24789097795E+03  0.14832235757E+04  0.46999998093E+01 0. -1.
       -5    1    3    3    0  502 -0.91576810309E+03 -0.11401091745E+04  0.23618158769E+04  0.27778906521E+04  0.46999998093E+01 0.  1.
</event>
<event>
 5   0  0.5714125E-09  0.3698683E+04  0.7818609E-02  0.8068254E-01
       -1   -1    0    0    0  501  0.00000000000E+00  0.00000000000E+00  0.15259489208E+04  0.15259489208E+04  0.50400001928E-02 0. -1.
        1   -1    0    0  501    0  0.00000000000E+00  0.00000000000E+00 -0.22412704663E+04  0.22412704663E+04  0.50400001928E-02 0.  1.
    10030    2    1    2    0    0  0.00000000000E+00  0.00000000000E+00 -0.71532154554E+03  0.37672193871E+04  0.36986831437E+04 0.  0.
        4    1    3    3  502    0  0.15525420903E+04 -0.82363776232E+03  0.22858838036E+03  0.17722924043E+04  0.12699999809E+01 0. -1.
       -4    1    3    3    0  502 -0.15525420903E+04  0.82363776232E+03 -0.94390992590E+03  0.19949269828E+04  0.12699999809E+01 0.  1.
</event>
<event>
 5   0  0.5714125E-09  0.3699536E+04  0.7818609E-02  0.8068065E-01
        1   -1    0    0  501    0  0.00000000000E+00  0.00000000000E+00  0.18876745392E+04  0.18876745392E+04  0.50400001928E-02 0.  1.
       -1   -1    0    0    0  501  0.00000000000E+00  0.00000000000E+00 -0.18126229500E+04  0.18126229500E+04  0.50400001928E-02 0. -1.
    10030    2    1    2    0    0  0.00000000000E+00  0.00000000000E+00  0.75051589196E+02  0.37002974891E+04  0.36995362908E+04 0.  0.
        2    1    3    3  502    0 -0.10471730251E+04 -0.15066326085E+04  0.27236982529E+03  0.18549119880E+04  0.25500000920E-02 0.  1.
       -2    1    3    3    0  502  0.10471730251E+04  0.15066326085E+04 -0.19731823609E+03  0.18453855011E+04  0.25500000920E-02 0. -1.
</event>
<event>
 5   0  0.1856107E-08  0.3701139E+04  0.7818609E-02  0.8067710E-01
       -2   -1    0    0    0  501  0.00000000000E+00  0.00000000000E+00  0.17619413727E+04  0.17619413727E+04  0.25500000920E-02 0.  1.
        2   -1    0    0  501    0  0.00000000000E+00  0.00000000000E+00 -0.19436553635E+04  0.19436553635E+04  0.25500000920E-02 0. -1.
    10030    2    1    2    0    0  0.00000000000E+00  0.00000000000E+00 -0.18171399081E+03  0.37055967363E+04  0.37011386353E+04 0.  0.
        2    1    3    3  502    0 -0.12867516081E+04 -0.11635731720E+04  0.55410413943E+03  0.18211709488E+04  0.25500000920E-02 0.  1.
       -2    1    3    3    0  502  0.12867516081E+04  0.11635731720E+04 -0.73581813024E+03  0.18844257874E+04  0.25500000920E-02 0. -1.
</event>
<event>
 5   0  0.5714125E-09  0.3700614E+04  0.7818609E-02  0.8067826E-01
       -1   -1    0    0    0  501  0.00000000000E+00  0.00000000000E+00  0.13964740174E+04  0.13964740174E+04  0.50400001928E-02 0.  1.
        1   -1    0    0  501    0  0.00000000000E+00  0.00000000000E+00 -0.24516282956E+04  0.24516282956E+04  0.50400001928E-02 0. -1.
    10030    2    1    2    0    0  0.00000000000E+00  0.00000000000E+00 -0.10551542782E+04  0.38481023130E+04  0.37006135790E+04 0.  0.
        5    1    3    3  502    0  0.14043405089E+04 -0.61241688214E+03  0.55126270581E+03  0.16282319747E+04  0.46999998093E+01 0.  1.
       -5    1    3    3    0  502 -0.14043405089E+04  0.61241688214E+03 -0.16064169840E+04  0.22198703383E+04  0.46999998093E+01 0. -1.
</event>
<event>
 5   0  0.5714125E-09  0.3696718E+04  0.7818609E-02  0.8068689E-01
        1   -1    0    0  501    0  0.00000000000E+00  0.00000000000E+00  0.15748240560E+04  0.15748240560E+04  0.50400001928E-02 0.  1.
       -1   -1    0    0    0  501  0.00000000000E+00  0.00000000000E+00 -0.21694053140E+04  0.21694053140E+04  0.50400001928E-02 0. -1.
    10030    2    1    2    0    0  0.00000000000E+00  0.00000000000E+00 -0.59458125799E+03  0.37442293700E+04  0.36967183695E+04 0.  0.
        3    1    3    3  502    0  0.16595435088E+04  0.60549377647E+03 -0.84808511291E+03  0.19595805010E+04  0.10100000352E+00 0.  1.
       -3    1    3    3    0  502 -0.16595435088E+04 -0.60549377647E+03  0.25350385492E+03  0.17846488690E+04  0.10100000352E+00 0. -1.
</event>
<event>
 5   0  0.1856107E-08  0.3700257E+04  0.7818609E-02  0.8067905E-01
        2   -1    0    0  501    0  0.00000000000E+00  0.00000000000E+00  0.26939169707E+04  0.26939169707E+04  0.25500000920E-02 0. -1.
       -2   -1    0    0    0  501  0.00000000000E+00  0.00000000000E+00 -0.12706316782E+04  0.12706316782E+04  0.25500000920E-02 0.  1.
    10030    2    1    2    0    0  0.00000000000E+00  0.00000000000E+00  0.14232852926E+04  0.39645486489E+04  0.37002574188E+04 0.  0.
        2    1    3    3  502    0  0.54160131375E+03  0.16046914907E+04 -0.86270199694E+02  0.16958211317E+04  0.25500000920E-02 0.  1.
       -2    1    3    3    0  502 -0.54160131375E+03 -0.16046914907E+04  0.15095554922E+04  0.22687275172E+04  0.25500000920E-02 0. -1.
</event>
<event>
 5   0  0.5714125E-09  0.3699828E+04  0.7818609E-02  0.8068000E-01
        1   -1    0    0  501    0  0.00000000000E+00  0.00000000000E+00  0.21175714307E+04  0.21175714307E+04  0.50400001928E-02 0. -1.
       -1   -1    0    0    0  501  0.00000000000E+00  0.00000000000E+00 -0.16160881578E+04  0.16160881578E+04  0.50400001928E-02 0.  1.
    10030    2    1    2    0    0  0.00000000000E+00  0.00000000000E+00  0.50148327289E+03  0.37336595885E+04  0.36998281649E+04 0.  0.
        2    1    3    3  502    0 -0.35977394996E+03 -0.17647959260E+04  0.67678709754E+03  0.19240537235E+04  0.25500000920E-02 0. -1.
       -2    1    3    3    0  502  0.35977394996E+03  0.17647959260E+04 -0.17530382465E+03  0.18096058650E+04  0.25500000920E-02 0.  1.
</event>
<event>
 5   0  0.5714125E-09  0.3698926E+04  0.7818609E-02  0.8068200E-01
        1   -1    0    0  501    0  0.00000000000E+00  0.00000000000E+00  0.15680642866E+04  0.15680642866E+04  0.50400001928E-02 0.  1.
       -1   -1    0    0    0  501  0.00000000000E+00  0.00000000000E+00 -0.21813599540E+04  0.21813599540E+04  0.50400001928E-02 0. -1.
    10030    2    1    2    0    0  0.00000000000E+00  0.00000000000E+00 -0.61329566741E+03  0.37494242406E+04  0.36989255954E+04 0.  0.
        5    1    3    3  502    0  0.66352303528E+03  0.11169249361E+04  0.10276460015E+04  0.16564608434E+04  0.46999998093E+01 0.  1.
       -5    1    3    3    0  502 -0.66352303528E+03 -0.11169249361E+04 -0.16409416689E+04  0.20929633972E+04  0.46999998093E+01 0. -1.
</event>
<event>
 5   0  0.1725865E-08  0.3700745E+04  0.7818609E-02  0.8067797E-01
       -2   -1    0    0    0  501  0.00000000000E+00  0.00000000000E+00  0.14635864615E+04  0.14635864615E+04  0.25500000920E-02 0.  1.
        2   -1    0    0  501    0  0.00000000000E+00  0.00000000000E+00 -0.23393758771E+04  0.23393758771E+04  0.25500000920E-02 0. -1.
    10030    2    1    2    0    0  0.00000000000E+00  0.00000000000E+00 -0.87578941564E+03  0.38029623386E+04  0.37007452558E+04 0.  0.
        1    1    3    3  502    0  0.16754298949E+04  0.67211623378E+03 -0.85540890448E+03  0.19976310866E+04  0.50400001928E-02 0. -1.
       -1    1    3    3    0  502 -0.16754298949E+04 -0.67211623378E+03 -0.20380511163E+02  0.18053312520E+04  0.50400001928E-02 0.  1.
</event>
<event>
 5   0  0.1856107E-08  0.3702639E+04  0.7818609E-02  0.8067377E-01
        2   -1    0    0  501    0  0.00000000000E+00  0.00000000000E+00  0.17818199381E+04  0.17818199381E+04  0.25500000920E-02 0.  1.
       -2   -1    0    0    0  501  0.00000000000E+00  0.00000000000E+00 -0.19235296068E+04  0.19235296068E+04  0.25500000920E-02 0. -1.
    10030    2    1    2    0    0  0.00000000000E+00  0.00000000000E+00 -0.14170966866E+03  0.37053495448E+04  0.37026387373E+04 0.  0.
        2    1    3    3  502    0 -0.86319293675E+03  0.34630492590E+03  0.15310526461E+04  0.17914104368E+04  0.25500000920E-02 0.  1.
       -2    1    3    3    0  502  0.86319293675E+03 -0.34630492590E+03 -0.16727623148E+04  0.19139391081E+04  0.25500000920E-02 0. -1.
</event>
<event>
 5   0  0.1825308E-08  0.3700071E+04  0.7818609E-02  0.8067946E-01
       -2   -1    0    0    0  501  0.00000000000E+00  0.00000000000E+00  0.17947984787E+04  0.17947984787E+04  0.25500000920E-02 0. -1.
        2   -1    0    0  501    0  0.00000000000E+00  0.00000000000E+00 -0.19069729187E+04  0.19069729187E+04  0.25500000920E-02 0.  1.
    10030    2    1    2    0    0  0.00000000000E+00  0.00000000000E+00 -0.11217444002E+03  0.37017713974E+04  0.37000714011E+04 0.  0.
        4    1    3    3  502    0  0.20875564468E+02 -0.44837794101E+03  0.17394941641E+04  0.17964743603E+04  0.12699999809E+01 0. -1.
       -4    1    3    3    0  502 -0.20875564468E+02  0.44837794101E+03 -0.18516686041E+04  0.19052970371E+04  0.12699999809E+01 0.  1.
</event>
<event>
 5   0  0.1740290E-08  0.3699705E+04  0.7818609E-02  0.8068027E-01
        2   -1    0    0  501    0  0.00000000000E+00  0.00000000000E+00  0.26243156937E+04  0.26243156937E+04  0.25500000920E-02 0. -1.
       -2   -1    0    0    0  501  0.00000000000E+00  0.00000000000E+00 -0.13039414484E+04  0.13039414484E+04  0.25500000920E-02 0.  1.
    10030    2    1    2    0    0  0.00000000000E+00  0.00000000000E+00  0.13203742453E+04  0.39282571421E+04  0.36997048567E+04 0.  0.
        5    1    3    3  502    0  0.28623208057E+03 -0.16035181138E+04 -0.27075038160E+03  0.16512198535E+04  0.46999998093E+01 0.  1.
       -5    1    3    3    0  502 -0.28623208057E+03  0.16035181138E+04  0.15911246269E+04  0.22770372886E+04  0.46999998093E+01 0. -1.
</event>
<event>
 5   0  0.1825308E-08  0.3701770E+04  0.7818609E-02  0.8067570E-01
        2   -1    0    0  501    0  0.00000000000E+00  0.00000000000E+00  0.25835158762E+04  0.25835158762E+04  0.25500000920E-02 0.  1.
       -2   -1    0    0    0  501  0.00000000000E+00  0.00000000000E+00 -0.13260131572E+04  0.13260131572E+04  0.25500000920E-02 0. -1.
    10030    2    1    2    0    0  0.00000000000E+00  0.00000000000E+00  0.12575027190E+04  0.39095290334E+04  0.37017704109E+04 0.  0.
        4    1    3    3  502    0 -0.16479601022E+04  0.78653338193E+03  0.94798603084E+03  0.20574465697E+04  0.12699999809E+01 0. -1.
       -4    1    3    3    0  502  0.16479601022E+04 -0.78653338193E+03  0.30951668817E+03  0.18520824638E+04  0.12699999809E+01 0.  1.
</event>
<event>
 5   0  0.1725865E-08  0.3698207E+04  0.7818609E-02  0.8068359E-01
       -2   -1    0    0    0  501  0.00000000000E+00  0.00000000000E+00  0.13276924951E+04  0.13276924951E+04  0.25500000920E-02 0. -1.
        2   -1    0    0  501    0  0.00000000000E+00  0.00000000000E+00 -0.25752834703E+04  0.25752834703E+04  0.25500000920E-02 0.  1.
    10030    2    1    2    0    0  0.00000000000E+00  0.00000000000E+00 -0.12475909752E+04  0.39029759654E+04  0.36982074232E+04 0.  0.
        1    1    3    3  502    0  0.10358520320E+04 -0.56728453905E+03 -0.21253841823E+04  0.24314726202E+04  0.50400001928E-02 0.  1.
       -1    1    3    3    0  502 -0.10358520320E+04  0.56728453905E+03  0.87779320706E+03  0.14715033452E+04  0.50400001928E-02 0. -1.
</event>
<event>
 5   0  0.5714125E-09  0.3700481E+04  0.7818609E-02  0.8067855E-01
       -1   -1    0    0    0  501  0.00000000000E+00  0.00000000000E+00  0.24852454724E+04  0.24852454724E+04  0.50400001928E-02 0.  1.
        1   -1    0    0  501    0  0.00000000000E+00  0.00000000000E+00 -0.13774857485E+04  0.13774857485E+04  0.50400001928E-02 0. -1.
    10030    2    1    2    0    0  0.00000000000E+00  0.00000000000E+00  0.11077597239E+04  0.38627312209E+04  0.37004811685E+04 0.  0.
        2    1    3    3  502    0 -0.47884004628E+03  0.78843803836E+03  0.22280950314E+04  0.24114994918E+04  0.25500000920E-02 0.  1.
       -2    1    3    3    0  502  0.47884004628E+03 -0.78843803836E+03 -0.11203353074E+04  0.14512317290E+04  0.25500000920E-02 0. -1.
</event>
<event>
 5   0  0.1856107E-08  0.3700791E+04  0.7818609E-02  0.8067787E-01
        2   -1    0    0  501    0  0.00000000000E+00  0.00000000000E+00  0.22788992737E+04  0.22788992737E+04  0.25500000920E-02 0. -1.
       -2   -1    0    0    0  501  0.00000000000E+00  0.00000000000E+00 -0.15024633294E+04  0.15024633294E+04  0.25500000920E-02 0.  1.
    10030    2    1    2    0    0  0.00000000000E+00  0.00000000000E+00  0.77643594423E+03  0.37813626031E+04  0.37007905049E+04 0.  0.
        2    1    3    3  502    0  0.93559269736E+03 -0.98586888750E+03 -0.89478356706E+03  0.16272396230E+04  0.25500000920E-02 0. -1.
       -2    1    3    3    0  502 -0.93559269736E+03  0.98586888750E+03  0.16712195113E+04  0.21541229802E+04  0.25500000920E-02 0.  1.
</event>
<event>
 5   0  0.1757996E-08  0.3698640E+04  0.7818609E-02  0.8068263E-01
        2   -1    0    0  501    0  0.00000000000E+00  0.00000000000E+00  0.14510441444E+04  0.14510441444E+04  0.25500000920E-02 0.  1.
       -2   -1    0    0    0  501  0.00000000000E+00  0.00000000000E+00 -0.23569123616E+04  0.23569123616E+04  0.25500000920E-02 0. -1.
    10030    2    1    2    0    0  0.00000000000E+00  0.00000000000E+00 -0.90586821718E+03  0.38079565059E+04  0.36986396856E+04 0.  0.
        3    1    3    3  502    0 -0.14103023421E+04 -0.11883294909E+04 -0.31137785543E+03  0.18703036796E+04  0.10100000352E+00 0. -1.
       -3    1    3    3    0  502  0.14103023421E+04  0.11883294909E+04 -0.59449036176E+03  0.19376528263E+04  0.10100000352E+00 0.  1.
</event>
<event>
 5   0  0.1740290E-08  0.3700227E+04  0.7818609E-02  0.8067911E-01
        2   -1    0    0  501    0  0.00000000000E+00  0.00000000000E+00  0.20093585156E+04  0.20093585156E+04  0.25500000920E-02 0.  1.
       -2   -1    0    0    0  501  0.00000000000E+00  0.00000000000E+00 -0.17034890928E+04  0.17034890928E+04  0.25500000920E-02 0. -1.
    10030    2    1    2    0    0  0.00000000000E+00  0.00000000000E+00  0.30586942277E+03  0.37128476083E+04  0.37002271902E+04 0.  0.
        5    1    3    3  502    0 -0.25901272392E+03 -0.13237703721E+04 -0.11176553319E+04  0.17517508727E+04  0.46999998093E+01 0. -1.
       -5    1    3    3    0  502  0.25901272392E+03  0.13237703721E+04  0.14235247547E+04  0.19610967356E+04  0.46999998093E+01 0.  1.
</event>
<event>
 5   0  0.1725865E-08  0.3701901E+04  0.7818609E-02  0.8067541E-01
       -2   -1    0    0    0  501  0.00000000000E+00  0.00000000000E+00  0.16846184786E+04  0.16846184786E+04  0.25500000920E-02 0. -1.
        2   -1    0    0  501    0  0.00000000000E+00  0.00000000000E+00 -0.20337051098E+04  0.20337051098E+04  0.25500000920E-02 0.  1.
    10030    2    1    2    0    0  0.00000000000E+00  0.00000000000E+00 -0.34908663117E+03  0.37183235884E+04  0.37019007053E+04 0.  0.
        1    1    3    3  502    0  0.58545253786E+03  0.15120241346E+04 -0.10712780389E+04  0.19433497612E+04  0.50400001928E-02 0.  1.
       -1    1    3    3    0  502 -0.58545253786E+03 -0.15120241346E+04  0.72219140770E+03  0.17749738272E+04  0.50400001928E-02 0. -1.
</event>
<event>
 5   0  0.5714125E-09  0.3697878E+04  0.7818609E-02  0.8068432E-01
       -1   -1    0    0    0  501  0.00000000000E+00  0.00000000000E+00  0.19824814823E+04  0.19824814823E+04  0.50400001928E-02 0.  1.
        1   -1    0    0  501    0  0.00000000000E+00  0.00000000000E+00 -0.17243917709E+04  0.17243917709E+04  0.50400001928E-02 0. -1.
    10030    2    1    2    0    0  0.00000000000E+00  0.00000000000E+00  0.25808971138E+03  0.37068732532E+04  0.36978776368E+04 0.  0.
        1    1    3    3  502    0 -0.11487394114E+03  0.14531959056E+04  0.12691772089E+04  0.19328179299E+04  0.50400001928E-02 0.  1.
       -1    1    3    3    0  502  0.11487394114E+03 -0.14531959056E+04 -0.10110874975E+04  0.17740553233E+04  0.50400001928E-02 0. -1.
</event>
<event>
 5   0  0.1856107E-08  0.3698113E+04  0.7818609E-02  0.8068380E-01
       -2   -1    0    0    0  501  0.00000000000E+00  0.00000000000E+00  0.22119775303E+04  0.22119775303E+04  0.25500000920E-02 0.  1.
        2   -1    0    0  501    0  0.00000000000E+00  0.00000000000E+00 -0.15456804890E+04  0.15456804890E+04  0.25500000920E-02 0. -1.
    10030    2    1    2    0    0  0.00000000000E+00  0.00000000000E+00  0.66629704136E+03  0.37576580193E+04  0.36981133085E+04 0.  0.
        2    1    3    3  502    0  0.27122148023E+03  0.43844516375E+03 -0.14711726668E+04  0.15588920003E+04  0.25500000920E-02 0. -1.
       -2    1    3    3    0  502 -0.27122148023E+03 -0.43844516375E+03  0.21374697082E+04  0.21987660190E+04  0.25500000920E-02 0.  1.
</event>
<event>
 5   0  0.5714125E-09  0.3700287E+04  0.7818609E-02  0.8067898E-01
        1   -1    0    0  501    0  0.00000000000E+00  0.00000000000E+00  0.19003509174E+04  0.19003509174E+04  0.50400001928E-02 0. -1.
       -1   -1    0    0    0  501  0.00000000000E+00  0.00000000000E+00 -0.18012628509E+04  0.18012628509E+04  0.50400001928E-02 0.  1.
    10030    2    1    2    0    0  0.00000000000E+00  0.00000000000E+00  0.99088066438E+02  0.37016137683E+04  0.37002872922E+04 0.  0.
        5    1    3    3  502    0 -0.91497059537E+03  0.13428050664E+04  0.93457174900E+03  0.18744980877E+04  0.46999998093E+01 0. -1.
       -5    1    3    3    0  502  0.91497059537E+03 -0.13428050664E+04 -0.83548368256E+03  0.18271156806E+04  0.46999998093E+01 0.  1.
</event>
<event>
 5   0  0.1740290E-08  0.3699276E+04  0.7818609E-02  0.8068122E-01
        2   -1    0    0  501    0  0.00000000000E+00  0.00000000000E+00  0.19211700593E+04  0.19211700593E+04  0.25500000920E-02 0.  1.
       -2   -1    0    0    0  501  0.00000000000E+00  0.00000000000E+00 -0.17807691299E+04  0.17807691299E+04  0.25500000920E-02 0. -1.
    10030    2    1    2    0    0  0.00000000000E+00  0.00000000000E+00  0.14040092943E+03  0.37019391892E+04  0.36992757858E+04 0.  0.
        5    1    3    3  502    0  0.12128210887E+04 -0.10291052866E+04  0.10148851931E+04  0.18867980097E+04  0.46999998093E+01 0.  1.
       -5    1    3    3    0  502 -0.12128210887E+04  0.10291052866E+04 -0.87448426371E+03  0.18151411795E+04  0.46999998093E+01 0. -1.
</event>
<event>
 5   0  0.5714125E-09  0.3699431E+04  0.7818609E-02  0.8068088E-01
        1   -1    0    0  501    0  0.00000000000E+00  0.00000000000E+00  0.24861679465E+04  0.24861679465E+04  0.50400001928E-02 0.  1.
       -1   -1    0    0    0  501  0.00000000000E+00  0.00000000000E+00 -0.13761932065E+04  0.13761932065E+04  0.50400001928E-02 0. -1.
    10030    2    1    2    0    0  0.00000000000E+00  0.00000000000E+00  0.11099747400E+04  0.38623611530E+04  0.36994310040E+04 0.  0.
        4    1    3    3  502    0 -0.28778501069E+03  0.73815052824E+03 -0.11900810132E+04  0.14296785812E+04  0.12699999809E+01 0. -1.
       -4    1    3    3    0  502  0.28778501069E+03 -0.73815052824E+03  0.23000557532E+04  0.24326825718E+04  0.12699999809E+01 0.  1.
</event>
<event>
 5   0  0.1825308E-08  0.3697914E+04  0.7818609E-02  0.8068424E-01
        2   -1    0    0  501    0  0.00000000000E+00  0.00000000000E+00  0.15184855149E+04  0.15184855149E+04  0.25500000920E-02 0. -1.
       -2   -1    0    0    0  501  0.00000000000E+00  0.00000000000E+00 -0.22513499937E+04  0.22513499937E+04  0.25500000920E-02 0.  1.
    10030    2    1    2    0    0  0.00000000000E+00  0.00000000000E+00 -0.73286447881E+03  0.37698355086E+04  0.36979141982E+04 0.  0.
        4    1    3    3  502    0 -0.12734777406E+04  0.88263807270E+02  0.99715662916E+03  0.16198330196E+04  0.12699999809E+01 0. -1.
       -4    1    3    3    0  502  0.12734777406E+04 -0.88263807270E+02 -0.17300211080E+04  0.21500024889E+04  0.12699999809E+01 0.  1.
</event>
<event>
 5   0  0.5714125E-09  0.3706037E+04  0.7818609E-02  0.8066625E-01
        1   -1    0    0  501    0  0.00000000000E+00  0.00000000000E+00  0.13548499487E+04  0.13548499487E+04  0.50400001928E-02 0. -1.
       -1   -1    0    0    0  501  0.00000000000E+00  0.00000000000E+00 -0.25343605574E+04  0.25343605575E+04  0.50400001928E-02 0.  1.
    10030    2    1    2    0    0  0.00000000000E+00  0.00000000000E+00 -0.11795106087E+04  0.38892105062E+04  0.37060373831E+04 0.  0.
        1    1    3    3  502    0  0.98929375221E+03  0.15666294306E+04 -0.61647694718E+03  0.19527093300E+04  0.50400001928E-02 0.  1.
       -1    1    3    3    0  502 -0.98929375221E+03 -0.15666294306E+04 -0.56303366156E+03  0.19365011761E+04  0.50400001928E-02 0. -1.
</event>
<event>
 5   0  0.1725865E-08  0.3702279E+04  0.7818609E-02  0.8067457E-01
       -2   -1    0    0    0  501  0.00000000000E+00  0.00000000000E+00  0.12997264969E+04  0.12997264969E+04  0.25500000920E-02 0.  1.
        2   -1    0    0  501    0  0.00000000000E+00  0.00000000000E+00 -0.26364906497E+04  0.26364906497E+04  0.25500000920E-02 0. -1.
    10030    2    1    2    0    0  0.00000000000E+00  0.00000000000E+00 -0.13367641528E+04  0.39362171467E+04  0.37022786261E+04 0.  0.
        1    1    3    3  502    0  0.38220079340E+03  0.40644024838E+03 -0.25449748413E+04  0.26054113044E+04  0.50400001928E-02 0. -1.
       -1    1    3    3    0  502 -0.38220079340E+03 -0.40644024838E+03  0.12082106885E+04  0.13308058423E+04  0.50400001928E-02 0.  1.
</event>
<event>
 5   0  0.5714125E-09  0.3700023E+04  0.7818609E-02  0.8067957E-01
       -1   -1    0    0    0  501  0.00000000000E+00  0.00000000000E+00  0.15176495306E+04  0.15176495306E+04  0.50400001928E-02 0. -1.
        1   -1    0    0  501    0  0.00000000000E+00  0.00000000000E+00 -0.22551594738E+04  0.22551594738E+04  0.50400001928E-02 0.  1.
    10030    2    1    2    0    0  0.00000000000E+00  0.00000000000E+00 -0.73750994314E+03  0.37728090044E+04  0.37000225496E+04 0.  0.
        4    1    3    3  502    0  0.96156291772E+03  0.43482032306E+03  0.11806324115E+04  0.15835297478E+04  0.12699999809E+01 0. -1.
       -4    1    3    3    0  502 -0.96156291772E+03 -0.43482032306E+03 -0.19181423546E+04  0.21892792566E+04  0.12699999809E+01 0.  1.
</event>
<event>
 5   0  0.1757996E-08  0.3702933E+04  0.7818609E-02  0.8067312E-01
        2   -1    0    0  501    0  0.00000000000E+00  0.00000000000E+00  0.16996124226E+04  0.16996124226E+04  0.25500000920E-02 0.  1.
       -2   -1    0    0    0  501  0.00000000000E+00  0.00000000000E+00 -0.20168883507E+04  0.20168883507E+04  0.25500000920E-02 0. -1.
    10030    2    1    2    0    0  0.00000000000E+00  0.00000000000E+00 -0.31727592808E+03  0.37165007733E+04  0.37029331594E+04 0.  0.
        3    1    3    3  502    0  0.82180649753E+03  0.16175081280E+04  0.21180791511E+03  0.18266255957E+04  0.10100000352E+00 0.  1.
       -3    1    3    3    0  502 -0.82180649753E+03 -0.16175081280E+04 -0.52908384318E+03  0.18898751776E+04  0.10100000352E+00 0. -1.
</event>
<event>
 5   0  0.5714125E-09  0.3700451E+04  0.7818609E-02  0.8067862E-01
        1   -1    0    0  501    0  0.00000000000E+00  0.00000000000E+00  0.26722675388E+04  0.26722675388E+04  0.50400001928E-02 0. -1.
       -1   -1    0    0    0  501  0.00000000000E+00  0.00000000000E+00 -0.12810595874E+04  0.12810595874E+04  0.50400001928E-02 0.  1.
    10030    2    1    2    0    0  0.00000000000E+00  0.00000000000E+00  0.13912079514E+04  0.39533271263E+04  0.37004507568E+04 0.  0.
        3    1    3    3  502    0 -0.69625041955E+03  0.17124370766E+04  0.61196916330E+03  0.19472317928E+04  0.10100000352E+00 0.  1.
       -3    1    3    3    0  502  0.69625041955E+03 -0.17124370766E+04  0.77923878808E+03  0.20060953335E+04  0.10100000352E+00 0. -1.
</event>
<event>
 5   0  0.1725865E-08  0.3701125E+04  0.7818609E-02  0.8067712E-01
        2   -1    0    0  501    0  0.00000000000E+00  0.00000000000E+00  0.20117666660E+04  0.20117666660E+04  0.25500000920E-02 0. -1.
       -2   -1    0    0    0  501  0.00000000000E+00  0.00000000000E+00 -0.17022760854E+04  0.17022760854E+04  0.25500000920E-02 0.  1.
    10030    2    1    2    0    0  0.00000000000E+00  0.00000000000E+00  0.30949058064E+03  0.37140427514E+04  0.37011253882E+04 0.  0.
        1    1    3    3  502    0  0.10338639832E+04  0.15226302645E+04 -0.39072861874E+02  0.18408705405E+04  0.50400001928E-02 0.  1.
       -1    1    3    3    0  502 -0.10338639832E+04 -0.15226302645E+04  0.34856344251E+03  0.18731722109E+04  0.50400001928E-02 0. -1.
</event>
<event>
 5   0  0.5714125E-09  0.3706774E+04  0.7818609E-02  0.8066462E-01
       -1   -1    0    0    0  501  0.00000000000E+00  0.00000000000E+00  0.18704228116E+04  0.18704228116E+04  0.50400001928E-02 0. -1.
        1   -1    0    0  501    0  0.00000000000E+00  0.00000000000E+00 -0.18365059809E+04  0.18365059809E+04  0.50400001928E-02 0.  1.
    10030    2    1    2    0    0  0.00000000000E+00  0.00000000000E+00  0.33916830658E+02  0.37069287925E+04  0.37067736269E+04 0.  0.
        4    1    3    3  502    0 -0.94093366044E+03  0.96342995520E+03  0.12903881893E+04  0.18651157401E+04  0.12699999809E+01 0. -1.
       -4    1    3    3    0  502  0.94093366044E+03 -0.96342995520E+03 -0.12564713587E+04  0.18418130524E+04  0.12699999809E+01 0.  1.
</event>
<event>
 5   0  0.1757996E-08  0.3696865E+04  0.7818609E-02  0.8068657E-01
       -2   -1    0    0    0  501  0.00000000000E+00  0.00000000000E+00  0.16119357844E+04  0.16119357844E+04  0.25500000920E-02 0. -1.
        2   -1    0    0  501    0  0.00000000000E+00  0.00000000000E+00 -0.21196265188E+04  0.21196265188E+04  0.25500000920E-02 0.  1.
    10030    2    1    2    0    0  0.00000000000E+00  0.00000000000E+00 -0.50769073447E+03  0.37315623032E+04  0.36968645283E+04 0.  0.
        3    1    3    3  502    0  0.17828917017E+04 -0.46154916299E+03 -0.94338866009E+02  0.18440797927E+04  0.10100000352E+00 0.  1.
       -3    1    3    3    0  502 -0.17828917017E+04  0.46154916299E+03 -0.41335186846E+03  0.18874825105E+04  0.10100000352E+00 0. -1.
</event>
<event>
 5   0  0.5714125E-09  0.3700103E+04  0.7818609E-02  0.8067939E-01
       -1   -1    0    0    0  501  0.00000000000E+00  0.00000000000E+00  0.15587263302E+04  0.15587263302E+04  0.50400001928E-02 0.  1.
        1   -1    0    0  501    0  0.00000000000E+00  0.00000000000E+00 -0.21958254627E+04  0.21958254627E+04  0.50400001928E-02 0. -1.
    10030    2    1    2    0    0  0.00000000000E+00  0.00000000000E+00 -0.63709913250E+03  0.37545517929E+04  0.37001032230E+04 0.  0.
        4    1    3    3  502    0 -0.89272118775E+03 -0.10407885467E+04  0.94169979201E+03  0.16634277950E+04  0.12699999809E+01 0.  1.
       -4    1    3    3    0  502  0.89272118775E+03  0.10407885467E+04 -0.15787989245E+04  0.20911239980E+04  0.12699999809E+01 0. -1.
</event>
<event>
 5   0  0.5714125E-09  0.3698265E+04  0.7818609E-02  0.8068347E-01
        3   -1    0    0  501    0  0.00000000000E+00  0.00000000000E+00  0.18011954014E+04  0.18011954042E+04  0.10100000352E+00 0.  1.
       -3   -1    0    0    0  501  0.00000000000E+00  0.00000000000E+00 -0.18983449476E+04  0.18983449503E+04  0.10100000352E+00 0. -1.
    10030    2    1    2    0    0  0.00000000000E+00  0.00000000000E+00 -0.97149546245E+02  0.36995403545E+04  0.36982645660E+04 0.  0.
        1    1    3    3  502    0  0.10876906782E+04  0.27810535284E+03 -0.15183932487E+04  0.18883674581E+04  0.50400001928E-02 0. -1.
       -1    1    3    3    0  502 -0.10876906782E+04 -0.27810535284E+03  0.14212437025E+04  0.18111728964E+04  0.50400001928E-02 0.  1.
</event>
<event>
 5   0  0.5714125E-09  0.3697169E+04  0.7818609E-02  0.8068589E-01
        1   -1    0    0  501    0  0.00000000000E+00  0.00000000000E+00  0.13645851263E+04  0.13645851263E+04  0.50400001928E-02 0. -1.
       -1   -1    0    0    0  501  0.00000000000E+00  0.00000000000E+00 -0.25042522454E+04  0.25042522454E+04  0.50400001928E-02 0.  1.
    10030    2    1    2    0    0  0.00000000000E+00  0.00000000000E+00 -0.11396671191E+04  0.38688373717E+04  0.36971693857E+04 0.  0.
        4    1    3    3  502    0  0.11263790151E+04 -0.10417982399E+04  0.50915457503E+03  0.16165745428E+04  0.12699999809E+01 0. -1.
       -4    1    3    3    0  502 -0.11263790151E+04  0.10417982399E+04 -0.16488216942E+04  0.22522628289E+04  0.12699999809E+01 0.  1.
</event>
<event>
 5   0  0.5714125E-09  0.3704990E+04  0.7818609E-02  0.8066857E-01
       -1   -1    0    0    0  501  0.00000000000E+00  0.00000000000E+00  0.16752423837E+04  0.16752423837E+04  0.50400001928E-02 0.  1.
        1   -1    0    0  501    0  0.00000000000E+00  0.00000000000E+00 -0.20485023744E+04  0.20485023744E+04  0.50400001928E-02 0. -1.
    10030    2    1    2    0    0  0.00000000000E+00  0.00000000000E+00 -0.37325999068E+03  0.37237447580E+04  0.37049901488E+04 0.  0.
        5    1    3    3  502    0 -0.34988087924E+03 -0.23753217428E+02  0.16415705928E+04  0.16786175700E+04  0.46999998093E+01 0.  1.
       -5    1    3    3    0  502  0.34988087924E+03  0.23753217428E+02 -0.20148305835E+04  0.20451271880E+04  0.46999998093E+01 0. -1.
</event>
<event>
 5   0  0.1856107E-08  0.3699450E+04  0.7818609E-02  0.8068084E-01
       -2   -1    0    0    0  501  0.00000000000E+00  0.00000000000E+00  0.22660788705E+04  0.22660788705E+04  0.25500000920E-02 0.  1.
        2   -1    0    0  501    0  0.00000000000E+00  0.00000000000E+00 -0.15098689386E+04  0.15098689386E+04  0.25500000920E-02 0. -1.
    10030    2    1    2    0    0  0.00000000000E+00  0.00000000000E+00  0.75620993198E+03  0.37759478091E+04  0.36994497423E+04 0.  0.
        2    1    3    3  502    0 -0.12416896612E+04 -0.68795091585E+03 -0.83234041606E+03  0.16455577308E+04  0.25500000920E-02 0. -1.
       -2    1    3    3    0  502  0.12416896612E+04  0.68795091585E+03  0.15885503480E+04  0.21303900783E+04  0.25500000920E-02 0.  1.
</event>
<event>
 5   0  0.1825308E-08  0.3700121E+04  0.7818609E-02  0.8067935E-01
       -2   -1    0    0    0  501  0.00000000000E+00  0.00000000000E+00  0.22749145253E+04  0.22749145253E+04  0.25500000920E-02 0. -1.
        2   -1    0    0  501    0  0.00000000000E+00  0.00000000000E+00 -0.15045504904E+04  0.15045504904E+04  0.25500000920E-02 0.  1.
    10030    2    1    2    0    0  0.00000000000E+00  0.00000000000E+00  0.77036403489E+03  0.37794650157E+04  0.37001209519E+04 0.  0.
        4    1    3    3  502    0 -0.15628574128E+04 -0.27355864234E+03 -0.58672819689E+03  0.16916291596E+04  0.12699999809E+01 0.  1.
       -4    1    3    3    0  502  0.15628574128E+04  0.27355864234E+03  0.13570922318E+04  0.20878358561E+04  0.12699999809E+01 0. -1.
</event>
<event>
 5   0  0.1757996E-08  0.3699785E+04  0.7818609E-02  0.8068010E-01
       -2   -1    0    0    0  501  0.00000000000E+00  0.00000000000E+00  0.16007767365E+04  0.16007767365E+04  0.25500000920E-02 0. -1.
        2   -1    0    0  501    0  0.00000000000E+00  0.00000000000E+00 -0.21377755597E+04  0.21377755597E+04  0.25500000920E-02 0.  1.
    10030    2    1    2    0    0  0.00000000000E+00  0.00000000000E+00 -0.53699882315E+03  0.37385522962E+04  0.36997845255E+04 0.  0.
        3    1    3    3  502    0 -0.13639608728E+04 -0.12229420490E+04 -0.86573834967E+01  0.18319529138E+04  0.10100000352E+00 0.  1.
       -3    1    3    3    0  502  0.13639608728E+04  0.12229420490E+04 -0.52834143965E+03  0.19065993824E+04  0.10100000352E+00 0. -1.
</event>
<event>
 5   0  0.1740290E-08  0.3701989E+04  0.7818609E-02  0.8067521E-01
       -2   -1    0    0    0  501  0.00000000000E+00  0.00000000000E+00  0.12844661518E+04  0.12844661518E+04  0.25500000920E-02 0. -1.
        2   -1    0    0  501    0  0.00000000000E+00  0.00000000000E+00 -0.26673964244E+04  0.26673964244E+04  0.25500000920E-02 0.  1.
    10030    2    1    2    0    0  0.00000000000E+00  0.00000000000E+00 -0.13829302726E+04  0.39518625762E+04  0.37019888819E+04 0.  0.
        5    1    3    3  502    0 -0.15327237268E+04 -0.86613707860E+03 -0.13016430598E+04  0.21894593412E+04  0.46999998093E+01 0.  1.
       -5    1    3    3    0  502  0.15327237268E+04  0.86613707860E+03 -0.81287212817E+02  0.17624032350E+04  0.46999998093E+01 0. -1.
</event>
<event>
 5   0  0.5714125E-09  0.3700053E+04  0.7818609E-02  0.8067950E-01
       -1   -1    0    0    0  501  0.00000000000E+00  0.00000000000E+00  0.15286160519E+04  0.15286160519E+04  0.50400001928E-02 0. -1.
        1   -1    0    0  501    0  0.00000000000E+00  0.00000000000E+00 -0.22390175134E+04  0.22390175134E+04  0.50400001928E-02 0.  1.
    10030    2    1    2    0    0  0.00000000000E+00  0.00000000000E+00 -0.71040146151E+03  0.37676335652E+04  0.37000530328E+04 0.  0.
        4    1    3    3  502    0 -0.51702643656E+03  0.53663825021E+03  0.13690373869E+04  0.15587052086E+04  0.12699999809E+01 0. -1.
       -4    1    3    3    0  502  0.51702643656E+03 -0.53663825021E+03 -0.20794388484E+04  0.22089283567E+04  0.12699999809E+01 0.  1.
</event>
<event>
 5   0  0.5714125E-09  0.3712832E+04  0.7818609E-02  0.8065124E-01
       -1   -1    0    0    0  501  0.00000000000E+00  0.00000000000E+00  0.16704726022E+04  0.16704726022E+04  0.50400001928E-02 0.  1.
        1   -1    0    0  501    0  0.00000000000E+00  0.00000000000E+00 -0.20630567780E+04  0.20630567780E+04  0.50400001928E-02 0. -1.
    10030    2    1    2    0    0  0.00000000000E+00  0.00000000000E+00 -0.39258417577E+03  0.37335293802E+04  0.37128317088E+04 0.  0.
        1    1    3    3  502    0 -0.18963406618E+03 -0.90684522552E+03  0.14213866971E+04  0.16966642228E+04  0.50400001928E-02 0.  1.
       -1    1    3    3    0  502  0.18963406618E+03  0.90684522552E+03 -0.18139708729E+04  0.20368651575E+04  0.50400001928E-02 0. -1.
</event>
<event>
 5   0  0.1757996E-08  0.3703066E+04  0.7818609E-02  0.8067283E-01
       -2   -1    0    0    0  501  0.00000000000E+00  0.00000000000E+00  0.99058638780E+03  0.99058638781E+03  0.25500000920E-02 0. -1.
        2   -1    0    0  501    0  0.00000000000E+00  0.00000000000E+00 -0.34607529942E+04  0.34607529942E+04  0.25500000920E-02 0.  1.
    10030    2    1    2    0    0  0.00000000000E+00  0.00000000000E+00 -0.24701666064E+04  0.44513393820E+04  0.37030661931E+04 0.  0.
        3    1    3    3  502    0 -0.96754676871E+03  0.93812698304E+03 -0.27612587107E+04  0.30725850132E+04  0.10100000352E+00 0.  1.
       -3    1    3    3    0  502  0.96754676871E+03 -0.93812698304E+03  0.29109210432E+03  0.13787543687E+04  0.10100000352E+00 0. -1.
</event>
<event>
 5   0  0.1725865E-08  0.3697583E+04  0.7818609E-02  0.8068498E-01
       -2   -1    0    0    0  501  0.00000000000E+00  0.00000000000E+00  0.21932529275E+04  0.21932529275E+04  0.25500000920E-02 0.  1.
        2   -1    0    0  501    0  0.00000000000E+00  0.00000000000E+00 -0.15584292639E+04  0.15584292639E+04  0.25500000920E-02 0. -1.
    10030    2    1    2    0    0  0.00000000000E+00  0.00000000000E+00  0.63482366357E+03  0.37516821914E+04  0.36975827484E+04 0.  0.
        1    1    3    3  502    0  0.22235719664E+03  0.17148966002E+04  0.98098089218E+03  0.19881238853E+04  0.50400001928E-02 0.  1.
       -1    1    3    3    0  502 -0.22235719664E+03 -0.17148966002E+04 -0.34615722861E+03  0.17635583062E+04  0.50400001928E-02 0. -1.
</event>
<event>
 5   0  0.1757996E-08  0.3700228E+04  0.7818609E-02  0.8067911E-01
       -2   -1    0    0    0  501  0.00000000000E+00  0.00000000000E+00  0.21016402976E+04  0.21016402976E+04  0.25500000920E-02 0.  1.
        2   -1    0    0  501    0  0.00000000000E+00  0.00000000000E+00 -0.16286907365E+04  0.16286907365E+04  0.25500000920E-02 0. -1.
    10030    2    1    2    0    0  0.00000000000E+00  0.00000000000E+00  0.47294956110E+03  0.37303310341E+04  0.37002281465E+04 0.  0.
        3    1    3    3  502    0 -0.34854733371E+02 -0.58207511900E+03 -0.15336272179E+04  0.16407433530E+04  0.10100000352E+00 0. -1.
       -3    1    3    3    0  502  0.34854733371E+02  0.58207511900E+03  0.20065767790E+04  0.20895876811E+04  0.10100000352E+00 0.  1.
</event>
<event>
 5   0  0.5714125E-09  0.3696851E+04  0.7818609E-02  0.8068660E-01
       -1   -1    0    0    0  501  0.00000000000E+00  0.00000000000E+00  0.17936799031E+04  0.17936799031E+04  0.50400001928E-02 0.  1.
        1   -1    0    0  501    0  0.00000000000E+00  0.00000000000E+00 -0.19048424809E+04  0.19048424809E+04  0.50400001928E-02 0. -1.
    10030    2    1    2    0    0  0.00000000000E+00  0.00000000000E+00 -0.11116257782E+03  0.36985223840E+04  0.36968514585E+04 0.  0.
        3    1    3    3  502    0  0.18036899636E+04 -0.28760970331E+03 -0.33971817820E+03  0.18578011942E+04  0.10100000352E+00 0. -1.
       -3    1    3    3    0  502 -0.18036899636E+04  0.28760970331E+03  0.22855560038E+03  0.18407211899E+04  0.10100000352E+00 0.  1.
</event>
<event>
 5   0  0.1856107E-08  0.3697538E+04  0.7818609E-02  0.8068508E-01
       -2   -1    0    0    0  501  0.00000000000E+00  0.00000000000E+00  0.15673286882E+04  0.15673286882E+04  0.25500000920E-02 0. -1.
        2   -1    0    0  501    0  0.00000000000E+00  0.00000000000E+00 -0.21807462905E+04  0.21807462905E+04  0.25500000920E-02 0.  1.
    10030    2    1    2    0    0  0.00000000000E+00  0.00000000000E+00 -0.61341760227E+03  0.37480749787E+04  0.36975376795E+04 0.  0.
        2    1    3    3  502    0  0.28689296174E+03  0.54751611426E+03  0.14594789643E+04  0.15849795942E+04  0.25500000920E-02 0. -1.
       -2    1    3    3    0  502 -0.28689296174E+03 -0.54751611426E+03 -0.20728965665E+04  0.21630953845E+04  0.25500000920E-02 0.  1.
</event>
<event>
 5   0  0.5714125E-09  0.3699606E+04  0.7818609E-02  0.8068049E-01
       -1   -1    0    0    0  501  0.00000000000E+00  0.00000000000E+00  0.19835077675E+04  0.19835077675E+04  0.50400001928E-02 0.  1.
        1   -1    0    0  501    0  0.00000000000E+00  0.00000000000E+00 -0.17251114835E+04  0.17251114835E+04  0.50400001928E-02 0. -1.
    10030    2    1    2    0    0  0.00000000000E+00  0.00000000000E+00  0.25839628401E+03  0.37086192510E+04  0.36996064803E+04 0.  0.
        1    1    3    3  502    0  0.70271322706E+03 -0.11834189786E+04  0.13681239192E+04  0.19406311903E+04  0.50400001928E-02 0.  1.
       -1    1    3    3    0  502 -0.70271322706E+03  0.11834189786E+04 -0.11097276352E+04  0.17679880607E+04  0.50400001928E-02 0. -1.
</event>
<event>
 5   0  0.1757996E-08  0.3697332E+04  0.7818609E-02  0.8068553E-01
        2   -1    0    0  501    0  0.00000000000E+00  0.00000000000E+00  0.20705648201E+04  0.20705648201E+04  0.25500000920E-02 0.  1.
       -2   -1    0    0    0  501  0.00000000000E+00  0.00000000000E+00 -0.16505477685E+04  0.16505477685E+04  0.25500000920E-02 0. -1.
    10030    2    1    2    0    0  0.00000000000E+00  0.00000000000E+00  0.42001705168E+03  0.37211125886E+04  0.36973320886E+04 0.  0.
        3    1    3    3  502    0 -0.61806334522E+03 -0.48697192478E+03 -0.14735994235E+04  0.16705206450E+04  0.10100000352E+00 0. -1.
       -3    1    3    3    0  502  0.61806334522E+03  0.48697192478E+03  0.18936164751E+04  0.20505919436E+04  0.10100000352E+00 0.  1.
</event>
<event>
 5   0  0.1856107E-08  0.3700193E+04  0.7818609E-02  0.8067919E-01
       -2   -1    0    0    0  501  0.00000000000E+00  0.00000000000E+00  0.15609070643E+04  0.15609070643E+04  0.25500000920E-02 0.  1.
        2   -1    0    0  501    0  0.00000000000E+00  0.00000000000E+00 -0.21928642394E+04  0.21928642394E+04  0.25500000920E-02 0. -1.
    10030    2    1    2    0    0  0.00000000000E+00  0.00000000000E+00 -0.63195717512E+03  0.37537713037E+04  0.37001931206E+04 0.  0.
        2    1    3    3  502    0  0.16604538319E+02 -0.58769526162E+03  0.14636156373E+04  0.15772863294E+04  0.25500000920E-02 0.  1.
       -2    1    3    3    0  502 -0.16604538319E+02  0.58769526162E+03 -0.20955728124E+04  0.21764849743E+04  0.25500000920E-02 0. -1.
</event>
<event>
 5   0  0.5714125E-09  0.3699828E+04  0.7818609E-02  0.8068000E-01
       -1   -1    0    0    0  501  0.00000000000E+00  0.00000000000E+00  0.16006912261E+04  0.16006912261E+04  0.50400001928E-02 0.  1.
        1   -1    0    0  501    0  0.00000000000E+00  0.00000000000E+00 -0.21379396811E+04  0.21379396811E+04  0.50400001928E-02 0. -1.
    10030    2    1    2    0    0  0.00000000000E+00  0.00000000000E+00 -0.53724845497E+03  0.37386309072E+04  0.36998277200E+04 0.  0.
        1    1    3    3  502    0  0.25295067697E+03  0.20774313047E+03 -0.21084448348E+04  0.21337012149E+04  0.50400001928E-02 0. -1.
       -1    1    3    3    0  502 -0.25295067697E+03 -0.20774313047E+03  0.15711963798E+04  0.16049296923E+04  0.50400001928E-02 0.  1.
</event>
<event>
 5   0  0.1740290E-08  0.3700405E+04  0.7818609E-02  0.8067872E-01
       -2   -1    0    0    0  501  0.00000000000E+00  0.00000000000E+00  0.16277940299E+04  0.16277940299E+04  0.25500000920E-02 0.  1.
        2   -1    0    0  501    0  0.00000000000E+00  0.00000000000E+00 -0.21029993384E+04  0.21029993384E+04  0.25500000920E-02 0. -1.
    10030    2    1    2    0    0  0.00000000000E+00  0.00000000000E+00 -0.47520530854E+03  0.37307933683E+04  0.37004052578E+04 0.  0.
        5    1    3    3  502    0 -0.88115174442E+03 -0.50348213127E+03  0.13221327600E+04  0.16667272657E+04  0.46999998093E+01 0.  1.
       -5    1    3    3    0  502  0.88115174442E+03  0.50348213127E+03 -0.17973380686E+04  0.20640661026E+04  0.46999998093E+01 0. -1.
</event>
<event>
 5   0  0.1856107E-08  0.3701896E+04  0.7818609E-02  0.8067542E-01
       -2   -1    0    0    0  501  0.00000000000E+00  0.00000000000E+00  0.16088484920E+04  0.16088484920E+04  0.25500000920E-02 0. -1.
        2   -1    0    0  501    0  0.00000000000E+00  0.00000000000E+00 -0.21294787344E+04  0.21294787344E+04  0.25500000920E-02 0.  1.
    10030    2    1    2    0    0  0.00000000000E+00  0.00000000000E+00 -0.52063024243E+03  0.37383272263E+04  0.37018960820E+04 0.  0.
        2    1    3    3  502    0 -0.30374129050E+03  0.52932584932E+03  0.15043268545E+04  0.16234050361E+04  0.25500000920E-02 0. -1.
       -2    1    3    3    0  502  0.30374129050E+03 -0.52932584932E+03 -0.20249570969E+04  0.21149221902E+04  0.25500000920E-02 0.  1.
</event>
<event>
 5   0  0.1740290E-08  0.3699619E+04  0.7818609E-02  0.8068046E-01
        2   -1    0    0  501    0  0.00000000000E+00  0.00000000000E+00  0.17648184101E+04  0.17648184101E+04  0.25500000920E-02 0. -1.
       -2   -1    0    0    0  501  0.00000000000E+00  0.00000000000E+00 -0.19388931528E+04  0.19388931528E+04  0.25500000920E-02 0.  1.
    10030    2    1    2    0    0  0.00000000000E+00  0.00000000000E+00 -0.17407474269E+03  0.37037115630E+04  0.36996185379E+04 0.  0.
        5    1    3    3  502    0  0.10553043552E+03  0.18116607935E+04  0.27185713905E+03  0.18349877105E+04  0.46999998093E+01 0.  1.
       -5    1    3    3    0  502 -0.10553043552E+03 -0.18116607935E+04 -0.44593188174E+03  0.18687238525E+04  0.46999998093E+01 0. -1.
</event>
<event>
 5   0  0.5714125E-09  0.3698999E+04  0.7818609E-02  0.8068184E-01
        1   -1    0    0  501    0  0.00000000000E+00  0.00000000000E+00  0.15138115248E+04  0.15138115248E+04  0.50400001928E-02 0.  1.
       -1   -1    0    0    0  501  0.00000000000E+00  0.00000000000E+00 -0.22596264294E+04  0.22596264294E+04  0.50400001928E-02 0. -1.
    10030    2    1    2    0    0  0.00000000000E+00  0.00000000000E+00 -0.74581490457E+03  0.37734379542E+04  0.36989990704E+04 0.  0.
        1    1    3    3  502    0  0.45014161603E+03 -0.12848811247E+03 -0.21981918805E+04  0.22474839740E+04  0.50400001928E-02 0. -1.
       -1    1    3    3    0  502 -0.45014161603E+03  0.12848811247E+03  0.14523769760E+04  0.15259539803E+04  0.50400001928E-02 0.  1.
</event>
<event>
 5   0  0.1825308E-08  0.3700943E+04  0.7818609E-02  0.8067753E-01
       -2   -1    0    0    0  501  0.00000000000E+00  0.00000000000E+00  0.18033929011E+04  0.18033929011E+04  0.25500000920E-02 0. -1.
        2   -1    0    0  501    0  0.00000000000E+00  0.00000000000E+00 -0.18987788479E+04  0.18987788479E+04  0.25500000920E-02 0.  1.
    10030    2    1    2    0    0  0.00000000000E+00  0.00000000000E+00 -0.95385946822E+02  0.37021717490E+04  0.37009427420E+04 0.  0.
        4    1    3    3  502    0  0.66083437761E+03 -0.17262067503E+03 -0.17680730033E+04  0.18954112297E+04  0.12699999809E+01 0.  1.
       -4    1    3    3    0  502 -0.66083437761E+03  0.17262067503E+03  0.16726870564E+04  0.18067605192E+04  0.12699999809E+01 0. -1.
</event>
<event>
 5   0  0.1757996E-08  0.3699738E+04  0.7818609E-02  0.8068020E-01
       -2   -1    0    0    0  501  0.00000000000E+00  0.00000000000E+00  0.15936947700E+04  0.15936947700E+04  0.25500000920E-02 0. -1.
        2   -1    0    0  501    0  0.00000000000E+00  0.00000000000E+00 -0.21472214615E+04  0.21472214615E+04  0.25500000920E-02 0.  1.
    10030    2    1    2    0    0  0.00000000000E+00  0.00000000000E+00 -0.55352669150E+03  0.37409162315E+04  0.36997381601E+04 0.  0.
        3    1    3    3  502    0  0.10714739120E+04 -0.13526524880E+04 -0.95073326067E+03  0.19701824384E+04  0.10100000352E+00 0.  1.
       -3    1    3    3    0  502 -0.10714739120E+04  0.13526524880E+04  0.39720656917E+03  0.17707337931E+04  0.10100000352E+00 0. -1.
</event>
<event>
 5   0  0.1740290E-08  0.3706354E+04  0.7818609E-02  0.8066555E-01
       -2   -1    0    0    0  501  0.00000000000E+00  0.00000000000E+00  0.15585689893E+04  0.15585689893E+04  0.25500000920E-02 0.  1.
        2   -1    0    0  501    0  0.00000000000E+00  0.00000000000E+00 -0.22034726739E+04  0.22034726739E+04  0.25500000920E-02 0. -1.
    10030    2    1    2    0    0  0.00000000000E+00  0.00000000000E+00 -0.64490368456E+03  0.37620416632E+04  0.37063535602E+04 0.  0.
        5    1    3    3  502    0  0.77133165201E+03  0.27903131235E+03  0.13642715227E+04  0.15918762101E+04  0.46999998093E+01 0.  1.
       -5    1    3    3    0  502 -0.77133165201E+03 -0.27903131235E+03 -0.20091752072E+04  0.21701654531E+04  0.46999998093E+01 0. -1.
</event>
<event>
 5   0  0.1757996E-08  0.3700060E+04  0.7818609E-02  0.8067948E-01
       -2   -1    0    0    0  501  0.00000000000E+00  0.00000000000E+00  0.29154944245E+04  0.29154944245E+04  0.25500000920E-02 0. -1.
        2   -1    0    0  501    0  0.00000000000E+00  0.00000000000E+00 -0.11739385625E+04  0.11739385625E+04  0.25500000920E-02 0.  1.
    10030    2    1    2    0    0  0.00000000000E+00  0.00000000000E+00  0.17415558621E+04  0.40894329870E+04  0.37000601799E+04 0.  0.
        3    1    3    3  502    0  0.17886391543E+04 -0.33369090944E+03  0.12407123370E+04  0.22022594672E+04  0.10100000352E+00 0. -1.
       -3    1    3    3    0  502 -0.17886391543E+04  0.33369090944E+03  0.50084352501E+03  0.18871735199E+04  0.10100000352E+00 0.  1.
</event>
<event>
 5   0  0.5714125E-09  0.3699876E+04  0.7818609E-02  0.8067989E-01
        1   -1    0    0  501    0  0.00000000000E+00  0.00000000000E+00  0.14618305145E+04  0.14618305145E+04  0.50400001928E-02 0.  1.
       -1   -1    0    0    0  501  0.00000000000E+00  0.00000000000E+00 -0.23410858381E+04  0.23410858381E+04  0.50400001928E-02 0. -1.
    10030    2    1    2    0    0  0.00000000000E+00  0.00000000000E+00 -0.87925532361E+03  0.38029163526E+04  0.36998760602E+04 0.  0.
        3    1    3    3  502    0  0.11016791854E+04  0.22419661943E+03 -0.19496607485E+04  0.22505861895E+04  0.10100000352E+00 0. -1.
       -3    1    3    3    0  502 -0.11016791854E+04 -0.22419661943E+03  0.10704054249E+04  0.15523301632E+04  0.10100000352E+00 0.  1.
</event>
<event>
 5   0  0.5714125E-09  0.3700345E+04  0.7818609E-02  0.8067885E-01
        1   -1    0    0  501    0  0.00000000000E+00  0.00000000000E+00  0.15128592231E+04  0.15128592231E+04  0.50400001928E-02 0. -1.
       -1   -1    0    0    0  501  0.00000000000E+00  0.00000000000E+00 -0.22626944538E+04  0.22626944538E+04  0.50400001928E-02 0.  1.
    10030    2    1    2    0    0  0.00000000000E+00  0.00000000000E+00 -0.74983523077E+03  0.37755536769E+04  0.37003449426E+04 0.  0.
        3    1    3    3  502    0  0.52723410876E+03  0.69600112881E+02  0.14331941219E+04  0.15286809289E+04  0.10100000352E+00 0. -1.
       -3    1    3    3    0  502 -0.52723410876E+03 -0.69600112881E+02 -0.21830293526E+04  0.22468727480E+04  0.10100000352E+00 0.  1.
</event>
<event>
 5   0  0.1825308E-08  0.3700634E+04  0.7818609E-02  0.8067821E-01
        2   -1    0    0  501    0  0.00000000000E+00  0.00000000000E+00  0.19898926312E+04  0.19898926312E+04  0.25500000920E-02 0.  1.
       -2   -1    0    0    0  501  0.00000000000E+00  0.00000000000E+00 -0.17205310665E+04  0.17205310665E+04  0.25500000920E-02 0. -1.
    10030    2    1    2    0    0  0.00000000000E+00  0.00000000000E+00  0.26936156475E+03  0.37104236977E+04  0.37006335085E+04 0.  0.
        4    1    3    3  502    0 -0.12975564406E+04 -0.10775416422E+04  0.89756278422E+03  0.19105939579E+04  0.12699999809E+01 0.  1.
       -4    1    3    3    0  502  0.12975564406E+04  0.10775416422E+04 -0.62820121947E+03  0.17998297398E+04  0.12699999809E+01 0. -1.
</event>
<event>
 5   0  0.5714125E-09  0.3673091E+04  0.7818609E-02  0.8073952E-01
        1   -1    0    0  501    0  0.00000000000E+00  0.00000000000E+00  0.19499723906E+04  0.19499723906E+04  0.50400001928E-02 0. -1.
       -1   -1    0    0    0  501  0.00000000000E+00  0.00000000000E+00 -0.17297163494E+04  0.17297163494E+04  0.50400001928E-02 0.  1.
    10030    2    1    2    0    0  0.00000000000E+00  0.00000000000E+00  0.22025604120E+03  0.36796887399E+04  0.36730908645E+04 0.  0.
        5    1    3    3  502    0  0.17250655875E+03  0.16237407723E+04 -0.73196766516E+03  0.17894388397E+04  0.46999998093E+01 0.  1.
       -5    1    3    3    0  502 -0.17250655875E+03 -0.16237407723E+04  0.95222370636E+03  0.18902499002E+04  0.46999998093E+01 0. -1.
</event>
<event>
 5   0  0.5714125E-09  0.3700012E+04  0.7818609E-02  0.8067959E-01
        1   -1    0    0  501    0  0.00000000000E+00  0.00000000000E+00  0.18597261530E+04  0.18597261530E+04  0.50400001928E-02 0. -1.
       -1   -1    0    0    0  501  0.00000000000E+00  0.00000000000E+00 -0.18403369161E+04  0.18403369161E+04  0.50400001928E-02 0.  1.
    10030    2    1    2    0    0  0.00000000000E+00  0.00000000000E+00  0.19389236814E+02  0.37000630691E+04  0.37000122666E+04 0.  0.
        3    1    3    3  502    0 -0.17352541526E+04  0.22313145600E+02 -0.63134291303E+03  0.18466723409E+04  0.10100000352E+00 0.  1.
       -3    1    3    3    0  502  0.17352541526E+04 -0.22313145600E+02  0.65073214984E+03  0.18533907282E+04  0.10100000352E+00 0. -1.
</event>
<event>
 5   0  0.5714125E-09  0.3700019E+04  0.7818609E-02  0.8067958E-01
       -3   -1    0    0    0  501  0.00000000000E+00  0.00000000000E+00  0.22720050525E+04  0.22720050547E+04  0.10100000352E+00 0.  1.
        3   -1    0    0  501    0  0.00000000000E+00  0.00000000000E+00 -0.15063941685E+04  0.15063941719E+04  0.10100000352E+00 0. -1.
    10030    2    1    2    0    0  0.00000000000E+00  0.00000000000E+00  0.76561088397E+03  0.37783992266E+04  0.37000190122E+04 0.  0.
        5    1    3    3  502    0  0.11280585609E+03 -0.12057589144E+04 -0.10453678766E+04  0.15998111789E+04  0.46999998093E+01 0. -1.
       -5    1    3    3    0  502 -0.11280585609E+03  0.12057589144E+04  0.18109787605E+04  0.21785880478E+04  0.46999998093E+01 0.  1.
</event>
<event>
 5   0  0.5714125E-09  0.3698809E+04  0.7818609E-02  0.8068226E-01
        1   -1    0    0  501    0  0.00000000000E+00  0.00000000000E+00  0.21753413719E+04  0.21753413719E+04  0.50400001928E-02 0. -1.
       -1   -1    0    0    0  501  0.00000000000E+00  0.00000000000E+00 -0.15723039708E+04  0.15723039708E+04  0.50400001928E-02 0.  1.
    10030    2    1    2    0    0  0.00000000000E+00  0.00000000000E+00  0.60303740107E+03  0.37476453428E+04  0.36988094717E+04 0.  0.
        3    1    3    3  502    0 -0.14886643295E+04  0.86304549854E+03 -0.38516760252E+03  0.17633272841E+04  0.10100000352E+00 0.  1.
       -3    1    3    3    0  502  0.14886643295E+04 -0.86304549854E+03  0.98820500358E+03  0.19843180587E+04  0.10100000352E+00 0. -1.
</event>
<event>
 5   0  0.1725865E-08  0.3700533E+04  0.7818609E-02  0.8067844E-01
       -2   -1    0    0    0  501  0.00000000000E+00  0.00000000000E+00  0.17907399681E+04  0.17907399681E+04  0.25500000920E-02 0. -1.
        2   -1    0    0  501    0  0.00000000000E+00  0.00000000000E+00 -0.19117717704E+04  0.19117717704E+04  0.25500000920E-02 0.  1.
    10030    2    1    2    0    0  0.00000000000E+00  0.00000000000E+00 -0.12103180227E+03  0.37025117385E+04  0.37005329990E+04 0.  0.
        1    1    3    3  502    0  0.16592634725E+04 -0.38498917343E+03  0.66244516337E+03  0.18276229177E+04  0.50400001928E-02 0. -1.
       -1    1    3    3    0  502 -0.16592634725E+04  0.38498917343E+03 -0.78347696564E+03  0.18748888208E+04  0.50400001928E-02 0.  1.
</event>
<event>
 5   0  0.5714125E-09  0.3702247E+04  0.7818609E-02  0.8067464E-01
       -1   -1    0    0    0  501  0.00000000000E+00  0.00000000000E+00  0.13247636882E+04  0.13247636882E+04  0.50400001928E-02 0.  1.
        1   -1    0    0  501    0  0.00000000000E+00  0.00000000000E+00 -0.25866179211E+04  0.25866179212E+04  0.50400001928E-02 0. -1.
    10030    2    1    2    0    0  0.00000000000E+00  0.00000000000E+00 -0.12618542330E+04  0.39113816094E+04  0.37022466137E+04 0.  0.
        2    1    3    3  502    0 -0.71440130881E+03  0.10466328938E+04 -0.20565402053E+04  0.24156090868E+04  0.25500000920E-02 0. -1.
       -2    1    3    3    0  502  0.71440130881E+03 -0.10466328938E+04  0.79468597232E+03  0.14957725225E+04  0.25500000920E-02 0.  1.
</event>
<event>
 5   0  0.5714125E-09  0.3698818E+04  0.7818609E-02  0.8068224E-01
        1   -1    0    0  501    0  0.00000000000E+00  0.00000000000E+00  0.19618787833E+04  0.19618787833E+04  0.50400001928E-02 0. -1.
       -1   -1    0    0    0  501  0.00000000000E+00  0.00000000000E+00 -0.17433867695E+04  0.17433867695E+04  0.50400001928E-02 0.  1.
    10030    2    1    2    0    0  0.00000000000E+00  0.00000000000E+00  0.21849201377E+03  0.37052655528E+04  0.36988179269E+04 0.  0.
        3    1    3    3  502    0 -0.24338288524E+03  0.97086220206E+03 -0.14486191616E+04  0.17607686190E+04  0.10100000352E+00 0.  1.
       -3    1    3    3    0  502  0.24338288524E+03 -0.97086220206E+03  0.16671111754E+04  0.19444969338E+04  0.10100000352E+00 0. -1.
</event>
<event>
 5   0  0.5714125E-09  0.3701187E+04  0.7818609E-02  0.8067699E-01
        1   -1    0    0  501    0  0.00000000000E+00  0.00000000000E+00  0.16425346611E+04  0.16425346611E+04  0.50400001928E-02 0. -1.
       -1   -1    0    0    0  501  0.00000000000E+00  0.00000000000E+00 -0.20850067613E+04  0.20850067613E+04  0.50400001928E-02 0.  1.
    10030    2    1    2    0    0  0.00000000000E+00  0.00000000000E+00 -0.44247210020E+03  0.37275414223E+04  0.37011867686E+04 0.  0.
        2    1    3    3  502    0  0.99960099042E+03  0.15394893570E+04  0.15953687033E+02  0.18356154664E+04  0.25500000920E-02 0. -1.
       -2    1    3    3    0  502 -0.99960099042E+03 -0.15394893570E+04 -0.45842578723E+03  0.18919259559E+04  0.25500000920E-02 0.  1.
</event>
<event>
 5   0  0.5714125E-09  0.3699073E+04  0.7818609E-02  0.8068167E-01
       -1   -1    0    0    0  501  0.00000000000E+00  0.00000000000E+00  0.14530574650E+04  0.14530574650E+04  0.50400001928E-02 0. -1.
        1   -1    0    0  501    0  0.00000000000E+00  0.00000000000E+00 -0.23541985142E+04  0.23541985142E+04  0.50400001928E-02 0.  1.
    10030    2    1    2    0    0  0.00000000000E+00  0.00000000000E+00 -0.90114104917E+03  0.38072559792E+04  0.36990732489E+04 0.  0.
        3    1    3    3  502    0  0.34521675878E+03 -0.79789187416E+03  0.12296492653E+04  0.15059360475E+04  0.10100000352E+00 0. -1.
       -3    1    3    3    0  502 -0.34521675878E+03  0.79789187416E+03 -0.21307903145E+04  0.23013199317E+04  0.10100000352E+00 0.  1.
</event>
<event>
 5   0  0.1740290E-08  0.3699663E+04  0.7818609E-02  0.8068037E-01
       -2   -1    0    0    0  501  0.00000000000E+00  0.00000000000E+00  0.16804471095E+04  0.16804471095E+04  0.25500000920E-02 0.  1.
        2   -1    0    0  501    0  0.00000000000E+00  0.00000000000E+00 -0.20362891088E+04  0.20362891088E+04  0.25500000920E-02 0. -1.
    10030    2    1    2    0    0  0.00000000000E+00  0.00000000000E+00 -0.35584199929E+03  0.37167362183E+04  0.36996627668E+04 0.  0.
        5    1    3    3  502    0 -0.17897936141E+04  0.26048244003E+03  0.21199612761E+03  0.18210372678E+04  0.46999998093E+01 0. -1.
       -5    1    3    3    0  502  0.17897936141E+04 -0.26048244003E+03 -0.56783812689E+03  0.18956989505E+04  0.46999998093E+01 0.  1.
</event>
<event>
 5   0  0.1725865E-08  0.3700144E+04  0.7818609E-02  0.8067930E-01
        2   -1    0    0  501    0  0.00000000000E+00  0.00000000000E+00  0.20104919190E+04  0.20104919190E+04  0.25500000920E-02 0. -1.
       -2   -1    0    0    0  501  0.00000000000E+00  0.00000000000E+00 -0.17024525505E+04  0.17024525505E+04  0.25500000920E-02 0.  1.
    10030    2    1    2    0    0  0.00000000000E+00  0.00000000000E+00  0.30803936847E+03  0.37129444695E+04  0.37001443730E+04 0.  0.
        1    1    3    3  502    0  0.18732338148E+03  0.28331747292E+03  0.19789390810E+04  0.20078741808E+04  0.50400001928E-02 0. -1.
       -1    1    3    3    0  502 -0.18732338148E+03 -0.28331747292E+03 -0.16708997125E+04  0.17050702886E+04  0.50400001928E-02 0.  1.
</event>
<event>
 5   0  0.5714125E-09  0.3698482E+04  0.7818609E-02  0.8068298E-01
        1   -1    0    0  501    0  0.00000000000E+00  0.00000000000E+00  0.26332345046E+04  0.26332345046E+04  0.50400001928E-02 0. -1.
       -1   -1    0    0    0  501  0.00000000000E+00  0.00000000000E+00 -0.12986662403E+04  0.12986662403E+04  0.50400001928E-02 0.  1.
    10030    2    1    2    0    0  0.00000000000E+00  0.00000000000E+00  0.13345682644E+04  0.39319007449E+04  0.36984822584E+04 0.  0.
        1    1    3    3  502    0 -0.82936400917E+03 -0.16188309709E+03  0.24159795375E+04  0.25594936848E+04  0.50400001928E-02 0. -1.
       -1    1    3    3    0  502  0.82936400917E+03  0.16188309709E+03 -0.10814112732E+04  0.13724070601E+04  0.50400001928E-02 0.  1.
</event>
<event>
 5   0  0.1856107E-08  0.3698955E+04  0.7818609E-02  0.8068194E-01
       -2   -1    0    0    0  501  0.00000000000E+00  0.00000000000E+00  0.16913561670E+04  0.16913561670E+04  0.25500000920E-02 0.  1.
        2   -1    0    0  501    0  0.00000000000E+00  0.00000000000E+00 -0.20223809197E+04  0.20223809197E+04  0.25500000920E-02 0. -1.
    10030    2    1    2    0    0  0.00000000000E+00  0.00000000000E+00 -0.33102475273E+03  0.37137370868E+04  0.36989546851E+04 0.  0.
        2    1    3    3  502    0 -0.39054099724E+03  0.24322407109E+03  0.16329829062E+04  0.16965592802E+04  0.25500000920E-02 0.  1.
       -2    1    3    3    0  502  0.39054099724E+03 -0.24322407109E+03 -0.19640076589E+04  0.20171778066E+04  0.25500000920E-02 0. -1.
</event>
<event>
 5   0  0.1740290E-08  0.3699547E+04  0.7818609E-02  0.8068062E-01
       -2   -1    0    0    0  501  0.00000000000E+00  0.00000000000E+00  0.19834035835E+04  0.19834035835E+04  0.25500000920E-02 0.  1.
        2   -1    0    0  501    0  0.00000000000E+00  0.00000000000E+00 -0.17251469344E+04  0.17251469344E+04  0.25500000920E-02 0. -1.
    10030    2    1    2    0    0  0.00000000000E+00  0.00000000000E+00  0.25825664908E+03  0.37085505180E+04  0.36995473301E+04 0.  0.
        5    1    3    3  502    0  0.99581188879E+03  0.15574168022E+04  0.19601482459E+03  0.18589331120E+04  0.46999998093E+01 0.  1.
       -5    1    3    3    0  502 -0.99581188879E+03 -0.15574168022E+04  0.62241824490E+02  0.18496174059E+04  0.46999998093E+01 0. -1.
</event>
<event>
 5   0  0.5714125E-09  0.3699684E+04  0.7818609E-02  0.8068032E-01
        1   -1    0    0  501    0  0.00000000000E+00  0.00000000000E+00  0.22293021581E+04  0.22293021581E+04  0.50400001928E-02 0.  1.
       -1   -1    0    0    0  501  0.00000000000E+00  0.00000000000E+00 -0.15349719253E+04  0.15349719254E+04  0.50400001928E-02 0. -1.
    10030    2    1    2    0    0  0.00000000000E+00  0.00000000000E+00  0.69433023276E+03  0.37642740835E+04  0.36996844329E+04 0.  0.
        2    1    3    3  502    0 -0.30254935687E+03  0.18200277465E+04  0.48321230004E+03  0.19072313018E+04  0.25500000920E-02 0.  1.
       -2    1    3    3    0  502  0.30254935687E+03 -0.18200277465E+04  0.21111793272E+03  0.18570427817E+04  0.25500000920E-02 0. -1.
</event>
<event>
 5   0  0.1856107E-08  0.3697584E+04  0.7818609E-02  0.8068497E-01
        2   -1    0    0  501    0  0.00000000000E+00  0.00000000000E+00  0.25726623209E+04  0.25726623209E+04  0.25500000920E-02 0.  1.
       -2   -1    0    0    0  501  0.00000000000E+00  0.00000000000E+00 -0.13285971758E+04  0.13285971758E+04  0.25500000920E-02 0. -1.
    10030    2    1    2    0    0  0.00000000000E+00  0.00000000000E+00  0.12440651451E+04  0.39012594968E+04  0.36975840188E+04 0.  0.
        2    1    3    3  502    0 -0.52902440364E+03 -0.72971797157E+03 -0.10810945188E+04  0.14075228226E+04  0.25500000920E-02 0. -1.
       -2    1    3    3    0  502  0.52902440364E+03  0.72971797157E+03  0.23251596639E+04  0.24937366742E+04  0.25500000920E-02 0.  1.
</event>
<event>
 5   0  0.1757996E-08  0.3702908E+04  0.7818609E-02  0.8067318E-01
        2   -1    0    0  501    0  0.00000000000E+00  0.00000000000E+00  0.28005266946E+04  0.28005266946E+04  0.25500000920E-02 0. -1.
       -2   -1    0    0    0  501  0.00000000000E+00  0.00000000000E+00 -0.12240132551E+04  0.12240132551E+04  0.25500000920E-02 0.  1.
    10030    2    1    2    0    0  0.00000000000E+00  0.00000000000E+00  0.15765134395E+04  0.40245399498E+04  0.37029079360E+04 0.  0.
        3    1    3    3  502    0 -0.78943119469E+03 -0.98983011845E+03 -0.67997576466E+03  0.14371264124E+04  0.10100000352E+00 0.  1.
       -3    1    3    3    0  502  0.78943119469E+03  0.98983011845E+03  0.22564892041E+04  0.25874135373E+04  0.10100000352E+00 0. -1.
</event>
<event>
 5   0  0.5714125E-09  0.3703063E+04  0.7818609E-02  0.8067283E-01
       -3   -1    0    0    0  501  0.00000000000E+00  0.00000000000E+00  0.16512605871E+04  0.16512605901E+04  0.10100000352E+00 0. -1.
        3   -1    0    0  501    0  0.00000000000E+00  0.00000000000E+00 -0.20760917436E+04  0.20760917460E+04  0.10100000352E+00 0.  1.
    10030    2    1    2    0    0  0.00000000000E+00  0.00000000000E+00 -0.42483115651E+03  0.37273523362E+04  0.37030627765E+04 0.  0.
        1    1    3    3  502    0  0.16450271685E+04  0.52634056586E+03 -0.88388925754E+03  0.19402084929E+04  0.50400001928E-02 0.  1.
       -1    1    3    3    0  502 -0.16450271685E+04 -0.52634056586E+03  0.45905810103E+03  0.17871438433E+04  0.50400001928E-02 0. -1.
</event>
<event>
 5   0  0.5714125E-09  0.3700787E+04  0.7818609E-02  0.8067787E-01
       -1   -1    0    0    0  501  0.00000000000E+00  0.00000000000E+00  0.25472898546E+04  0.25472898547E+04  0.50400001928E-02 0. -1.
        1   -1    0    0  501    0  0.00000000000E+00  0.00000000000E+00 -0.13441565942E+04  0.13441565942E+04  0.50400001928E-02 0.  1.
    10030    2    1    2    0    0  0.00000000000E+00  0.00000000000E+00  0.12031332605E+04  0.38914464488E+04  0.37007871895E+04 0.  0.
        5    1    3    3  502    0  0.17270671392E+04 -0.39488560234E+03  0.39974175427E+02  0.17720935548E+04  0.46999998093E+01 0.  1.
       -5    1    3    3    0  502 -0.17270671392E+04  0.39488560234E+03  0.11631590850E+04  0.21193528940E+04  0.46999998093E+01 0. -1.
</event>
<event>
 5   0  0.1725865E-08  0.3700326E+04  0.7818609E-02  0.8067890E-01
       -2   -1    0    0    0  501  0.00000000000E+00  0.00000000000E+00  0.14452341279E+04  0.14452341279E+04  0.25500000920E-02 0.  1.
        2   -1    0    0  501    0  0.00000000000E+00  0.00000000000E+00 -0.23685451565E+04  0.23685451565E+04  0.25500000920E-02 0. -1.
    10030    2    1    2    0    0  0.00000000000E+00  0.00000000000E+00 -0.92331102854E+03  0.38137792844E+04  0.37003255498E+04 0.  0.
        1    1    3    3  502    0 -0.28128710083E+03 -0.18264355647E+04 -0.55448929759E+03  0.19293645810E+04  0.50400001928E-02 0. -1.
       -1    1    3    3    0  502  0.28128710083E+03  0.18264355647E+04 -0.36882173095E+03  0.18844147034E+04  0.50400001928E-02 0.  1.
</event>
<event>
 5   0  0.5714125E-09  0.3697264E+04  0.7818609E-02  0.8068568E-01
        1   -1    0    0  501    0  0.00000000000E+00  0.00000000000E+00  0.18007813432E+04  0.18007813432E+04  0.50400001928E-02 0. -1.
       -1   -1    0    0    0  501  0.00000000000E+00  0.00000000000E+00 -0.18977544830E+04  0.18977544830E+04  0.50400001928E-02 0.  1.
    10030    2    1    2    0    0  0.00000000000E+00  0.00000000000E+00 -0.96973139855E+02  0.36985358262E+04  0.36972643222E+04 0.  0.
        4    1    3    3  502    0 -0.16656422833E+04  0.76333124946E+03 -0.29433610297E+03  0.18557139237E+04  0.12699999809E+01 0.  1.
       -4    1    3    3    0  502  0.16656422833E+04 -0.76333124946E+03  0.19736296311E+03  0.18428219025E+04  0.12699999809E+01 0. -1.
</event>
<event>
 5   0  0.5714125E-09  0.3715939E+04  0.7818609E-02  0.8064439E-01
        1   -1    0    0  501    0  0.00000000000E+00  0.00000000000E+00  0.16935744729E+04  0.16935744729E+04  0.50400001928E-02 0. -1.
       -1   -1    0    0    0  501  0.00000000000E+00  0.00000000000E+00 -0.20383224978E+04  0.20383224978E+04  0.50400001928E-02 0.  1.
    10030    2    1    2    0    0  0.00000000000E+00  0.00000000000E+00 -0.34474802497E+03  0.37318969707E+04  0.37159391544E+04 0.  0.
        2    1    3    3  502    0  0.17016064378E+04  0.35872937920E+03 -0.82932360688E+03  0.19266366761E+04  0.25500000920E-02 0.  1.
       -2    1    3    3    0  502 -0.17016064378E+04 -0.35872937920E+03  0.48457558191E+03  0.18052602946E+04  0.25500000920E-02 0. -1.
</event>
<event>
 5   0  0.1825308E-08  0.3702068E+04  0.7818609E-02  0.8067504E-01
        2   -1    0    0  501    0  0.00000000000E+00  0.00000000000E+00  0.24154024201E+04  0.24154024201E+04  0.25500000920E-02 0.  1.
       -2   -1    0    0    0  501  0.00000000000E+00  0.00000000000E+00 -0.14185323519E+04  0.14185323519E+04  0.25500000920E-02 0. -1.
    10030    2    1    2    0    0  0.00000000000E+00  0.00000000000E+00  0.99687006818E+03  0.38339347719E+04  0.37020677874E+04 0.  0.
        4    1    3    3  502    0 -0.97133613603E+03  0.15467406967E+04  0.80985228624E+03  0.19979396914E+04  0.12699999809E+01 0.  1.
       -4    1    3    3    0  502  0.97133613603E+03 -0.15467406967E+04  0.18701778193E+03  0.18359950805E+04  0.12699999809E+01 0. -1.
</event>
<event>
 5   0  0.1856107E-08  0.3698111E+04  0.7818609E-02  0.8068381E-01
        2   -1    0    0  501    0  0.00000000000E+00  0.00000000000E+00  0.17932928854E+04  0.17932928854E+04  0.25500000920E-02 0.  1.
       -2   -1    0    0    0  501  0.00000000000E+00  0.00000000000E+00 -0.19065523333E+04  0.19065523333E+04  0.25500000920E-02 0. -1.
    10030    2    1    2    0    0  0.00000000000E+00  0.00000000000E+00 -0.11325944789E+03  0.36998452188E+04  0.36981112666E+04 0.  0.
        2    1    3    3  502    0  0.16757684092E+04 -0.76008036322E+03  0.12534787871E+03  0.18443519215E+04  0.25500000920E-02 0. -1.
       -2    1    3    3    0  502 -0.16757684092E+04  0.76008036322E+03 -0.23860732660E+03  0.18554932972E+04  0.25500000920E-02 0.  1.
</event>
<event>
 5   0  0.1757996E-08  0.3696290E+04  0.7818609E-02  0.8068785E-01
        2   -1    0    0  501    0  0.00000000000E+00  0.00000000000E+00  0.22479295562E+04  0.22479295562E+04  0.25500000920E-02 0.  1.
       -2   -1    0    0    0  501  0.00000000000E+00  0.00000000000E+00 -0.15194602262E+04  0.15194602262E+04  0.25500000920E-02 0. -1.
    10030    2    1    2    0    0  0.00000000000E+00  0.00000000000E+00  0.72846933000E+03  0.37673897824E+04  0.36962897895E+04 0.  0.
        3    1    3    3  502    0  0.31746580889E+03 -0.12005919637E+04  0.17592973896E+04  0.21534467531E+04  0.10100000352E+00 0.  1.
       -3    1    3    3    0  502 -0.31746580889E+03  0.12005919637E+04 -0.10308280596E+04  0.16139430293E+04  0.10100000352E+00 0. -1.
</event>
<event>
 5   0  0.5714125E-09  0.3700052E+04  0.7818609E-02  0.8067950E-01
        4   -1    0    0  501    0  0.00000000000E+00  0.00000000000E+00  0.15250639628E+04  0.15250644916E+04  0.12699999809E+01 0.  1.
       -4   -1    0    0    0  501  0.00000000000E+00  0.00000000000E+00 -0.22442305248E+04  0.22442308842E+04  0.12699999809E+01 0. -1.
    10030    2    1    2    0    0  0.00000000000E+00  0.00000000000E+00 -0.71916656202E+03  0.37692953758E+04  0.37000523085E+04 0.  0.
        2    1    3    3  502    0 -0.46439737574E+03 -0.80962713805E+03  0.12676305453E+04  0.15741817635E+04  0.25500000920E-02 0.  1.
       -2    1    3    3    0  502  0.46439737574E+03  0.80962713805E+03 -0.19867971073E+04  0.21951136123E+04  0.25500000920E-02 0. -1.
</event>
<event>
 5   0  0.1825308E-08  0.3700161E+04  0.7818609E-02  0.8067926E-01
        2   -1    0    0  501    0  0.00000000000E+00  0.00000000000E+00  0.14951627541E+04  0.14951627541E+04  0.25500000920E-02 0. -1.
       -2   -1    0    0    0  501  0.00000000000E+00  0.00000000000E+00 -0.22892475821E+04  0.22892475821E+04  0.25500000920E-02 0.  1.
    10030    2    1    2    0    0  0.00000000000E+00  0.00000000000E+00 -0.79408482804E+03  0.37844103362E+04  0.37001609260E+04 0.  0.
        4    1    3    3  502    0  0.61188843556E+03 -0.12928898707E+04  0.80305607581E+03  0.16403878655E+04  0.12699999809E+01 0. -1.
       -4    1    3    3    0  502 -0.61188843556E+03  0.12928898707E+04 -0.15971409039E+04  0.21440224707E+04  0.12699999809E+01 0.  1.
</event>
<event>
 5   0  0.1757996E-08  0.3702779E+04  0.7818609E-02  0.8067346E-01
       -2   -1    0    0    0  501  0.00000000000E+00  0.00000000000E+00  0.27024877086E+04  0.27024877086E+04  0.25500000920E-02 0.  1.
        2   -1    0    0  501    0  0.00000000000E+00  0.00000000000E+00 -0.12683286751E+04  0.12683286752E+04  0.25500000920E-02 0. -1.
    10030    2    1    2    0    0  0.00000000000E+00  0.00000000000E+00  0.14341590335E+04  0.39708163838E+04  0.37027787701E+04 0.  0.
        3    1    3    3  502    0  0.22926272623E+03 -0.79266302573E+03 -0.10602293889E+04  0.13434889048E+04  0.10100000352E+00 0. -1.
       -3    1    3    3    0  502 -0.22926272623E+03  0.79266302573E+03  0.24943884224E+04  0.26273274790E+04  0.10100000352E+00 0.  1.
</event>
<event>
 5   0  0.5714125E-09  0.3702624E+04  0.7818609E-02  0.8067381E-01
       -1   -1    0    0    0  501  0.00000000000E+00  0.00000000000E+00  0.19130950874E+04  0.19130950874E+04  0.50400001928E-02 0. -1.
        1   -1    0    0  501    0  0.00000000000E+00  0.00000000000E+00 -0.17915238746E+04  0.17915238746E+04  0.50400001928E-02 0.  1.
    10030    2    1    2    0    0  0.00000000000E+00  0.00000000000E+00  0.12157121280E+03  0.37046189620E+04  0.37026236770E+04 0.  0.
        3    1    3    3  502    0 -0.10471232574E+04  0.38070262961E+03  0.15400795229E+04  0.19008541646E+04  0.10100000352E+00 0. -1.
       -3    1    3    3    0  502  0.10471232574E+04 -0.38070262961E+03 -0.14185083101E+04  0.18037647974E+04  0.10100000352E+00 0.  1.
</event>
<event>
 5   0  0.1757996E-08  0.3699404E+04  0.7818609E-02  0.8068094E-01
       -2   -1    0    0    0  501  0.00000000000E+00  0.00000000000E+00  0.16316056369E+04  0.16316056369E+04  0.25500000920E-02 0. -1.
        2   -1    0    0  501    0  0.00000000000E+00  0.00000000000E+00 -0.20969509345E+04  0.20969509345E+04  0.25500000920E-02 0.  1.
    10030    2    1    2    0    0  0.00000000000E+00  0.00000000000E+00 -0.46534529758E+03  0.37285565715E+04  0.36994037169E+04 0.  0.
        3    1    3    3  502    0 -0.41944528456E+03  0.17894564677E+04 -0.44241873578E+03  0.18904558033E+04  0.10100000352E+00 0.  1.
       -3    1    3    3    0  502  0.41944528456E+03 -0.17894564677E+04 -0.22926561797E+02  0.18381007681E+04  0.10100000352E+00 0. -1.
</event>
<event>
 5   0  0.5714125E-09  0.3700353E+04  0.7818609E-02  0.8067884E-01
       -1   -1    0    0    0  501  0.00000000000E+00  0.00000000000E+00  0.13924138809E+04  0.13924138809E+04  0.50400001928E-02 0. -1.
        1   -1    0    0  501    0  0.00000000000E+00  0.00000000000E+00 -0.24584312460E+04  0.24584312460E+04  0.50400001928E-02 0.  1.
    10030    2    1    2    0    0  0.00000000000E+00  0.00000000000E+00 -0.10660173652E+04  0.38508451269E+04  0.37003533843E+04 0.  0.
        2    1    3    3  502    0  0.36764876876E+03  0.11279492676E+04 -0.20105097578E+04  0.23344345469E+04  0.25500000920E-02 0.  1.
       -2    1    3    3    0  502 -0.36764876876E+03 -0.11279492676E+04  0.94449239264E+03  0.15164105800E+04  0.25500000920E-02 0. -1.
</event>
<event>
 5   0  0.5714125E-09  0.3700356E+04  0.7818609E-02  0.8067883E-01
       -1   -1    0    0    0  501  0.00000000000E+00  0.00000000000E+00  0.19787292303E+04  0.19787292304E+04  0.50400001928E-02 0. -1.
        1   -1    0    0  501    0  0.00000000000E+00  0.00000000000E+00 -0.17299782816E+04  0.17299782816E+04  0.50400001928E-02 0.  1.
    10030    2    1    2    0    0  0.00000000000E+00  0.00000000000E+00  0.24875094874E+03  0.37087075120E+04  0.37003559795E+04 0.  0.
        1    1    3    3  502    0  0.11153245573E+04  0.94685942496E+03  0.12594804602E+04  0.19304876763E+04  0.50400001928E-02 0. -1.
       -1    1    3    3    0  502 -0.11153245573E+04 -0.94685942496E+03 -0.10107295114E+04  0.17782198357E+04  0.50400001928E-02 0.  1.
</event>
<event>
 5   0  0.1825308E-08  0.3697269E+04  0.7818609E-02  0.8068567E-01
       -2   -1    0    0    0  501  0.00000000000E+00  0.00000000000E+00  0.20562469595E+04  0.20562469595E+04  0.25500000920E-02 0. -1.
        2   -1    0    0  501    0  0.00000000000E+00  0.00000000000E+00 -0.16619843196E+04  0.16619843196E+04  0.25500000920E-02 0.  1.
    10030    2    1    2    0    0  0.00000000000E+00  0.00000000000E+00  0.39426263986E+03  0.37182312791E+04  0.36972693729E+04 0.  0.
        4    1    3    3  502    0 -0.46627586984E+03  0.15522530578E+03 -0.15950893678E+04  0.16690775256E+04  0.12699999809E+01 0.  1.
       -4    1    3    3    0  502  0.46627586984E+03 -0.15522530578E+03  0.19893520076E+04  0.20491537535E+04  0.12699999809E+01 0. -1.
</event>
<event>
 5   0  0.1825308E-08  0.3703656E+04  0.7818609E-02  0.8067152E-01
        2   -1    0    0  501    0  0.00000000000E+00  0.00000000000E+00  0.17090721365E+04  0.17090721365E+04  0.25500000920E-02 0. -1.
       -2   -1    0    0    0  501  0.00000000000E+00  0.00000000000E+00 -0.20065075876E+04  0.20065075876E+04  0.25500000920E-02 0.  1.
    10030    2    1    2    0    0  0.00000000000E+00  0.00000000000E+00 -0.29743545106E+03  0.37155797241E+04  0.37036556047E+04 0.  0.
        4    1    3    3  502    0 -0.12409739406E+04  0.82518273435E+03 -0.12514936635E+04  0.19460680536E+04  0.12699999809E+01 0.  1.
       -4    1    3    3    0  502  0.12409739406E+04 -0.82518273435E+03  0.95405821245E+03  0.17695116705E+04  0.12699999809E+01 0. -1.
</event>
<event>
 5   0  0.1825308E-08  0.3699255E+04  0.7818609E-02  0.8068127E-01
        2   -1    0    0  501    0  0.00000000000E+00  0.00000000000E+00  0.19246844418E+04  0.19246844418E+04  0.25500000920E-02 0.  1.
       -2   -1    0    0    0  501  0.00000000000E+00  0.00000000000E+00 -0.17774972167E+04  0.17774972167E+04  0.25500000920E-02 0. -1.
    10030    2    1    2    0    0  0.00000000000E+00  0.00000000000E+00  0.14718722511E+03  0.37021816586E+04  0.36992546484E+04 0.  0.
        4    1    3    3  502    0 -0.69468800116E+03  0.28890896952E+03 -0.16174355696E+04  0.17838607699E+04  0.12699999809E+01 0. -1.
       -4    1    3    3    0  502  0.69468800116E+03 -0.28890896952E+03  0.17646227947E+04  0.19183208887E+04  0.12699999809E+01 0.  1.
</event>
<event>
 5   0  0.5714125E-09  0.3698492E+04  0.7818609E-02  0.8068296E-01
       -1   -1    0    0    0  501  0.00000000000E+00  0.00000000000E+00  0.21256050159E+04  0.21256050159E+04  0.50400001928E-02 0.  1.
        1   -1    0    0  501    0  0.00000000000E+00  0.00000000000E+00 -0.16088178593E+04  0.16088178593E+04  0.50400001928E-02 0. -1.
    10030    2    1    2    0    0  0.00000000000E+00  0.00000000000E+00  0.51678715665E+03  0.37344228752E+04  0.36984922935E+04 0.  0.
        1    1    3    3  502    0  0.49867436934E+03  0.12422210590E+04 -0.10299021775E+04  0.16889309582E+04  0.50400001928E-02 0. -1.
       -1    1    3    3    0  502 -0.49867436934E+03 -0.12422210590E+04  0.15466893342E+04  0.20454919170E+04  0.50400001928E-02 0.  1.
</event>
<event>
 5   0  0.1757996E-08  0.3697327E+04  0.7818609E-02  0.8068555E-01
        2   -1    0    0  501    0  0.00000000000E+00  0.00000000000E+00  0.31456197339E+04  0.31456197339E+04  0.25500000920E-02 0.  1.
       -2   -1    0    0    0  501  0.00000000000E+00  0.00000000000E+00 -0.10864492175E+04  0.10864492175E+04  0.25500000920E-02 0. -1.
    10030    2    1    2    0    0  0.00000000000E+00  0.00000000000E+00  0.20591705164E+04  0.42320689514E+04  0.36973266550E+04 0.  0.
        3    1    3    3  502    0 -0.11249293112E+04  0.92775341824E+03  0.23303213923E+04  0.27489252739E+04  0.10100000352E+00 0.  1.
       -3    1    3    3    0  502  0.11249293112E+04 -0.92775341824E+03 -0.27115087593E+03  0.14831436774E+04  0.10100000352E+00 0. -1.
</event>
<event>
 5   0  0.1725865E-08  0.3700453E+04  0.7818609E-02  0.8067861E-01
        2   -1    0    0  501    0  0.00000000000E+00  0.00000000000E+00  0.22247853161E+04  0.22247853161E+04  0.25500000920E-02 0. -1.
       -2   -1    0    0    0  501  0.00000000000E+00  0.00000000000E+00 -0.15387275631E+04  0.15387275631E+04  0.25500000920E-02 0.  1.
    10030    2    1    2    0    0  0.00000000000E+00  0.00000000000E+00  0.68605775303E+03  0.37635128793E+04  0.37004532090E+04 0.  0.
        1    1    3    3  502    0 -0.45907245477E+03  0.37904923725E+03 -0.14386554226E+04  0.15569698995E+04  0.50400001928E-02 0.  1.
       -1    1    3    3    0  502  0.45907245477E+03 -0.37904923725E+03  0.21247131756E+04  0.22065429798E+04  0.50400001928E-02 0. -1.
</event>
<event>
 5   0  0.5714125E-09  0.3700901E+04  0.7818609E-02  0.8067762E-01
        1   -1    0    0  501    0  0.00000000000E+00  0.00000000000E+00  0.24146368695E+04  0.24146368695E+04  0.50400001928E-02 0.  1.
       -1   -1    0    0    0  501  0.00000000000E+00  0.00000000000E+00 -0.14180876055E+04  0.14180876055E+04  0.50400001928E-02 0. -1.
    10030    2    1    2    0    0  0.00000000000E+00  0.00000000000E+00  0.99654926398E+03  0.38327244751E+04  0.37009007642E+04 0.  0.
        2    1    3    3  502    0  0.59183397358E+02  0.35349079823E+03 -0.13817976042E+04  0.14275233931E+04  0.25500000920E-02 0. -1.
       -2    1    3    3    0  502 -0.59183397358E+02 -0.35349079823E+03  0.23783468682E+04  0.24052010819E+04  0.25500000920E-02 0.  1.
</event>
<event>
 5   0  0.5714125E-09  0.3699881E+04  0.7818609E-02  0.8067988E-01
        1   -1    0    0  501    0  0.00000000000E+00  0.00000000000E+00  0.16586196220E+04  0.16586196220E+04  0.50400001928E-02 0.  1.
       -1   -1    0    0    0  501  0.00000000000E+00  0.00000000000E+00 -0.20633304024E+04  0.20633304024E+04  0.50400001928E-02 0. -1.
    10030    2    1    2    0    0  0.00000000000E+00  0.00000000000E+00 -0.40471078044E+03  0.37219500244E+04  0.36998812371E+04 0.  0.
        1    1    3    3  502    0 -0.16098172185E+02  0.14532302680E+04 -0.13537974579E+04  0.19861784713E+04  0.50400001928E-02 0. -1.
       -1    1    3    3    0  502  0.16098172185E+02 -0.14532302680E+04  0.94908667746E+03  0.17357715530E+04  0.50400001928E-02 0.  1.
</event>
<event>
 5   0  0.5714125E-09  0.3699680E+04  0.7818609E-02  0.8068033E-01
       -1   -1    0    0    0  501  0.00000000000E+00  0.00000000000E+00  0.15534356400E+04  0.15534356400E+04  0.50400001928E-02 0.  1.
        1   -1    0    0  501    0  0.00000000000E+00  0.00000000000E+00 -0.22027999788E+04  0.22027999788E+04  0.50400001928E-02 0. -1.
    10030    2    1    2    0    0  0.00000000000E+00  0.00000000000E+00 -0.64936433873E+03  0.37562356188E+04  0.36996799834E+04 0.  0.
        2    1    3    3  502    0  0.33373856565E+02  0.30680220757E+03 -0.21764788647E+04  0.21982496804E+04  0.25500000920E-02 0. -1.
       -2    1    3    3    0  502 -0.33373856565E+02 -0.30680220757E+03  0.15271145260E+04  0.15579859384E+04  0.25500000920E-02 0.  1.
</event>
<event>
 5   0  0.1757996E-08  0.3701787E+04  0.7818609E-02  0.8067566E-01
       -2   -1    0    0    0  501  0.00000000000E+00  0.00000000000E+00  0.30407196581E+04  0.30407196581E+04  0.25500000920E-02 0. -1.
        2   -1    0    0  501    0  0.00000000000E+00  0.00000000000E+00 -0.11266432061E+04  0.11266432061E+04  0.25500000920E-02 0.  1.
    10030    2    1    2    0    0  0.00000000000E+00  0.00000000000E+00  0.19140764520E+04  0.41673628642E+04  0.37017866737E+04 0.  0.
        3    1    3    3  502    0  0.75100793984E+03 -0.37121756457E+03 -0.90099186102E+03  0.12302852311E+04  0.10100000352E+00 0.  1.
       -3    1    3    3    0  502 -0.75100793984E+03  0.37121756457E+03  0.28150683130E+04  0.29370776332E+04  0.10100000352E+00 0. -1.
</event>
<event>
 5   0  0.5714125E-09  0.3699559E+04  0.7818609E-02  0.8068060E-01
        1   -1    0    0  501    0  0.00000000000E+00  0.00000000000E+00  0.18409055142E+04  0.18409055143E+04  0.50400001928E-02 0.  1.
       -1   -1    0    0    0  501  0.00000000000E+00  0.00000000000E+00 -0.18586961791E+04  0.18586961791E+04  0.50400001928E-02 0. -1.
    10030    2    1    2    0    0  0.00000000000E+00  0.00000000000E+00 -0.17790664852E+02  0.36996016934E+04  0.36995589172E+04 0.  0.
        2    1    3    3  502    0 -0.29526389744E+03 -0.35453681907E+03 -0.18002303442E+04  0.18584150283E+04  0.25500000920E-02 0. -1.
       -2    1    3    3    0  502  0.29526389744E+03  0.35453681907E+03  0.17824396793E+04  0.18411866651E+04  0.25500000920E-02 0.  1.
</event>
<event>
 5   0  0.1825308E-08  0.3701539E+04  0.7818609E-02  0.8067621E-01
       -2   -1    0    0    0  501  0.00000000000E+00  0.00000000000E+00  0.19490097897E+04  0.19490097897E+04  0.25500000920E-02 0.  1.
        2   -1    0    0  501    0  0.00000000000E+00  0.00000000000E+00 -0.17574806092E+04  0.17574806092E+04  0.25500000920E-02 0. -1.
    10030    2    1    2    0    0  0.00000000000E+00  0.00000000000E+00  0.19152918050E+03  0.37064903989E+04  0.37015385518E+04 0.  0.
        4    1    3    3  502    0 -0.28609808201E+03 -0.41194553830E+02 -0.17347389902E+04  0.17586557596E+04  0.12699999809E+01 0. -1.
       -4    1    3    3    0  502  0.28609808201E+03  0.41194553830E+02  0.19262681707E+04  0.19478346393E+04  0.12699999809E+01 0.  1.
</event>
<event>
 5   0  0.5714125E-09  0.3720454E+04  0.7818609E-02  0.8063444E-01
       -1   -1    0    0    0  501  0.00000000000E+00  0.00000000000E+00  0.14876824605E+04  0.14876824605E+04  0.50400001928E-02 0. -1.
        1   -1    0    0  501    0  0.00000000000E+00  0.00000000000E+00 -0.23260638933E+04  0.23260638933E+04  0.50400001928E-02 0.  1.
    10030    2    1    2    0    0  0.00000000000E+00  0.00000000000E+00 -0.83838143276E+03  0.38137463538E+04  0.37204539810E+04 0.  0.
        3    1    3    3  502    0  0.96699860903E+03  0.57737960068E+03  0.10984719298E+04  0.15732431801E+04  0.10100000352E+00 0. -1.
       -3    1    3    3    0  502 -0.96699860903E+03 -0.57737960068E+03 -0.19368533625E+04  0.22405031737E+04  0.10100000352E+00 0.  1.
</event>
<event>
 5   0  0.5714125E-09  0.3700680E+04  0.7818609E-02  0.8067811E-01
       -1   -1    0    0    0  501  0.00000000000E+00  0.00000000000E+00  0.17682309050E+04  0.17682309050E+04  0.50400001928E-02 0.  1.
        1   -1    0    0  501    0  0.00000000000E+00  0.00000000000E+00 -0.19362621223E+04  0.19362621223E+04  0.50400001928E-02 0. -1.
    10030    2    1    2    0    0  0.00000000000E+00  0.00000000000E+00 -0.16803121721E+03  0.37044930273E+04  0.37006802212E+04 0.  0.
        1    1    3    3  502    0 -0.15287825696E+04  0.98858857741E+02 -0.11227789694E+04  0.18993635336E+04  0.50400001928E-02 0. -1.
       -1    1    3    3    0  502  0.15287825696E+04 -0.98858857741E+02  0.95474775215E+03  0.18051294937E+04  0.50400001928E-02 0.  1.
</event>
<event>
 5   0  0.1825308E-08  0.3699165E+04  0.7818609E-02  0.8068147E-01
        2   -1    0    0  501    0  0.00000000000E+00  0.00000000000E+00  0.20079787733E+04  0.20079787733E+04  0.25500000920E-02 0. -1.
       -2   -1    0    0    0  501  0.00000000000E+00  0.00000000000E+00 -0.17036813216E+04  0.17036813216E+04  0.25500000920E-02 0.  1.
    10030    2    1    2    0    0  0.00000000000E+00  0.00000000000E+00  0.30429745166E+03  0.37116600950E+04  0.36991652736E+04 0.  0.
        4    1    3    3  502    0  0.12909480017E+04  0.70528632740E+02  0.14792777738E+04  0.19646336494E+04  0.12699999809E+01 0. -1.
       -4    1    3    3    0  502 -0.12909480017E+04 -0.70528632740E+02 -0.11749803222E+04  0.17470264456E+04  0.12699999809E+01 0.  1.
</event>
<event>
 5   0  0.1740290E-08  0.3703463E+04  0.7818609E-02  0.8067195E-01
       -2   -1    0    0    0  501  0.00000000000E+00  0.00000000000E+00  0.12877753639E+04  0.12877753639E+04  0.25500000920E-02 0.  1.
        2   -1    0    0  501    0  0.00000000000E+00  0.00000000000E+00 -0.26626617865E+04  0.26626617865E+04  0.25500000920E-02 0. -1.
    10030    2    1    2    0    0  0.00000000000E+00  0.00000000000E+00 -0.13748864227E+04  0.39504371504E+04  0.37034633796E+04 0.  0.
        5    1    3    3  502    0 -0.17105849639E+04 -0.40467951586E+03 -0.66358453607E+02  0.17590599659E+04  0.46999998093E+01 0. -1.
       -5    1    3    3    0  502  0.17105849639E+04  0.40467951586E+03 -0.13085279691E+04  0.21913771846E+04  0.46999998093E+01 0.  1.
</event>
<event>
 5   0  0.5714125E-09  0.3699809E+04  0.7818609E-02  0.8068004E-01
        1   -1    0    0  501    0  0.00000000000E+00  0.00000000000E+00  0.17352714684E+04  0.17352714684E+04  0.50400001928E-02 0. -1.
       -1   -1    0    0    0  501  0.00000000000E+00  0.00000000000E+00 -0.19721099997E+04  0.19721099997E+04  0.50400001928E-02 0.  1.
    10030    2    1    2    0    0  0.00000000000E+00  0.00000000000E+00 -0.23683853135E+03  0.37073814681E+04  0.36998087600E+04 0.  0.
        2    1    3    3  502    0  0.58510656465E+03 -0.16811960908E+04  0.38597591831E+03  0.18214684727E+04  0.25500000920E-02 0. -1.
       -2    1    3    3    0  502 -0.58510656465E+03  0.16811960908E+04 -0.62281444967E+03  0.18859129954E+04  0.25500000920E-02 0.  1.
</event>
<event>
 5   0  0.5714125E-09  0.3700720E+04  0.7818609E-02  0.8067802E-01
       -1   -1    0    0    0  501  0.00000000000E+00  0.00000000000E+00  0.31391920285E+04  0.31391920285E+04  0.50400001928E-02 0. -1.
        1   -1    0    0  501    0  0.00000000000E+00  0.00000000000E+00 -0.10906727516E+04  0.10906727517E+04  0.50400001928E-02 0.  1.
    10030    2    1    2    0    0  0.00000000000E+00  0.00000000000E+00  0.20485192768E+04  0.42298647801E+04  0.37007195017E+04 0.  0.
        2    1    3    3  502    0 -0.11296643228E+04  0.14623606581E+04  0.91468187487E+03  0.20618639889E+04  0.25500000920E-02 0.  1.
       -2    1    3    3    0  502  0.11296643228E+04 -0.14623606581E+04  0.11338374019E+04  0.21680007912E+04  0.25500000920E-02 0. -1.
</event>
<event>
 5   0  0.5714125E-09  0.3702892E+04  0.7818609E-02  0.8067321E-01
       -1   -1    0    0    0  501  0.00000000000E+00  0.00000000000E+00  0.17423324411E+04  0.17423324411E+04  0.50400001928E-02 0.  1.
        1   -1    0    0  501    0  0.00000000000E+00  0.00000000000E+00 -0.19673932729E+04  0.19673932729E+04  0.50400001928E-02 0. -1.
    10030    2    1    2    0    0  0.00000000000E+00  0.00000000000E+00 -0.22506083183E+03  0.37097257140E+04  0.37028924499E+04 0.  0.
        1    1    3    3  502    0  0.55110714980E+03 -0.72775846645E+03 -0.17262485433E+04  0.19527635570E+04  0.50400001928E-02 0. -1.
       -1    1    3    3    0  502 -0.55110714980E+03  0.72775846645E+03  0.15011877115E+04  0.17569621570E+04  0.50400001928E-02 0.  1.
</event>
<event>
 5   0  0.5714125E-09  0.3700871E+04  0.7818609E-02  0.8067769E-01
       -1   -1    0    0    0  501  0.00000000000E+00  0.00000000000E+00  0.15007669342E+04  0.15007669342E+04  0.50400001928E-02 0.  1.
        1   -1    0    0  501    0  0.00000000000E+00  0.00000000000E+00 -0.22815740857E+04  0.22815740857E+04  0.50400001928E-02 0. -1.
    10030    2    1    2    0    0  0.00000000000E+00  0.00000000000E+00 -0.78080715149E+03  0.37823410199E+04  0.37008706791E+04 0.  0.
        5    1    3    3  502    0  0.97728514777E+03  0.55315720277E+03  0.11126934346E+04  0.15808788443E+04  0.46999998093E+01 0.  1.
       -5    1    3    3    0  502 -0.97728514777E+03 -0.55315720277E+03 -0.18935005861E+04  0.22014621756E+04  0.46999998093E+01 0. -1.
</event>
<event>
 5   0  0.5714125E-09  0.3701880E+04  0.7818609E-02  0.8067545E-01
        1   -1    0    0  501    0  0.00000000000E+00  0.00000000000E+00  0.17818772133E+04  0.17818772133E+04  0.50400001928E-02 0.  1.
       -1   -1    0    0    0  501  0.00000000000E+00  0.00000000000E+00 -0.19226791418E+04  0.19226791418E+04  0.50400001928E-02 0. -1.
    10030    2    1    2    0    0  0.00000000000E+00  0.00000000000E+00 -0.14080192848E+03  0.37045563552E+04  0.37018796044E+04 0.  0.
        3    1    3    3  502    0  0.12947614384E+04  0.51431375544E+02  0.12522679345E+04  0.18020064814E+04  0.10100000352E+00 0.  1.
       -3    1    3    3    0  502 -0.12947614384E+04 -0.51431375544E+02 -0.13930698630E+04  0.19025498738E+04  0.10100000352E+00 0. -1.
</event>
<event>
 5   0  0.1725865E-08  0.3699809E+04  0.7818609E-02  0.8068004E-01
       -2   -1    0    0    0  501  0.00000000000E+00  0.00000000000E+00  0.22026798774E+04  0.22026798774E+04  0.25500000920E-02 0.  1.
        2   -1    0    0  501    0  0.00000000000E+00  0.00000000000E+00 -0.15536283570E+04  0.15536283570E+04  0.25500000920E-02 0. -1.
    10030    2    1    2    0    0  0.00000000000E+00  0.00000000000E+00  0.64905152035E+03  0.37563082344E+04  0.36998085999E+04 0.  0.
        1    1    3    3  502    0 -0.15263448472E+03 -0.16430202618E+04  0.11735576292E+04  0.20248581125E+04  0.50400001928E-02 0.  1.
       -1    1    3    3    0  502  0.15263448472E+03  0.16430202618E+04 -0.52450610886E+03  0.17314501219E+04  0.50400001928E-02 0. -1.
</event>
<event>
 5   0  0.5714125E-09  0.3701466E+04  0.7818609E-02  0.8067637E-01
        1   -1    0    0  501    0  0.00000000000E+00  0.00000000000E+00  0.13187963006E+04  0.13187963006E+04  0.50400001928E-02 0. -1.
       -1   -1    0    0    0  501  0.00000000000E+00  0.00000000000E+00 -0.25972261635E+04  0.25972261635E+04  0.50400001928E-02 0.  1.
    10030    2    1    2    0    0  0.00000000000E+00  0.00000000000E+00 -0.12784298629E+04  0.39160224641E+04  0.37014657941E+04 0.  0.
        5    1    3    3  502    0 -0.46429214976E+03 -0.13324881840E+04 -0.19061690285E+04  0.23716227390E+04  0.46999998093E+01 0.  1.
       -5    1    3    3    0  502  0.46429214976E+03  0.13324881840E+04  0.62773916556E+03  0.15443997251E+04  0.46999998093E+01 0. -1.
</event>
<event>
 5   0  0.5714125E-09  0.3699193E+04  0.7818609E-02  0.8068141E-01
       -1   -1    0    0    0  501  0.00000000000E+00  0.00000000000E+00  0.12899002201E+04  0.12899002201E+04  0.50400001928E-02 0.  1.
        1   -1    0    0  501    0  0.00000000000E+00  0.00000000000E+00 -0.26521481178E+04  0.26521481178E+04  0.50400001928E-02 0. -1.
    10030    2    1    2    0    0  0.00000000000E+00  0.00000000000E+00 -0.13622478977E+04  0.39420483380E+04  0.36991925827E+04 0.  0.
        1    1    3    3  502    0  0.48994596389E+03  0.67929838534E+03 -0.24384833180E+04  0.25783122844E+04  0.50400001928E-02 0. -1.
       -1    1    3    3    0  502 -0.48994596389E+03 -0.67929838534E+03  0.10762354203E+04  0.13637360535E+04  0.50400001928E-02 0.  1.
</event>
<event>
 5   0  0.5714125E-09  0.3697518E+04  0.7818609E-02  0.8068512E-01
        1   -1    0    0  501    0  0.00000000000E+00  0.00000000000E+00  0.18728117953E+04  0.18728117953E+04  0.50400001928E-02 0. -1.
       -1   -1    0    0    0  501  0.00000000000E+00  0.00000000000E+00 -0.18250155313E+04  0.18250155313E+04  0.50400001928E-02 0.  1.
    10030    2    1    2    0    0  0.00000000000E+00  0.00000000000E+00  0.47796263999E+02  0.36978273265E+04  0.36975184184E+04 0.  0.
        1    1    3    3  502    0 -0.31676584252E+03  0.18119623563E+04  0.20928468940E+03  0.18513098771E+04  0.50400001928E-02 0. -1.
       -1    1    3    3    0  502  0.31676584252E+03 -0.18119623563E+04 -0.16148842540E+03  0.18465174495E+04  0.50400001928E-02 0.  1.
</event>
<event>
 5   0  0.5714125E-09  0.3703958E+04  0.7818609E-02  0.8067085E-01
       -1   -1    0    0    0  501  0.00000000000E+00  0.00000000000E+00  0.27438467796E+04  0.27438467796E+04  0.50400001928E-02 0. -1.
        1   -1    0    0  501    0  0.00000000000E+00  0.00000000000E+00 -0.12500063703E+04  0.12500063703E+04  0.50400001928E-02 0.  1.
    10030    2    1    2    0    0  0.00000000000E+00  0.00000000000E+00  0.14938404093E+04  0.39938531499E+04  0.37039578581E+04 0.  0.
        4    1    3    3  502    0  0.10006164810E+04  0.15506374606E+04  0.57947802611E+03  0.19342973587E+04  0.12699999809E+01 0.  1.
       -4    1    3    3    0  502 -0.10006164810E+04 -0.15506374606E+04  0.91436238324E+03  0.20595557912E+04  0.12699999809E+01 0. -1.
</event>
<event>
 5   0  0.5714125E-09  0.3700979E+04  0.7818609E-02  0.8067745E-01
        1   -1    0    0  501    0  0.00000000000E+00  0.00000000000E+00  0.12475972084E+04  0.12475972084E+04  0.50400001928E-02 0.  1.
       -1   -1    0    0    0  501  0.00000000000E+00  0.00000000000E+00 -0.27447258019E+04  0.27447258019E+04  0.50400001928E-02 0. -1.
    10030    2    1    2    0    0  0.00000000000E+00  0.00000000000E+00 -0.14971285935E+04  0.39923230102E+04  0.37009794640E+04 0.  0.
        3    1    3    3  502    0 -0.12025514969E+03  0.94237696906E+03  0.96445517886E+03  0.13537759989E+04  0.10100000352E+00 0.  1.
       -3    1    3    3    0  502  0.12025514969E+03 -0.94237696906E+03 -0.24615837724E+04  0.26385470114E+04  0.10100000352E+00 0. -1.
</event>
<event>
 5   0  0.1725865E-08  0.3698347E+04  0.7818609E-02  0.8068328E-01
        2   -1    0    0  501    0  0.00000000000E+00  0.00000000000E+00  0.19967201208E+04  0.19967201208E+04  0.25500000920E-02 0. -1.
       -2   -1    0    0    0  501  0.00000000000E+00  0.00000000000E+00 -0.17125293125E+04  0.17125293125E+04  0.25500000920E-02 0.  1.
    10030    2    1    2    0    0  0.00000000000E+00  0.00000000000E+00  0.28419080832E+03  0.37092494334E+04  0.36983465148E+04 0.  0.
        1    1    3    3  502    0 -0.36311949576E+03 -0.91402993648E+03 -0.14284505518E+04  0.17342945171E+04  0.50400001928E-02 0.  1.
       -1    1    3    3    0  502  0.36311949576E+03  0.91402993648E+03  0.17126413601E+04  0.19749549163E+04  0.50400001928E-02 0. -1.
</event>
<event>
 5   0  0.1757996E-08  0.3698889E+04  0.7818609E-02  0.8068208E-01
        2   -1    0    0  501    0  0.00000000000E+00  0.00000000000E+00  0.15432580276E+04  0.15432580276E+04  0.25500000920E-02 0. -1.
       -2   -1    0    0    0  501  0.00000000000E+00  0.00000000000E+00 -0.22163792955E+04  0.22163792955E+04  0.25500000920E-02 0.  1.
    10030    2    1    2    0    0  0.00000000000E+00  0.00000000000E+00 -0.67312126790E+03  0.37596373232E+04  0.36988890982E+04 0.  0.
        3    1    3    3  502    0 -0.63049765301E+03  0.78096631381E+03  0.12423376545E+04  0.15971344752E+04  0.10100000352E+00 0. -1.
       -3    1    3    3    0  502  0.63049765301E+03 -0.78096631381E+03 -0.19154589224E+04  0.21625028480E+04  0.10100000352E+00 0.  1.
</event>
<event>
 5   0  0.5714125E-09  0.3699734E+04  0.7818609E-02  0.8068021E-01
       -1   -1    0    0    0  501  0.00000000000E+00  0.00000000000E+00  0.21100327424E+04  0.21100327424E+04  0.50400001928E-02 0.  1.
        1   -1    0    0  501    0  0.00000000000E+00  0.00000000000E+00 -0.16217792887E+04  0.16217792887E+04  0.50400001928E-02 0. -1.
    10030    2    1    2    0    0  0.00000000000E+00  0.00000000000E+00  0.48825345375E+03  0.37318120311E+04  0.36997337202E+04 0.  0.
        3    1    3    3  502    0 -0.12602896544E+04  0.66611613930E+03  0.14333173750E+04  0.20214943561E+04  0.10100000352E+00 0.  1.
       -3    1    3    3    0  502  0.12602896544E+04 -0.66611613930E+03 -0.94506392124E+03  0.17103176750E+04  0.10100000352E+00 0. -1.
</event>
<event>
 5   0  0.1740290E-08  0.3701106E+04  0.7818609E-02  0.8067717E-01
       -2   -1    0    0    0  501  0.00000000000E+00  0.00000000000E+00  0.12583610148E+04  0.12583610148E+04  0.25500000920E-02 0.  1.
        2   -1    0    0  501    0  0.00000000000E+00  0.00000000000E+00 -0.27214340173E+04  0.27214340173E+04  0.25500000920E-02 0. -1.
    10030    2    1    2    0    0  0.00000000000E+00  0.00000000000E+00 -0.14630730025E+04  0.39797950322E+04  0.37011060357E+04 0.  0.
        5    1    3    3  502    0  0.12033412448E+04  0.11020900832E+04 -0.16701262209E+04  0.23349467631E+04  0.46999998093E+01 0. -1.
       -5    1    3    3    0  502 -0.12033412448E+04 -0.11020900832E+04  0.20705321838E+03  0.16448482690E+04  0.46999998093E+01 0.  1.
</event>
<event>
 5   0  0.5714125E-09  0.3700190E+04  0.7818609E-02  0.8067920E-01
       -1   -1    0    0    0  501  0.00000000000E+00  0.00000000000E+00  0.13285877821E+04  0.13285877821E+04  0.50400001928E-02 0.  1.
        1   -1    0    0  501    0  0.00000000000E+00  0.00000000000E+00 -0.25763086154E+04  0.25763086155E+04  0.50400001928E-02 0. -1.
    10030    2    1    2    0    0  0.00000000000E+00  0.00000000000E+00 -0.12477208333E+04  0.39048963976E+04  0.37001903462E+04 0.  0.
        4    1    3    3  502    0 -0.51345003839E+03  0.25365989581E+03  0.12326914833E+04  0.13592292634E+04  0.12699999809E+01 0.  1.
       -4    1    3    3    0  502  0.51345003839E+03 -0.25365989581E+03 -0.24804123166E+04  0.25456671342E+04  0.12699999809E+01 0. -1.
</event>
<event>
 5   0  0.5714125E-09  0.3701358E+04  0.7818609E-02  0.8067661E-01
       -1   -1    0    0    0  501  0.00000000000E+00  0.00000000000E+00  0.29898512820E+04  0.29898512820E+04  0.50400001928E-02 0.  1.
        1   -1    0    0  501    0  0.00000000000E+00  0.00000000000E+00 -0.11455460107E+04  0.11455460107E+04  0.50400001928E-02 0. -1.
    10030    2    1    2    0    0  0.00000000000E+00  0.00000000000E+00  0.18443052714E+04  0.41353972927E+04  0.37013577015E+04 0.  0.
        2    1    3    3  502    0 -0.35361154109E+03 -0.42561174536E+03 -0.10509593542E+04  0.11877297857E+04  0.25500000920E-02 0. -1.
       -2    1    3    3    0  502  0.35361154109E+03  0.42561174536E+03  0.28952646255E+04  0.29476675070E+04  0.25500000920E-02 0.  1.
</event>
<event>
 5   0  0.5714125E-09  0.3699206E+04  0.7818609E-02  0.8068138E-01
        1   -1    0    0  501    0  0.00000000000E+00  0.00000000000E+00  0.11741981519E+04  0.11741981519E+04  0.50400001928E-02 0. -1.
       -1   -1    0    0    0  501  0.00000000000E+00  0.00000000000E+00 -0.29135049372E+04  0.29135049372E+04  0.50400001928E-02 0.  1.
    10030    2    1    2    0    0  0.00000000000E+00  0.00000000000E+00 -0.17393067854E+04  0.40877030891E+04  0.36992064623E+04 0.  0.
        1    1    3    3  502    0 -0.40775546458E+03  0.85454164969E+03  0.88608865507E+03  0.12967879760E+04  0.50400001928E-02 0. -1.
       -1    1    3    3    0  502  0.40775546458E+03 -0.85454164969E+03 -0.26253954404E+04  0.27909151131E+04  0.50400001928E-02 0.  1.
</event>
<event>
 5   0  0.5714125E-09  0.3699360E+04  0.7818609E-02  0.8068104E-01
        1   -1    0    0  501    0  0.00000000000E+00  0.00000000000E+00  0.27886904857E+04  0.27886904857E+04  0.50400001928E-02 0.  1.
       -1   -1    0    0    0  501  0.00000000000E+00  0.00000000000E+00 -0.12268538916E+04  0.12268538916E+04  0.50400001928E-02 0. -1.
    10030    2    1    2    0    0  0.00000000000E+00  0.00000000000E+00  0.15618365941E+04  0.40155443773E+04  0.36993598229E+04 0.  0.
        5    1    3    3  502    0 -0.41035952478E+03 -0.16495447824E+04 -0.10731597119E+02  0.16998618138E+04  0.46999998093E+01 0. -1.
       -5    1    3    3    0  502  0.41035952478E+03  0.16495447824E+04  0.15725681912E+04  0.23156825635E+04  0.46999998093E+01 0.  1.
</event>
<event>
 5   0  0.1740290E-08  0.3700453E+04  0.7818609E-02  0.8067861E-01
       -2   -1    0    0    0  501  0.00000000000E+00  0.00000000000E+00  0.16112152216E+04  0.16112152216E+04  0.25500000920E-02 0.  1.
        2   -1    0    0  501    0  0.00000000000E+00  0.00000000000E+00 -0.21246933231E+04  0.21246933231E+04  0.25500000920E-02 0. -1.
    10030    2    1    2    0    0  0.00000000000E+00  0.00000000000E+00 -0.51347810149E+03  0.37359085447E+04  0.37004530660E+04 0.  0.
        5    1    3    3  502    0 -0.12756760372E+04 -0.35639445538E+03 -0.15609954292E+04  0.20472164467E+04  0.46999998093E+01 0. -1.
       -5    1    3    3    0  502  0.12756760372E+04  0.35639445538E+03  0.10475173277E+04  0.16886920979E+04  0.46999998093E+01 0.  1.
</event>
<event>
 5   0  0.1825308E-08  0.3700170E+04  0.7818609E-02  0.8067924E-01
        2   -1    0    0  501    0  0.00000000000E+00  0.00000000000E+00  0.18761078313E+04  0.18761078313E+04  0.25500000920E-02 0.  1.
       -2   -1    0    0    0  501  0.00000000000E+00  0.00000000000E+00 -0.18244235025E+04  0.18244235025E+04  0.25500000920E-02 0. -1.
    10030    2    1    2    0    0  0.00000000000E+00  0.00000000000E+00  0.51684328754E+02  0.37005313338E+04  0.37001703857E+04 0.  0.
        4    1    3    3  502    0 -0.46395700289E+03  0.16343259948E+04  0.75839982930E+03  0.18604971034E+04  0.12699999809E+01 0.  1.
       -4    1    3    3    0  502  0.46395700289E+03 -0.16343259948E+04 -0.70671550055E+03  0.18400342305E+04  0.12699999809E+01 0. -1.
</event>
<event>
 5   0  0.5714125E-09  0.3699654E+04  0.7818609E-02  0.8068038E-01
        1   -1    0    0  501    0  0.00000000000E+00  0.00000000000E+00  0.20765432415E+04  0.20765432416E+04  0.50400001928E-02 0.  1.
       -1   -1    0    0    0  501  0.00000000000E+00  0.00000000000E+00 -0.16478636846E+04  0.16478636846E+04  0.50400001928E-02 0. -1.
    10030    2    1    2    0    0  0.00000000000E+00  0.00000000000E+00  0.42867955694E+03  0.37244069262E+04  0.36996541445E+04 0.  0.
        5    1    3    3  502    0 -0.17689022663E+04  0.53790234449E+03  0.15491989447E+03  0.18553642293E+04  0.46999998093E+01 0. -1.
       -5    1    3    3    0  502  0.17689022663E+04 -0.53790234449E+03  0.27375966247E+03  0.18690426968E+04  0.46999998093E+01 0.  1.
</event>
<event>
 5   0  0.5714125E-09  0.3706479E+04  0.7818609E-02  0.8066528E-01
       -3   -1    0    0    0  501  0.00000000000E+00  0.00000000000E+00  0.14198645509E+04  0.14198645544E+04  0.10100000352E+00 0. -1.
        3   -1    0    0  501    0  0.00000000000E+00  0.00000000000E+00 -0.24188902619E+04  0.24188902640E+04  0.10100000352E+00 0.  1.
    10030    2    1    2    0    0  0.00000000000E+00  0.00000000000E+00 -0.99902571100E+03  0.38387548184E+04  0.37064789470E+04 0.  0.
        3    1    3    3  502    0  0.20869833052E+03 -0.18366768883E+04 -0.63675438121E+03  0.19550941505E+04  0.10100000352E+00 0.  1.
       -3    1    3    3    0  502 -0.20869833052E+03  0.18366768883E+04 -0.36227132979E+03  0.18836606679E+04  0.10100000352E+00 0. -1.
</event>
<event>
 5   0  0.1725865E-08  0.3699850E+04  0.7818609E-02  0.8067995E-01
       -2   -1    0    0    0  501  0.00000000000E+00  0.00000000000E+00  0.15445453156E+04  0.15445453156E+04  0.25500000920E-02 0. -1.
        2   -1    0    0  501    0  0.00000000000E+00  0.00000000000E+00 -0.22156824435E+04  0.22156824435E+04  0.25500000920E-02 0.  1.
    10030    2    1    2    0    0  0.00000000000E+00  0.00000000000E+00 -0.67113712787E+03  0.37602277592E+04  0.36998496937E+04 0.  0.
        1    1    3    3  502    0 -0.10578498189E+04  0.12429096618E+04 -0.12206134150E+04  0.20380794331E+04  0.50400001928E-02 0.  1.
       -1    1    3    3    0  502  0.10578498189E+04 -0.12429096618E+04  0.54947628715E+03  0.17221483260E+04  0.50400001928E-02 0. -1.
</event>
<event>
 5   0  0.1825308E-08  0.3707048E+04  0.7818609E-02  0.8066402E-01
        2   -1    0    0  501    0  0.00000000000E+00  0.00000000000E+00  0.21275969707E+04  0.21275969707E+04  0.25500000920E-02 0.  1.
       -2   -1    0    0    0  501  0.00000000000E+00  0.00000000000E+00 -0.16147565423E+04  0.16147565423E+04  0.25500000920E-02 0. -1.
    10030    2    1    2    0    0  0.00000000000E+00  0.00000000000E+00  0.51284042841E+03  0.37423535129E+04  0.37070479510E+04 0.  0.
        4    1    3    3  502    0  0.85131122135E+03 -0.16005154228E+04  0.64632273378E+03  0.19246077791E+04  0.12699999809E+01 0.  1.
       -4    1    3    3    0  502 -0.85131122135E+03  0.16005154228E+04 -0.13348230537E+03  0.18177457339E+04  0.12699999809E+01 0. -1.
</event>
<event>
 5   0  0.1825308E-08  0.3701897E+04  0.7818609E-02  0.8067542E-01
       -2   -1    0    0    0  501  0.00000000000E+00  0.00000000000E+00  0.24063788181E+04  0.24063788181E+04  0.25500000920E-02 0.  1.
        2   -1    0    0  501    0  0.00000000000E+00  0.00000000000E+00 -0.14237204325E+04  0.14237204325E+04  0.25500000920E-02 0. -1.
    10030    2    1    2    0    0  0.00000000000E+00  0.00000000000E+00  0.98265838559E+03  0.38300992506E+04  0.37018971848E+04 0.  0.
        4    1    3    3  502    0  0.73393356021E+03  0.98953330722E+03  0.19205348046E+04  0.22817296478E+04  0.12699999809E+01 0.  1.
       -4    1    3    3    0  502 -0.73393356021E+03 -0.98953330722E+03 -0.93787641901E+03  0.15483696029E+04  0.12699999809E+01 0. -1.
</event>
<event>
 5   0  0.5714125E-09  0.3708392E+04  0.7818609E-02  0.8066105E-01
       -1   -1    0    0    0  501  0.00000000000E+00  0.00000000000E+00  0.19390465312E+04  0.19390465312E+04  0.50400001928E-02 0. -1.
        1   -1    0    0  501    0  0.00000000000E+00  0.00000000000E+00 -0.17730587558E+04  0.17730587559E+04  0.50400001928E-02 0.  1.
    10030    2    1    2    0    0  0.00000000000E+00  0.00000000000E+00  0.16598777537E+03  0.37121052871E+04  0.37083923364E+04 0.  0.
        4    1    3    3  502    0  0.27425253557E+03 -0.13233373448E+04  0.13537552440E+04  0.19128750756E+04  0.12699999809E+01 0. -1.
       -4    1    3    3    0  502 -0.27425253557E+03  0.13233373448E+04 -0.11877674686E+04  0.17992302115E+04  0.12699999809E+01 0.  1.
</event>
<event>
 5   0  0.5714125E-09  0.3700004E+04  0.7818609E-02  0.8067961E-01
        1   -1    0    0  501    0  0.00000000000E+00  0.00000000000E+00  0.20776116584E+04  0.20776116584E+04  0.50400001928E-02 0.  1.
       -1   -1    0    0    0  501  0.00000000000E+00  0.00000000000E+00 -0.16473279644E+04  0.16473279644E+04  0.50400001928E-02 0. -1.
    10030    2    1    2    0    0  0.00000000000E+00  0.00000000000E+00  0.43028369395E+03  0.37249396228E+04  0.37000042076E+04 0.  0.
        3    1    3    3  502    0  0.16323811501E+04 -0.22769550560E+03  0.10610391116E+04  0.19601830193E+04  0.10100000352E+00 0.  1.
       -3    1    3    3    0  502 -0.16323811501E+04  0.22769550560E+03 -0.63075541769E+03  0.17647566035E+04  0.10100000352E+00 0. -1.
</event>
<event>
 5   0  0.5714125E-09  0.3700715E+04  0.7818609E-02  0.8067803E-01
       -1   -1    0    0    0  501  0.00000000000E+00  0.00000000000E+00  0.13055638610E+04  0.13055638610E+04  0.50400001928E-02 0. -1.
        1   -1    0    0  501    0  0.00000000000E+00  0.00000000000E+00 -0.26224865632E+04  0.26224865632E+04  0.50400001928E-02 0.  1.
    10030    2    1    2    0    0  0.00000000000E+00  0.00000000000E+00 -0.13169227022E+04  0.39280504242E+04  0.37007154351E+04 0.  0.
        3    1    3    3  502    0  0.15645399382E+04 -0.72023597677E+03  0.59318552664E+02  0.17233814962E+04  0.10100000352E+00 0.  1.
       -3    1    3    3    0  502 -0.15645399382E+04  0.72023597677E+03 -0.13762412548E+04  0.22046689280E+04  0.10100000352E+00 0. -1.
</event>
<event>
 5   0  0.1725865E-08  0.3703011E+04  0.7818609E-02  0.8067295E-01
       -2   -1    0    0    0  501  0.00000000000E+00  0.00000000000E+00  0.17982261844E+04  0.17982261844E+04  0.25500000920E-02 0.  1.
        2   -1    0    0  501    0  0.00000000000E+00  0.00000000000E+00 -0.19063636787E+04  0.19063636787E+04  0.25500000920E-02 0. -1.
    10030    2    1    2    0    0  0.00000000000E+00  0.00000000000E+00 -0.10813749425E+03  0.37045898631E+04  0.37030112525E+04 0.  0.
        1    1    3    3  502    0  0.90902345319E+03 -0.16122590926E+04 -0.53646917097E+01  0.18508732534E+04  0.50400001928E-02 0. -1.
       -1    1    3    3    0  502 -0.90902345319E+03  0.16122590926E+04 -0.10277280254E+03  0.18537166097E+04  0.50400001928E-02 0.  1.
</event>
<event>
 5   0  0.5714125E-09  0.3681793E+04  0.7818609E-02  0.8072009E-01
       -1   -1    0    0    0  501  0.00000000000E+00  0.00000000000E+00  0.22047794350E+04  0.22047794350E+04  0.50400001928E-02 0.  1.
        1   -1    0    0  501    0  0.00000000000E+00  0.00000000000E+00 -0.15370695067E+04  0.15370695067E+04  0.50400001928E-02 0. -1.
    10030    2    1    2    0    0  0.00000000000E+00  0.00000000000E+00  0.66770992837E+03  0.37418489417E+04  0.36817926278E+04 0.  0.
        4    1    3    3  502    0  0.16122626286E+04  0.57140115128E+03  0.10254008013E+04  0.19943265719E+04  0.12699999809E+01 0.  1.
       -4    1    3    3    0  502 -0.16122626286E+04 -0.57140115128E+03 -0.35769087289E+03  0.17475223698E+04  0.12699999809E+01 0. -1.
</event>
<event>
 5   0  0.1725865E-08  0.3701383E+04  0.7818609E-02  0.8067655E-01
       -2   -1    0    0    0  501  0.00000000000E+00  0.00000000000E+00  0.21773624449E+04  0.21773624449E+04  0.25500000920E-02 0.  1.
        2   -1    0    0  501    0  0.00000000000E+00  0.00000000000E+00 -0.15730311973E+04  0.15730311973E+04  0.25500000920E-02 0. -1.
    10030    2    1    2    0    0  0.00000000000E+00  0.00000000000E+00  0.60433124751E+03  0.37503936422E+04  0.37013830138E+04 0.  0.
        1    1    3    3  502    0 -0.25780805525E+03 -0.99922512587E+03 -0.12544522184E+04  0.16243664038E+04  0.50400001928E-02 0. -1.
       -1    1    3    3    0  502  0.25780805525E+03  0.99922512587E+03  0.18587834659E+04  0.21260272384E+04  0.50400001928E-02 0.  1.
</event>
<event>
 5   0  0.5714125E-09  0.3696976E+04  0.7818609E-02  0.8068632E-01
       -1   -1    0    0    0  501  0.00000000000E+00  0.00000000000E+00  0.20941100976E+04  0.20941100976E+04  0.50400001928E-02 0.  1.
        1   -1    0    0  501    0  0.00000000000E+00  0.00000000000E+00 -0.16316753472E+04  0.16316753472E+04  0.50400001928E-02 0. -1.
    10030    2    1    2    0    0  0.00000000000E+00  0.00000000000E+00  0.46243475040E+03  0.37257854448E+04  0.36969759646E+04 0.  0.
        5    1    3    3  502    0  0.11367584315E+04  0.12686988595E+04 -0.49205854460E+03  0.17731216059E+04  0.46999998093E+01 0. -1.
       -5    1    3    3    0  502 -0.11367584315E+04 -0.12686988595E+04  0.95449329500E+03  0.19526638390E+04  0.46999998093E+01 0.  1.
</event>
<event>
 5   0  0.1757996E-08  0.3699745E+04  0.7818609E-02  0.8068018E-01
       -2   -1    0    0    0  501  0.00000000000E+00  0.00000000000E+00  0.92659614440E+03  0.92659614440E+03  0.25500000920E-02 0.  1.
        2   -1    0    0  501    0  0.00000000000E+00  0.00000000000E+00 -0.36931177205E+04  0.36931177205E+04  0.25500000920E-02 0. -1.
    10030    2    1    2    0    0  0.00000000000E+00  0.00000000000E+00 -0.27665215761E+04  0.46197138649E+04  0.36997452024E+04 0.  0.
        3    1    3    3  502    0  0.41313734821E+03  0.17976116709E+04 -0.12069459445E+04  0.22042705621E+04  0.10100000352E+00 0. -1.
       -3    1    3    3    0  502 -0.41313734821E+03 -0.17976116709E+04 -0.15595756316E+04  0.24154433027E+04  0.10100000352E+00 0.  1.
</event>
<event>
 5   0  0.1725865E-08  0.3698980E+04  0.7818609E-02  0.8068188E-01
        2   -1    0    0  501    0  0.00000000000E+00  0.00000000000E+00  0.21555821566E+04  0.21555821566E+04  0.25500000920E-02 0. -1.
       -2   -1    0    0    0  501  0.00000000000E+00  0.00000000000E+00 -0.15868626554E+04  0.15868626554E+04  0.25500000920E-02 0.  1.
    10030    2    1    2    0    0  0.00000000000E+00  0.00000000000E+00  0.56871950123E+03  0.37424448120E+04  0.36989797648E+04 0.  0.
        1    1    3    3  502    0  0.16355352645E+03  0.13958127992E+04 -0.93208662085E+03  0.16863654987E+04  0.50400001928E-02 0.  1.
       -1    1    3    3    0  502 -0.16355352645E+03 -0.13958127992E+04  0.15008061221E+04  0.20560793133E+04  0.50400001928E-02 0. -1.
</event>
<event>
 5   0  0.5714125E-09  0.3706215E+04  0.7818609E-02  0.8066586E-01
       -1   -1    0    0    0  501  0.00000000000E+00  0.00000000000E+00  0.11027728204E+04  0.11027728205E+04  0.50400001928E-02 0. -1.
        1   -1    0    0  501    0  0.00000000000E+00  0.00000000000E+00 -0.31139756049E+04  0.31139756049E+04  0.50400001928E-02 0.  1.
    10030    2    1    2    0    0  0.00000000000E+00  0.00000000000E+00 -0.20112027845E+04  0.42167484254E+04  0.37062151371E+04 0.  0.
        5    1    3    3  502    0  0.79757984033E+03 -0.37747662432E+03  0.84839568726E+03  0.12240994795E+04  0.46999998093E+01 0. -1.
       -5    1    3    3    0  502 -0.79757984033E+03  0.37747662432E+03 -0.28595984717E+04  0.29926489458E+04  0.46999998093E+01 0.  1.
</event>
<event>
 5   0  0.5714125E-09  0.3699870E+04  0.7818609E-02  0.8067991E-01
       -1   -1    0    0    0  501  0.00000000000E+00  0.00000000000E+00  0.14294437186E+04  0.14294437186E+04  0.50400001928E-02 0.  1.
        1   -1    0    0  501    0  0.00000000000E+00  0.00000000000E+00 -0.23941202007E+04  0.23941202007E+04  0.50400001928E-02 0. -1.
    10030    2    1    2    0    0  0.00000000000E+00  0.00000000000E+00 -0.96467648216E+03  0.38235639193E+04  0.36998703126E+04 0.  0.
        2    1    3    3  502    0  0.47342154786E+03  0.96965581335E+02  0.13630625960E+04  0.14461915249E+04  0.25500000920E-02 0.  1.
       -2    1    3    3    0  502 -0.47342154786E+03 -0.96965581335E+02 -0.23277390782E+04  0.23773723945E+04  0.25500000920E-02 0. -1.
</event>
<event>
 5   0  0.1856107E-08  0.3702367E+04  0.7818609E-02  0.8067438E-01
        2   -1    0    0  501    0  0.00000000000E+00  0.00000000000E+00  0.16291644844E+04  0.16291644844E+04  0.25500000920E-02 0.  1.
       -2   -1    0    0    0  501  0.00000000000E+00  0.00000000000E+00 -0.21034584736E+04  0.21034584736E+04  0.25500000920E-02 0. -1.
    10030    2    1    2    0    0  0.00000000000E+00  0.00000000000E+00 -0.47429398923E+03  0.37326229579E+04  0.37023667239E+04 0.  0.
        2    1    3    3  502    0 -0.53710147575E+03  0.58838800396E+03 -0.19217906835E+04  0.20803744542E+04  0.25500000920E-02 0. -1.
       -2    1    3    3    0  502  0.53710147575E+03 -0.58838800396E+03  0.14474966942E+04  0.16522485038E+04  0.25500000920E-02 0.  1.
</event>
<event>
 5   0  0.1856107E-08  0.3700101E+04  0.7818609E-02  0.8067939E-01
        2   -1    0    0  501    0  0.00000000000E+00  0.00000000000E+00  0.15929717735E+04  0.15929717735E+04  0.25500000920E-02 0. -1.
       -2   -1    0    0    0  501  0.00000000000E+00  0.00000000000E+00 -0.21486175136E+04  0.21486175136E+04  0.25500000920E-02 0.  1.
    10030    2    1    2    0    0  0.00000000000E+00  0.00000000000E+00 -0.55564574010E+03  0.37415892870E+04  0.37001011073E+04 0.  0.
        2    1    3    3  502    0  0.12592698290E+04  0.13172804620E+04 -0.60030102010E+03  0.19186843494E+04  0.25500000920E-02 0.  1.
       -2    1    3    3    0  502 -0.12592698290E+04 -0.13172804620E+04  0.44655279994E+02  0.18229049377E+04  0.25500000920E-02 0. -1.
</event>
<event>
 5   0  0.5714125E-09  0.3700439E+04  0.7818609E-02  0.8067864E-01
       -1   -1    0    0    0  501  0.00000000000E+00  0.00000000000E+00  0.13078180213E+04  0.13078180214E+04  0.50400001928E-02 0. -1.
        1   -1    0    0  501    0  0.00000000000E+00  0.00000000000E+00 -0.26175756819E+04  0.26175756819E+04  0.50400001928E-02 0.  1.
    10030    2    1    2    0    0  0.00000000000E+00  0.00000000000E+00 -0.13097576605E+04  0.39253937032E+04  0.37004392437E+04 0.  0.
        3    1    3    3  502    0  0.20672679544E+03  0.13879349786E+04  0.62433745486E+03  0.15358700272E+04  0.10100000352E+00 0. -1.
       -3    1    3    3    0  502 -0.20672679544E+03 -0.13879349786E+04 -0.19340951154E+04  0.23895236760E+04  0.10100000352E+00 0.  1.
</event>
<event>
 5   0  0.5714125E-09  0.3700184E+04  0.7818609E-02  0.8067921E-01
        1   -1    0    0  501    0  0.00000000000E+00  0.00000000000E+00  0.29034414069E+04  0.29034414069E+04  0.50400001928E-02 0.  1.
       -1   -1    0    0    0  501  0.00000000000E+00  0.00000000000E+00 -0.11788908048E+04  0.11788908048E+04  0.50400001928E-02 0. -1.
    10030    2    1    2    0    0  0.00000000000E+00  0.00000000000E+00  0.17245506021E+04  0.40823322117E+04  0.37001839829E+04 0.  0.
        2    1    3    3  502    0  0.12576148873E+04  0.72366518424E+03  0.21286703849E+04  0.25761452039E+04  0.25500000920E-02 0.  1.
       -2    1    3    3    0  502 -0.12576148873E+04 -0.72366518424E+03 -0.40411978281E+03  0.15061870078E+04  0.25500000920E-02 0. -1.
</event>
<event>
 5   0  0.1725865E-08  0.3700083E+04  0.7818609E-02  0.8067943E-01
        2   -1    0    0  501    0  0.00000000000E+00  0.00000000000E+00  0.15626660030E+04  0.15626660030E+04  0.25500000920E-02 0. -1.
       -2   -1    0    0    0  501  0.00000000000E+00  0.00000000000E+00 -0.21902656864E+04  0.21902656864E+04  0.25500000920E-02 0.  1.
    10030    2    1    2    0    0  0.00000000000E+00  0.00000000000E+00 -0.62759968342E+03  0.37529316894E+04  0.37000830941E+04 0.  0.
        1    1    3    3  502    0 -0.72861660032E+03 -0.94962597936E+03  0.11170160807E+04  0.16371916734E+04  0.50400001928E-02 0. -1.
       -1    1    3    3    0  502  0.72861660032E+03  0.94962597936E+03 -0.17446157641E+04  0.21157400160E+04  0.50400001928E-02 0.  1.
</event>
<event>
 5   0  0.5714125E-09  0.3701013E+04  0.7818609E-02  0.8067737E-01
       -1   -1    0    0    0  501  0.00000000000E+00  0.00000000000E+00  0.17927365237E+04  0.17927365237E+04  0.50400001928E-02 0.  1.
        1   -1    0    0  501    0  0.00000000000E+00  0.00000000000E+00 -0.19101384892E+04  0.19101384892E+04  0.50400001928E-02 0. -1.
    10030    2    1    2    0    0  0.00000000000E+00  0.00000000000E+00 -0.11740196549E+03  0.37028750129E+04  0.37010133936E+04 0.  0.
        4    1    3    3  502    0 -0.14159613885E+04 -0.11428141923E+04  0.27822126713E+03  0.18407551760E+04  0.12699999809E+01 0.  1.
       -4    1    3    3    0  502  0.14159613885E+04  0.11428141923E+04 -0.39562323262E+03  0.18621198368E+04  0.12699999809E+01 0. -1.
</event>
<event>
 5   0  0.1725865E-08  0.3701595E+04  0.7818609E-02  0.8067608E-01
        2   -1    0    0  501    0  0.00000000000E+00  0.00000000000E+00  0.21440375339E+04  0.21440375339E+04  0.25500000920E-02 0.  1.
       -2   -1    0    0    0  501  0.00000000000E+00  0.00000000000E+00 -0.15976641313E+04  0.15976641313E+04  0.25500000920E-02 0. -1.
    10030    2    1    2    0    0  0.00000000000E+00  0.00000000000E+00  0.54637340258E+03  0.37417016652E+04  0.37015952583E+04 0.  0.
        1    1    3    3  502    0  0.16439697581E+04  0.84710448130E+03  0.20008931432E+03  0.18601769544E+04  0.50400001928E-02 0.  1.
       -1    1    3    3    0  502 -0.16439697581E+04 -0.84710448130E+03  0.34628408825E+03  0.18815247109E+04  0.50400001928E-02 0. -1.
</event>
<event>
 5   0  0.5714125E-09  0.3700823E+04  0.7818609E-02  0.8067780E-01
        1   -1    0    0  501    0  0.00000000000E+00  0.00000000000E+00  0.20062397572E+04  0.20062397572E+04  0.50400001928E-02 0. -1.
       -1   -1    0    0    0  501  0.00000000000E+00  0.00000000000E+00 -0.17066864472E+04  0.17066864472E+04  0.50400001928E-02 0.  1.
    10030    2    1    2    0    0  0.00000000000E+00  0.00000000000E+00  0.29955331002E+03  0.37129262044E+04  0.37008227212E+04 0.  0.
        1    1    3    3  502    0 -0.15373057575E+04 -0.65932632427E+03  0.94356715947E+03  0.19205049280E+04  0.50400001928E-02 0. -1.
       -1    1    3    3    0  502  0.15373057575E+04  0.65932632427E+03 -0.64401384945E+03  0.17924212764E+04  0.50400001928E-02 0.  1.
</event>
<event>
 5   0  0.1825308E-08  0.3700406E+04  0.7818609E-02  0.8067872E-01
       -2   -1    0    0    0  501  0.00000000000E+00  0.00000000000E+00  0.16080476896E+04  0.16080476896E+04  0.25500000920E-02 0. -1.
        2   -1    0    0  501    0  0.00000000000E+00  0.00000000000E+00 -0.21288246645E+04  0.21288246645E+04  0.25500000920E-02 0.  1.
    10030    2    1    2    0    0  0.00000000000E+00  0.00000000000E+00 -0.52077697490E+03  0.37368723541E+04  0.37004062389E+04 0.  0.
        4    1    3    3  502    0 -0.31592721720E+03  0.12111091978E+04 -0.16364074000E+04  0.20602005454E+04  0.12699999809E+01 0.  1.
       -4    1    3    3    0  502  0.31592721720E+03 -0.12111091978E+04  0.11156304251E+04  0.16766718087E+04  0.12699999809E+01 0. -1.
</event>
<event>
 5   0  0.5714125E-09  0.3700144E+04  0.7818609E-02  0.8067930E-01
       -3   -1    0    0    0  501  0.00000000000E+00  0.00000000000E+00  0.29578662100E+04  0.29578662117E+04  0.10100000352E+00 0.  1.
        3   -1    0    0  501    0  0.00000000000E+00  0.00000000000E+00 -0.11571738886E+04  0.11571738930E+04  0.10100000352E+00 0. -1.
    10030    2    1    2    0    0  0.00000000000E+00  0.00000000000E+00  0.18006923214E+04  0.41150401048E+04  0.37001435415E+04 0.  0.
        3    1    3    3  502    0 -0.18025581464E+04  0.10085644379E+03  0.45082325469E+03  0.18608142064E+04  0.10100000352E+00 0. -1.
       -3    1    3    3    0  502  0.18025581464E+04 -0.10085644379E+03  0.13498690667E+04  0.22542258984E+04  0.10100000352E+00 0.  1.
</event>
<event>
 5   0  0.1757996E-08  0.3699517E+04  0.7818609E-02  0.8068069E-01
       -2   -1    0    0    0  501  0.00000000000E+00  0.00000000000E+00  0.15272636814E+04  0.15272636814E+04  0.25500000920E-02 0.  1.
        2   -1    0    0  501    0  0.00000000000E+00  0.00000000000E+00 -0.22403504947E+04  0.22403504947E+04  0.25500000920E-02 0. -1.
    10030    2    1    2    0    0  0.00000000000E+00  0.00000000000E+00 -0.71308681334E+03  0.37676141761E+04  0.36995166950E+04 0.  0.
        3    1    3    3  502    0 -0.25482704643E+02 -0.28815158697E+03 -0.22171721802E+04  0.22359635937E+04  0.10100000352E+00 0. -1.
       -3    1    3    3    0  502  0.25482704643E+02  0.28815158697E+03  0.15040853669E+04  0.15316505824E+04  0.10100000352E+00 0.  1.
</event>
<event>
 5   0  0.1856107E-08  0.3701089E+04  0.7818609E-02  0.8067721E-01
       -2   -1    0    0    0  501  0.00000000000E+00  0.00000000000E+00  0.14071478915E+04  0.14071478915E+04  0.25500000920E-02 0. -1.
        2   -1    0    0  501    0  0.00000000000E+00  0.00000000000E+00 -0.24336564785E+04  0.24336564785E+04  0.25500000920E-02 0.  1.
    10030    2    1    2    0    0  0.00000000000E+00  0.00000000000E+00 -0.10265085870E+04  0.38408043699E+04  0.37010888032E+04 0.  0.
        2    1    3    3  502    0  0.56901665111E+03 -0.71281871341E+03 -0.21842004650E+04  0.23669858764E+04  0.25500000920E-02 0.  1.
       -2    1    3    3    0  502 -0.56901665111E+03  0.71281871341E+03  0.11576918780E+04  0.14738184935E+04  0.25500000920E-02 0. -1.
</event>
<event>
 5   0  0.1725865E-08  0.3702470E+04  0.7818609E-02  0.8067415E-01
       -2   -1    0    0    0  501  0.00000000000E+00  0.00000000000E+00  0.18297595789E+04  0.18297595789E+04  0.25500000920E-02 0.  1.
        2   -1    0    0  501    0  0.00000000000E+00  0.00000000000E+00 -0.18729625491E+04  0.18729625491E+04  0.25500000920E-02 0. -1.
    10030    2    1    2    0    0  0.00000000000E+00  0.00000000000E+00 -0.43202970218E+02  0.37027221280E+04  0.37024700756E+04 0.  0.
        1    1    3    3  502    0  0.67852623435E+03 -0.13619189921E+04  0.10329132663E+04  0.18390570974E+04  0.50400001928E-02 0. -1.
       -1    1    3    3    0  502 -0.67852623435E+03  0.13619189921E+04 -0.10761162365E+04  0.18636650306E+04  0.50400001928E-02 0.  1.
</event>
<event>
 5   0  0.5714125E-09  0.3696478E+04  0.7818609E-02  0.8068743E-01
       -1   -1    0    0    0  501  0.00000000000E+00  0.00000000000E+00  0.13430178694E+04  0.13430178694E+04  0.50400001928E-02 0.  1.
        1   -1    0    0  501    0  0.00000000000E+00  0.00000000000E+00 -0.25435153429E+04  0.25435153429E+04  0.50400001928E-02 0. -1.
    10030    2    1    2    0    0  0.00000000000E+00  0.00000000000E+00 -0.12004974735E+04  0.38865332124E+04  0.36964775431E+04 0.  0.
        2    1    3    3  502    0 -0.64869642893E+03  0.18167087460E+03  0.12093391544E+04  0.13843094141E+04  0.25500000920E-02 0.  1.
       -2    1    3    3    0  502  0.64869642893E+03 -0.18167087460E+03 -0.24098366279E+04  0.25022237983E+04  0.25500000920E-02 0. -1.
</event>
<event>
 5   0  0.1856107E-08  0.3699419E+04  0.7818609E-02  0.8068091E-01
        2   -1    0    0  501    0  0.00000000000E+00  0.00000000000E+00  0.19097863177E+04  0.19097863177E+04  0.25500000920E-02 0. -1.
       -2   -1    0    0    0  501  0.00000000000E+00  0.00000000000E+00 -0.17915223264E+04  0.17915223264E+04  0.25500000920E-02 0.  1.
    10030    2    1    2    0    0  0.00000000000E+00  0.00000000000E+00  0.11826399132E+03  0.37013086441E+04  0.36994187796E+04 0.  0.
        2    1    3    3  502    0  0.11117835902E+04 -0.14459386497E+04  0.36689846377E+03  0.18604880577E+04  0.25500000920E-02 0. -1.
       -2    1    3    3    0  502 -0.11117835902E+04  0.14459386497E+04 -0.24863447245E+03  0.18408205863E+04  0.25500000920E-02 0.  1.
</event>
<event>
 5   0  0.5714125E-09  0.3700518E+04  0.7818609E-02  0.8067847E-01
        1   -1    0    0  501    0  0.00000000000E+00  0.00000000000E+00  0.20938994441E+04  0.20938994441E+04  0.50400001928E-02 0. -1.
       -1   -1    0    0    0  501  0.00000000000E+00  0.00000000000E+00 -0.16349677853E+04  0.16349677853E+04  0.50400001928E-02 0.  1.
    10030    2    1    2    0    0  0.00000000000E+00  0.00000000000E+00  0.45893165887E+03  0.37288672294E+04  0.37005178755E+04 0.  0.
        3    1    3    3  502    0  0.17598007857E+04  0.55277642997E+03  0.37548121508E+03  0.18824045102E+04  0.10100000352E+00 0.  1.
       -3    1    3    3    0  502 -0.17598007857E+04 -0.55277642997E+03  0.83450443798E+02  0.18464627192E+04  0.10100000352E+00 0. -1.
</event>
<event>
 5   0  0.5714125E-09  0.3702020E+04  0.7818609E-02  0.8067514E-01
        1   -1    0    0  501    0  0.00000000000E+00  0.00000000000E+00  0.20016001453E+04  0.20016001453E+04  0.50400001928E-02 0.  1.
       -1   -1    0    0    0  501  0.00000000000E+00  0.00000000000E+00 -0.17117490461E+04  0.17117490461E+04  0.50400001928E-02 0. -1.
    10030    2    1    2    0    0  0.00000000000E+00  0.00000000000E+00  0.28985109927E+03  0.37133491914E+04  0.37020195242E+04 0.  0.
        4    1    3    3  502    0 -0.14101228882E+04  0.77973313232E+02  0.13451279280E+04  0.19503582114E+04  0.12699999809E+01 0.  1.
       -4    1    3    3    0  502  0.14101228882E+04 -0.77973313232E+02 -0.10552768287E+04  0.17629909800E+04  0.12699999809E+01 0. -1.
</event>
<event>
 5   0  0.5714125E-09  0.3700439E+04  0.7818609E-02  0.8067865E-01
       -1   -1    0    0    0  501  0.00000000000E+00  0.00000000000E+00  0.16273068818E+04  0.16273068818E+04  0.50400001928E-02 0. -1.
        1   -1    0    0  501    0  0.00000000000E+00  0.00000000000E+00 -0.21036671800E+04  0.21036671800E+04  0.50400001928E-02 0.  1.
    10030    2    1    2    0    0  0.00000000000E+00  0.00000000000E+00 -0.47636029815E+03  0.37309740618E+04  0.37004389356E+04 0.  0.
        2    1    3    3  502    0 -0.14950472441E+04  0.45033784306E+03  0.76265467196E+03  0.17377032496E+04  0.25500000920E-02 0. -1.
       -2    1    3    3    0  502  0.14950472441E+04 -0.45033784306E+03 -0.12390149701E+04  0.19932708123E+04  0.25500000920E-02 0.  1.
</event>
<event>
 5   0  0.5714125E-09  0.3699154E+04  0.7818609E-02  0.8068149E-01
        1   -1    0    0  501    0  0.00000000000E+00  0.00000000000E+00  0.11156878165E+04  0.11156878165E+04  0.50400001928E-02 0. -1.
       -1   -1    0    0    0  501  0.00000000000E+00  0.00000000000E+00 -0.30662122745E+04  0.30662122745E+04  0.50400001928E-02 0.  1.
    10030    2    1    2    0    0  0.00000000000E+00  0.00000000000E+00 -0.19505244580E+04  0.41819000910E+04  0.36991543236E+04 0.  0.
        5    1    3    3  502    0  0.28217373183E+03  0.32970296711E+03 -0.30078361519E+04  0.30389844469E+04  0.46999998093E+01 0.  1.
       -5    1    3    3    0  502 -0.28217373183E+03 -0.32970296711E+03  0.10573116939E+04  0.11429156441E+04  0.46999998093E+01 0. -1.
</event>
<event>
 5   0  0.1725865E-08  0.3701867E+04  0.7818609E-02  0.8067548E-01
       -2   -1    0    0    0  501  0.00000000000E+00  0.00000000000E+00  0.13969820057E+04  0.13969820057E+04  0.25500000920E-02 0. -1.
        2   -1    0    0  501    0  0.00000000000E+00  0.00000000000E+00 -0.24523973936E+04  0.24523973936E+04  0.25500000920E-02 0.  1.
    10030    2    1    2    0    0  0.00000000000E+00  0.00000000000E+00 -0.10554153879E+04  0.38493793993E+04  0.37018671126E+04 0.  0.
        1    1    3    3  502    0  0.12311295483E+04 -0.71327693095E+03  0.70332095933E+03  0.15871686479E+04  0.50400001928E-02 0. -1.
       -1    1    3    3    0  502 -0.12311295483E+04  0.71327693095E+03 -0.17587363472E+04  0.22622107514E+04  0.50400001928E-02 0.  1.
</event>
<event>
 5   0  0.1825308E-08  0.3701056E+04  0.7818609E-02  0.8067728E-01
       -2   -1    0    0    0  501  0.00000000000E+00  0.00000000000E+00  0.14652878028E+04  0.14652878028E+04  0.25500000920E-02 0. -1.
        2   -1    0    0  501    0  0.00000000000E+00  0.00000000000E+00 -0.23370516537E+04  0.23370516537E+04  0.25500000920E-02 0.  1.
    10030    2    1    2    0    0  0.00000000000E+00  0.00000000000E+00 -0.87176385095E+03  0.38023394565E+04  0.37010556778E+04 0.  0.
        4    1    3    3  502    0  0.98109647693E+03 -0.12737346199E+04  0.50543529433E+03  0.16853535619E+04  0.12699999809E+01 0.  1.
       -4    1    3    3    0  502 -0.98109647693E+03  0.12737346199E+04 -0.13771991453E+04  0.21169858945E+04  0.12699999809E+01 0. -1.
</event>
<event>
 5   0  0.1757996E-08  0.3708069E+04  0.7818609E-02  0.8066176E-01
        2   -1    0    0  501    0  0.00000000000E+00  0.00000000000E+00  0.18130313621E+04  0.18130313621E+04  0.25500000920E-02 0. -1.
       -2   -1    0    0    0  501  0.00000000000E+00  0.00000000000E+00 -0.18959648509E+04  0.18959648509E+04  0.25500000920E-02 0.  1.
    10030    2    1    2    0    0  0.00000000000E+00  0.00000000000E+00 -0.82933488852E+02  0.37089962130E+04  0.37080688969E+04 0.  0.
        3    1    3    3  502    0 -0.10556892732E+04 -0.11553829395E+04  0.95279096643E+03  0.18322664147E+04  0.10100000352E+00 0. -1.
       -3    1    3    3    0  502  0.10556892732E+04  0.11553829395E+04 -0.10357244553E+04  0.18767297983E+04  0.10100000352E+00 0.  1.
</event>
<event>
 5   0  0.5714125E-09  0.3700819E+04  0.7818609E-02  0.8067780E-01
       -1   -1    0    0    0  501  0.00000000000E+00  0.00000000000E+00  0.21048180497E+04  0.21048180497E+04  0.50400001928E-02 0. -1.
        1   -1    0    0  501    0  0.00000000000E+00  0.00000000000E+00 -0.16267512166E+04  0.16267512167E+04  0.50400001928E-02 0.  1.
    10030    2    1    2    0    0  0.00000000000E+00  0.00000000000E+00  0.47806683302E+03  0.37315692663E+04  0.37008190029E+04 0.  0.
        2    1    3    3  502    0 -0.28358793522E+03 -0.17902829755E+04 -0.13618772898E+03  0.18177134942E+04  0.25500000920E-02 0. -1.
       -2    1    3    3    0  502  0.28358793522E+03  0.17902829755E+04  0.61425456200E+03  0.19138557721E+04  0.25500000920E-02 0.  1.
</event>
<event>
 5   0  0.5714125E-09  0.3698332E+04  0.7818609E-02  0.8068331E-01
        4   -1    0    0  501    0  0.00000000000E+00  0.00000000000E+00  0.20894924396E+04  0.20894928256E+04  0.12699999809E+01 0.  1.
       -4   -1    0    0    0  501  0.00000000000E+00  0.00000000000E+00 -0.16364806275E+04  0.16364811203E+04  0.12699999809E+01 0. -1.
    10030    2    1    2    0    0  0.00000000000E+00  0.00000000000E+00  0.45301181207E+03  0.37259739459E+04  0.36983323463E+04 0.  0.
        5    1    3    3  502    0  0.24171081322E+03 -0.10942648444E+04 -0.12553900921E+04  0.16828149156E+04  0.46999998093E+01 0. -1.
       -5    1    3    3    0  502 -0.24171081322E+03  0.10942648444E+04  0.17084019041E+04  0.20431590303E+04  0.46999998093E+01 0.  1.
</event>
<event>
 5   0  0.5714125E-09  0.3699768E+04  0.7818609E-02  0.8068013E-01
        3   -1    0    0  501    0  0.00000000000E+00  0.00000000000E+00  0.23751433177E+04  0.23751433199E+04  0.10100000352E+00 0. -1.
       -3   -1    0    0    0  501  0.00000000000E+00  0.00000000000E+00 -0.14407848417E+04  0.14407848453E+04  0.10100000352E+00 0.  1.
    10030    2    1    2    0    0  0.00000000000E+00  0.00000000000E+00  0.93435847601E+03  0.38159281652E+04  0.36997678306E+04 0.  0.
        3    1    3    3  502    0 -0.21175799903E+03  0.42650839046E+03  0.23108478947E+04  0.23594001060E+04  0.10100000352E+00 0. -1.
       -3    1    3    3    0  502  0.21175799903E+03 -0.42650839046E+03 -0.13764894187E+04  0.14565280592E+04  0.10100000352E+00 0.  1.
</event>
<event>
 5   0  0.5714125E-09  0.3699011E+04  0.7818609E-02  0.8068181E-01
       -1   -1    0    0    0  501  0.00000000000E+00  0.00000000000E+00  0.14606393199E+04  0.14606393199E+04  0.50400001928E-02 0. -1.
        1   -1    0    0  501    0  0.00000000000E+00  0.00000000000E+00 -0.23418996844E+04  0.23418996844E+04  0.50400001928E-02 0.  1.
    10030    2    1    2    0    0  0.00000000000E+00  0.00000000000E+00 -0.88126036449E+03  0.38025390044E+04  0.36990110908E+04 0.  0.
        4    1    3    3  502    0 -0.17698201183E+04  0.18960200037E+03  0.75883386882E+02  0.17815645010E+04  0.12699999809E+01 0.  1.
       -4    1    3    3    0  502  0.17698201183E+04 -0.18960200037E+03 -0.95714375137E+03  0.20209745034E+04  0.12699999809E+01 0. -1.
</event>
<event>
 5   0  0.5714125E-09  0.3699474E+04  0.7818609E-02  0.8068078E-01
       -1   -1    0    0    0  501  0.00000000000E+00  0.00000000000E+00  0.17548721267E+04  0.17548721267E+04  0.50400001928E-02 0. -1.
        1   -1    0    0  501    0  0.00000000000E+00  0.00000000000E+00 -0.19497301621E+04  0.19497301621E+04  0.50400001928E-02 0.  1.
    10030    2    1    2    0    0  0.00000000000E+00  0.00000000000E+00 -0.19485803543E+03  0.37046022888E+04  0.36994740794E+04 0.  0.
        1    1    3    3  502    0  0.63413657947E+03  0.10232269190E+03 -0.18344597349E+04  0.19436670635E+04  0.50400001928E-02 0.  1.
       -1    1    3    3    0  502 -0.63413657947E+03 -0.10232269190E+03  0.16396016995E+04  0.17609352253E+04  0.50400001928E-02 0. -1.
</event>
<event>
 5   0  0.1825308E-08  0.3700714E+04  0.7818609E-02  0.8067804E-01
       -2   -1    0    0    0  501  0.00000000000E+00  0.00000000000E+00  0.21746070283E+04  0.21746070283E+04  0.25500000920E-02 0. -1.
        2   -1    0    0  501    0  0.00000000000E+00  0.00000000000E+00 -0.15744551116E+04  0.15744551116E+04  0.25500000920E-02 0.  1.
    10030    2    1    2    0    0  0.00000000000E+00  0.00000000000E+00  0.60015191669E+03  0.37490621399E+04  0.37007140670E+04 0.  0.
        4    1    3    3  502    0 -0.64807663860E+03 -0.25504403896E+03 -0.14366040869E+04  0.15965223790E+04  0.12699999809E+01 0.  1.
       -4    1    3    3    0  502  0.64807663860E+03  0.25504403896E+03  0.20367560036E+04  0.21525397609E+04  0.12699999809E+01 0. -1.
</event>
<event>
 5   0  0.1740290E-08  0.3699832E+04  0.7818609E-02  0.8067999E-01
       -2   -1    0    0    0  501  0.00000000000E+00  0.00000000000E+00  0.15181152870E+04  0.15181152870E+04  0.25500000920E-02 0.  1.
        2   -1    0    0  501    0  0.00000000000E+00  0.00000000000E+00 -0.22542354602E+04  0.22542354602E+04  0.25500000920E-02 0. -1.
    10030    2    1    2    0    0  0.00000000000E+00  0.00000000000E+00 -0.73612017316E+03  0.37723507472E+04  0.36998320571E+04 0.  0.
        5    1    3    3  502    0  0.35574901345E+03  0.13285262520E+04 -0.16294950433E+04  0.21323263232E+04  0.46999998093E+01 0. -1.
       -5    1    3    3    0  502 -0.35574901345E+03 -0.13285262520E+04  0.89337487010E+03  0.16400244240E+04  0.46999998093E+01 0.  1.
</event>
<event>
 5   0  0.5714125E-09  0.3698498E+04  0.7818609E-02  0.8068295E-01
       -1   -1    0    0    0  501  0.00000000000E+00  0.00000000000E+00  0.14564660032E+04  0.14564660032E+04  0.50400001928E-02 0. -1.
        1   -1    0    0  501    0  0.00000000000E+00  0.00000000000E+00 -0.23479590588E+04  0.23479590588E+04  0.50400001928E-02 0.  1.
    10030    2    1    2    0    0  0.00000000000E+00  0.00000000000E+00 -0.89149305560E+03  0.38044250621E+04  0.36984983689E+04 0.  0.
        5    1    3    3  502    0  0.13450759985E+03  0.70363800714E+03  0.13079275982E+04  0.14912730909E+04  0.46999998093E+01 0. -1.
       -5    1    3    3    0  502 -0.13450759985E+03 -0.70363800714E+03 -0.21994206538E+04  0.23131519712E+04  0.46999998093E+01 0.  1.
</event>
<event>
 5   0  0.1725865E-08  0.3700048E+04  0.7818609E-02  0.8067951E-01
        2   -1    0    0  501    0  0.00000000000E+00  0.00000000000E+00  0.24904620628E+04  0.24904620628E+04  0.25500000920E-02 0.  1.
       -2   -1    0    0    0  501  0.00000000000E+00  0.00000000000E+00 -0.13742789995E+04  0.13742789995E+04  0.25500000920E-02 0. -1.
    10030    2    1    2    0    0  0.00000000000E+00  0.00000000000E+00  0.11161830633E+04  0.38647410623E+04  0.37000484927E+04 0.  0.
        1    1    3    3  502    0  0.15290495294E+03 -0.25416526820E+03  0.24654639442E+04  0.24832423096E+04  0.50400001928E-02 0.  1.
       -1    1    3    3    0  502 -0.15290495294E+03  0.25416526820E+03 -0.13492808809E+04  0.13814987527E+04  0.50400001928E-02 0. -1.
</event>
<event>
 5   0  0.1856107E-08  0.3697228E+04  0.7818609E-02  0.8068576E-01
        2   -1    0    0  501    0  0.00000000000E+00  0.00000000000E+00  0.18399811864E+04  0.18399811864E+04  0.25500000920E-02 0. -1.
       -2   -1    0    0    0  501  0.00000000000E+00  0.00000000000E+00 -0.18572877797E+04  0.18572877797E+04  0.25500000920E-02 0.  1.
    10030    2    1    2    0    0  0.00000000000E+00  0.00000000000E+00 -0.17306593302E+02  0.36972689661E+04  0.36972284605E+04 0.  0.
        2    1    3    3  502    0  0.30427620111E+03  0.12093541092E+04 -0.13733122316E+04  0.18550223324E+04  0.25500000920E-02 0.  1.
       -2    1    3    3    0  502 -0.30427620111E+03 -0.12093541092E+04  0.13560056383E+04  0.18422466337E+04  0.25500000920E-02 0. -1.
</event>
<event>
 5   0  0.1856107E-08  0.3696169E+04  0.7818609E-02  0.8068811E-01
       -2   -1    0    0    0  501  0.00000000000E+00  0.00000000000E+00  0.13412674532E+04  0.13412674532E+04  0.25500000920E-02 0. -1.
        2   -1    0    0  501    0  0.00000000000E+00  0.00000000000E+00 -0.25464091634E+04  0.25464091634E+04  0.25500000920E-02 0.  1.
    10030    2    1    2    0    0  0.00000000000E+00  0.00000000000E+00 -0.12051417102E+04  0.38876766166E+04  0.36961686830E+04 0.  0.
        2    1    3    3  502    0  0.10741777895E+04 -0.52620207659E+03  0.87920465479E+03  0.14845023994E+04  0.25500000920E-02 0. -1.
       -2    1    3    3    0  502 -0.10741777895E+04  0.52620207659E+03 -0.20843463650E+04  0.24031742172E+04  0.25500000920E-02 0.  1.
</event>
<event>
 5   0  0.5714125E-09  0.3700723E+04  0.7818609E-02  0.8067802E-01
        1   -1    0    0  501    0  0.00000000000E+00  0.00000000000E+00  0.21461792470E+04  0.21461792470E+04  0.50400001928E-02 0.  1.
       -1   -1    0    0    0  501  0.00000000000E+00  0.00000000000E+00 -0.15953176986E+04  0.15953176987E+04  0.50400001928E-02 0. -1.
    10030    2    1    2    0    0  0.00000000000E+00  0.00000000000E+00  0.55086154835E+03  0.37414969457E+04  0.37007230306E+04 0.  0.
        4    1    3    3  502    0 -0.11598297217E+04 -0.13747781766E+04 -0.16365381993E+03  0.18061019362E+04  0.12699999809E+01 0.  1.
       -4    1    3    3    0  502  0.11598297217E+04  0.13747781766E+04  0.71451536828E+03  0.19353950095E+04  0.12699999809E+01 0. -1.
</event>
<event>
 5   0  0.5714125E-09  0.3698263E+04  0.7818609E-02  0.8068347E-01
       -1   -1    0    0    0  501  0.00000000000E+00  0.00000000000E+00  0.19156917407E+04  0.19156917407E+04  0.50400001928E-02 0.  1.
        1   -1    0    0  501    0  0.00000000000E+00  0.00000000000E+00 -0.17848835562E+04  0.17848835562E+04  0.50400001928E-02 0. -1.
    10030    2    1    2    0    0  0.00000000000E+00  0.00000000000E+00  0.13080818447E+03  0.37005752969E+04  0.36982626660E+04 0.  0.
        1    1    3    3  502    0  0.17347860765E+04 -0.23246273122E+03  0.66223749736E+03  0.18713845558E+04  0.50400001928E-02 0.  1.
       -1    1    3    3    0  502 -0.17347860765E+04  0.23246273122E+03 -0.53142931289E+03  0.18291907411E+04  0.50400001928E-02 0. -1.
</event>
<event>
 5   0  0.1740290E-08  0.3700067E+04  0.7818609E-02  0.8067947E-01
       -2   -1    0    0    0  501  0.00000000000E+00  0.00000000000E+00  0.11347936056E+04  0.11347936056E+04  0.25500000920E-02 0.  1.
        2   -1    0    0  501    0  0.00000000000E+00  0.00000000000E+00 -0.30160767960E+04  0.30160767960E+04  0.25500000920E-02 0. -1.
    10030    2    1    2    0    0  0.00000000000E+00  0.00000000000E+00 -0.18812831904E+04  0.41508704016E+04  0.37000673843E+04 0.  0.
        5    1    3    3  502    0  0.13456006774E+04 -0.12168594631E+04 -0.53427280131E+03  0.18912582193E+04  0.46999998093E+01 0.  1.
       -5    1    3    3    0  502 -0.13456006774E+04  0.12168594631E+04 -0.13470103890E+04  0.22596121822E+04  0.46999998093E+01 0. -1.
</event>
<event>
 5   0  0.5714125E-09  0.3699203E+04  0.7818609E-02  0.8068139E-01
       -1   -1    0    0    0  501  0.00000000000E+00  0.00000000000E+00  0.13250879312E+04  0.13250879313E+04  0.50400001928E-02 0.  1.
        1   -1    0    0  501    0  0.00000000000E+00  0.00000000000E+00 -0.25817345929E+04  0.25817345929E+04  0.50400001928E-02 0. -1.
    10030    2    1    2    0    0  0.00000000000E+00  0.00000000000E+00 -0.12566466616E+04  0.39068225241E+04  0.36992028064E+04 0.  0.
        5    1    3    3  502    0 -0.21005989992E+03 -0.16816248655E+04 -0.14108659623E+04  0.22051195440E+04  0.46999998093E+01 0. -1.
       -5    1    3    3    0  502  0.21005989992E+03  0.16816248655E+04  0.15421930064E+03  0.17017029801E+04  0.46999998093E+01 0.  1.
</event>
<event>
 5   0  0.1856107E-08  0.3701827E+04  0.7818609E-02  0.8067557E-01
        2   -1    0    0  501    0  0.00000000000E+00  0.00000000000E+00  0.20365019583E+04  0.20365019583E+04  0.25500000920E-02 0.  1.
       -2   -1    0    0    0  501  0.00000000000E+00  0.00000000000E+00 -0.16822381015E+04  0.16822381015E+04  0.25500000920E-02 0. -1.
    10030    2    1    2    0    0  0.00000000000E+00  0.00000000000E+00  0.35426385681E+03  0.37187400598E+04  0.37018272180E+04 0.  0.
        2    1    3    3  502    0 -0.17522492748E+04  0.83459169641E+01  0.77603862645E+03  0.19164245681E+04  0.25500000920E-02 0.  1.
       -2    1    3    3    0  502  0.17522492748E+04 -0.83459169641E+01 -0.42177476964E+03  0.18023154917E+04  0.25500000920E-02 0. -1.
</event>
<event>
 5   0  0.1825308E-08  0.3717787E+04  0.7818609E-02  0.8064031E-01
        2   -1    0    0  501    0  0.00000000000E+00  0.00000000000E+00  0.12333283222E+04  0.12333283222E+04  0.25500000920E-02 0.  1.
       -2   -1    0    0    0  501  0.00000000000E+00  0.00000000000E+00 -0.28017558512E+04  0.28017558512E+04  0.25500000920E-02 0. -1.
    10030    2    1    2    0    0  0.00000000000E+00  0.00000000000E+00 -0.15684275289E+04  0.40350841734E+04  0.37177868918E+04 0.  0.
        4    1    3    3  502    0 -0.31255129311E+02 -0.17953809710E+04 -0.13059857759E+04  0.22203536146E+04  0.12699999809E+01 0. -1.
       -4    1    3    3    0  502  0.31255129311E+02  0.17953809710E+04 -0.26244175303E+03  0.18147305588E+04  0.12699999809E+01 0.  1.
</event>
<event>
 5   0  0.5714125E-09  0.3699531E+04  0.7818609E-02  0.8068066E-01
        1   -1    0    0  501    0  0.00000000000E+00  0.00000000000E+00  0.19949675070E+04  0.19949675070E+04  0.50400001928E-02 0. -1.
       -1   -1    0    0    0  501  0.00000000000E+00  0.00000000000E+00 -0.17151316833E+04  0.17151316833E+04  0.50400001928E-02 0.  1.
    10030    2    1    2    0    0  0.00000000000E+00  0.00000000000E+00  0.27983582372E+03  0.37100991903E+04  0.36995307694E+04 0.  0.
        4    1    3    3  502    0 -0.33618180492E+03 -0.10850510141E+04  0.16039775592E+04  0.19654769224E+04  0.12699999809E+01 0. -1.
       -4    1    3    3    0  502  0.33618180492E+03  0.10850510141E+04 -0.13241417354E+04  0.17446222679E+04  0.12699999809E+01 0.  1.
</event>
<event>
 5   0  0.1740290E-08  0.3696687E+04  0.7818609E-02  0.8068696E-01
        2   -1    0    0  501    0  0.00000000000E+00  0.00000000000E+00  0.20168070018E+04  0.20168070018E+04  0.25500000920E-02 0.  1.
       -2   -1    0    0    0  501  0.00000000000E+00  0.00000000000E+00 -0.16939515932E+04  0.16939515932E+04  0.25500000920E-02 0. -1.
    10030    2    1    2    0    0  0.00000000000E+00  0.00000000000E+00  0.32285540857E+03  0.37107585950E+04  0.36966868592E+04 0.  0.
        5    1    3    3  502    0 -0.12586594341E+04  0.10338178893E+04  0.10384515916E+04  0.19316849634E+04  0.46999998093E+01 0.  1.
       -5    1    3    3    0  502  0.12586594341E+04 -0.10338178893E+04 -0.71559618307E+03  0.17790736316E+04  0.46999998093E+01 0. -1.
</event>
<event>
 5   0  0.1757996E-08  0.3700771E+04  0.7818609E-02  0.8067791E-01
        2   -1    0    0  501    0  0.00000000000E+00  0.00000000000E+00  0.22675957935E+04  0.22675957935E+04  0.25500000920E-02 0.  1.
       -2   -1    0    0    0  501  0.00000000000E+00  0.00000000000E+00 -0.15099371310E+04  0.15099371310E+04  0.25500000920E-02 0. -1.
    10030    2    1    2    0    0  0.00000000000E+00  0.00000000000E+00  0.75765866250E+03  0.37775329246E+04  0.37007713179E+04 0.  0.
        3    1    3    3  502    0 -0.99840480652E+03  0.82469617146E+03  0.17279828191E+04  0.21593657787E+04  0.10100000352E+00 0.  1.
       -3    1    3    3    0  502  0.99840480652E+03 -0.82469617146E+03 -0.97032415659E+03  0.16181671459E+04  0.10100000352E+00 0. -1.
</event>
<event>
 5   0  0.1825308E-08  0.3699757E+04  0.7818609E-02  0.8068016E-01
       -2   -1    0    0    0  501  0.00000000000E+00  0.00000000000E+00  0.14409996418E+04  0.14409996418E+04  0.25500000920E-02 0. -1.
        2   -1    0    0  501    0  0.00000000000E+00  0.00000000000E+00 -0.23747757416E+04  0.23747757416E+04  0.25500000920E-02 0.  1.
    10030    2    1    2    0    0  0.00000000000E+00  0.00000000000E+00 -0.93377609975E+03  0.38157753834E+04  0.36997572856E+04 0.  0.
        4    1    3    3  502    0  0.95713614997E+03 -0.13680385676E+04  0.35458753977E+03  0.17068605884E+04  0.12699999809E+01 0. -1.
       -4    1    3    3    0  502 -0.95713614997E+03  0.13680385676E+04 -0.12883636395E+04  0.21089147950E+04  0.12699999809E+01 0.  1.
</event>
<event>
 5   0  0.5714125E-09  0.3697130E+04  0.7818609E-02  0.8068598E-01
        1   -1    0    0  501    0  0.00000000000E+00  0.00000000000E+00  0.13590139987E+04  0.13590139987E+04  0.50400001928E-02 0. -1.
       -1   -1    0    0    0  501  0.00000000000E+00  0.00000000000E+00 -0.25144639786E+04  0.25144639786E+04  0.50400001928E-02 0.  1.
    10030    2    1    2    0    0  0.00000000000E+00  0.00000000000E+00 -0.11554499799E+04  0.38734779774E+04  0.36971295602E+04 0.  0.
        2    1    3    3  502    0 -0.34204255598E+03 -0.21944772795E+03 -0.24670838274E+04  0.25003305835E+04  0.25500000920E-02 0.  1.
       -2    1    3    3    0  502  0.34204255598E+03  0.21944772795E+03  0.13116338475E+04  0.13731473939E+04  0.25500000920E-02 0. -1.
</event>
<event>
 5   0  0.1757996E-08  0.3700051E+04  0.7818609E-02  0.8067950E-01
        2   -1    0    0  501    0  0.00000000000E+00  0.00000000000E+00  0.19947362811E+04  0.19947362812E+04  0.25500000920E-02 0.  1.
       -2   -1    0    0    0  501  0.00000000000E+00  0.00000000000E+00 -0.17158131074E+04  0.17158131074E+04  0.25500000920E-02 0. -1.
    10030    2    1    2    0    0  0.00000000000E+00  0.00000000000E+00  0.27892317380E+03  0.37105493885E+04  0.37000511655E+04 0.  0.
        3    1    3    3  502    0 -0.57029806652E+03  0.17209340642E+04  0.50893699985E+03  0.18830482782E+04  0.10100000352E+00 0. -1.
       -3    1    3    3    0  502  0.57029806652E+03 -0.17209340642E+04 -0.23001382605E+03  0.18275011103E+04  0.10100000352E+00 0.  1.
</event>
<event>
 5   0  0.5714125E-09  0.3700618E+04  0.7818609E-02  0.8067825E-01
        1   -1    0    0  501    0  0.00000000000E+00  0.00000000000E+00  0.32009328061E+04  0.32009328061E+04  0.50400001928E-02 0. -1.
       -1   -1    0    0    0  501  0.00000000000E+00  0.00000000000E+00 -0.10695770615E+04  0.10695770615E+04  0.50400001928E-02 0.  1.
    10030    2    1    2    0    0  0.00000000000E+00  0.00000000000E+00  0.21313557446E+04  0.42705098676E+04  0.37006184915E+04 0.  0.
        5    1    3    3  502    0 -0.10386594770E+04 -0.28193591440E+03 -0.67120397338E+03  0.12683998710E+04  0.46999998093E+01 0.  1.
       -5    1    3    3    0  502  0.10386594770E+04  0.28193591440E+03  0.28025597179E+04  0.30021099966E+04  0.46999998093E+01 0. -1.
</event>
<event>
 5   0  0.1825308E-08  0.3701495E+04  0.7818609E-02  0.8067631E-01
        2   -1    0    0  501    0  0.00000000000E+00  0.00000000000E+00  0.22998026989E+04  0.22998026989E+04  0.25500000920E-02 0. -1.
       -2   -1    0    0    0  501  0.00000000000E+00  0.00000000000E+00 -0.14893742442E+04  0.14893742442E+04  0.25500000920E-02 0.  1.
    10030    2    1    2    0    0  0.00000000000E+00  0.00000000000E+00  0.81042845472E+03  0.37891769432E+04  0.37014953230E+04 0.  0.
        4    1    3    3  502    0 -0.11649151237E+03 -0.61795809636E+03  0.21870853787E+04  0.22756947396E+04  0.12699999809E+01 0. -1.
       -4    1    3    3    0  502  0.11649151237E+03  0.61795809636E+03 -0.13766569240E+04  0.15134822036E+04  0.12699999809E+01 0.  1.
</event>
<event>
 5   0  0.5714125E-09  0.3698788E+04  0.7818609E-02  0.8068230E-01
       -1   -1    0    0    0  501  0.00000000000E+00  0.00000000000E+00  0.18405114179E+04  0.18405114179E+04  0.50400001928E-02 0.  1.
        1   -1    0    0  501    0  0.00000000000E+00  0.00000000000E+00 -0.18583196643E+04  0.18583196643E+04  0.50400001928E-02 0. -1.
    10030    2    1    2    0    0  0.00000000000E+00  0.00000000000E+00 -0.17808246407E+02  0.36988310823E+04  0.36987882126E+04 0.  0.
        1    1    3    3  502    0  0.13890445259E+04  0.74951717666E+03  0.95497315269E+03  0.18447748956E+04  0.50400001928E-02 0.  1.
       -1    1    3    3    0  502 -0.13890445259E+04 -0.74951717666E+03 -0.97278139910E+03  0.18540561867E+04  0.50400001928E-02 0. -1.
</event>
<event>
 5   0  0.1740290E-08  0.3700570E+04  0.7818609E-02  0.8067836E-01
       -2   -1    0    0    0  501  0.00000000000E+00  0.00000000000E+00  0.15263431389E+04  0.15263431389E+04  0.25500000920E-02 0.  1.
        2   -1    0    0  501    0  0.00000000000E+00  0.00000000000E+00 -0.22429781521E+04  0.22429781521E+04  0.25500000920E-02 0. -1.
    10030    2    1    2    0    0  0.00000000000E+00  0.00000000000E+00 -0.71663501322E+03  0.37693212910E+04  0.37005698551E+04 0.  0.
        5    1    3    3  502    0  0.66035988624E+03  0.16369053749E+04  0.20696869483E+03  0.17771866858E+04  0.46999998093E+01 0.  1.
       -5    1    3    3    0  502 -0.66035988624E+03 -0.16369053749E+04 -0.92360370806E+03  0.19921346052E+04  0.46999998093E+01 0. -1.
</event>
<event>
 5   0  0.5714125E-09  0.3698469E+04  0.7818609E-02  0.8068301E-01
       -1   -1    0    0    0  501  0.00000000000E+00  0.00000000000E+00  0.25767852018E+04  0.25767852018E+04  0.50400001928E-02 0.  1.
        1   -1    0    0  501    0  0.00000000000E+00  0.00000000000E+00 -0.13271061228E+04  0.13271061229E+04  0.50400001928E-02 0. -1.
    10030    2    1    2    0    0  0.00000000000E+00  0.00000000000E+00  0.12496790789E+04  0.39038913246E+04  0.36984685580E+04 0.  0.
        5    1    3    3  502    0  0.23417378964E+03 -0.41162933530E+03 -0.12620058482E+04  0.13479454456E+04  0.46999998093E+01 0. -1.
       -5    1    3    3    0  502 -0.23417378964E+03  0.41162933530E+03  0.25116849271E+04  0.25559458790E+04  0.46999998093E+01 0.  1.
</event>
<event>
 5   0  0.5714125E-09  0.3701417E+04  0.7818609E-02  0.8067648E-01
       -1   -1    0    0    0  501  0.00000000000E+00  0.00000000000E+00  0.10901686101E+04  0.10901686101E+04  0.50400001928E-02 0. -1.
        1   -1    0    0  501    0  0.00000000000E+00  0.00000000000E+00 -0.31418285399E+04  0.31418285399E+04  0.50400001928E-02 0.  1.
    10030    2    1    2    0    0  0.00000000000E+00  0.00000000000E+00 -0.20516599298E+04  0.42319971501E+04  0.37014174867E+04 0.  0.
        5    1    3    3  502    0  0.14888604340E+04  0.58366117254E+03 -0.20908820655E+04  0.26323327408E+04  0.46999998093E+01 0.  1.
       -5    1    3    3    0  502 -0.14888604340E+04 -0.58366117254E+03  0.39222135695E+02  0.15996644093E+04  0.46999998093E+01 0. -1.
</event>
<event>
 5   0  0.1740290E-08  0.3698085E+04  0.7818609E-02  0.8068386E-01
       -2   -1    0    0    0  501  0.00000000000E+00  0.00000000000E+00  0.12993006323E+04  0.12993006323E+04  0.25500000920E-02 0. -1.
        2   -1    0    0  501    0  0.00000000000E+00  0.00000000000E+00 -0.26313830691E+04  0.26313830691E+04  0.25500000920E-02 0.  1.
    10030    2    1    2    0    0  0.00000000000E+00  0.00000000000E+00 -0.13320824368E+04  0.39306837014E+04  0.36980847397E+04 0.  0.
        5    1    3    3  502    0  0.17965837585E+04  0.17434994776E+03 -0.23978833437E+03  0.18208875970E+04  0.46999998093E+01 0.  1.
       -5    1    3    3    0  502 -0.17965837585E+04 -0.17434994776E+03 -0.10922941024E+04  0.21097961043E+04  0.46999998093E+01 0. -1.
</event>
<event>
 5   0  0.5714125E-09  0.3700775E+04  0.7818609E-02  0.8067790E-01
        1   -1    0    0  501    0  0.00000000000E+00  0.00000000000E+00  0.17910451289E+04  0.17910451289E+04  0.50400001928E-02 0. -1.
       -1   -1    0    0    0  501  0.00000000000E+00  0.00000000000E+00 -0.19116965210E+04  0.19116965210E+04  0.50400001928E-02 0.  1.
    10030    2    1    2    0    0  0.00000000000E+00  0.00000000000E+00 -0.12065139211E+03  0.37027416499E+04  0.37007754549E+04 0.  0.
        4    1    3    3  502    0 -0.12676523306E+04  0.13215110562E+04 -0.32617201208E+03  0.18600332516E+04  0.12699999809E+01 0. -1.
       -4    1    3    3    0  502  0.12676523306E+04 -0.13215110562E+04  0.20552061998E+03  0.18427083982E+04  0.12699999809E+01 0.  1.
</event>
<event>
 5   0  0.5714125E-09  0.3700168E+04  0.7818609E-02  0.8067925E-01
       -1   -1    0    0    0  501  0.00000000000E+00  0.00000000000E+00  0.16224472076E+04  0.16224472076E+04  0.50400001928E-02 0.  1.
        1   -1    0    0  501    0  0.00000000000E+00  0.00000000000E+00 -0.21096592067E+04  0.21096592067E+04  0.50400001928E-02 0. -1.
    10030    2    1    2    0    0  0.00000000000E+00  0.00000000000E+00 -0.48721199906E+03  0.37321064143E+04  0.37001679361E+04 0.  0.
        4    1    3    3  502    0  0.12679633134E+04 -0.13432014667E+04 -0.13836007766E+03  0.18523137607E+04  0.12699999809E+01 0. -1.
       -4    1    3    3    0  502 -0.12679633134E+04  0.13432014667E+04 -0.34885192140E+03  0.18797926535E+04  0.12699999809E+01 0.  1.
</event>
<event>
 5   0  0.5714125E-09  0.3700724E+04  0.7818609E-02  0.8067801E-01
       -1   -1    0    0    0  501  0.00000000000E+00  0.00000000000E+00  0.16096352433E+04  0.16096352433E+04  0.50400001928E-02 0. -1.
        1   -1    0    0  501    0  0.00000000000E+00  0.00000000000E+00 -0.21270902385E+04  0.21270902385E+04  0.50400001928E-02 0.  1.
    10030    2    1    2    0    0  0.00000000000E+00  0.00000000000E+00 -0.51745499523E+03  0.37367254818E+04  0.37007239365E+04 0.  0.
        5    1    3    3  502    0 -0.24779768314E+03  0.10263034727E+04 -0.17930874977E+04  0.20808381423E+04  0.46999998093E+01 0.  1.
       -5    1    3    3    0  502  0.24779768314E+03 -0.10263034727E+04  0.12756325024E+04  0.16558873395E+04  0.46999998093E+01 0. -1.
</event>
<event>
 5   0  0.5714125E-09  0.3701078E+04  0.7818609E-02  0.8067723E-01
       -1   -1    0    0    0  501  0.00000000000E+00  0.00000000000E+00  0.14976783859E+04  0.14976783859E+04  0.50400001928E-02 0.  1.
        1   -1    0    0  501    0  0.00000000000E+00  0.00000000000E+00 -0.22865350448E+04  0.22865350448E+04  0.50400001928E-02 0. -1.
    10030    2    1    2    0    0  0.00000000000E+00  0.00000000000E+00 -0.78885665884E+03  0.37842134307E+04  0.37010777432E+04 0.  0.
        4    1    3    3  502    0  0.19010990577E+03  0.61957859230E+03  0.13778485610E+04  0.15226580963E+04  0.12699999809E+01 0.  1.
       -4    1    3    3    0  502 -0.19010990577E+03 -0.61957859230E+03 -0.21667052198E+04  0.22615553344E+04  0.12699999809E+01 0. -1.
</event>
<event>
 5   0  0.5714125E-09  0.3699603E+04  0.7818609E-02  0.8068050E-01
       -1   -1    0    0    0  501  0.00000000000E+00  0.00000000000E+00  0.17040318259E+04  0.17040318259E+04  0.50400001928E-02 0. -1.
        1   -1    0    0  501    0  0.00000000000E+00  0.00000000000E+00 -0.20080412796E+04  0.20080412796E+04  0.50400001928E-02 0.  1.
    10030    2    1    2    0    0  0.00000000000E+00  0.00000000000E+00 -0.30400945370E+03  0.37120731055E+04  0.36996033561E+04 0.  0.
        4    1    3    3  502    0  0.74059877735E+03 -0.46330763128E+03  0.14840198615E+04  0.17220502526E+04  0.12699999809E+01 0. -1.
       -4    1    3    3    0  502 -0.74059877735E+03  0.46330763128E+03 -0.17880293152E+04  0.19900228529E+04  0.12699999809E+01 0.  1.
</event>
<event>
 5   0  0.5714125E-09  0.3700837E+04  0.7818609E-02  0.8067776E-01
        1   -1    0    0  501    0  0.00000000000E+00  0.00000000000E+00  0.14209198391E+04  0.14209198391E+04  0.50400001928E-02 0.  1.
       -1   -1    0    0    0  501  0.00000000000E+00  0.00000000000E+00 -0.24097413839E+04  0.24097413839E+04  0.50400001928E-02 0. -1.
    10030    2    1    2    0    0  0.00000000000E+00  0.00000000000E+00 -0.98882154474E+03  0.38306612230E+04  0.37008373861E+04 0.  0.
        4    1    3    3  502    0  0.65553884368E+03 -0.16109424723E+04  0.15956042367E+03  0.17465188136E+04  0.12699999809E+01 0.  1.
       -4    1    3    3    0  502 -0.65553884368E+03  0.16109424723E+04 -0.11483819684E+04  0.20841424094E+04  0.12699999809E+01 0. -1.
</event>
<event>
 5   0  0.5714125E-09  0.3700306E+04  0.7818609E-02  0.8067894E-01
       -1   -1    0    0    0  501  0.00000000000E+00  0.00000000000E+00  0.13056947369E+04  0.13056947369E+04  0.50400001928E-02 0.  1.
        1   -1    0    0  501    0  0.00000000000E+00  0.00000000000E+00 -0.26216440394E+04  0.26216440394E+04  0.50400001928E-02 0. -1.
    10030    2    1    2    0    0  0.00000000000E+00  0.00000000000E+00 -0.13159493025E+04  0.39273387763E+04  0.37003063788E+04 0.  0.
        1    1    3    3  502    0  0.14727101346E+03 -0.18432933586E+04 -0.59387314082E+03  0.19421906356E+04  0.50400001928E-02 0.  1.
       -1    1    3    3    0  502 -0.14727101346E+03  0.18432933586E+04 -0.72207616166E+03  0.19851481407E+04  0.50400001928E-02 0. -1.
</event>
<event>
 5   0  0.1856107E-08  0.3701962E+04  0.7818609E-02  0.8067527E-01
        2   -1    0    0  501    0  0.00000000000E+00  0.00000000000E+00  0.29283582027E+04  0.29283582027E+04  0.25500000920E-02 0.  1.
       -2   -1    0    0    0  501  0.00000000000E+00  0.00000000000E+00 -0.11699836525E+04  0.11699836525E+04  0.25500000920E-02 0. -1.
    10030    2    1    2    0    0  0.00000000000E+00  0.00000000000E+00  0.17583745503E+04  0.40983418552E+04  0.37019623044E+04 0.  0.
        2    1    3    3  502    0  0.10153069415E+04  0.50991632739E+03  0.24969038066E+04  0.27432446967E+04  0.25500000920E-02 0.  1.
       -2    1    3    3    0  502 -0.10153069415E+04 -0.50991632739E+03 -0.73852925637E+03  0.13550971585E+04  0.25500000920E-02 0. -1.
</event>
<event>
 5   0  0.5714125E-09  0.3701565E+04  0.7818609E-02  0.8067615E-01
        1   -1    0    0  501    0  0.00000000000E+00  0.00000000000E+00  0.19523296209E+04  0.19523296209E+04  0.50400001928E-02 0. -1.
       -1   -1    0    0    0  501  0.00000000000E+00  0.00000000000E+00 -0.17545174580E+04  0.17545174580E+04  0.50400001928E-02 0.  1.
    10030    2    1    2    0    0  0.00000000000E+00  0.00000000000E+00  0.19781216290E+03  0.37068470788E+04  0.37015652924E+04 0.  0.
        1    1    3    3  502    0 -0.16034740408E+04  0.19158087202E+03 -0.80657666984E+03  0.18051033639E+04  0.50400001928E-02 0.  1.
       -1    1    3    3    0  502  0.16034740408E+04 -0.19158087202E+03  0.10043888327E+04  0.19017437150E+04  0.50400001928E-02 0. -1.
</event>
<event>
 5   0  0.5714125E-09  0.3702826E+04  0.7818609E-02  0.8067336E-01
        1   -1    0    0  501    0  0.00000000000E+00  0.00000000000E+00  0.19446332221E+04  0.19446332222E+04  0.50400001928E-02 0. -1.
       -1   -1    0    0    0  501  0.00000000000E+00  0.00000000000E+00 -0.17626615856E+04  0.17626615857E+04  0.50400001928E-02 0.  1.
    10030    2    1    2    0    0  0.00000000000E+00  0.00000000000E+00  0.18197163650E+03  0.37072948078E+04  0.37028260985E+04 0.  0.
        1    1    3    3  502    0  0.78065093434E+03  0.14111240346E+03 -0.15838754282E+04  0.17714372594E+04  0.50400001928E-02 0.  1.
       -1    1    3    3    0  502 -0.78065093434E+03 -0.14111240346E+03  0.17658470647E+04  0.19358575484E+04  0.50400001928E-02 0. -1.
</event>
<event>
 5   0  0.1740290E-08  0.3702252E+04  0.7818609E-02  0.8067463E-01
        2   -1    0    0  501    0  0.00000000000E+00  0.00000000000E+00  0.19247175304E+04  0.19247175304E+04  0.25500000920E-02 0.  1.
       -2   -1    0    0    0  501  0.00000000000E+00  0.00000000000E+00 -0.17803487124E+04  0.17803487124E+04  0.25500000920E-02 0. -1.
    10030    2    1    2    0    0  0.00000000000E+00  0.00000000000E+00  0.14436881794E+03  0.37050662428E+04  0.37022524911E+04 0.  0.
        5    1    3    3  502    0  0.13789843647E+04  0.74785667927E+03  0.10556615709E+04  0.18908545510E+04  0.46999998093E+01 0.  1.
       -5    1    3    3    0  502 -0.13789843647E+04 -0.74785667927E+03 -0.91129275298E+03  0.18142116918E+04  0.46999998093E+01 0. -1.
</event>
<event>
 5   0  0.1740290E-08  0.3698036E+04  0.7818609E-02  0.8068397E-01
        2   -1    0    0  501    0  0.00000000000E+00  0.00000000000E+00  0.19035458942E+04  0.19035458942E+04  0.25500000920E-02 0.  1.
       -2   -1    0    0    0  501  0.00000000000E+00  0.00000000000E+00 -0.17960520517E+04  0.17960520517E+04  0.25500000920E-02 0. -1.
    10030    2    1    2    0    0  0.00000000000E+00  0.00000000000E+00  0.10749384242E+03  0.36995979459E+04  0.36980359700E+04 0.  0.
        5    1    3    3  502    0  0.13989868264E+04 -0.25752255807E+03 -0.11280070322E+04  0.18154624653E+04  0.46999998093E+01 0. -1.
       -5    1    3    3    0  502 -0.13989868264E+04  0.25752255807E+03  0.12355008746E+04  0.18841354806E+04  0.46999998093E+01 0.  1.
</event>
<event>
 5   0  0.5714125E-09  0.3700808E+04  0.7818609E-02  0.8067783E-01
       -1   -1    0    0    0  501  0.00000000000E+00  0.00000000000E+00  0.19012450850E+04  0.19012450850E+04  0.50400001928E-02 0.  1.
        1   -1    0    0  501    0  0.00000000000E+00  0.00000000000E+00 -0.18009229011E+04  0.18009229011E+04  0.50400001928E-02 0. -1.
    10030    2    1    2    0    0  0.00000000000E+00  0.00000000000E+00  0.10032218389E+03  0.37021679861E+04  0.37008084598E+04 0.  0.
        3    1    3    3  502    0  0.23913874026E+03 -0.18348361009E+04  0.63765703807E+02  0.18514526539E+04  0.10100000352E+00 0.  1.
       -3    1    3    3    0  502 -0.23913874026E+03  0.18348361009E+04  0.36556480078E+02  0.18507153322E+04  0.10100000352E+00 0. -1.
</event>
<event>
 5   0  0.5714125E-09  0.3690579E+04  0.7818609E-02  0.8070053E-01
        1   -1    0    0  501    0  0.00000000000E+00  0.00000000000E+00  0.14010458480E+04  0.14010458480E+04  0.50400001928E-02 0.  1.
       -1   -1    0    0    0  501  0.00000000000E+00  0.00000000000E+00 -0.24303933506E+04  0.24303933506E+04  0.50400001928E-02 0. -1.
    10030    2    1    2    0    0  0.00000000000E+00  0.00000000000E+00 -0.10293475026E+04  0.38314391985E+04  0.36905785523E+04 0.  0.
        4    1    3    3  502    0 -0.31339065676E+03  0.12168786297E+04  0.88822979237E+03  0.15388180789E+04  0.12699999809E+01 0.  1.
       -4    1    3    3    0  502  0.31339065676E+03 -0.12168786297E+04 -0.19175772950E+04  0.22926211196E+04  0.12699999809E+01 0. -1.
</event>
<event>
 5   0  0.5714125E-09  0.3697767E+04  0.7818609E-02  0.8068457E-01
       -1   -1    0    0    0  501  0.00000000000E+00  0.00000000000E+00  0.11723974101E+04  0.11723974101E+04  0.50400001928E-02 0.  1.
        1   -1    0    0  501    0  0.00000000000E+00  0.00000000000E+00 -0.29157091544E+04  0.29157091544E+04  0.50400001928E-02 0. -1.
    10030    2    1    2    0    0  0.00000000000E+00  0.00000000000E+00 -0.17433117443E+04  0.40881065644E+04  0.36977668185E+04 0.  0.
        4    1    3    3  502    0 -0.51274013022E+03 -0.99966110927E+03  0.75172907655E+03  0.13517851131E+04  0.12699999809E+01 0.  1.
       -4    1    3    3    0  502  0.51274013022E+03  0.99966110927E+03 -0.24950408208E+04  0.27363214513E+04  0.12699999809E+01 0. -1.
</event>
<event>
 5   0  0.1825308E-08  0.3701139E+04  0.7818609E-02  0.8067710E-01
        2   -1    0    0  501    0  0.00000000000E+00  0.00000000000E+00  0.16613890424E+04  0.16613890424E+04  0.25500000920E-02 0. -1.
       -2   -1    0    0    0  501  0.00000000000E+00  0.00000000000E+00 -0.20612913654E+04  0.20612913654E+04  0.25500000920E-02 0.  1.
    10030    2    1    2    0    0  0.00000000000E+00  0.00000000000E+00 -0.39990232296E+03  0.37226804078E+04  0.37011386830E+04 0.  0.
        4    1    3    3  502    0  0.57012751058E+03  0.90451160081E+03 -0.17191789298E+04  0.20245405453E+04  0.12699999809E+01 0.  1.
       -4    1    3    3    0  502 -0.57012751058E+03 -0.90451160081E+03  0.13192766068E+04  0.16981398624E+04  0.12699999809E+01 0. -1.
</event>
<event>
 5   0  0.5714125E-09  0.3697627E+04  0.7818609E-02  0.8068488E-01
        3   -1    0    0  501    0  0.00000000000E+00  0.00000000000E+00  0.22934628980E+04  0.22934629002E+04  0.10100000352E+00 0.  1.
       -3   -1    0    0    0  501  0.00000000000E+00  0.00000000000E+00 -0.14903714371E+04  0.14903714405E+04  0.10100000352E+00 0. -1.
    10030    2    1    2    0    0  0.00000000000E+00  0.00000000000E+00  0.80309146085E+03  0.37838343407E+04  0.36976271342E+04 0.  0.
        5    1    3    3  502    0  0.52525808504E+02 -0.14341550831E+04  0.15942796673E+04  0.21450663184E+04  0.46999998093E+01 0.  1.
       -5    1    3    3    0  502 -0.52525808504E+02  0.14341550831E+04 -0.79118820649E+03  0.16387680223E+04  0.46999998093E+01 0. -1.
</event>
<event>
 5   0  0.5714125E-09  0.3700307E+04  0.7818609E-02  0.8067894E-01
       -1   -1    0    0    0  501  0.00000000000E+00  0.00000000000E+00  0.16423491396E+04  0.16423491396E+04  0.50400001928E-02 0. -1.
        1   -1    0    0  501    0  0.00000000000E+00  0.00000000000E+00 -0.20842506146E+04  0.20842506146E+04  0.50400001928E-02 0.  1.
    10030    2    1    2    0    0  0.00000000000E+00  0.00000000000E+00 -0.44190147500E+03  0.37265997543E+04  0.37003065839E+04 0.  0.
        3    1    3    3  502    0 -0.92771982223E+03  0.56293858598E+03 -0.17300989331E+04  0.20422551870E+04  0.10100000352E+00 0.  1.
       -3    1    3    3    0  502  0.92771982223E+03 -0.56293858598E+03  0.12881974581E+04  0.16843445673E+04  0.10100000352E+00 0. -1.
</event>
<event>
 5   0  0.1856107E-08  0.3701217E+04  0.7818609E-02  0.8067692E-01
       -2   -1    0    0    0  501  0.00000000000E+00  0.00000000000E+00  0.13229289780E+04  0.13229289780E+04  0.25500000920E-02 0. -1.
        2   -1    0    0  501    0  0.00000000000E+00  0.00000000000E+00 -0.25887645764E+04  0.25887645764E+04  0.25500000920E-02 0.  1.
    10030    2    1    2    0    0  0.00000000000E+00  0.00000000000E+00 -0.12658355984E+04  0.39116935544E+04  0.37012169217E+04 0.  0.
        2    1    3    3  502    0  0.12023020510E+04  0.94514723045E+03  0.46841566274E+03  0.15994520131E+04  0.25500000920E-02 0. -1.
       -2    1    3    3    0  502 -0.12023020510E+04 -0.94514723045E+03 -0.17342512611E+04  0.23122415414E+04  0.25500000920E-02 0.  1.
</event>
<event>
 5   0  0.1740290E-08  0.3700388E+04  0.7818609E-02  0.8067876E-01
       -2   -1    0    0    0  501  0.00000000000E+00  0.00000000000E+00  0.28892690755E+04  0.28892690755E+04  0.25500000920E-02 0.  1.
        2   -1    0    0  501    0  0.00000000000E+00  0.00000000000E+00 -0.11848041573E+04  0.11848041573E+04  0.25500000920E-02 0. -1.
    10030    2    1    2    0    0  0.00000000000E+00  0.00000000000E+00  0.17044649183E+04  0.40740732328E+04  0.37003880944E+04 0.  0.
        5    1    3    3  502    0 -0.63483841733E+03  0.10518244173E+04  0.23753539302E+04  0.26742630395E+04  0.46999998093E+01 0.  1.
       -5    1    3    3    0  502  0.63483841733E+03 -0.10518244173E+04 -0.67088901191E+03  0.13998101933E+04  0.46999998093E+01 0. -1.
</event>
<event>
 5   0  0.1757996E-08  0.3699864E+04  0.7818609E-02  0.8067992E-01
       -2   -1    0    0    0  501  0.00000000000E+00  0.00000000000E+00  0.16639411352E+04  0.16639411352E+04  0.25500000920E-02 0. -1.
        2   -1    0    0  501    0  0.00000000000E+00  0.00000000000E+00 -0.20567127246E+04  0.20567127246E+04  0.25500000920E-02 0.  1.
    10030    2    1    2    0    0  0.00000000000E+00  0.00000000000E+00 -0.39277158942E+03  0.37206538598E+04  0.36998642709E+04 0.  0.
        3    1    3    3  502    0  0.12653883176E+04  0.19397909939E+02  0.11605162618E+04  0.17170852854E+04  0.10100000352E+00 0. -1.
       -3    1    3    3    0  502 -0.12653883176E+04 -0.19397909939E+02 -0.15532878512E+04  0.20035685744E+04  0.10100000352E+00 0.  1.
</event>
<event>
 5   0  0.5714125E-09  0.3699772E+04  0.7818609E-02  0.8068012E-01
        1   -1    0    0  501    0  0.00000000000E+00  0.00000000000E+00  0.18842073087E+04  0.18842073087E+04  0.50400001928E-02 0.  1.
       -1   -1    0    0    0  501  0.00000000000E+00  0.00000000000E+00 -0.18161902177E+04  0.18161902177E+04  0.50400001928E-02 0. -1.
    10030    2    1    2    0    0  0.00000000000E+00  0.00000000000E+00  0.68017091017E+02  0.37003975264E+04  0.36997723617E+04 0.  0.
        2    1    3    3  502    0 -0.11290944572E+04  0.42470722952E+03 -0.13686721401E+04  0.18244160576E+04  0.25500000920E-02 0. -1.
       -2    1    3    3    0  502  0.11290944572E+04 -0.42470722952E+03  0.14366892312E+04  0.18759814687E+04  0.25500000920E-02 0.  1.
</event>
<event>
 5   0  0.1757996E-08  0.3710087E+04  0.7818609E-02  0.8065730E-01
        2   -1    0    0  501    0  0.00000000000E+00  0.00000000000E+00  0.25088434889E+04  0.25088434889E+04  0.25500000920E-02 0.  1.
       -2   -1    0    0    0  501  0.00000000000E+00  0.00000000000E+00 -0.13716223440E+04  0.13716223440E+04  0.25500000920E-02 0. -1.
    10030    2    1    2    0    0  0.00000000000E+00  0.00000000000E+00  0.11372211449E+04  0.38804658329E+04  0.37100866766E+04 0.  0.
        3    1    3    3  502    0  0.17443410873E+03  0.18385972899E+04  0.75072897683E+03  0.19936050912E+04  0.10100000352E+00 0. -1.
       -3    1    3    3    0  502 -0.17443410873E+03 -0.18385972899E+04  0.38649216803E+03  0.18868607418E+04  0.10100000352E+00 0.  1.
</event>
<event>
 5   0  0.5714125E-09  0.3698524E+04  0.7818609E-02  0.8068289E-01
        1   -1    0    0  501    0  0.00000000000E+00  0.00000000000E+00  0.19633474832E+04  0.19633474832E+04  0.50400001928E-02 0.  1.
       -1   -1    0    0    0  501  0.00000000000E+00  0.00000000000E+00 -0.17418057851E+04  0.17418057851E+04  0.50400001928E-02 0. -1.
    10030    2    1    2    0    0  0.00000000000E+00  0.00000000000E+00  0.22154169807E+03  0.37051532683E+04  0.36985240323E+04 0.  0.
        5    1    3    3  502    0  0.47250433734E+02  0.40058086062E+03  0.19187356234E+04  0.19606800126E+04  0.46999998093E+01 0.  1.
       -5    1    3    3    0  502 -0.47250433734E+02 -0.40058086062E+03 -0.16971939253E+04  0.17444732556E+04  0.46999998093E+01 0. -1.
</event>
<event>
 5   0  0.5714125E-09  0.3697762E+04  0.7818609E-02  0.8068458E-01
        1   -1    0    0  501    0  0.00000000000E+00  0.00000000000E+00  0.22382862533E+04  0.22382862533E+04  0.50400001928E-02 0. -1.
       -1   -1    0    0    0  501  0.00000000000E+00  0.00000000000E+00 -0.15272228238E+04  0.15272228238E+04  0.50400001928E-02 0.  1.
    10030    2    1    2    0    0  0.00000000000E+00  0.00000000000E+00  0.71106342947E+03  0.37655090772E+04  0.36977624869E+04 0.  0.
        3    1    3    3  502    0 -0.88780673318E+03 -0.79393247117E+03 -0.10845312235E+04  0.16108189064E+04  0.10100000352E+00 0.  1.
       -3    1    3    3    0  502  0.88780673318E+03  0.79393247117E+03  0.17955946529E+04  0.21546901708E+04  0.10100000352E+00 0. -1.
</event>
<event>
 5   0  0.5714125E-09  0.3699652E+04  0.7818609E-02  0.8068039E-01
        1   -1    0    0  501    0  0.00000000000E+00  0.00000000000E+00  0.11136504956E+04  0.11136504956E+04  0.50400001928E-02 0. -1.
       -1   -1    0    0    0  501  0.00000000000E+00  0.00000000000E+00 -0.30726475616E+04  0.30726475616E+04  0.50400001928E-02 0.  1.
    10030    2    1    2    0    0  0.00000000000E+00  0.00000000000E+00 -0.19589970660E+04  0.41862980572E+04  0.36996515942E+04 0.  0.
        4    1    3    3  502    0  0.63790425767E+03  0.13728015948E+04 -0.21825255113E+04  0.26561109316E+04  0.12699999809E+01 0.  1.
       -4    1    3    3    0  502 -0.63790425767E+03 -0.13728015948E+04  0.22352844526E+03  0.15301871256E+04  0.12699999809E+01 0. -1.
</event>
<event>
 5   0  0.1825308E-08  0.3702000E+04  0.7818609E-02  0.8067519E-01
        2   -1    0    0  501    0  0.00000000000E+00  0.00000000000E+00  0.27991093909E+04  0.27991093909E+04  0.25500000920E-02 0.  1.
       -2   -1    0    0    0  501  0.00000000000E+00  0.00000000000E+00 -0.12240325260E+04  0.12240325260E+04  0.25500000920E-02 0. -1.
    10030    2    1    2    0    0  0.00000000000E+00  0.00000000000E+00  0.15750768649E+04  0.40231419169E+04  0.37019999667E+04 0.  0.
        4    1    3    3  502    0  0.14508613446E+04 -0.52907234694E+03 -0.32141512787E+03  0.15774110076E+04  0.12699999809E+01 0. -1.
       -4    1    3    3    0  502 -0.14508613446E+04  0.52907234694E+03  0.18964919927E+04  0.24457309093E+04  0.12699999809E+01 0.  1.
</event>
<event>
 5   0  0.5714125E-09  0.3702176E+04  0.7818609E-02  0.8067480E-01
       -1   -1    0    0    0  501  0.00000000000E+00  0.00000000000E+00  0.18782474086E+04  0.18782474086E+04  0.50400001928E-02 0.  1.
        1   -1    0    0  501    0  0.00000000000E+00  0.00000000000E+00 -0.18243216365E+04  0.18243216365E+04  0.50400001928E-02 0. -1.
    10030    2    1    2    0    0  0.00000000000E+00  0.00000000000E+00  0.53925772122E+02  0.37025690452E+04  0.37021763255E+04 0.  0.
        4    1    3    3  502    0  0.53166815083E+03 -0.64395907890E+03 -0.16252327732E+04  0.18272212504E+04  0.12699999809E+01 0. -1.
       -4    1    3    3    0  502 -0.53166815083E+03  0.64395907890E+03  0.16791585454E+04  0.18753477947E+04  0.12699999809E+01 0.  1.
</event>
<event>
 5   0  0.1740290E-08  0.3700491E+04  0.7818609E-02  0.8067853E-01
        2   -1    0    0  501    0  0.00000000000E+00  0.00000000000E+00  0.15697023297E+04  0.15697023297E+04  0.25500000920E-02 0.  1.
       -2   -1    0    0    0  501  0.00000000000E+00  0.00000000000E+00 -0.21809284566E+04  0.21809284566E+04  0.25500000920E-02 0. -1.
    10030    2    1    2    0    0  0.00000000000E+00  0.00000000000E+00 -0.61122612693E+03  0.37506307862E+04  0.37004910372E+04 0.  0.
        5    1    3    3  502    0  0.98091528506E+03 -0.10367159519E+04  0.88780073107E+03  0.16808292565E+04  0.46999998093E+01 0.  1.
       -5    1    3    3    0  502 -0.98091528506E+03  0.10367159519E+04 -0.14990268580E+04  0.20698015297E+04  0.46999998093E+01 0. -1.
</event>
<event>
 5   0  0.5714125E-09  0.3699781E+04  0.7818609E-02  0.8068010E-01
        1   -1    0    0  501    0  0.00000000000E+00  0.00000000000E+00  0.19397222654E+04  0.19397222654E+04  0.50400001928E-02 0. -1.
       -1   -1    0    0    0  501  0.00000000000E+00  0.00000000000E+00 -0.17642194050E+04  0.17642194050E+04  0.50400001928E-02 0.  1.
    10030    2    1    2    0    0  0.00000000000E+00  0.00000000000E+00  0.17550286045E+03  0.37039416704E+04  0.36997814319E+04 0.  0.
        3    1    3    3  502    0  0.17351320883E+04 -0.34982862864E+03 -0.45047026238E+03  0.18264684232E+04  0.10100000352E+00 0. -1.
       -3    1    3    3    0  502 -0.17351320883E+04  0.34982862864E+03  0.62597312282E+03  0.18774732472E+04  0.10100000352E+00 0.  1.
</event>
<event>
 5   0  0.1856107E-08  0.3710624E+04  0.7818609E-02  0.8065611E-01
       -2   -1    0    0    0  501  0.00000000000E+00  0.00000000000E+00  0.12866253984E+04  0.12866253984E+04  0.25500000920E-02 0.  1.
        2   -1    0    0  501    0  0.00000000000E+00  0.00000000000E+00 -0.26753577244E+04  0.26753577244E+04  0.25500000920E-02 0. -1.
    10030    2    1    2    0    0  0.00000000000E+00  0.00000000000E+00 -0.13887323260E+04  0.39619831229E+04  0.37106243130E+04 0.  0.
        2    1    3    3  502    0 -0.93108232675E+03  0.15866465538E+04 -0.43761599648E+03  0.18909969186E+04  0.25500000920E-02 0.  1.
       -2    1    3    3    0  502  0.93108232675E+03 -0.15866465538E+04 -0.95111632951E+03  0.20709862042E+04  0.25500000920E-02 0. -1.
</event>
<event>
 5   0  0.1825308E-08  0.3699882E+04  0.7818609E-02  0.8067988E-01
       -2   -1    0    0    0  501  0.00000000000E+00  0.00000000000E+00  0.28064552387E+04  0.28064552387E+04  0.25500000920E-02 0.  1.
        2   -1    0    0  501    0  0.00000000000E+00  0.00000000000E+00 -0.12194319831E+04  0.12194319831E+04  0.25500000920E-02 0. -1.
    10030    2    1    2    0    0  0.00000000000E+00  0.00000000000E+00  0.15870232556E+04  0.40258872218E+04  0.36998817696E+04 0.  0.
        4    1    3    3  502    0  0.15236186886E+04 -0.61485569922E+03 -0.13158757248E+03  0.16482652521E+04  0.12699999809E+01 0.  1.
       -4    1    3    3    0  502 -0.15236186886E+04  0.61485569922E+03  0.17186108281E+04  0.23776219697E+04  0.12699999809E+01 0. -1.
</event>
<event>
 5   0  0.1856107E-08  0.3697203E+04  0.7818609E-02  0.8068582E-01
       -2   -1    0    0    0  501  0.00000000000E+00  0.00000000000E+00  0.14474656627E+04  0.14474656627E+04  0.25500000920E-02 0.  1.
        2   -1    0    0  501    0  0.00000000000E+00  0.00000000000E+00 -0.23609046075E+04  0.23609046075E+04  0.25500000920E-02 0. -1.
    10030    2    1    2    0    0  0.00000000000E+00  0.00000000000E+00 -0.91343894481E+03  0.38083702702E+04  0.36972034579E+04 0.  0.
        2    1    3    3  502    0  0.13299833599E+04 -0.39483082489E+02 -0.17786274908E+04  0.22212452369E+04  0.25500000920E-02 0. -1.
       -2    1    3    3    0  502 -0.13299833599E+04  0.39483082489E+02  0.86518854598E+03  0.15871250334E+04  0.25500000920E-02 0.  1.
</event>
<event>
 5   0  0.5714125E-09  0.3700383E+04  0.7818609E-02  0.8067877E-01
        1   -1    0    0  501    0  0.00000000000E+00  0.00000000000E+00  0.20251268330E+04  0.20251268330E+04  0.50400001928E-02 0. -1.
       -1   -1    0    0    0  501  0.00000000000E+00  0.00000000000E+00 -0.16903670832E+04  0.16903670832E+04  0.50400001928E-02 0.  1.
    10030    2    1    2    0    0  0.00000000000E+00  0.00000000000E+00  0.33475974977E+03  0.37154939162E+04  0.37003825412E+04 0.  0.
        4    1    3    3  502    0  0.72937857008E+03  0.85103054005E+03 -0.13106914217E+04  0.17245752214E+04  0.12699999809E+01 0.  1.
       -4    1    3    3    0  502 -0.72937857008E+03 -0.85103054005E+03  0.16454511714E+04  0.19909186947E+04  0.12699999809E+01 0. -1.
</event>
<event>
 5   0  0.1740290E-08  0.3718163E+04  0.7818609E-02  0.8063949E-01
        2   -1    0    0  501    0  0.00000000000E+00  0.00000000000E+00  0.22331733189E+04  0.22331733189E+04  0.25500000920E-02 0.  1.
       -2   -1    0    0    0  501  0.00000000000E+00  0.00000000000E+00 -0.15476559583E+04  0.15476559583E+04  0.25500000920E-02 0. -1.
    10030    2    1    2    0    0  0.00000000000E+00  0.00000000000E+00  0.68551736064E+03  0.37808292772E+04  0.37181629835E+04 0.  0.
        5    1    3    3  502    0  0.15861826709E+04 -0.95811999871E+03  0.19127640762E+03  0.18629487786E+04  0.46999998093E+01 0.  1.
       -5    1    3    3    0  502 -0.15861826709E+04  0.95811999871E+03  0.49424095302E+03  0.19178804986E+04  0.46999998093E+01 0. -1.
</event>
<event>
 5   0  0.5714125E-09  0.3702085E+04  0.7818609E-02  0.8067500E-01
       -1   -1    0    0    0  501  0.00000000000E+00  0.00000000000E+00  0.16359947463E+04  0.16359947463E+04  0.50400001928E-02 0. -1.
        1   -1    0    0  501    0  0.00000000000E+00  0.00000000000E+00 -0.20943572689E+04  0.20943572690E+04  0.50400001928E-02 0.  1.
    10030    2    1    2    0    0  0.00000000000E+00  0.00000000000E+00 -0.45836252263E+03  0.37303520153E+04  0.37020845419E+04 0.  0.
        2    1    3    3  502    0 -0.43463679752E+03 -0.10492307499E+04  0.12436783508E+04  0.16842001521E+04  0.25500000920E-02 0. -1.
       -2    1    3    3    0  502  0.43463679752E+03  0.10492307499E+04 -0.17020408734E+04  0.20461518631E+04  0.25500000920E-02 0.  1.
</event>
<event>
 5   0  0.5714125E-09  0.3698246E+04  0.7818609E-02  0.8068351E-01
       -1   -1    0    0    0  501  0.00000000000E+00  0.00000000000E+00  0.19380795648E+04  0.19380795648E+04  0.50400001928E-02 0. -1.
        1   -1    0    0  501    0  0.00000000000E+00  0.00000000000E+00 -0.17642494150E+04  0.17642494150E+04  0.50400001928E-02 0.  1.
    10030    2    1    2    0    0  0.00000000000E+00  0.00000000000E+00  0.17383014987E+03  0.37023289798E+04  0.36982459293E+04 0.  0.
        1    1    3    3  502    0 -0.42349631771E+03 -0.17375051345E+04 -0.38369169916E+03  0.18290687641E+04  0.50400001928E-02 0.  1.
       -1    1    3    3    0  502  0.42349631771E+03  0.17375051345E+04  0.55752184903E+03  0.18732602157E+04  0.50400001928E-02 0. -1.
</event>
<event>
 5   0  0.5714125E-09  0.3699964E+04  0.7818609E-02  0.8067970E-01
        1   -1    0    0  501    0  0.00000000000E+00  0.00000000000E+00  0.98589930220E+03  0.98589930221E+03  0.50400001928E-02 0.  1.
       -1   -1    0    0    0  501  0.00000000000E+00  0.00000000000E+00 -0.34713818739E+04  0.34713818739E+04  0.50400001928E-02 0. -1.
    10030    2    1    2    0    0  0.00000000000E+00  0.00000000000E+00 -0.24854825717E+04  0.44572811761E+04  0.36999637659E+04 0.  0.
        5    1    3    3  502    0  0.16010529299E+04  0.38177963225E+03 -0.22601700607E+04  0.27959822898E+04  0.46999998093E+01 0. -1.
       -5    1    3    3    0  502 -0.16010529299E+04 -0.38177963225E+03 -0.22531251103E+03  0.16612988863E+04  0.46999998093E+01 0.  1.
</event>
<event>
 5   0  0.5714125E-09  0.3699352E+04  0.7818609E-02  0.8068105E-01
       -1   -1    0    0    0  501  0.00000000000E+00  0.00000000000E+00  0.16722139982E+04  0.16722139982E+04  0.50400001928E-02 0.  1.
        1   -1    0    0  501    0  0.00000000000E+00  0.00000000000E+00 -0.20459710004E+04  0.20459710004E+04  0.50400001928E-02 0. -1.
    10030    2    1    2    0    0  0.00000000000E+00  0.00000000000E+00 -0.37375700227E+03  0.37181849986E+04  0.36993520226E+04 0.  0.
        4    1    3    3  502    0  0.12336776668E+04 -0.12983109847E+04 -0.65153902357E+03  0.19058008056E+04  0.12699999809E+01 0. -1.
       -4    1    3    3    0  502 -0.12336776668E+04  0.12983109847E+04  0.27778202131E+03  0.18123841930E+04  0.12699999809E+01 0.  1.
</event>
<event>
 5   0  0.1725865E-08  0.3697816E+04  0.7818609E-02  0.8068446E-01
        2   -1    0    0  501    0  0.00000000000E+00  0.00000000000E+00  0.26156522243E+04  0.26156522243E+04  0.25500000920E-02 0.  1.
       -2   -1    0    0    0  501  0.00000000000E+00  0.00000000000E+00 -0.13069246698E+04  0.13069246698E+04  0.25500000920E-02 0. -1.
    10030    2    1    2    0    0  0.00000000000E+00  0.00000000000E+00  0.13087275544E+04  0.39225768941E+04  0.36978157983E+04 0.  0.
        1    1    3    3  502    0 -0.29221029899E+03  0.13257580987E+04  0.19858203064E+04  0.24055152638E+04  0.50400001928E-02 0.  1.
       -1    1    3    3    0  502  0.29221029899E+03 -0.13257580987E+04 -0.67709275194E+03  0.15170616302E+04  0.50400001928E-02 0. -1.
</event>
<event>
 5   0  0.5714125E-09  0.3700090E+04  0.7818609E-02  0.8067942E-01
       -1   -1    0    0    0  501  0.00000000000E+00  0.00000000000E+00  0.28923457743E+04  0.28923457744E+04  0.50400001928E-02 0.  1.
        1   -1    0    0  501    0  0.00000000000E+00  0.00000000000E+00 -0.11833534183E+04  0.11833534183E+04  0.50400001928E-02 0. -1.
    10030    2    1    2    0    0  0.00000000000E+00  0.00000000000E+00  0.17089923560E+04  0.40756991927E+04  0.37000904092E+04 0.  0.
        1    1    3    3  502    0  0.10211495274E+04 -0.25633531206E+03 -0.82118527286E+03  0.13352151144E+04  0.50400001928E-02 0. -1.
       -1    1    3    3    0  502 -0.10211495274E+04  0.25633531206E+03  0.25301776289E+04  0.27404840783E+04  0.50400001928E-02 0.  1.
</event>
<event>
 5   0  0.1757996E-08  0.3701036E+04  0.7818609E-02  0.8067732E-01
        2   -1    0    0  501    0  0.00000000000E+00  0.00000000000E+00  0.26206188183E+04  0.26206188183E+04  0.25500000920E-02 0.  1.
       -2   -1    0    0    0  501  0.00000000000E+00  0.00000000000E+00 -0.13067208782E+04  0.13067208782E+04  0.25500000920E-02 0. -1.
    10030    2    1    2    0    0  0.00000000000E+00  0.00000000000E+00  0.13138979401E+04  0.39273396965E+04  0.37010362461E+04 0.  0.
        3    1    3    3  502    0 -0.18352254724E+04 -0.92694150553E+02  0.42501495436E+03  0.18860759427E+04  0.10100000352E+00 0. -1.
       -3    1    3    3    0  502  0.18352254724E+04  0.92694150553E+02  0.88888298572E+03  0.20412637538E+04  0.10100000352E+00 0.  1.
</event>
<event>
 5   0  0.1725865E-08  0.3700732E+04  0.7818609E-02  0.8067800E-01
        2   -1    0    0  501    0  0.00000000000E+00  0.00000000000E+00  0.20304460789E+04  0.20304460789E+04  0.25500000920E-02 0. -1.
       -2   -1    0    0    0  501  0.00000000000E+00  0.00000000000E+00 -0.16862569199E+04  0.16862569199E+04  0.25500000920E-02 0.  1.
    10030    2    1    2    0    0  0.00000000000E+00  0.00000000000E+00  0.34418915900E+03  0.37167029988E+04  0.37007316850E+04 0.  0.
        1    1    3    3  502    0  0.74265806211E+03 -0.11522580944E+04  0.14202832846E+04  0.19739413167E+04  0.50400001928E-02 0. -1.
       -1    1    3    3    0  502 -0.74265806211E+03  0.11522580944E+04 -0.10760941256E+04  0.17427616821E+04  0.50400001928E-02 0.  1.
</event>
<event>
 5   0  0.1725865E-08  0.3699969E+04  0.7818609E-02  0.8067969E-01
       -2   -1    0    0    0  501  0.00000000000E+00  0.00000000000E+00  0.16595619730E+04  0.16595619730E+04  0.25500000920E-02 0. -1.
        2   -1    0    0  501    0  0.00000000000E+00  0.00000000000E+00 -0.20622566754E+04  0.20622566754E+04  0.25500000920E-02 0.  1.
    10030    2    1    2    0    0  0.00000000000E+00  0.00000000000E+00 -0.40269470239E+03  0.37218186485E+04  0.36999690578E+04 0.  0.
        1    1    3    3  502    0  0.48270634382E+03 -0.11298188798E+04  0.11899134326E+04  0.17103771785E+04  0.50400001928E-02 0. -1.
       -1    1    3    3    0  502 -0.48270634382E+03  0.11298188798E+04 -0.15926081350E+04  0.20114414700E+04  0.50400001928E-02 0.  1.
</event>
<event>
 5   0  0.1740290E-08  0.3699121E+04  0.7818609E-02  0.8068157E-01
       -2   -1    0    0    0  501  0.00000000000E+00  0.00000000000E+00  0.19527122855E+04  0.19527122855E+04  0.25500000920E-02 0. -1.
        2   -1    0    0  501    0  0.00000000000E+00  0.00000000000E+00 -0.17518572245E+04  0.17518572245E+04  0.25500000920E-02 0.  1.
    10030    2    1    2    0    0  0.00000000000E+00  0.00000000000E+00  0.20085506105E+03  0.37045695100E+04  0.36991205034E+04 0.  0.
        5    1    3    3  502    0  0.42596158449E+03  0.13777427208E+04  0.12602495371E+04  0.19151682072E+04  0.46999998093E+01 0. -1.
       -5    1    3    3    0  502 -0.42596158449E+03 -0.13777427208E+04 -0.10593944761E+04  0.17894013027E+04  0.46999998093E+01 0.  1.
</event>
<event>
 5   0  0.5714125E-09  0.3696680E+04  0.7818609E-02  0.8068698E-01
       -1   -1    0    0    0  501  0.00000000000E+00  0.00000000000E+00  0.26585939267E+04  0.26585939267E+04  0.50400001928E-02 0.  1.
        1   -1    0    0  501    0  0.00000000000E+00  0.00000000000E+00 -0.12850253313E+04  0.12850253313E+04  0.50400001928E-02 0. -1.
    10030    2    1    2    0    0  0.00000000000E+00  0.00000000000E+00  0.13735685954E+04  0.39436192580E+04  0.36966798841E+04 0.  0.
        5    1    3    3  502    0  0.11268677644E+04  0.36250808782E+03 -0.82758200786E+03  0.14443535377E+04  0.46999998093E+01 0. -1.
       -5    1    3    3    0  502 -0.11268677644E+04 -0.36250808782E+03  0.22011506033E+04  0.24992657203E+04  0.46999998093E+01 0.  1.
</event>
<event>
 5   0  0.1757996E-08  0.3701255E+04  0.7818609E-02  0.8067684E-01
       -2   -1    0    0    0  501  0.00000000000E+00  0.00000000000E+00  0.16159770225E+04  0.16159770225E+04  0.25500000920E-02 0. -1.
        2   -1    0    0  501    0  0.00000000000E+00  0.00000000000E+00 -0.21193502572E+04  0.21193502572E+04  0.25500000920E-02 0.  1.
    10030    2    1    2    0    0  0.00000000000E+00  0.00000000000E+00 -0.50337323471E+03  0.37353272797E+04  0.37012545540E+04 0.  0.
        3    1    3    3  502    0  0.15639311618E+04 -0.20375126562E+02 -0.12499974302E+04  0.20021961468E+04  0.10100000352E+00 0.  1.
       -3    1    3    3    0  502 -0.15639311618E+04  0.20375126562E+02  0.74662419547E+03  0.17331311329E+04  0.10100000352E+00 0. -1.
</event>
<event>
 5   0  0.5714125E-09  0.3698856E+04  0.7818609E-02  0.8068215E-01
       -1   -1    0    0    0  501  0.00000000000E+00  0.00000000000E+00  0.10968288536E+04  0.10968288536E+04  0.50400001928E-02 0. -1.
        1   -1    0    0  501    0  0.00000000000E+00  0.00000000000E+00 -0.31184297072E+04  0.31184297072E+04  0.50400001928E-02 0.  1.
    10030    2    1    2    0    0  0.00000000000E+00  0.00000000000E+00 -0.20216008536E+04  0.42152585608E+04  0.36988558667E+04 0.  0.
        2    1    3    3  502    0  0.11569649835E+04  0.13616246300E+04 -0.46688920133E+03  0.18467742505E+04  0.25500000920E-02 0. -1.
       -2    1    3    3    0  502 -0.11569649835E+04 -0.13616246300E+04 -0.15547116523E+04  0.23684843102E+04  0.25500000920E-02 0.  1.
</event>
<event>
 5   0  0.5714125E-09  0.3700489E+04  0.7818609E-02  0.8067853E-01
        1   -1    0    0  501    0  0.00000000000E+00  0.00000000000E+00  0.13812628192E+04  0.13812628192E+04  0.50400001928E-02 0. -1.
       -1   -1    0    0    0  501  0.00000000000E+00  0.00000000000E+00 -0.24784602951E+04  0.24784602951E+04  0.50400001928E-02 0.  1.
    10030    2    1    2    0    0  0.00000000000E+00  0.00000000000E+00 -0.10971974759E+04  0.38597231143E+04  0.37004891863E+04 0.  0.
        1    1    3    3  502    0 -0.56200043265E+03 -0.10130470259E+04 -0.20533474022E+04  0.23576141154E+04  0.50400001928E-02 0.  1.
       -1    1    3    3    0  502  0.56200043265E+03  0.10130470259E+04  0.95614992623E+03  0.15021089989E+04  0.50400001928E-02 0. -1.
</event>
<event>
 5   0  0.5714125E-09  0.3699633E+04  0.7818609E-02  0.8068043E-01
       -1   -1    0    0    0  501  0.00000000000E+00  0.00000000000E+00  0.17773624012E+04  0.17773624012E+04  0.50400001928E-02 0.  1.
        1   -1    0    0  501    0  0.00000000000E+00  0.00000000000E+00 -0.19252240622E+04  0.19252240622E+04  0.50400001928E-02 0. -1.
    10030    2    1    2    0    0  0.00000000000E+00  0.00000000000E+00 -0.14786166105E+03  0.37025864634E+04  0.36996328802E+04 0.  0.
        3    1    3    3  502    0  0.11551291847E+04  0.58345066057E+03 -0.13967586379E+04  0.19041199567E+04  0.10100000352E+00 0. -1.
       -3    1    3    3    0  502 -0.11551291847E+04 -0.58345066057E+03  0.12488969769E+04  0.17984665067E+04  0.10100000352E+00 0.  1.
</event>
<event>
 5   0  0.5714125E-09  0.3699733E+04  0.7818609E-02  0.8068021E-01
       -1   -1    0    0    0  501  0.00000000000E+00  0.00000000000E+00  0.17853860429E+04  0.17853860429E+04  0.50400001928E-02 0. -1.
        1   -1    0    0  501    0  0.00000000000E+00  0.00000000000E+00 -0.19166755059E+04  0.19166755059E+04  0.50400001928E-02 0.  1.
    10030    2    1    2    0    0  0.00000000000E+00  0.00000000000E+00 -0.13128946299E+03  0.37020615489E+04  0.36997327996E+04 0.  0.
        3    1    3    3  502    0 -0.88434285984E+02 -0.13607751229E+04 -0.13164219734E+04  0.18953881873E+04  0.10100000352E+00 0.  1.
       -3    1    3    3    0  502  0.88434285984E+02  0.13607751229E+04  0.11851325104E+04  0.18066733616E+04  0.10100000352E+00 0. -1.
</event>
<event>
 5   0  0.1856107E-08  0.3703175E+04  0.7818609E-02  0.8067259E-01
        2   -1    0    0  501    0  0.00000000000E+00  0.00000000000E+00  0.30375976794E+04  0.30375976794E+04  0.25500000920E-02 0.  1.
       -2   -1    0    0    0  501  0.00000000000E+00  0.00000000000E+00 -0.11286469685E+04  0.11286469685E+04  0.25500000920E-02 0. -1.
    10030    2    1    2    0    0  0.00000000000E+00  0.00000000000E+00  0.19089507109E+04  0.41662446480E+04  0.37031745368E+04 0.  0.
        2    1    3    3  502    0 -0.21776102362E+03 -0.10656493313E+03  0.30196639953E+04  0.30293805626E+04  0.25500000920E-02 0.  1.
       -2    1    3    3    0  502  0.21776102362E+03  0.10656493313E+03 -0.11107132844E+04  0.11368640853E+04  0.25500000920E-02 0. -1.
</event>
<event>
 5   0  0.5714125E-09  0.3698089E+04  0.7818609E-02  0.8068385E-01
       -1   -1    0    0    0  501  0.00000000000E+00  0.00000000000E+00  0.25392110493E+04  0.25392110493E+04  0.50400001928E-02 0. -1.
        1   -1    0    0  501    0  0.00000000000E+00  0.00000000000E+00 -0.13464676574E+04  0.13464676574E+04  0.50400001928E-02 0.  1.
    10030    2    1    2    0    0  0.00000000000E+00  0.00000000000E+00  0.11927433919E+04  0.38856787067E+04  0.36980889947E+04 0.  0.
        5    1    3    3  502    0 -0.13200155528E+04  0.12470711810E+04  0.96234410345E+03  0.20551778156E+04  0.46999998093E+01 0.  1.
       -5    1    3    3    0  502  0.13200155528E+04 -0.12470711810E+04  0.23039928850E+03  0.18305008911E+04  0.46999998093E+01 0. -1.
</event>
<event>
 5   0  0.1740290E-08  0.3700777E+04  0.7818609E-02  0.8067790E-01
       -2   -1    0    0    0  501  0.00000000000E+00  0.00000000000E+00  0.25573210130E+04  0.25573210130E+04  0.25500000920E-02 0. -1.
        2   -1    0    0  501    0  0.00000000000E+00  0.00000000000E+00 -0.13388769491E+04  0.13388769491E+04  0.25500000920E-02 0.  1.
    10030    2    1    2    0    0  0.00000000000E+00  0.00000000000E+00  0.12184440639E+04  0.38961979620E+04  0.37007772998E+04 0.  0.
        5    1    3    3  502    0 -0.14398020426E+04  0.10036305231E+04  0.12263598660E+04  0.21410942902E+04  0.46999998093E+01 0. -1.
       -5    1    3    3    0  502  0.14398020426E+04 -0.10036305231E+04 -0.79158020514E+01  0.17551036718E+04  0.46999998093E+01 0.  1.
</event>
<event>
 5   0  0.5714125E-09  0.3700468E+04  0.7818609E-02  0.8067858E-01
       -1   -1    0    0    0  501  0.00000000000E+00  0.00000000000E+00  0.18625586020E+04  0.18625586020E+04  0.50400001928E-02 0. -1.
        1   -1    0    0  501    0  0.00000000000E+00  0.00000000000E+00 -0.18379906573E+04  0.18379906573E+04  0.50400001928E-02 0.  1.
    10030    2    1    2    0    0  0.00000000000E+00  0.00000000000E+00  0.24567944654E+02  0.37005492593E+04  0.37004677052E+04 0.  0.
        2    1    3    3  502    0  0.17116242769E+03 -0.33749963315E+02 -0.18297473051E+04  0.18380453850E+04  0.25500000920E-02 0.  1.
       -2    1    3    3    0  502 -0.17116242769E+03  0.33749963315E+02  0.18543152497E+04  0.18625038744E+04  0.25500000920E-02 0. -1.
</event>
<event>
 5   0  0.1740290E-08  0.3698991E+04  0.7818609E-02  0.8068185E-01
       -2   -1    0    0    0  501  0.00000000000E+00  0.00000000000E+00  0.10618676544E+04  0.10618676544E+04  0.25500000920E-02 0.  1.
        2   -1    0    0  501    0  0.00000000000E+00  0.00000000000E+00 -0.32213371829E+04  0.32213371829E+04  0.25500000920E-02 0. -1.
    10030    2    1    2    0    0  0.00000000000E+00  0.00000000000E+00 -0.21594695285E+04  0.42832048373E+04  0.36989910833E+04 0.  0.
        5    1    3    3  502    0  0.15432668672E+04 -0.24493526361E+03 -0.22254188358E+04  0.27192236009E+04  0.46999998093E+01 0. -1.
       -5    1    3    3    0  502 -0.15432668672E+04  0.24493526361E+03  0.65949307294E+02  0.15639812365E+04  0.46999998093E+01 0.  1.
</event>
<event>
 5   0  0.5714125E-09  0.3699437E+04  0.7818609E-02  0.8068087E-01
        1   -1    0    0  501    0  0.00000000000E+00  0.00000000000E+00  0.20038699869E+04  0.20038699869E+04  0.50400001928E-02 0. -1.
       -1   -1    0    0    0  501  0.00000000000E+00  0.00000000000E+00 -0.17074254661E+04  0.17074254661E+04  0.50400001928E-02 0.  1.
    10030    2    1    2    0    0  0.00000000000E+00  0.00000000000E+00  0.29644452081E+03  0.37112954530E+04  0.36994370633E+04 0.  0.
        1    1    3    3  502    0  0.15692173361E+04 -0.62775908199E+03 -0.60580803281E+03  0.17954185823E+04  0.50400001928E-02 0.  1.
       -1    1    3    3    0  502 -0.15692173361E+04  0.62775908199E+03  0.90225255361E+03  0.19158768707E+04  0.50400001928E-02 0. -1.
</event>
<event>
 5   0  0.5714125E-09  0.3707499E+04  0.7818609E-02  0.8066302E-01
       -1   -1    0    0    0  501  0.00000000000E+00  0.00000000000E+00  0.14989401194E+04  0.14989401194E+04  0.50400001928E-02 0.  1.
        1   -1    0    0  501    0  0.00000000000E+00  0.00000000000E+00 -0.22925450398E+04  0.22925450398E+04  0.50400001928E-02 0. -1.
    10030    2    1    2    0    0  0.00000000000E+00  0.00000000000E+00 -0.79360492044E+03  0.37914851592E+04  0.37074992843E+04 0.  0.
        2    1    3    3  502    0  0.16183127855E+04  0.83183228148E+03 -0.34508221794E+02  0.18199098971E+04  0.25500000920E-02 0.  1.
       -2    1    3    3    0  502 -0.16183127855E+04 -0.83183228148E+03 -0.75909669865E+03  0.19715752621E+04  0.25500000920E-02 0. -1.
</event>
<event>
 5   0  0.1725865E-08  0.3694121E+04  0.7818609E-02  0.8069266E-01
        2   -1    0    0  501    0  0.00000000000E+00  0.00000000000E+00  0.20908480360E+04  0.20908480360E+04  0.25500000920E-02 0. -1.
       -2   -1    0    0    0  501  0.00000000000E+00  0.00000000000E+00 -0.16316978255E+04  0.16316978255E+04  0.25500000920E-02 0.  1.
    10030    2    1    2    0    0  0.00000000000E+00  0.00000000000E+00  0.45915021049E+03  0.37225458615E+04  0.36941208393E+04 0.  0.
        1    1    3    3  502    0  0.50543709430E+02 -0.17962593915E+04  0.66009751242E+03  0.19143748834E+04  0.50400001928E-02 0. -1.
       -1    1    3    3    0  502 -0.50543709430E+02  0.17962593915E+04 -0.20094730193E+03  0.18081709782E+04  0.50400001928E-02 0.  1.
</event>
<event>
 5   0  0.1725865E-08  0.3703123E+04  0.7818609E-02  0.8067270E-01
       -2   -1    0    0    0  501  0.00000000000E+00  0.00000000000E+00  0.20213479745E+04  0.20213479745E+04  0.25500000920E-02 0. -1.
        2   -1    0    0  501    0  0.00000000000E+00  0.00000000000E+00 -0.16960362576E+04  0.16960362576E+04  0.25500000920E-02 0.  1.
    10030    2    1    2    0    0  0.00000000000E+00  0.00000000000E+00  0.32531171695E+03  0.37173842321E+04  0.37031227115E+04 0.  0.
        1    1    3    3  502    0 -0.83982866531E+03 -0.14060301511E+04 -0.70441041161E+03  0.17828143484E+04  0.50400001928E-02 0.  1.
       -1    1    3    3    0  502  0.83982866531E+03  0.14060301511E+04  0.10297221286E+04  0.19345698837E+04  0.50400001928E-02 0. -1.
</event>
<event>
 5   0  0.5714125E-09  0.3699239E+04  0.7818609E-02  0.8068130E-01
        1   -1    0    0  501    0  0.00000000000E+00  0.00000000000E+00  0.15121044009E+04  0.15121044009E+04  0.50400001928E-02 0.  1.
       -1   -1    0    0    0  501  0.00000000000E+00  0.00000000000E+00 -0.22624712744E+04  0.22624712744E+04  0.50400001928E-02 0. -1.
    10030    2    1    2    0    0  0.00000000000E+00  0.00000000000E+00 -0.75036687349E+03  0.37745756754E+04  0.36992392575E+04 0.  0.
        4    1    3    3  502    0 -0.41926626461E+03  0.62674050892E+03  0.13481479296E+04  0.15446981321E+04  0.12699999809E+01 0.  1.
       -4    1    3    3    0  502  0.41926626461E+03 -0.62674050892E+03 -0.20985148031E+04  0.22298775433E+04  0.12699999809E+01 0. -1.
</event>
<event>
 5   0  0.1740290E-08  0.3695491E+04  0.7818609E-02  0.8068962E-01
        2   -1    0    0  501    0  0.00000000000E+00  0.00000000000E+00  0.15243063836E+04  0.15243063836E+04  0.25500000920E-02 0. -1.
       -2   -1    0    0    0  501  0.00000000000E+00  0.00000000000E+00 -0.22398138316E+04  0.22398138316E+04  0.25500000920E-02 0.  1.
    10030    2    1    2    0    0  0.00000000000E+00  0.00000000000E+00 -0.71550744800E+03  0.37641202152E+04  0.36954905069E+04 0.  0.
        5    1    3    3  502    0  0.55765261115E+03  0.10980980234E+04  0.10452683908E+04  0.16153649131E+04  0.46999998093E+01 0. -1.
       -5    1    3    3    0  502 -0.55765261115E+03 -0.10980980234E+04 -0.17607758388E+04  0.21487553021E+04  0.46999998093E+01 0.  1.
</event>
<event>
 5   0  0.5714125E-09  0.3698421E+04  0.7818609E-02  0.8068312E-01
        1   -1    0    0  501    0  0.00000000000E+00  0.00000000000E+00  0.29764851901E+04  0.29764851901E+04  0.50400001928E-02 0. -1.
       -1   -1    0    0    0  501  0.00000000000E+00  0.00000000000E+00 -0.11488647769E+04  0.11488647769E+04  0.50400001928E-02 0.  1.
    10030    2    1    2    0    0  0.00000000000E+00  0.00000000000E+00  0.18276204132E+04  0.41253499670E+04  0.36984207408E+04 0.  0.
        5    1    3    3  502    0  0.16042755186E+04 -0.47529191030E+03  0.35547560254E+02  0.16735853903E+04  0.46999998093E+01 0.  1.
       -5    1    3    3    0  502 -0.16042755186E+04  0.47529191030E+03  0.17920728529E+04  0.24517645767E+04  0.46999998093E+01 0. -1.
</event>
<event>
 5   0  0.5714125E-09  0.3699452E+04  0.7818609E-02  0.8068083E-01
        1   -1    0    0  501    0  0.00000000000E+00  0.00000000000E+00  0.18817025860E+04  0.18817025860E+04  0.50400001928E-02 0.  1.
       -1   -1    0    0    0  501  0.00000000000E+00  0.00000000000E+00 -0.18182928745E+04  0.18182928745E+04  0.50400001928E-02 0. -1.
    10030    2    1    2    0    0  0.00000000000E+00  0.00000000000E+00  0.63409711465E+02  0.36999954606E+04  0.36994520698E+04 0.  0.
        2    1    3    3  502    0 -0.34971722031E+03  0.15639247462E+04  0.95559573458E+03  0.18658311697E+04  0.25500000920E-02 0.  1.
       -2    1    3    3    0  502  0.34971722031E+03 -0.15639247462E+04 -0.89218602311E+03  0.18341642908E+04  0.25500000920E-02 0. -1.
</event>
<event>
 5   0  0.1740290E-08  0.3699482E+04  0.7818609E-02  0.8068077E-01
       -2   -1    0    0    0  501  0.00000000000E+00  0.00000000000E+00  0.13259147858E+04  0.13259147858E+04  0.25500000920E-02 0.  1.
        2   -1    0    0  501    0  0.00000000000E+00  0.00000000000E+00 -0.25805144926E+04  0.25805144926E+04  0.25500000920E-02 0. -1.
    10030    2    1    2    0    0  0.00000000000E+00  0.00000000000E+00 -0.12545997068E+04  0.39064292785E+04  0.36994822994E+04 0.  0.
        5    1    3    3  502    0  0.10885540485E+04  0.54793155203E+03  0.84206609138E+03  0.14813089801E+04  0.46999998093E+01 0.  1.
       -5    1    3    3    0  502 -0.10885540485E+04 -0.54793155203E+03 -0.20966657982E+04  0.24251202984E+04  0.46999998093E+01 0. -1.
</event>
<event>
 5   0  0.1725865E-08  0.3700146E+04  0.7818609E-02  0.8067929E-01
       -2   -1    0    0    0  501  0.00000000000E+00  0.00000000000E+00  0.29159912565E+04  0.29159912565E+04  0.25500000920E-02 0. -1.
        2   -1    0    0  501    0  0.00000000000E+00  0.00000000000E+00 -0.11737929961E+04  0.11737929961E+04  0.25500000920E-02 0.  1.
    10030    2    1    2    0    0  0.00000000000E+00  0.00000000000E+00  0.17421982604E+04  0.40897842527E+04  0.37001460045E+04 0.  0.
        1    1    3    3  502    0  0.17869928887E+04 -0.38327673916E+03  0.55357587219E+03  0.19096310872E+04  0.50400001928E-02 0. -1.
       -1    1    3    3    0  502 -0.17869928887E+04  0.38327673916E+03  0.11886223882E+04  0.21801531654E+04  0.50400001928E-02 0.  1.
</event>
<event>
 5   0  0.5714125E-09  0.3694118E+04  0.7818609E-02  0.8069267E-01
       -1   -1    0    0    0  501  0.00000000000E+00  0.00000000000E+00  0.17456692034E+04  0.17456692034E+04  0.50400001928E-02 0. -1.
        1   -1    0    0  501    0  0.00000000000E+00  0.00000000000E+00 -0.19543377656E+04  0.19543377656E+04  0.50400001928E-02 0.  1.
    10030    2    1    2    0    0  0.00000000000E+00  0.00000000000E+00 -0.20866856227E+03  0.37000069690E+04  0.36941181629E+04 0.  0.
        2    1    3    3  502    0 -0.10167081937E+04 -0.15312442932E+04  0.78226993286E+02  0.18397076124E+04  0.25500000920E-02 0. -1.
       -2    1    3    3    0  502  0.10167081937E+04  0.15312442932E+04 -0.28689555555E+03  0.18602993566E+04  0.25500000920E-02 0.  1.
</event>
<event>
 5   0  0.5714125E-09  0.3701419E+04  0.7818609E-02  0.8067647E-01
        3   -1    0    0  501    0  0.00000000000E+00  0.00000000000E+00  0.12340731134E+04  0.12340731175E+04  0.10100000352E+00 0. -1.
       -3   -1    0    0    0  501  0.00000000000E+00  0.00000000000E+00 -0.27754645911E+04  0.27754645929E+04  0.10100000352E+00 0.  1.
    10030    2    1    2    0    0  0.00000000000E+00  0.00000000000E+00 -0.15413914777E+04  0.40095377105E+04  0.37014193175E+04 0.  0.
        2    1    3    3  502    0 -0.11355755138E+04 -0.28359399128E+03  0.78222675004E+03  0.14077769667E+04  0.25500000920E-02 0. -1.
       -2    1    3    3    0  502  0.11355755138E+04  0.28359399128E+03 -0.23236182277E+04  0.26017607438E+04  0.25500000920E-02 0.  1.
</event>
<event>
 5   0  0.5714125E-09  0.3699131E+04  0.7818609E-02  0.8068155E-01
       -1   -1    0    0    0  501  0.00000000000E+00  0.00000000000E+00  0.15582585465E+04  0.15582585465E+04  0.50400001928E-02 0.  1.
        1   -1    0    0  501    0  0.00000000000E+00  0.00000000000E+00 -0.21953301365E+04  0.21953301365E+04  0.50400001928E-02 0. -1.
    10030    2    1    2    0    0  0.00000000000E+00  0.00000000000E+00 -0.63707158994E+03  0.37535886830E+04  0.36991306804E+04 0.  0.
        3    1    3    3  502    0  0.10295511406E+04  0.55881914685E+03  0.11338419018E+04  0.16302919550E+04  0.10100000352E+00 0.  1.
       -3    1    3    3    0  502 -0.10295511406E+04 -0.55881914685E+03 -0.17709134917E+04  0.21232967280E+04  0.10100000352E+00 0. -1.
</event>
<event>
 5   0  0.5714125E-09  0.3700655E+04  0.7818609E-02  0.8067817E-01
       -1   -1    0    0    0  501  0.00000000000E+00  0.00000000000E+00  0.18400033461E+04  0.18400033461E+04  0.50400001928E-02 0. -1.
        1   -1    0    0  501    0  0.00000000000E+00  0.00000000000E+00 -0.18607099039E+04  0.18607099039E+04  0.50400001928E-02 0.  1.
    10030    2    1    2    0    0  0.00000000000E+00  0.00000000000E+00 -0.20706557760E+02  0.37007132500E+04  0.37006553200E+04 0.  0.
        3    1    3    3  502    0  0.17621698665E+04 -0.52303311126E+03  0.20156078684E+03  0.18491709047E+04  0.10100000352E+00 0. -1.
       -3    1    3    3    0  502 -0.17621698665E+04  0.52303311126E+03 -0.22226734460E+03  0.18515423453E+04  0.10100000352E+00 0.  1.
</event>
<event>
 5   0  0.5714125E-09  0.3699483E+04  0.7818609E-02  0.8068076E-01
       -1   -1    0    0    0  501  0.00000000000E+00  0.00000000000E+00  0.18528577748E+04  0.18528577748E+04  0.50400001928E-02 0. -1.
        1   -1    0    0  501    0  0.00000000000E+00  0.00000000000E+00 -0.18466309434E+04  0.18466309434E+04  0.50400001928E-02 0.  1.
    10030    2    1    2    0    0  0.00000000000E+00  0.00000000000E+00  0.62268314020E+01  0.36994887181E+04  0.36994834778E+04 0.  0.
        5    1    3    3  502    0  0.45280010540E+03 -0.78790429107E+03  0.16142337268E+04  0.18524561323E+04  0.46999998093E+01 0. -1.
       -5    1    3    3    0  502 -0.45280010540E+03  0.78790429107E+03 -0.16080068954E+04  0.18470325858E+04  0.46999998093E+01 0.  1.
</event>
<event>
 5   0  0.5714125E-09  0.3700228E+04  0.7818609E-02  0.8067911E-01
        1   -1    0    0  501    0  0.00000000000E+00  0.00000000000E+00  0.16365381280E+04  0.16365381280E+04  0.50400001928E-02 0. -1.
       -1   -1    0    0    0  501  0.00000000000E+00  0.00000000000E+00 -0.20915624235E+04  0.20915624235E+04  0.50400001928E-02 0.  1.
    10030    2    1    2    0    0  0.00000000000E+00  0.00000000000E+00 -0.45502429552E+03  0.37281005515E+04  0.37002279136E+04 0.  0.
        4    1    3    3  502    0  0.22923063409E+03 -0.10958509311E+04 -0.17115240270E+04  0.20451777562E+04  0.12699999809E+01 0.  1.
       -4    1    3    3    0  502 -0.22923063409E+03  0.10958509311E+04  0.12564997314E+04  0.16829227952E+04  0.12699999809E+01 0. -1.
</event>
<event>
 5   0  0.5714125E-09  0.3695587E+04  0.7818609E-02  0.8068940E-01
        1   -1    0    0  501    0  0.00000000000E+00  0.00000000000E+00  0.18943445755E+04  0.18943445755E+04  0.50400001928E-02 0. -1.
       -1   -1    0    0    0  501  0.00000000000E+00  0.00000000000E+00 -0.18023866192E+04  0.18023866192E+04  0.50400001928E-02 0.  1.
    10030    2    1    2    0    0  0.00000000000E+00  0.00000000000E+00  0.91957956264E+02  0.36967311947E+04  0.36955872686E+04 0.  0.
        5    1    3    3  502    0 -0.44956500363E+03 -0.12599469393E+04  0.13210280908E+04  0.18800830538E+04  0.46999998093E+01 0. -1.
       -5    1    3    3    0  502  0.44956500363E+03  0.12599469393E+04 -0.12290701346E+04  0.18166481409E+04  0.46999998093E+01 0.  1.
</event>
<event>
 5   0  0.1825308E-08  0.3688731E+04  0.7818609E-02  0.8070464E-01
        2   -1    0    0  501    0  0.00000000000E+00  0.00000000000E+00  0.23296498573E+04  0.23296498573E+04  0.25500000920E-02 0.  1.
       -2   -1    0    0    0  501  0.00000000000E+00  0.00000000000E+00 -0.14601699904E+04  0.14601699904E+04  0.25500000920E-02 0. -1.
    10030    2    1    2    0    0  0.00000000000E+00  0.00000000000E+00  0.86947986687E+03  0.37898198477E+04  0.36887313862E+04 0.  0.
        4    1    3    3  502    0 -0.53778574894E+03  0.11184323529E+04  0.18365276244E+04  0.22165152307E+04  0.12699999809E+01 0.  1.
       -4    1    3    3    0  502  0.53778574894E+03 -0.11184323529E+04 -0.96704775749E+03  0.15733046171E+04  0.12699999809E+01 0. -1.
</event>
<event>
 5   0  0.5714125E-09  0.3700058E+04  0.7818609E-02  0.8067949E-01
       -1   -1    0    0    0  501  0.00000000000E+00  0.00000000000E+00  0.12234639844E+04  0.12234639844E+04  0.50400001928E-02 0.  1.
        1   -1    0    0  501    0  0.00000000000E+00  0.00000000000E+00 -0.27974723295E+04  0.27974723295E+04  0.50400001928E-02 0. -1.
    10030    2    1    2    0    0  0.00000000000E+00  0.00000000000E+00 -0.15740083451E+04  0.40209363139E+04  0.37000576441E+04 0.  0.
        5    1    3    3  502    0 -0.50807179840E+03 -0.17790557969E+03  0.11364632970E+04  0.12575206810E+04  0.46999998093E+01 0.  1.
       -5    1    3    3    0  502  0.50807179840E+03  0.17790557969E+03 -0.27104716421E+04  0.27634156329E+04  0.46999998093E+01 0. -1.
</event>
<event>
 5   0  0.1757996E-08  0.3701583E+04  0.7818609E-02  0.8067611E-01
        2   -1    0    0  501    0  0.00000000000E+00  0.00000000000E+00  0.21257276394E+04  0.21257276394E+04  0.25500000920E-02 0.  1.
       -2   -1    0    0    0  501  0.00000000000E+00  0.00000000000E+00 -0.16114152708E+04  0.16114152708E+04  0.25500000920E-02 0. -1.
    10030    2    1    2    0    0  0.00000000000E+00  0.00000000000E+00  0.51431236862E+03  0.37371429103E+04  0.37015834340E+04 0.  0.
        3    1    3    3  502    0 -0.77668186955E+03 -0.89535578342E+03 -0.11779537318E+04  0.16710690320E+04  0.10100000352E+00 0. -1.
       -3    1    3    3    0  502  0.77668186955E+03  0.89535578342E+03  0.16922661004E+04  0.20660738782E+04  0.10100000352E+00 0.  1.
</event>
<event>
 5   0  0.1757996E-08  0.3698517E+04  0.7818609E-02  0.8068291E-01
       -2   -1    0    0    0  501  0.00000000000E+00  0.00000000000E+00  0.17384880730E+04  0.17384880730E+04  0.25500000920E-02 0. -1.
        2   -1    0    0  501    0  0.00000000000E+00  0.00000000000E+00 -0.19670863686E+04  0.19670863686E+04  0.25500000920E-02 0.  1.
    10030    2    1    2    0    0  0.00000000000E+00  0.00000000000E+00 -0.22859829561E+03  0.37055744416E+04  0.36985165623E+04 0.  0.
        3    1    3    3  502    0  0.99470900887E+03  0.15510266489E+04 -0.27152694917E+03  0.18624866636E+04  0.10100000352E+00 0. -1.
       -3    1    3    3    0  502 -0.99470900887E+03 -0.15510266489E+04  0.42928653558E+02  0.18430877780E+04  0.10100000352E+00 0.  1.
</event>
<event>
 5   0  0.1740290E-08  0.3699713E+04  0.7818609E-02  0.8068025E-01
        2   -1    0    0  501    0  0.00000000000E+00  0.00000000000E+00  0.19663369805E+04  0.19663369805E+04  0.25500000920E-02 0.  1.
       -2   -1    0    0    0  501  0.00000000000E+00  0.00000000000E+00 -0.17402761347E+04  0.17402761347E+04  0.25500000920E-02 0. -1.
    10030    2    1    2    0    0  0.00000000000E+00  0.00000000000E+00  0.22606084583E+03  0.37066131152E+04  0.36997131348E+04 0.  0.
        5    1    3    3  502    0  0.17303579182E+04 -0.14851700926E+02 -0.54209134171E+03  0.18133516512E+04  0.46999998093E+01 0. -1.
       -5    1    3    3    0  502 -0.17303579182E+04  0.14851700926E+02  0.76815218754E+03  0.18932614640E+04  0.46999998093E+01 0.  1.
</event>
<event>
 5   0  0.1740290E-08  0.3701321E+04  0.7818609E-02  0.8067669E-01
       -2   -1    0    0    0  501  0.00000000000E+00  0.00000000000E+00  0.14195919938E+04  0.14195919938E+04  0.25500000920E-02 0. -1.
        2   -1    0    0  501    0  0.00000000000E+00  0.00000000000E+00 -0.24126259404E+04  0.24126259404E+04  0.25500000920E-02 0.  1.
    10030    2    1    2    0    0  0.00000000000E+00  0.00000000000E+00 -0.99303394664E+03  0.38322179342E+04  0.37013210988E+04 0.  0.
        5    1    3    3  502    0  0.13257698861E+04 -0.80324484373E+03 -0.15432367335E+04  0.21873430859E+04  0.46999998093E+01 0.  1.
       -5    1    3    3    0  502 -0.13257698861E+04  0.80324484373E+03  0.55020278686E+03  0.16448748483E+04  0.46999998093E+01 0. -1.
</event>
<event>
 5   0  0.5714125E-09  0.3696025E+04  0.7818609E-02  0.8068843E-01
       -1   -1    0    0    0  501  0.00000000000E+00  0.00000000000E+00  0.21696065288E+04  0.21696065288E+04  0.50400001928E-02 0.  1.
        1   -1    0    0  501    0  0.00000000000E+00  0.00000000000E+00 -0.15740875750E+04  0.15740875750E+04  0.50400001928E-02 0. -1.
    10030    2    1    2    0    0  0.00000000000E+00  0.00000000000E+00  0.59551895378E+03  0.37436941038E+04  0.36960252594E+04 0.  0.
        5    1    3    3  502    0  0.17173855112E+03  0.18110082768E+04 -0.31834700044E+02  0.18194176669E+04  0.46999998093E+01 0.  1.
       -5    1    3    3    0  502 -0.17173855112E+03 -0.18110082768E+04  0.62735365382E+03  0.19242764369E+04  0.46999998093E+01 0. -1.
</event>
<event>
 5   0  0.5714125E-09  0.3700125E+04  0.7818609E-02  0.8067934E-01
       -1   -1    0    0    0  501  0.00000000000E+00  0.00000000000E+00  0.14185213826E+04  0.14185213826E+04  0.50400001928E-02 0.  1.
        1   -1    0    0  501    0  0.00000000000E+00  0.00000000000E+00 -0.24128865173E+04  0.24128865173E+04  0.50400001928E-02 0. -1.
    10030    2    1    2    0    0  0.00000000000E+00  0.00000000000E+00 -0.99436513467E+03  0.38314078999E+04  0.37001249269E+04 0.  0.
        2    1    3    3  502    0 -0.75167566219E+03 -0.86860998638E+03  0.10045255999E+04  0.15259656911E+04  0.25500000920E-02 0.  1.
       -2    1    3    3    0  502  0.75167566219E+03  0.86860998638E+03 -0.19988907346E+04  0.23054422088E+04  0.25500000920E-02 0. -1.
</event>
<event>
 5   0  0.1740290E-08  0.3700697E+04  0.7818609E-02  0.8067807E-01
       -2   -1    0    0    0  501  0.00000000000E+00  0.00000000000E+00  0.21221304983E+04  0.21221304983E+04  0.25500000920E-02 0. -1.
        2   -1    0    0  501    0  0.00000000000E+00  0.00000000000E+00 -0.16133736415E+04  0.16133736415E+04  0.25500000920E-02 0.  1.
    10030    2    1    2    0    0  0.00000000000E+00  0.00000000000E+00  0.50875685680E+03  0.37355041398E+04  0.37006969126E+04 0.  0.
        5    1    3    3  502    0 -0.10185963910E+04  0.57459918778E+03  0.17017634368E+04  0.20648786209E+04  0.46999998093E+01 0. -1.
       -5    1    3    3    0  502  0.10185963910E+04 -0.57459918778E+03 -0.11930065800E+04  0.16706255189E+04  0.46999998093E+01 0.  1.
</event>
<event>
 5   0  0.1725865E-08  0.3701704E+04  0.7818609E-02  0.8067584E-01
       -2   -1    0    0    0  501  0.00000000000E+00  0.00000000000E+00  0.20220682718E+04  0.20220682718E+04  0.25500000920E-02 0.  1.
        2   -1    0    0  501    0  0.00000000000E+00  0.00000000000E+00 -0.16941332822E+04  0.16941332822E+04  0.25500000920E-02 0. -1.
    10030    2    1    2    0    0  0.00000000000E+00  0.00000000000E+00  0.32793498961E+03  0.37162015540E+04  0.37017040174E+04 0.  0.
        1    1    3    3  502    0 -0.67791372027E+03  0.35111817876E+03  0.18566320088E+04  0.20074694029E+04  0.50400001928E-02 0.  1.
       -1    1    3    3    0  502  0.67791372027E+03 -0.35111817876E+03 -0.15286970192E+04  0.17087321511E+04  0.50400001928E-02 0. -1.
</event>
<event>
 5   0  0.5714125E-09  0.3700446E+04  0.7818609E-02  0.8067863E-01
        1   -1    0    0  501    0  0.00000000000E+00  0.00000000000E+00  0.24681228190E+04  0.24681228190E+04  0.50400001928E-02 0. -1.
       -1   -1    0    0    0  501  0.00000000000E+00  0.00000000000E+00 -0.13870157327E+04  0.13870157327E+04  0.50400001928E-02 0.  1.
    10030    2    1    2    0    0  0.00000000000E+00  0.00000000000E+00  0.10811070863E+04  0.38551385517E+04  0.37004460164E+04 0.  0.
        2    1    3    3  502    0  0.15077437522E+04  0.77901643576E+02 -0.57372134214E+03  0.16150901111E+04  0.25500000920E-02 0.  1.
       -2    1    3    3    0  502 -0.15077437522E+04 -0.77901643576E+02  0.16548284285E+04  0.22400484406E+04  0.25500000920E-02 0. -1.
</event>
<event>
 5   0  0.1725865E-08  0.3697439E+04  0.7818609E-02  0.8068530E-01
       -2   -1    0    0    0  501  0.00000000000E+00  0.00000000000E+00  0.15475322502E+04  0.15475322502E+04  0.25500000920E-02 0. -1.
        2   -1    0    0  501    0  0.00000000000E+00  0.00000000000E+00 -0.22085246148E+04  0.22085246149E+04  0.25500000920E-02 0.  1.
    10030    2    1    2    0    0  0.00000000000E+00  0.00000000000E+00 -0.66099236462E+03  0.37560568651E+04  0.36974386090E+04 0.  0.
        1    1    3    3  502    0 -0.12879853114E+04  0.75920972465E+02  0.10145390283E+04  0.16413286071E+04  0.50400001928E-02 0. -1.
       -1    1    3    3    0  502  0.12879853114E+04 -0.75920972465E+02 -0.16755313929E+04  0.21147282580E+04  0.50400001928E-02 0.  1.
</event>
<event>
 5   0  0.5714125E-09  0.3700259E+04  0.7818609E-02  0.8067904E-01
        1   -1    0    0  501    0  0.00000000000E+00  0.00000000000E+00  0.17229779696E+04  0.17229779697E+04  0.50400001928E-02 0.  1.
       -1   -1    0    0    0  501  0.00000000000E+00  0.00000000000E+00 -0.19866642257E+04  0.19866642257E+04  0.50400001928E-02 0. -1.
    10030    2    1    2    0    0  0.00000000000E+00  0.00000000000E+00 -0.26368625605E+03  0.37096421954E+04  0.37002587445E+04 0.  0.
        4    1    3    3  502    0  0.16122398611E+04 -0.48296679820E+03  0.63848211087E+03  0.18000653645E+04  0.12699999809E+01 0.  1.
       -4    1    3    3    0  502 -0.16122398611E+04  0.48296679820E+03 -0.90216836693E+03  0.19095768308E+04  0.12699999809E+01 0. -1.
</event>
<event>
 5   0  0.1757996E-08  0.3699806E+04  0.7818609E-02  0.8068005E-01
       -2   -1    0    0    0  501  0.00000000000E+00  0.00000000000E+00  0.16119070824E+04  0.16119070824E+04  0.25500000920E-02 0.  1.
        2   -1    0    0  501    0  0.00000000000E+00  0.00000000000E+00 -0.21230384477E+04  0.21230384477E+04  0.25500000920E-02 0. -1.
    10030    2    1    2    0    0  0.00000000000E+00  0.00000000000E+00 -0.51113136525E+03  0.37349455301E+04  0.36998057841E+04 0.  0.
        3    1    3    3  502    0  0.66061032633E+03 -0.43674524027E+03  0.14321346732E+04  0.16365091325E+04  0.10100000352E+00 0.  1.
       -3    1    3    3    0  502 -0.66061032633E+03  0.43674524027E+03 -0.19432660385E+04  0.20984363976E+04  0.10100000352E+00 0. -1.
</event>
<event>
 5   0  0.5714125E-09  0.3709359E+04  0.7818609E-02  0.8065891E-01
       -1   -1    0    0    0  501  0.00000000000E+00  0.00000000000E+00  0.17586243904E+04  0.17586243904E+04  0.50400001928E-02 0.  1.
        1   -1    0    0  501    0  0.00000000000E+00  0.00000000000E+00 -0.19559808525E+04  0.19559808525E+04  0.50400001928E-02 0. -1.
    10030    2    1    2    0    0  0.00000000000E+00  0.00000000000E+00 -0.19735646210E+03  0.37146052429E+04  0.37093587772E+04 0.  0.
        4    1    3    3  502    0 -0.41738336076E+01  0.18295487536E+04 -0.40335838725E+03  0.18734902360E+04  0.12699999809E+01 0.  1.
       -4    1    3    3    0  502  0.41738336076E+01 -0.18295487536E+04  0.20600192515E+03  0.18411150070E+04  0.12699999809E+01 0. -1.
</event>
<event>
 5   0  0.1757996E-08  0.3699443E+04  0.7818609E-02  0.8068085E-01
       -2   -1    0    0    0  501  0.00000000000E+00  0.00000000000E+00  0.14872633710E+04  0.14872633710E+04  0.25500000920E-02 0.  1.
        2   -1    0    0  501    0  0.00000000000E+00  0.00000000000E+00 -0.23005139881E+04  0.23005139881E+04  0.25500000920E-02 0. -1.
    10030    2    1    2    0    0  0.00000000000E+00  0.00000000000E+00 -0.81325061709E+03  0.37877773590E+04  0.36994433034E+04 0.  0.
        3    1    3    3  502    0  0.48818586306E+03 -0.31266941287E+02  0.14198321449E+04  0.15017411190E+04  0.10100000352E+00 0.  1.
       -3    1    3    3    0  502 -0.48818586306E+03  0.31266941287E+02 -0.22330827620E+04  0.22860362400E+04  0.10100000352E+00 0. -1.
</event>
<event>
 5   0  0.1825308E-08  0.3700713E+04  0.7818609E-02  0.8067804E-01
        2   -1    0    0  501    0  0.00000000000E+00  0.00000000000E+00  0.12899288784E+04  0.12899288784E+04  0.25500000920E-02 0. -1.
       -2   -1    0    0    0  501  0.00000000000E+00  0.00000000000E+00 -0.26542701911E+04  0.26542701911E+04  0.25500000920E-02 0.  1.
    10030    2    1    2    0    0  0.00000000000E+00  0.00000000000E+00 -0.13643413127E+04  0.39441990696E+04  0.37007133208E+04 0.  0.
        4    1    3    3  502    0 -0.18286097660E+03  0.35274290660E+03  0.12439270430E+04  0.13058414131E+04  0.12699999809E+01 0. -1.
       -4    1    3    3    0  502  0.18286097660E+03 -0.35274290660E+03 -0.26082683557E+04  0.26383576564E+04  0.12699999809E+01 0.  1.
</event>
<event>
 5   0  0.1856107E-08  0.3699458E+04  0.7818609E-02  0.8068082E-01
       -2   -1    0    0    0  501  0.00000000000E+00  0.00000000000E+00  0.17726126378E+04  0.17726126378E+04  0.25500000920E-02 0. -1.
        2   -1    0    0  501    0  0.00000000000E+00  0.00000000000E+00 -0.19302006322E+04  0.19302006322E+04  0.25500000920E-02 0.  1.
    10030    2    1    2    0    0  0.00000000000E+00  0.00000000000E+00 -0.15758799434E+03  0.37028132700E+04  0.36994583572E+04 0.  0.
        2    1    3    3  502    0  0.31661493007E+03 -0.15893333433E+04 -0.97138326953E+03  0.18893943332E+04  0.25500000920E-02 0.  1.
       -2    1    3    3    0  502 -0.31661493007E+03  0.15893333433E+04  0.81379527519E+03  0.18134189367E+04  0.25500000920E-02 0. -1.
</event>
<event>
 5   0  0.1856107E-08  0.3700701E+04  0.7818609E-02  0.8067806E-01
        2   -1    0    0  501    0  0.00000000000E+00  0.00000000000E+00  0.18692945886E+04  0.18692945886E+04  0.25500000920E-02 0.  1.
       -2   -1    0    0    0  501  0.00000000000E+00  0.00000000000E+00 -0.18315984338E+04  0.18315984338E+04  0.25500000920E-02 0. -1.
    10030    2    1    2    0    0  0.00000000000E+00  0.00000000000E+00  0.37696154813E+02  0.37008930223E+04  0.37007010366E+04 0.  0.
        2    1    3    3  502    0 -0.16239744695E+04 -0.28690064552E+03  0.85805308756E+03  0.18589943946E+04  0.25500000920E-02 0.  1.
       -2    1    3    3    0  502  0.16239744695E+04  0.28690064552E+03 -0.82035693275E+03  0.18418986278E+04  0.25500000920E-02 0. -1.
</event>
<event>
 5   0  0.5714125E-09  0.3700895E+04  0.7818609E-02  0.8067764E-01
        1   -1    0    0  501    0  0.00000000000E+00  0.00000000000E+00  0.26828816955E+04  0.26828816955E+04  0.50400001928E-02 0.  1.
       -1   -1    0    0    0  501  0.00000000000E+00  0.00000000000E+00 -0.12762977180E+04  0.12762977180E+04  0.50400001928E-02 0. -1.
    10030    2    1    2    0    0  0.00000000000E+00  0.00000000000E+00  0.14065839775E+04  0.39591794135E+04  0.37008949110E+04 0.  0.
        4    1    3    3  502    0  0.65389429930E+03 -0.91848621191E+03  0.22729909076E+04  0.25372591423E+04  0.12699999809E+01 0.  1.
       -4    1    3    3    0  502 -0.65389429930E+03  0.91848621191E+03 -0.86640693012E+03  0.14219202712E+04  0.12699999809E+01 0. -1.
</event>
<event>
 5   0  0.1856107E-08  0.3700536E+04  0.7818609E-02  0.8067843E-01
       -2   -1    0    0    0  501  0.00000000000E+00  0.00000000000E+00  0.19904140365E+04  0.19904140365E+04  0.25500000920E-02 0. -1.
        2   -1    0    0  501    0  0.00000000000E+00  0.00000000000E+00 -0.17199896006E+04  0.17199896006E+04  0.25500000920E-02 0.  1.
    10030    2    1    2    0    0  0.00000000000E+00  0.00000000000E+00  0.27042443587E+03  0.37104036371E+04  0.37005358767E+04 0.  0.
        2    1    3    3  502    0  0.15574821824E+04 -0.34883150766E+03 -0.80326295522E+03  0.17868031633E+04  0.25500000920E-02 0.  1.
       -2    1    3    3    0  502 -0.15574821824E+04  0.34883150766E+03  0.10736873911E+04  0.19236004738E+04  0.25500000920E-02 0. -1.
</event>
<event>
 5   0  0.1740290E-08  0.3697548E+04  0.7818609E-02  0.8068505E-01
       -2   -1    0    0    0  501  0.00000000000E+00  0.00000000000E+00  0.11963006985E+04  0.11963006985E+04  0.25500000920E-02 0.  1.
        2   -1    0    0  501    0  0.00000000000E+00  0.00000000000E+00 -0.28571124776E+04  0.28571124776E+04  0.25500000920E-02 0. -1.
    10030    2    1    2    0    0  0.00000000000E+00  0.00000000000E+00 -0.16608117791E+04  0.40534131761E+04  0.36975481891E+04 0.  0.
        5    1    3    3  502    0  0.18269318459E+04 -0.71875367361E+02 -0.52999211400E+03  0.19036175479E+04  0.46999998093E+01 0. -1.
       -5    1    3    3    0  502 -0.18269318459E+04  0.71875367361E+02 -0.11308196651E+04  0.21497956281E+04  0.46999998093E+01 0.  1.
</event>
<event>
 5   0  0.1740290E-08  0.3699994E+04  0.7818609E-02  0.8067963E-01
       -2   -1    0    0    0  501  0.00000000000E+00  0.00000000000E+00  0.18069170337E+04  0.18069170337E+04  0.25500000920E-02 0.  1.
        2   -1    0    0  501    0  0.00000000000E+00  0.00000000000E+00 -0.18941039693E+04  0.18941039693E+04  0.25500000920E-02 0. -1.
    10030    2    1    2    0    0  0.00000000000E+00  0.00000000000E+00 -0.87186935614E+02  0.37010210030E+04  0.36999939058E+04 0.  0.
        5    1    3    3  502    0  0.80991573760E+03  0.86316011911E+03  0.13785809900E+04  0.18170075755E+04  0.46999998093E+01 0.  1.
       -5    1    3    3    0  502 -0.80991573760E+03 -0.86316011911E+03 -0.14657679256E+04  0.18840134275E+04  0.46999998093E+01 0. -1.
</event>
<event>
 5   0  0.1757996E-08  0.3700287E+04  0.7818609E-02  0.8067898E-01
       -2   -1    0    0    0  501  0.00000000000E+00  0.00000000000E+00  0.11422312668E+04  0.11422312668E+04  0.25500000920E-02 0. -1.
        2   -1    0    0  501    0  0.00000000000E+00  0.00000000000E+00 -0.29967934459E+04  0.29967934459E+04  0.25500000920E-02 0.  1.
    10030    2    1    2    0    0  0.00000000000E+00  0.00000000000E+00 -0.18545621791E+04  0.41390247127E+04  0.37002871100E+04 0.  0.
        3    1    3    3  502    0  0.29667468790E+03 -0.10343967956E+04  0.75616958804E+03  0.13152129323E+04  0.10100000352E+00 0. -1.
       -3    1    3    3    0  502 -0.29667468790E+03  0.10343967956E+04 -0.26107317672E+04  0.28238117804E+04  0.10100000352E+00 0.  1.
</event>
<event>
 5   0  0.5714125E-09  0.3700190E+04  0.7818609E-02  0.8067920E-01
       -1   -1    0    0    0  501  0.00000000000E+00  0.00000000000E+00  0.25000717254E+04  0.25000717254E+04  0.50400001928E-02 0.  1.
        1   -1    0    0  501    0  0.00000000000E+00  0.00000000000E+00 -0.13691014318E+04  0.13691014318E+04  0.50400001928E-02 0. -1.
    10030    2    1    2    0    0  0.00000000000E+00  0.00000000000E+00  0.11309702937E+04  0.38691731572E+04  0.37001901459E+04 0.  0.
        5    1    3    3  502    0  0.63360205205E+03 -0.73280168967E+03  0.22136593778E+04  0.24163525835E+04  0.46999998093E+01 0.  1.
       -5    1    3    3    0  502 -0.63360205205E+03  0.73280168967E+03 -0.10826890841E+04  0.14528205738E+04  0.46999998093E+01 0. -1.
</event>
<event>
 5   0  0.5714125E-09  0.3700239E+04  0.7818609E-02  0.8067909E-01
        1   -1    0    0  501    0  0.00000000000E+00  0.00000000000E+00  0.19404382116E+04  0.19404382116E+04  0.50400001928E-02 0.  1.
       -1   -1    0    0    0  501  0.00000000000E+00  0.00000000000E+00 -0.17640047605E+04  0.17640047605E+04  0.50400001928E-02 0. -1.
    10030    2    1    2    0    0  0.00000000000E+00  0.00000000000E+00  0.17643345109E+03  0.37044429721E+04  0.37002390424E+04 0.  0.
        1    1    3    3  502    0 -0.12695677185E+04  0.13456032816E+04  0.11041982539E+03  0.18532789647E+04  0.50400001928E-02 0.  1.
       -1    1    3    3    0  502  0.12695677185E+04 -0.13456032816E+04  0.66013625703E+02  0.18511640073E+04  0.50400001928E-02 0. -1.
</event>
<event>
 5   0  0.1757996E-08  0.3700015E+04  0.7818609E-02  0.8067958E-01
        2   -1    0    0  501    0  0.00000000000E+00  0.00000000000E+00  0.18930059387E+04  0.18930059387E+04  0.25500000920E-02 0. -1.
       -2   -1    0    0    0  501  0.00000000000E+00  0.00000000000E+00 -0.18079860314E+04  0.18079860314E+04  0.25500000920E-02 0.  1.
    10030    2    1    2    0    0  0.00000000000E+00  0.00000000000E+00  0.85019907277E+02  0.37009919701E+04  0.37000152943E+04 0.  0.
        3    1    3    3  502    0  0.12599231710E+04 -0.81598215557E+02 -0.13100539259E+04  0.18194246246E+04  0.10100000352E+00 0.  1.
       -3    1    3    3    0  502 -0.12599231710E+04  0.81598215557E+02  0.13950738332E+04  0.18815673455E+04  0.10100000352E+00 0. -1.
</event>
<event>
 5   0  0.5714125E-09  0.3699132E+04  0.7818609E-02  0.8068154E-01
        1   -1    0    0  501    0  0.00000000000E+00  0.00000000000E+00  0.14683949595E+04  0.14683949595E+04  0.50400001928E-02 0. -1.
       -1   -1    0    0    0  501  0.00000000000E+00  0.00000000000E+00 -0.23296831752E+04  0.23296831753E+04  0.50400001928E-02 0.  1.
    10030    2    1    2    0    0  0.00000000000E+00  0.00000000000E+00 -0.86128821573E+03  0.37980781348E+04  0.36991323479E+04 0.  0.
        2    1    3    3  502    0 -0.59990820700E+03  0.35403318939E+03  0.13285644239E+04  0.15001042578E+04  0.25500000920E-02 0. -1.
       -2    1    3    3    0  502  0.59990820700E+03 -0.35403318939E+03 -0.21898526396E+04  0.22979738769E+04  0.25500000920E-02 0.  1.
</event>
<event>
 5   0  0.1825308E-08  0.3701120E+04  0.7818609E-02  0.8067714E-01
       -2   -1    0    0    0  501  0.00000000000E+00  0.00000000000E+00  0.14196978378E+04  0.14196978378E+04  0.25500000920E-02 0.  1.
        2   -1    0    0  501    0  0.00000000000E+00  0.00000000000E+00 -0.24121841721E+04  0.24121841721E+04  0.25500000920E-02 0. -1.
    10030    2    1    2    0    0  0.00000000000E+00  0.00000000000E+00 -0.99248633432E+03  0.38318820099E+04  0.37011201837E+04 0.  0.
        4    1    3    3  502    0 -0.35346968065E+03  0.55281282365E+03 -0.22877022114E+04  0.23799424057E+04  0.12699999809E+01 0. -1.
       -4    1    3    3    0  502  0.35346968065E+03 -0.55281282365E+03  0.12952158771E+04  0.14519396042E+04  0.12699999809E+01 0.  1.
</event>
<event>
 5   0  0.5714125E-09  0.3699561E+04  0.7818609E-02  0.8068059E-01
        1   -1    0    0  501    0  0.00000000000E+00  0.00000000000E+00  0.25804372191E+04  0.25804372191E+04  0.50400001928E-02 0.  1.
       -1   -1    0    0    0  501  0.00000000000E+00  0.00000000000E+00 -0.13260107648E+04  0.13260107648E+04  0.50400001928E-02 0. -1.
    10030    2    1    2    0    0  0.00000000000E+00  0.00000000000E+00  0.12544264543E+04  0.39064479839E+04  0.36995608011E+04 0.  0.
        4    1    3    3  502    0  0.13231858811E+04 -0.60333351461E+03  0.18343191044E+04  0.23408460854E+04  0.12699999809E+01 0. -1.
       -4    1    3    3    0  502 -0.13231858811E+04  0.60333351461E+03 -0.57989265014E+03  0.15656018984E+04  0.12699999809E+01 0.  1.
</event>
<event>
 5   0  0.1825308E-08  0.3700086E+04  0.7818609E-02  0.8067943E-01
       -2   -1    0    0    0  501  0.00000000000E+00  0.00000000000E+00  0.18959339460E+04  0.18959339460E+04  0.25500000920E-02 0.  1.
        2   -1    0    0  501    0  0.00000000000E+00  0.00000000000E+00 -0.18052632274E+04  0.18052632274E+04  0.25500000920E-02 0. -1.
    10030    2    1    2    0    0  0.00000000000E+00  0.00000000000E+00  0.90670718591E+02  0.37011971735E+04  0.37000863960E+04 0.  0.
        4    1    3    3  502    0  0.24697459794E+03  0.11192045628E+04  0.14980257560E+04  0.18861861213E+04  0.12699999809E+01 0.  1.
       -4    1    3    3    0  502 -0.24697459794E+03 -0.11192045628E+04 -0.14073550374E+04  0.18150110522E+04  0.12699999809E+01 0. -1.
</event>
<event>
 5   0  0.1725865E-08  0.3699601E+04  0.7818609E-02  0.8068050E-01
       -2   -1    0    0    0  501  0.00000000000E+00  0.00000000000E+00  0.16763148132E+04  0.16763148132E+04  0.25500000920E-02 0. -1.
        2   -1    0    0  501    0  0.00000000000E+00  0.00000000000E+00 -0.20412404642E+04  0.20412404642E+04  0.25500000920E-02 0.  1.
    10030    2    1    2    0    0  0.00000000000E+00  0.00000000000E+00 -0.36492565102E+03  0.37175552774E+04  0.36996008581E+04 0.  0.
        1    1    3    3  502    0  0.40193514906E+03  0.43673286041E+03 -0.19429568490E+04  0.20315926689E+04  0.50400001928E-02 0.  1.
       -1    1    3    3    0  502 -0.40193514906E+03 -0.43673286041E+03  0.15780311979E+04  0.16859626085E+04  0.50400001928E-02 0. -1.
</event>
<event>
 5   0  0.1856107E-08  0.3702472E+04  0.7818609E-02  0.8067414E-01
       -2   -1    0    0    0  501  0.00000000000E+00  0.00000000000E+00  0.26263581911E+04  0.26263581911E+04  0.25500000920E-02 0.  1.
        2   -1    0    0  501    0  0.00000000000E+00  0.00000000000E+00 -0.13048768214E+04  0.13048768214E+04  0.25500000920E-02 0. -1.
    10030    2    1    2    0    0  0.00000000000E+00  0.00000000000E+00  0.13214813697E+04  0.39312350125E+04  0.37024715682E+04 0.  0.
        2    1    3    3  502    0  0.70444827781E+03 -0.15972951700E+04  0.66639776672E+01  0.17457501668E+04  0.25500000920E-02 0.  1.
       -2    1    3    3    0  502 -0.70444827781E+03  0.15972951700E+04  0.13148173920E+04  0.21854848457E+04  0.25500000920E-02 0. -1.
</event>
<event>
 5   0  0.5714125E-09  0.3699278E+04  0.7818609E-02  0.8068122E-01
       -1   -1    0    0    0  501  0.00000000000E+00  0.00000000000E+00  0.30827589547E+04  0.30827589547E+04  0.50400001928E-02 0.  1.
        1   -1    0    0  501    0  0.00000000000E+00  0.00000000000E+00 -0.11097733954E+04  0.11097733954E+04  0.50400001928E-02 0. -1.
    10030    2    1    2    0    0  0.00000000000E+00  0.00000000000E+00  0.19729855593E+04  0.41925323501E+04  0.36992776983E+04 0.  0.
        3    1    3    3  502    0 -0.37238703051E+03 -0.15224500860E+04  0.20996116825E+04  0.26200945770E+04  0.10100000352E+00 0.  1.
       -3    1    3    3    0  502  0.37238703051E+03  0.15224500860E+04 -0.12662612324E+03  0.15724377731E+04  0.10100000352E+00 0. -1.
</event>
<event>
 5   0  0.5714125E-09  0.3697563E+04  0.7818609E-02  0.8068502E-01
       -1   -1    0    0    0  501  0.00000000000E+00  0.00000000000E+00  0.34610533659E+04  0.34610533659E+04  0.50400001928E-02 0.  1.
        1   -1    0    0  501    0  0.00000000000E+00  0.00000000000E+00 -0.98755864967E+03  0.98755864968E+03  0.50400001928E-02 0. -1.
    10030    2    1    2    0    0  0.00000000000E+00  0.00000000000E+00  0.24734947162E+04  0.44486120155E+04  0.36975630831E+04 0.  0.
        1    1    3    3  502    0  0.16882659945E+04  0.74633368618E+03  0.13614149097E+04  0.22936230282E+04  0.50400001928E-02 0.  1.
       -1    1    3    3    0  502 -0.16882659945E+04 -0.74633368618E+03  0.11120798065E+04  0.21549889873E+04  0.50400001928E-02 0. -1.
</event>
<event>
 5   0  0.5714125E-09  0.3699789E+04  0.7818609E-02  0.8068008E-01
        1   -1    0    0  501    0  0.00000000000E+00  0.00000000000E+00  0.20966511542E+04  0.20966511542E+04  0.50400001928E-02 0. -1.
       -1   -1    0    0    0  501  0.00000000000E+00  0.00000000000E+00 -0.16321792204E+04  0.16321792204E+04  0.50400001928E-02 0.  1.
    10030    2    1    2    0    0  0.00000000000E+00  0.00000000000E+00  0.46447193383E+03  0.37288303746E+04  0.36997894244E+04 0.  0.
        2    1    3    3  502    0 -0.17023928209E+03  0.13657176492E+04 -0.10135670762E+04  0.17092350127E+04  0.25500000920E-02 0.  1.
       -2    1    3    3    0  502  0.17023928209E+03 -0.13657176492E+04  0.14780390101E+04  0.20195953619E+04  0.25500000920E-02 0. -1.
</event>
<event>
 5   0  0.1856107E-08  0.3701800E+04  0.7818609E-02  0.8067563E-01
        2   -1    0    0  501    0  0.00000000000E+00  0.00000000000E+00  0.17146807821E+04  0.17146807821E+04  0.25500000920E-02 0. -1.
       -2   -1    0    0    0  501  0.00000000000E+00  0.00000000000E+00 -0.19979412234E+04  0.19979412234E+04  0.25500000920E-02 0.  1.
    10030    2    1    2    0    0  0.00000000000E+00  0.00000000000E+00 -0.28326044131E+03  0.37126220055E+04  0.37018003293E+04 0.  0.
        2    1    3    3  502    0 -0.11849486258E+04  0.11375269484E+04  0.71395252798E+03  0.17910329468E+04  0.25500000920E-02 0. -1.
       -2    1    3    3    0  502  0.11849486258E+04 -0.11375269484E+04 -0.99721296929E+03  0.19215890587E+04  0.25500000920E-02 0.  1.
</event>
<event>
 5   0  0.1740290E-08  0.3700830E+04  0.7818609E-02  0.8067778E-01
        2   -1    0    0  501    0  0.00000000000E+00  0.00000000000E+00  0.17627089010E+04  0.17627089010E+04  0.25500000920E-02 0. -1.
       -2   -1    0    0    0  501  0.00000000000E+00  0.00000000000E+00 -0.19424845754E+04  0.19424845754E+04  0.25500000920E-02 0.  1.
    10030    2    1    2    0    0  0.00000000000E+00  0.00000000000E+00 -0.17977567435E+03  0.37051934764E+04  0.37008295563E+04 0.  0.
        5    1    3    3  502    0  0.91365783143E+03  0.81662693570E+03  0.12982399837E+04  0.17852448937E+04  0.46999998093E+01 0. -1.
       -5    1    3    3    0  502 -0.91365783143E+03 -0.81662693570E+03 -0.14780156581E+04  0.19199485828E+04  0.46999998093E+01 0.  1.
</event>
<event>
 5   0  0.5714125E-09  0.3700762E+04  0.7818609E-02  0.8067793E-01
        1   -1    0    0  501    0  0.00000000000E+00  0.00000000000E+00  0.16816080821E+04  0.16816080821E+04  0.50400001928E-02 0. -1.
       -1   -1    0    0    0  501  0.00000000000E+00  0.00000000000E+00 -0.20360926015E+04  0.20360926015E+04  0.50400001928E-02 0.  1.
    10030    2    1    2    0    0  0.00000000000E+00  0.00000000000E+00 -0.35448451938E+03  0.37177006836E+04  0.37007619618E+04 0.  0.
        1    1    3    3  502    0 -0.99635295610E+02 -0.51334651853E+03 -0.19603193182E+04  0.20288675831E+04  0.50400001928E-02 0.  1.
       -1    1    3    3    0  502  0.99635295610E+02  0.51334651853E+03  0.16058347988E+04  0.16888331005E+04  0.50400001928E-02 0. -1.
</event>
<event>
 5   0  0.1725865E-08  0.3694950E+04  0.7818609E-02  0.8069082E-01
        2   -1    0    0  501    0  0.00000000000E+00  0.00000000000E+00  0.21581041241E+04  0.21581041241E+04  0.25500000920E-02 0.  1.
       -2   -1    0    0    0  501  0.00000000000E+00  0.00000000000E+00 -0.15815562635E+04  0.15815562635E+04  0.25500000920E-02 0. -1.
    10030    2    1    2    0    0  0.00000000000E+00  0.00000000000E+00  0.57654786061E+03  0.37396603876E+04  0.36949495774E+04 0.  0.
        1    1    3    3  502    0 -0.93690125728E+03 -0.15903667344E+04  0.20914359805E+03  0.18576305770E+04  0.50400001928E-02 0.  1.
       -1    1    3    3    0  502  0.93690125728E+03  0.15903667344E+04  0.36740426255E+03  0.18820298106E+04  0.50400001928E-02 0. -1.
</event>
<event>
 5   0  0.5714125E-09  0.3700928E+04  0.7818609E-02  0.8067756E-01
        1   -1    0    0  501    0  0.00000000000E+00  0.00000000000E+00  0.23762154371E+04  0.23762154371E+04  0.50400001928E-02 0. -1.
       -1   -1    0    0    0  501  0.00000000000E+00  0.00000000000E+00 -0.14410382936E+04  0.14410382936E+04  0.50400001928E-02 0.  1.
    10030    2    1    2    0    0  0.00000000000E+00  0.00000000000E+00  0.93517714348E+03  0.38172537307E+04  0.37009282288E+04 0.  0.
        1    1    3    3  502    0 -0.12139127695E+04 -0.45214283548E+03 -0.89538478845E+03  0.15747162522E+04  0.50400001928E-02 0.  1.
       -1    1    3    3    0  502  0.12139127695E+04  0.45214283548E+03  0.18305619319E+04  0.22425374785E+04  0.50400001928E-02 0. -1.
</event>
<event>
 5   0  0.1740290E-08  0.3700831E+04  0.7818609E-02  0.8067778E-01
       -2   -1    0    0    0  501  0.00000000000E+00  0.00000000000E+00  0.13631089481E+04  0.13631089481E+04  0.25500000920E-02 0.  1.
        2   -1    0    0  501    0  0.00000000000E+00  0.00000000000E+00 -0.25119327221E+04  0.25119327221E+04  0.25500000920E-02 0. -1.
    10030    2    1    2    0    0  0.00000000000E+00  0.00000000000E+00 -0.11488237740E+04  0.38750416701E+04  0.37008312420E+04 0.  0.
        5    1    3    3  502    0 -0.13793089842E+04 -0.33124716073E+03 -0.18185350189E+04  0.23063628640E+04  0.46999998093E+01 0. -1.
       -5    1    3    3    0  502  0.13793089842E+04  0.33124716073E+03  0.66971124489E+03  0.15686788062E+04  0.46999998093E+01 0.  1.
</event>
<event>
 5   0  0.1725865E-08  0.3699668E+04  0.7818609E-02  0.8068035E-01
        2   -1    0    0  501    0  0.00000000000E+00  0.00000000000E+00  0.16971261070E+04  0.16971261070E+04  0.25500000920E-02 0. -1.
       -2   -1    0    0    0  501  0.00000000000E+00  0.00000000000E+00 -0.20162821572E+04  0.20162821572E+04  0.25500000920E-02 0.  1.
    10030    2    1    2    0    0  0.00000000000E+00  0.00000000000E+00 -0.31915605015E+03  0.37134082642E+04  0.36996676003E+04 0.  0.
        1    1    3    3  502    0  0.24407220413E+03  0.15498399683E+04 -0.11431716402E+04  0.19412409863E+04  0.50400001928E-02 0.  1.
       -1    1    3    3    0  502 -0.24407220413E+03 -0.15498399683E+04  0.82401559008E+03  0.17721672779E+04  0.50400001928E-02 0. -1.
</event>
<event>
 5   0  0.1740290E-08  0.3700355E+04  0.7818609E-02  0.8067883E-01
       -2   -1    0    0    0  501  0.00000000000E+00  0.00000000000E+00  0.27964522068E+04  0.27964522068E+04  0.25500000920E-02 0. -1.
        2   -1    0    0  501    0  0.00000000000E+00  0.00000000000E+00 -0.12241071813E+04  0.12241071813E+04  0.25500000920E-02 0.  1.
    10030    2    1    2    0    0  0.00000000000E+00  0.00000000000E+00  0.15723450255E+04  0.40205593881E+04  0.37003552416E+04 0.  0.
        5    1    3    3  502    0 -0.93296717373E+03  0.82699493201E+03  0.22715024626E+04  0.25911568637E+04  0.46999998093E+01 0. -1.
       -5    1    3    3    0  502  0.93296717373E+03 -0.82699493201E+03 -0.69915743712E+03  0.14294025244E+04  0.46999998093E+01 0.  1.
</event>
<event>
 5   0  0.1740290E-08  0.3699278E+04  0.7818609E-02  0.8068122E-01
       -2   -1    0    0    0  501  0.00000000000E+00  0.00000000000E+00  0.22606035361E+04  0.22606035361E+04  0.25500000920E-02 0. -1.
        2   -1    0    0  501    0  0.00000000000E+00  0.00000000000E+00 -0.15133856773E+04  0.15133856773E+04  0.25500000920E-02 0.  1.
    10030    2    1    2    0    0  0.00000000000E+00  0.00000000000E+00  0.74721785879E+03  0.37739892135E+04  0.36992783154E+04 0.  0.
        5    1    3    3  502    0 -0.17403171171E+04  0.13708329496E+03  0.99722119023E+03  0.20104645458E+04  0.46999998093E+01 0. -1.
       -5    1    3    3    0  502  0.17403171171E+04 -0.13708329496E+03 -0.25000333144E+03  0.17635246677E+04  0.46999998093E+01 0.  1.
</event>
<event>
 5   0  0.1740290E-08  0.3700349E+04  0.7818609E-02  0.8067884E-01
       -2   -1    0    0    0  501  0.00000000000E+00  0.00000000000E+00  0.13740229063E+04  0.13740229063E+04  0.25500000920E-02 0. -1.
        2   -1    0    0  501    0  0.00000000000E+00  0.00000000000E+00 -0.24913312981E+04  0.24913312981E+04  0.25500000920E-02 0.  1.
    10030    2    1    2    0    0  0.00000000000E+00  0.00000000000E+00 -0.11173083919E+04  0.38653542044E+04  0.37003493190E+04 0.  0.
        5    1    3    3  502    0  0.31035420029E+03 -0.78858938184E+03 -0.22766602406E+04  0.24292790873E+04  0.46999998093E+01 0.  1.
       -5    1    3    3    0  502 -0.31035420029E+03  0.78858938184E+03  0.11593518487E+04  0.14360751171E+04  0.46999998093E+01 0. -1.
</event>
<event>
 5   0  0.1725865E-08  0.3700413E+04  0.7818609E-02  0.8067870E-01
       -2   -1    0    0    0  501  0.00000000000E+00  0.00000000000E+00  0.20888285235E+04  0.20888285235E+04  0.25500000920E-02 0.  1.
        2   -1    0    0  501    0  0.00000000000E+00  0.00000000000E+00 -0.16388442802E+04  0.16388442802E+04  0.25500000920E-02 0. -1.
    10030    2    1    2    0    0  0.00000000000E+00  0.00000000000E+00  0.44998424336E+03  0.37276728037E+04  0.37004133164E+04 0.  0.
        1    1    3    3  502    0 -0.21233006184E+03 -0.17977055110E+04 -0.16049579085E+03  0.18173024125E+04  0.50400001928E-02 0. -1.
       -1    1    3    3    0  502  0.21233006184E+03  0.17977055110E+04  0.61048003422E+03  0.19103703912E+04  0.50400001928E-02 0.  1.
</event>
<event>
 5   0  0.5714125E-09  0.3707980E+04  0.7818609E-02  0.8066196E-01
        1   -1    0    0  501    0  0.00000000000E+00  0.00000000000E+00  0.17475874616E+04  0.17475874616E+04  0.50400001928E-02 0.  1.
       -1   -1    0    0    0  501  0.00000000000E+00  0.00000000000E+00 -0.19668709113E+04  0.19668709113E+04  0.50400001928E-02 0. -1.
    10030    2    1    2    0    0  0.00000000000E+00  0.00000000000E+00 -0.21928344965E+03  0.37144583729E+04  0.37079800124E+04 0.  0.
        2    1    3    3  502    0  0.53075333022E+03  0.58669930413E+03  0.15699999174E+04  0.17580713614E+04  0.25500000920E-02 0.  1.
       -2    1    3    3    0  502 -0.53075333022E+03 -0.58669930413E+03 -0.17892833671E+04  0.19563870115E+04  0.25500000920E-02 0. -1.
</event>
<event>
 5   0  0.1825308E-08  0.3693557E+04  0.7818609E-02  0.8069391E-01
       -2   -1    0    0    0  501  0.00000000000E+00  0.00000000000E+00  0.18897391257E+04  0.18897391257E+04  0.25500000920E-02 0.  1.
        2   -1    0    0  501    0  0.00000000000E+00  0.00000000000E+00 -0.18047941980E+04  0.18047941980E+04  0.25500000920E-02 0. -1.
    10030    2    1    2    0    0  0.00000000000E+00  0.00000000000E+00  0.84944927730E+02  0.36945333237E+04  0.36935566653E+04 0.  0.
        4    1    3    3  502    0 -0.12990575330E+04 -0.11897807704E+04  0.59710969788E+03  0.18600189138E+04  0.12699999809E+01 0. -1.
       -4    1    3    3    0  502  0.12990575330E+04  0.11897807704E+04 -0.51216477015E+03  0.18345144099E+04  0.12699999809E+01 0.  1.
</event>
<event>
 5   0  0.5714125E-09  0.3697600E+04  0.7818609E-02  0.8068494E-01
       -1   -1    0    0    0  501  0.00000000000E+00  0.00000000000E+00  0.14827325572E+04  0.14827325572E+04  0.50400001928E-02 0. -1.
        1   -1    0    0  501    0  0.00000000000E+00  0.00000000000E+00 -0.23052453077E+04  0.23052453077E+04  0.50400001928E-02 0.  1.
    10030    2    1    2    0    0  0.00000000000E+00  0.00000000000E+00 -0.82251275051E+03  0.37879778649E+04  0.36976004489E+04 0.  0.
        3    1    3    3  502    0 -0.10936014418E+04  0.14780520168E+04 -0.21297882142E+03  0.18509354031E+04  0.10100000352E+00 0.  1.
       -3    1    3    3    0  502  0.10936014418E+04 -0.14780520168E+04 -0.60953392910E+03  0.19370424618E+04  0.10100000352E+00 0. -1.
</event>
<event>
 5   0  0.1757996E-08  0.3699823E+04  0.7818609E-02  0.8068001E-01
       -2   -1    0    0    0  501  0.00000000000E+00  0.00000000000E+00  0.23275666666E+04  0.23275666666E+04  0.25500000920E-02 0.  1.
        2   -1    0    0  501    0  0.00000000000E+00  0.00000000000E+00 -0.14702793190E+04  0.14702793190E+04  0.25500000920E-02 0. -1.
    10030    2    1    2    0    0  0.00000000000E+00  0.00000000000E+00  0.85728734761E+03  0.37978459855E+04  0.36998233111E+04 0.  0.
        3    1    3    3  502    0  0.15563655799E+04 -0.75610478599E+03  0.11003542080E+04  0.20505481362E+04  0.10100000352E+00 0.  1.
       -3    1    3    3    0  502 -0.15563655799E+04  0.75610478599E+03 -0.24306686038E+03  0.17472978494E+04  0.10100000352E+00 0. -1.
</event>
<event>
 5   0  0.5714125E-09  0.3697658E+04  0.7818609E-02  0.8068481E-01
       -1   -1    0    0    0  501  0.00000000000E+00  0.00000000000E+00  0.10796652357E+04  0.10796652357E+04  0.50400001928E-02 0. -1.
        1   -1    0    0  501    0  0.00000000000E+00  0.00000000000E+00 -0.31659531527E+04  0.31659531527E+04  0.50400001928E-02 0.  1.
    10030    2    1    2    0    0  0.00000000000E+00  0.00000000000E+00 -0.20862879170E+04  0.42456183884E+04  0.36976584790E+04 0.  0.
        4    1    3    3  502    0  0.13046274962E+03  0.13633041397E+04 -0.24691904245E+04  0.28235654184E+04  0.12699999809E+01 0.  1.
       -4    1    3    3    0  502 -0.13046274962E+03 -0.13633041397E+04  0.38290250755E+03  0.14220529700E+04  0.12699999809E+01 0. -1.
</event>
<event>
 5   0  0.1725865E-08  0.3698213E+04  0.7818609E-02  0.8068358E-01
       -2   -1    0    0    0  501  0.00000000000E+00  0.00000000000E+00  0.20367186719E+04  0.20367186719E+04  0.25500000920E-02 0. -1.
        2   -1    0    0  501    0  0.00000000000E+00  0.00000000000E+00 -0.16787766283E+04  0.16787766283E+04  0.25500000920E-02 0.  1.
    10030    2    1    2    0    0  0.00000000000E+00  0.00000000000E+00  0.35794204367E+03  0.37154953002E+04  0.36982134632E+04 0.  0.
        1    1    3    3  502    0  0.76707401085E+03  0.11115461957E+04 -0.10899664922E+04  0.17355012064E+04  0.50400001928E-02 0.  1.
       -1    1    3    3    0  502 -0.76707401085E+03 -0.11115461957E+04  0.14479085358E+04  0.19799940938E+04  0.50400001928E-02 0. -1.
</event>
<event>
 5   0  0.5714125E-09  0.3693906E+04  0.7818609E-02  0.8069314E-01
       -1   -1    0    0    0  501  0.00000000000E+00  0.00000000000E+00  0.19626814864E+04  0.19626814864E+04  0.50400001928E-02 0. -1.
        1   -1    0    0  501    0  0.00000000000E+00  0.00000000000E+00 -0.17380485901E+04  0.17380485901E+04  0.50400001928E-02 0.  1.
    10030    2    1    2    0    0  0.00000000000E+00  0.00000000000E+00  0.22463289633E+03  0.37007300765E+04  0.36939062198E+04 0.  0.
        5    1    3    3  502    0 -0.16078171308E+04 -0.19651707671E+03 -0.77674547959E+03  0.17963993202E+04  0.46999998093E+01 0.  1.
       -5    1    3    3    0  502  0.16078171308E+04  0.19651707671E+03  0.10013783759E+04  0.19043307563E+04  0.46999998093E+01 0. -1.
</event>
<event>
 5   0  0.5714125E-09  0.3702586E+04  0.7818609E-02  0.8067389E-01
       -1   -1    0    0    0  501  0.00000000000E+00  0.00000000000E+00  0.29254788097E+04  0.29254788097E+04  0.50400001928E-02 0. -1.
        1   -1    0    0  501    0  0.00000000000E+00  0.00000000000E+00 -0.11715298348E+04  0.11715298348E+04  0.50400001928E-02 0.  1.
    10030    2    1    2    0    0  0.00000000000E+00  0.00000000000E+00  0.17539489749E+04  0.40970086445E+04  0.37025859648E+04 0.  0.
        4    1    3    3  502    0 -0.44581680848E+03  0.86259006463E+03  0.26211034540E+04  0.27951742657E+04  0.12699999809E+01 0. -1.
       -4    1    3    3    0  502  0.44581680848E+03 -0.86259006463E+03 -0.86715447909E+03  0.13018343788E+04  0.12699999809E+01 0.  1.
</event>
<event>
 5   0  0.1757996E-08  0.3698648E+04  0.7818609E-02  0.8068261E-01
       -2   -1    0    0    0  501  0.00000000000E+00  0.00000000000E+00  0.13515407497E+04  0.13515407497E+04  0.25500000920E-02 0. -1.
        2   -1    0    0  501    0  0.00000000000E+00  0.00000000000E+00 -0.25304453700E+04  0.25304453700E+04  0.25500000920E-02 0.  1.
    10030    2    1    2    0    0  0.00000000000E+00  0.00000000000E+00 -0.11789046204E+04  0.38819861197E+04  0.36986484193E+04 0.  0.
        3    1    3    3  502    0  0.12946273456E+04  0.11264918334E+04 -0.13127843651E+04  0.21606588380E+04  0.10100000352E+00 0.  1.
       -3    1    3    3    0  502 -0.12946273456E+04 -0.11264918334E+04  0.13387974476E+03  0.17213272818E+04  0.10100000352E+00 0. -1.
</event>
<event>
 5   0  0.5714125E-09  0.3699839E+04  0.7818609E-02  0.8067998E-01
        1   -1    0    0  501    0  0.00000000000E+00  0.00000000000E+00  0.24865387467E+04  0.24865387467E+04  0.50400001928E-02 0. -1.
       -1   -1    0    0    0  501  0.00000000000E+00  0.00000000000E+00 -0.13762913063E+04  0.13762913063E+04  0.50400001928E-02 0.  1.
    10030    2    1    2    0    0  0.00000000000E+00  0.00000000000E+00  0.11102474404E+04  0.38628300529E+04  0.36998387315E+04 0.  0.
        5    1    3    3  502    0 -0.14323693901E+04 -0.10923184728E+04  0.99479037742E+03  0.20577832006E+04  0.46999998093E+01 0. -1.
       -5    1    3    3    0  502  0.14323693901E+04  0.10923184728E+04  0.11545706298E+03  0.18050468523E+04  0.46999998093E+01 0.  1.
</event>
<event>
 5   0  0.5714125E-09  0.3691683E+04  0.7818609E-02  0.8069808E-01
       -1   -1    0    0    0  501  0.00000000000E+00  0.00000000000E+00  0.19998874020E+04  0.19998874020E+04  0.50400001928E-02 0. -1.
        1   -1    0    0  501    0  0.00000000000E+00  0.00000000000E+00 -0.17036610998E+04  0.17036610998E+04  0.50400001928E-02 0.  1.
    10030    2    1    2    0    0  0.00000000000E+00  0.00000000000E+00  0.29622630215E+03  0.37035485018E+04  0.36916827441E+04 0.  0.
        3    1    3    3  502    0  0.10184351994E+04  0.38498905151E+03 -0.13472157184E+04  0.17321711888E+04  0.10100000352E+00 0.  1.
       -3    1    3    3    0  502 -0.10184351994E+04 -0.38498905151E+03  0.16434420205E+04  0.19713773130E+04  0.10100000352E+00 0. -1.
</event>
<event>
 5   0  0.5714125E-09  0.3700173E+04  0.7818609E-02  0.8067923E-01
       -1   -1    0    0    0  501  0.00000000000E+00  0.00000000000E+00  0.19563083379E+04  0.19563083379E+04  0.50400001928E-02 0.  1.
        1   -1    0    0  501    0  0.00000000000E+00  0.00000000000E+00 -0.17496321692E+04  0.17496321692E+04  0.50400001928E-02 0. -1.
    10030    2    1    2    0    0  0.00000000000E+00  0.00000000000E+00  0.20667616865E+03  0.37059405071E+04  0.37001729694E+04 0.  0.
        2    1    3    3  502    0 -0.82446672794E+03  0.13298721798E+04 -0.88537570712E+03  0.17978307882E+04  0.25500000920E-02 0. -1.
       -2    1    3    3    0  502  0.82446672794E+03 -0.13298721798E+04  0.10920518758E+04  0.19081097189E+04  0.25500000920E-02 0.  1.
</event>
<event>
 5   0  0.1856107E-08  0.3699668E+04  0.7818609E-02  0.8068035E-01
        2   -1    0    0  501    0  0.00000000000E+00  0.00000000000E+00  0.20832304866E+04  0.20832304866E+04  0.25500000920E-02 0. -1.
       -2   -1    0    0    0  501  0.00000000000E+00  0.00000000000E+00 -0.16425861177E+04  0.16425861177E+04  0.25500000920E-02 0.  1.
    10030    2    1    2    0    0  0.00000000000E+00  0.00000000000E+00  0.44064436893E+03  0.37258166043E+04  0.36996678106E+04 0.  0.
        2    1    3    3  502    0 -0.11037645679E+04  0.14750752102E+04  0.38805985299E+03  0.18827462778E+04  0.25500000920E-02 0. -1.
       -2    1    3    3    0  502  0.11037645679E+04 -0.14750752102E+04  0.52584515940E+02  0.18430703265E+04  0.25500000920E-02 0.  1.
</event>
<event>
 5   0  0.5714125E-09  0.3701331E+04  0.7818609E-02  0.8067667E-01
        1   -1    0    0  501    0  0.00000000000E+00  0.00000000000E+00  0.13179965084E+04  0.13179965084E+04  0.50400001928E-02 0. -1.
       -1   -1    0    0    0  501  0.00000000000E+00  0.00000000000E+00 -0.25986134193E+04  0.25986134193E+04  0.50400001928E-02 0.  1.
    10030    2    1    2    0    0  0.00000000000E+00  0.00000000000E+00 -0.12806169109E+04  0.39166099277E+04  0.37013313353E+04 0.  0.
        2    1    3    3  502    0 -0.12827929264E+04 -0.13197822487E+04 -0.43517625023E+03  0.18912327315E+04  0.25500000920E-02 0. -1.
       -2    1    3    3    0  502  0.12827929264E+04  0.13197822487E+04 -0.84544066069E+03  0.20253771962E+04  0.25500000920E-02 0.  1.
</event>
<event>
 5   0  0.5714125E-09  0.3700569E+04  0.7818609E-02  0.8067836E-01
       -1   -1    0    0    0  501  0.00000000000E+00  0.00000000000E+00  0.28349824476E+04  0.28349824476E+04  0.50400001928E-02 0.  1.
        1   -1    0    0  501    0  0.00000000000E+00  0.00000000000E+00 -0.12076096181E+04  0.12076096181E+04  0.50400001928E-02 0. -1.
    10030    2    1    2    0    0  0.00000000000E+00  0.00000000000E+00  0.16273728295E+04  0.40425920657E+04  0.37005686433E+04 0.  0.
        2    1    3    3  502    0  0.97417550327E+03 -0.12671844100E+04 -0.20454342439E+03  0.16114007114E+04  0.25500000920E-02 0.  1.
       -2    1    3    3    0  502 -0.97417550327E+03  0.12671844100E+04  0.18319162539E+04  0.24311913544E+04  0.25500000920E-02 0. -1.
</event>
<event>
 5   0  0.5714125E-09  0.3699308E+04  0.7818609E-02  0.8068115E-01
       -1   -1    0    0    0  501  0.00000000000E+00  0.00000000000E+00  0.20747109880E+04  0.20747109880E+04  0.50400001928E-02 0.  1.
        1   -1    0    0  501    0  0.00000000000E+00  0.00000000000E+00 -0.16490101228E+04  0.16490101228E+04  0.50400001928E-02 0. -1.
    10030    2    1    2    0    0  0.00000000000E+00  0.00000000000E+00  0.42570086521E+03  0.37237211109E+04  0.36993077305E+04 0.  0.
        3    1    3    3  502    0 -0.83256562178E+02 -0.63058963326E+03 -0.15354608142E+04  0.16619912343E+04  0.10100000352E+00 0. -1.
       -3    1    3    3    0  502  0.83256562178E+02  0.63058963326E+03  0.19611616794E+04  0.20617298765E+04  0.10100000352E+00 0.  1.
</event>
<event>
 5   0  0.1725865E-08  0.3700158E+04  0.7818609E-02  0.8067927E-01
        2   -1    0    0  501    0  0.00000000000E+00  0.00000000000E+00  0.19485985595E+04  0.19485985595E+04  0.25500000920E-02 0.  1.
       -2   -1    0    0    0  501  0.00000000000E+00  0.00000000000E+00 -0.17565403471E+04  0.17565403471E+04  0.25500000920E-02 0. -1.
    10030    2    1    2    0    0  0.00000000000E+00  0.00000000000E+00  0.19205821242E+03  0.37051389065E+04  0.37001578290E+04 0.  0.
        1    1    3    3  502    0 -0.67516656885E+03  0.17144749589E+04 -0.70078831143E+02  0.18439591436E+04  0.50400001928E-02 0.  1.
       -1    1    3    3    0  502  0.67516656885E+03 -0.17144749589E+04  0.26213704357E+03  0.18611797630E+04  0.50400001928E-02 0. -1.
</event>
<event>
 5   0  0.1825308E-08  0.3695190E+04  0.7818609E-02  0.8069029E-01
       -2   -1    0    0    0  501  0.00000000000E+00  0.00000000000E+00  0.12577684978E+04  0.12577684978E+04  0.25500000920E-02 0.  1.
        2   -1    0    0  501    0  0.00000000000E+00  0.00000000000E+00 -0.27140191296E+04  0.27140191296E+04  0.25500000920E-02 0. -1.
    10030    2    1    2    0    0  0.00000000000E+00  0.00000000000E+00 -0.14562506318E+04  0.39717876275E+04  0.36951902597E+04 0.  0.
        4    1    3    3  502    0 -0.16603872681E+04  0.75773540443E+03 -0.41928994961E+03  0.18726597390E+04  0.12699999809E+01 0.  1.
       -4    1    3    3    0  502  0.16603872681E+04 -0.75773540443E+03 -0.10369606822E+04  0.20991278885E+04  0.12699999809E+01 0. -1.
</event>
<event>
 5   0  0.5714125E-09  0.3699916E+04  0.7818609E-02  0.8067980E-01
        1   -1    0    0  501    0  0.00000000000E+00  0.00000000000E+00  0.17821823520E+04  0.17821823520E+04  0.50400001928E-02 0. -1.
       -1   -1    0    0    0  501  0.00000000000E+00  0.00000000000E+00 -0.19203111965E+04  0.19203111965E+04  0.50400001928E-02 0.  1.
    10030    2    1    2    0    0  0.00000000000E+00  0.00000000000E+00 -0.13812884451E+03  0.37024935484E+04  0.36999160664E+04 0.  0.
        1    1    3    3  502    0 -0.13200310339E+04  0.83420280396E+02  0.12252444518E+04  0.18029600218E+04  0.50400001928E-02 0. -1.
       -1    1    3    3    0  502  0.13200310339E+04 -0.83420280396E+02 -0.13633732963E+04  0.18995335266E+04  0.50400001928E-02 0.  1.
</event>
<event>
 5   0  0.1725865E-08  0.3694360E+04  0.7818609E-02  0.8069213E-01
        2   -1    0    0  501    0  0.00000000000E+00  0.00000000000E+00  0.24238134647E+04  0.24238134647E+04  0.25500000920E-02 0.  1.
       -2   -1    0    0    0  501  0.00000000000E+00  0.00000000000E+00 -0.14077296896E+04  0.14077296896E+04  0.25500000920E-02 0. -1.
    10030    2    1    2    0    0  0.00000000000E+00  0.00000000000E+00  0.10160837751E+04  0.38315431542E+04  0.36943601212E+04 0.  0.
        1    1    3    3  502    0 -0.68618021800E+03  0.12727021100E+04  0.17002759934E+04  0.22319391583E+04  0.50400001928E-02 0.  1.
       -1    1    3    3    0  502  0.68618021800E+03 -0.12727021100E+04 -0.68419221829E+03  0.15996039960E+04  0.50400001928E-02 0. -1.
</event>
<event>
 5   0  0.1825308E-08  0.3697512E+04  0.7818609E-02  0.8068513E-01
       -2   -1    0    0    0  501  0.00000000000E+00  0.00000000000E+00  0.12418349110E+04  0.12418349110E+04  0.25500000920E-02 0.  1.
        2   -1    0    0  501    0  0.00000000000E+00  0.00000000000E+00 -0.27522973712E+04  0.27522973712E+04  0.25500000920E-02 0. -1.
    10030    2    1    2    0    0  0.00000000000E+00  0.00000000000E+00 -0.15104624602E+04  0.39941322822E+04  0.36975121155E+04 0.  0.
        4    1    3    3  502    0 -0.14889580308E+04 -0.10195543750E+04 -0.32124261607E+03  0.18329445088E+04  0.12699999809E+01 0.  1.
       -4    1    3    3    0  502  0.14889580308E+04  0.10195543750E+04 -0.11892198441E+04  0.21611877734E+04  0.12699999809E+01 0. -1.
</event>
<event>
 5   0  0.1740290E-08  0.3700983E+04  0.7818609E-02  0.8067744E-01
        2   -1    0    0  501    0  0.00000000000E+00  0.00000000000E+00  0.17107139024E+04  0.17107139024E+04  0.25500000920E-02 0.  1.
       -2   -1    0    0    0  501  0.00000000000E+00  0.00000000000E+00 -0.20016901143E+04  0.20016901143E+04  0.25500000920E-02 0. -1.
    10030    2    1    2    0    0  0.00000000000E+00  0.00000000000E+00 -0.29097621186E+03  0.37124040167E+04  0.37009831703E+04 0.  0.
        5    1    3    3  502    0 -0.11327285208E+03 -0.16489732963E+04 -0.98013353888E+03  0.19216210644E+04  0.46999998093E+01 0. -1.
       -5    1    3    3    0  502  0.11327285208E+03  0.16489732963E+04  0.68915732702E+03  0.17907829523E+04  0.46999998093E+01 0.  1.
</event>
<event>
 5   0  0.1725865E-08  0.3700489E+04  0.7818609E-02  0.8067853E-01
        2   -1    0    0  501    0  0.00000000000E+00  0.00000000000E+00  0.13810256959E+04  0.13810256959E+04  0.25500000920E-02 0.  1.
       -2   -1    0    0    0  501  0.00000000000E+00  0.00000000000E+00 -0.24788854596E+04  0.24788854596E+04  0.25500000920E-02 0. -1.
    10030    2    1    2    0    0  0.00000000000E+00  0.00000000000E+00 -0.10978597637E+04  0.38599111554E+04  0.37004888957E+04 0.  0.
        1    1    3    3  502    0  0.24919339247E+03 -0.86976486121E+03 -0.22324051864E+04  0.24087800184E+04  0.50400001928E-02 0. -1.
       -1    1    3    3    0  502 -0.24919339247E+03  0.86976486121E+03  0.11345454227E+04  0.14511311370E+04  0.50400001928E-02 0.  1.
</event>
<event>
 5   0  0.1740290E-08  0.3700632E+04  0.7818609E-02  0.8067822E-01
       -2   -1    0    0    0  501  0.00000000000E+00  0.00000000000E+00  0.12371666363E+04  0.12371666363E+04  0.25500000920E-02 0.  1.
        2   -1    0    0  501    0  0.00000000000E+00  0.00000000000E+00 -0.27673465660E+04  0.27673465660E+04  0.25500000920E-02 0. -1.
    10030    2    1    2    0    0  0.00000000000E+00  0.00000000000E+00 -0.15301799297E+04  0.40045132022E+04  0.37006317528E+04 0.  0.
        5    1    3    3  502    0 -0.16440551175E+03 -0.15936466488E+04 -0.17667975033E+04  0.23850229183E+04  0.46999998093E+01 0.  1.
       -5    1    3    3    0  502  0.16440551175E+03  0.15936466488E+04  0.23661757357E+03  0.16194902839E+04  0.46999998093E+01 0. -1.
</event>
<event>
 5   0  0.1725865E-08  0.3700377E+04  0.7818609E-02  0.8067878E-01
        2   -1    0    0  501    0  0.00000000000E+00  0.00000000000E+00  0.21006341199E+04  0.21006341199E+04  0.25500000920E-02 0. -1.
       -2   -1    0    0    0  501  0.00000000000E+00  0.00000000000E+00 -0.16296022436E+04  0.16296022436E+04  0.25500000920E-02 0.  1.
    10030    2    1    2    0    0  0.00000000000E+00  0.00000000000E+00  0.47103187636E+03  0.37302363635E+04  0.37003773185E+04 0.  0.
        1    1    3    3  502    0 -0.25864095289E+03 -0.10509604330E+04  0.17482194381E+04  0.20561333075E+04  0.50400001928E-02 0. -1.
       -1    1    3    3    0  502  0.25864095289E+03  0.10509604330E+04 -0.12771875618E+04  0.16741030560E+04  0.50400001928E-02 0.  1.
</event>
<event>
 5   0  0.5714125E-09  0.3706574E+04  0.7818609E-02  0.8066506E-01
       -1   -1    0    0    0  501  0.00000000000E+00  0.00000000000E+00  0.13546080754E+04  0.13546080754E+04  0.50400001928E-02 0.  1.
        1   -1    0    0  501    0  0.00000000000E+00  0.00000000000E+00 -0.25355473381E+04  0.25355473381E+04  0.50400001928E-02 0. -1.
    10030    2    1    2    0    0  0.00000000000E+00  0.00000000000E+00 -0.11809392627E+04  0.38901554134E+04  0.37065741054E+04 0.  0.
        4    1    3    3  502    0 -0.13323012710E+04 -0.12218443137E+04 -0.10190335196E+04  0.20751773733E+04  0.12699999809E+01 0. -1.
       -4    1    3    3    0  502  0.13323012710E+04  0.12218443137E+04 -0.16190574312E+03  0.18149780402E+04  0.12699999809E+01 0.  1.
</event>
<event>
 5   0  0.5714125E-09  0.3700103E+04  0.7818609E-02  0.8067939E-01
        1   -1    0    0  501    0  0.00000000000E+00  0.00000000000E+00  0.20112953353E+04  0.20112953353E+04  0.50400001928E-02 0. -1.
       -1   -1    0    0    0  501  0.00000000000E+00  0.00000000000E+00 -0.17017344489E+04  0.17017344489E+04  0.50400001928E-02 0.  1.
    10030    2    1    2    0    0  0.00000000000E+00  0.00000000000E+00  0.30956088642E+03  0.37130297842E+04  0.37001030035E+04 0.  0.
        3    1    3    3  502    0  0.13131793906E+04  0.21583411878E+03 -0.11348810786E+04  0.17489938683E+04  0.10100000352E+00 0. -1.
       -3    1    3    3    0  502 -0.13131793906E+04 -0.21583411878E+03  0.14444419650E+04  0.19640359159E+04  0.10100000352E+00 0.  1.
</event>
<event>
 5   0  0.1725865E-08  0.3699768E+04  0.7818609E-02  0.8068013E-01
       -2   -1    0    0    0  501  0.00000000000E+00  0.00000000000E+00  0.13889497343E+04  0.13889497343E+04  0.25500000920E-02 0. -1.
        2   -1    0    0  501    0  0.00000000000E+00  0.00000000000E+00 -0.24637828575E+04  0.24637828575E+04  0.25500000920E-02 0.  1.
    10030    2    1    2    0    0  0.00000000000E+00  0.00000000000E+00 -0.10748331232E+04  0.38527325918E+04  0.36997678550E+04 0.  0.
        1    1    3    3  502    0  0.10570383474E+04  0.52733304015E+03 -0.20198830223E+04  0.23399439367E+04  0.50400001928E-02 0.  1.
       -1    1    3    3    0  502 -0.10570383474E+04 -0.52733304015E+03  0.94504989908E+03  0.15127886551E+04  0.50400001928E-02 0. -1.
</event>
<event>
 5   0  0.5714125E-09  0.3706387E+04  0.7818609E-02  0.8066548E-01
        1   -1    0    0  501    0  0.00000000000E+00  0.00000000000E+00  0.15024359857E+04  0.15024359857E+04  0.50400001928E-02 0.  1.
       -1   -1    0    0    0  501  0.00000000000E+00  0.00000000000E+00 -0.22858383623E+04  0.22858383624E+04  0.50400001928E-02 0. -1.
    10030    2    1    2    0    0  0.00000000000E+00  0.00000000000E+00 -0.78340237667E+03  0.37882743480E+04  0.37063868190E+04 0.  0.
        2    1    3    3  502    0 -0.10030839124E+04 -0.49323238737E+03 -0.19024891307E+04  0.22065630323E+04  0.25500000920E-02 0. -1.
       -2    1    3    3    0  502  0.10030839124E+04  0.49323238737E+03  0.11190867540E+04  0.15817113157E+04  0.25500000920E-02 0.  1.
</event>
<event>
 5   0  0.1856107E-08  0.3700139E+04  0.7818609E-02  0.8067931E-01
        2   -1    0    0  501    0  0.00000000000E+00  0.00000000000E+00  0.21462470182E+04  0.21462470182E+04  0.25500000920E-02 0. -1.
       -2   -1    0    0    0  501  0.00000000000E+00  0.00000000000E+00 -0.15947640691E+04  0.15947640691E+04  0.25500000920E-02 0.  1.
    10030    2    1    2    0    0  0.00000000000E+00  0.00000000000E+00  0.55148294903E+03  0.37410110873E+04  0.37001392558E+04 0.  0.
        2    1    3    3  502    0 -0.16039919413E+03  0.15669494591E+04 -0.70538954867E+03  0.17258716419E+04  0.25500000920E-02 0.  1.
       -2    1    3    3    0  502  0.16039919413E+03 -0.15669494591E+04  0.12568724977E+04  0.20151394454E+04  0.25500000920E-02 0. -1.
</event>
<event>
 5   0  0.5714125E-09  0.3699265E+04  0.7818609E-02  0.8068125E-01
       -1   -1    0    0    0  501  0.00000000000E+00  0.00000000000E+00  0.14621606512E+04  0.14621606512E+04  0.50400001928E-02 0.  1.
        1   -1    0    0  501    0  0.00000000000E+00  0.00000000000E+00 -0.23397840031E+04  0.23397840031E+04  0.50400001928E-02 0. -1.
    10030    2    1    2    0    0  0.00000000000E+00  0.00000000000E+00 -0.87762335190E+03  0.38019446544E+04  0.36992648469E+04 0.  0.
        4    1    3    3  502    0  0.12640212732E+04 -0.10512546065E+04  0.43220992741E+03  0.16999097214E+04  0.12699999809E+01 0.  1.
       -4    1    3    3    0  502 -0.12640212732E+04  0.10512546065E+04 -0.13098332793E+04  0.21020349329E+04  0.12699999809E+01 0. -1.
</event>
<event>
 5   0  0.1740290E-08  0.3701280E+04  0.7818609E-02  0.8067678E-01
       -2   -1    0    0    0  501  0.00000000000E+00  0.00000000000E+00  0.13789322412E+04  0.13789322412E+04  0.25500000920E-02 0.  1.
        2   -1    0    0  501    0  0.00000000000E+00  0.00000000000E+00 -0.24837098654E+04  0.24837098654E+04  0.25500000920E-02 0. -1.
    10030    2    1    2    0    0  0.00000000000E+00  0.00000000000E+00 -0.11047776242E+04  0.38626421066E+04  0.37012795685E+04 0.  0.
        5    1    3    3  502    0  0.32889871707E+03 -0.15535320590E+04 -0.15441949236E+04  0.22149935161E+04  0.46999998093E+01 0. -1.
       -5    1    3    3    0  502 -0.32889871707E+03  0.15535320590E+04  0.43941729938E+03  0.16476485904E+04  0.46999998093E+01 0.  1.
</event>
<event>
 5   0  0.5714125E-09  0.3699928E+04  0.7818609E-02  0.8067978E-01
       -1   -1    0    0    0  501  0.00000000000E+00  0.00000000000E+00  0.23223845470E+04  0.23223845470E+04  0.50400001928E-02 0. -1.
        1   -1    0    0  501    0  0.00000000000E+00  0.00000000000E+00 -0.14736432936E+04  0.14736432936E+04  0.50400001928E-02 0.  1.
    10030    2    1    2    0    0  0.00000000000E+00  0.00000000000E+00  0.84874125342E+03  0.37960278406E+04  0.36999277900E+04 0.  0.
        4    1    3    3  502    0  0.48195700658E+03 -0.14295676128E+04 -0.67414886806E+03  0.16523995960E+04  0.12699999809E+01 0. -1.
       -4    1    3    3    0  502 -0.48195700658E+03  0.14295676128E+04  0.15228901215E+04  0.21436282445E+04  0.12699999809E+01 0.  1.
</event>
<event>
 5   0  0.1725865E-08  0.3699774E+04  0.7818609E-02  0.8068012E-01
       -2   -1    0    0    0  501  0.00000000000E+00  0.00000000000E+00  0.13283287935E+04  0.13283287935E+04  0.25500000920E-02 0. -1.
        2   -1    0    0  501    0  0.00000000000E+00  0.00000000000E+00 -0.25762315183E+04  0.25762315183E+04  0.25500000920E-02 0.  1.
    10030    2    1    2    0    0  0.00000000000E+00  0.00000000000E+00 -0.12479027248E+04  0.39045603118E+04  0.36997743198E+04 0.  0.
        1    1    3    3  502    0  0.17009671022E+04  0.59854504479E+03 -0.10597707348E+04  0.20915686132E+04  0.50400001928E-02 0. -1.
       -1    1    3    3    0  502 -0.17009671022E+04 -0.59854504479E+03 -0.18813199000E+03  0.18129916986E+04  0.50400001928E-02 0.  1.
</event>
<event>
 5   0  0.5714125E-09  0.3700063E+04  0.7818609E-02  0.8067948E-01
        1   -1    0    0  501    0  0.00000000000E+00  0.00000000000E+00  0.20070668158E+04  0.20070668158E+04  0.50400001928E-02 0. -1.
       -1   -1    0    0    0  501  0.00000000000E+00  0.00000000000E+00 -0.17052830543E+04  0.17052830543E+04  0.50400001928E-02 0.  1.
    10030    2    1    2    0    0  0.00000000000E+00  0.00000000000E+00  0.30178376151E+03  0.37123498701E+04  0.37000632588E+04 0.  0.
        2    1    3    3  502    0  0.21452509688E+03  0.55274159525E+03 -0.16073750257E+04  0.17132421783E+04  0.25500000920E-02 0.  1.
       -2    1    3    3    0  502 -0.21452509688E+03 -0.55274159525E+03  0.19091587872E+04  0.19991076917E+04  0.25500000920E-02 0. -1.
</event>
<event>
 5   0  0.5714125E-09  0.3699956E+04  0.7818609E-02  0.8067972E-01
       -1   -1    0    0    0  501  0.00000000000E+00  0.00000000000E+00  0.29046438172E+04  0.29046438172E+04  0.50400001928E-02 0. -1.
        1   -1    0    0  501    0  0.00000000000E+00  0.00000000000E+00 -0.11782576742E+04  0.11782576743E+04  0.50400001928E-02 0.  1.
    10030    2    1    2    0    0  0.00000000000E+00  0.00000000000E+00  0.17263861430E+04  0.40829014915E+04  0.36999561449E+04 0.  0.
        2    1    3    3  502    0  0.84347926565E+03 -0.85289891136E+03  0.24173367614E+04  0.26985942345E+04  0.25500000920E-02 0. -1.
       -2    1    3    3    0  502 -0.84347926565E+03  0.85289891136E+03 -0.69095061842E+03  0.13843072570E+04  0.25500000920E-02 0.  1.
</event>
<event>
 5   0  0.5714125E-09  0.3699727E+04  0.7818609E-02  0.8068022E-01
       -1   -1    0    0    0  501  0.00000000000E+00  0.00000000000E+00  0.22129822122E+04  0.22129822122E+04  0.50400001928E-02 0.  1.
        1   -1    0    0  501    0  0.00000000000E+00  0.00000000000E+00 -0.15463277830E+04  0.15463277830E+04  0.50400001928E-02 0. -1.
    10030    2    1    2    0    0  0.00000000000E+00  0.00000000000E+00  0.66665442918E+03  0.37593099952E+04  0.36997274916E+04 0.  0.
        5    1    3    3  502    0  0.13686200032E+04 -0.48045001188E+03 -0.83321254277E+03  0.16727875413E+04  0.46999998093E+01 0. -1.
       -5    1    3    3    0  502 -0.13686200032E+04  0.48045001188E+03  0.14998669719E+04  0.20865224539E+04  0.46999998093E+01 0.  1.
</event>
<event>
 5   0  0.5714125E-09  0.3700366E+04  0.7818609E-02  0.8067881E-01
        1   -1    0    0  501    0  0.00000000000E+00  0.00000000000E+00  0.22087942989E+04  0.22087942989E+04  0.50400001928E-02 0. -1.
       -1   -1    0    0    0  501  0.00000000000E+00  0.00000000000E+00 -0.15497944948E+04  0.15497944948E+04  0.50400001928E-02 0.  1.
    10030    2    1    2    0    0  0.00000000000E+00  0.00000000000E+00  0.65899980415E+03  0.37585887937E+04  0.37003660601E+04 0.  0.
        5    1    3    3  502    0  0.91266966198E+03  0.14647609406E+04  0.10068238300E+04  0.19980507601E+04  0.46999998093E+01 0.  1.
       -5    1    3    3    0  502 -0.91266966198E+03 -0.14647609406E+04 -0.34782402588E+03  0.17605380337E+04  0.46999998093E+01 0. -1.
</event>
<event>
 5   0  0.5714125E-09  0.3699301E+04  0.7818609E-02  0.8068117E-01
        1   -1    0    0  501    0  0.00000000000E+00  0.00000000000E+00  0.13971830556E+04  0.13971830556E+04  0.50400001928E-02 0.  1.
       -1   -1    0    0    0  501  0.00000000000E+00  0.00000000000E+00 -0.24486462567E+04  0.24486462567E+04  0.50400001928E-02 0. -1.
    10030    2    1    2    0    0  0.00000000000E+00  0.00000000000E+00 -0.10514632011E+04  0.38458293123E+04  0.36993010470E+04 0.  0.
        4    1    3    3  502    0  0.67203534395E+03 -0.52245827129E+03  0.11814491480E+04  0.14561654614E+04  0.12699999809E+01 0.  1.
       -4    1    3    3    0  502 -0.67203534395E+03  0.52245827129E+03 -0.22329123491E+04  0.23896638509E+04  0.12699999809E+01 0. -1.
</event>
<event>
 5   0  0.1825308E-08  0.3700641E+04  0.7818609E-02  0.8067820E-01
       -2   -1    0    0    0  501  0.00000000000E+00  0.00000000000E+00  0.26237322533E+04  0.26237322533E+04  0.25500000920E-02 0. -1.
        2   -1    0    0  501    0  0.00000000000E+00  0.00000000000E+00 -0.13048918327E+04  0.13048918327E+04  0.25500000920E-02 0.  1.
    10030    2    1    2    0    0  0.00000000000E+00  0.00000000000E+00  0.13188404206E+04  0.39286240860E+04  0.37006414517E+04 0.  0.
        4    1    3    3  502    0  0.13636189575E+04 -0.23105741933E+03  0.19643070296E+04  0.24023629850E+04  0.12699999809E+01 0. -1.
       -4    1    3    3    0  502 -0.13636189575E+04  0.23105741933E+03 -0.64546660896E+03  0.15262611010E+04  0.12699999809E+01 0.  1.
</event>
<event>
 5   0  0.1725865E-08  0.3701637E+04  0.7818609E-02  0.8067599E-01
        2   -1    0    0  501    0  0.00000000000E+00  0.00000000000E+00  0.10186564611E+04  0.10186564611E+04  0.25500000920E-02 0.  1.
       -2   -1    0    0    0  501  0.00000000000E+00  0.00000000000E+00 -0.33627906629E+04  0.33627906629E+04  0.25500000920E-02 0. -1.
    10030    2    1    2    0    0  0.00000000000E+00  0.00000000000E+00 -0.23441342019E+04  0.43814471240E+04  0.37016366305E+04 0.  0.
        1    1    3    3  502    0  0.13893218285E+04  0.45053209960E+03  0.17351808171E+03  0.14708170656E+04  0.50400001928E-02 0.  1.
       -1    1    3    3    0  502 -0.13893218285E+04 -0.45053209960E+03 -0.25176522836E+04  0.29106300584E+04  0.50400001928E-02 0. -1.
</event>
<event>
 5   0  0.1740290E-08  0.3696171E+04  0.7818609E-02  0.8068811E-01
        2   -1    0    0  501    0  0.00000000000E+00  0.00000000000E+00  0.12378131168E+04  0.12378131168E+04  0.25500000920E-02 0. -1.
       -2   -1    0    0    0  501  0.00000000000E+00  0.00000000000E+00 -0.27592378854E+04  0.27592378854E+04  0.25500000920E-02 0.  1.
    10030    2    1    2    0    0  0.00000000000E+00  0.00000000000E+00 -0.15214247686E+04  0.39970510021E+04  0.36961714499E+04 0.  0.
        5    1    3    3  502    0  0.92931549446E+03  0.12051146071E+04 -0.18946243114E+04  0.24301341271E+04  0.46999998093E+01 0.  1.
       -5    1    3    3    0  502 -0.92931549446E+03 -0.12051146071E+04  0.37319954283E+03  0.15669168750E+04  0.46999998093E+01 0. -1.
</event>
<event>
 5   0  0.1856107E-08  0.3700132E+04  0.7818609E-02  0.8067933E-01
       -2   -1    0    0    0  501  0.00000000000E+00  0.00000000000E+00  0.17330544919E+04  0.17330544919E+04  0.25500000920E-02 0.  1.
        2   -1    0    0  501    0  0.00000000000E+00  0.00000000000E+00 -0.19749781186E+04  0.19749781186E+04  0.25500000920E-02 0. -1.
    10030    2    1    2    0    0  0.00000000000E+00  0.00000000000E+00 -0.24192362664E+03  0.37080326105E+04  0.37001322678E+04 0.  0.
        2    1    3    3  502    0 -0.30018196805E+03  0.15521764475E+04 -0.10839421348E+04  0.19168441485E+04  0.25500000920E-02 0. -1.
       -2    1    3    3    0  502  0.30018196805E+03 -0.15521764475E+04  0.84201850814E+03  0.17911884620E+04  0.25500000920E-02 0.  1.
</event>
<event>
 5   0  0.5714125E-09  0.3701418E+04  0.7818609E-02  0.8067648E-01
        1   -1    0    0  501    0  0.00000000000E+00  0.00000000000E+00  0.17603672306E+04  0.17603672307E+04  0.50400001928E-02 0.  1.
       -1   -1    0    0    0  501  0.00000000000E+00  0.00000000000E+00 -0.19456869653E+04  0.19456869653E+04  0.50400001928E-02 0. -1.
    10030    2    1    2    0    0  0.00000000000E+00  0.00000000000E+00 -0.18531973469E+03  0.37060541960E+04  0.37014178769E+04 0.  0.
        2    1    3    3  502    0 -0.93998934614E+03  0.26821589964E+03 -0.16661256149E+04  0.19317076136E+04  0.25500000920E-02 0. -1.
       -2    1    3    3    0  502  0.93998934614E+03 -0.26821589964E+03  0.14808058802E+04  0.17743465824E+04  0.25500000920E-02 0.  1.
</event>
<event>
 5   0  0.5714125E-09  0.3699348E+04  0.7818609E-02  0.8068106E-01
        1   -1    0    0  501    0  0.00000000000E+00  0.00000000000E+00  0.15837157296E+04  0.15837157296E+04  0.50400001928E-02 0.  1.
       -1   -1    0    0    0  501  0.00000000000E+00  0.00000000000E+00 -0.21602956952E+04  0.21602956952E+04  0.50400001928E-02 0. -1.
    10030    2    1    2    0    0  0.00000000000E+00  0.00000000000E+00 -0.57657996565E+03  0.37440114248E+04  0.36993481983E+04 0.  0.
        1    1    3    3  502    0 -0.13677706406E+04  0.88114420223E+03 -0.11787319473E+04  0.20091342997E+04  0.50400001928E-02 0. -1.
       -1    1    3    3    0  502  0.13677706406E+04 -0.88114420223E+03  0.60215198168E+03  0.17348771252E+04  0.50400001928E-02 0.  1.
</event>
<event>
 5   0  0.1740290E-08  0.3698626E+04  0.7818609E-02  0.8068266E-01
        2   -1    0    0  501    0  0.00000000000E+00  0.00000000000E+00  0.21910837531E+04  0.21910837531E+04  0.25500000920E-02 0. -1.
       -2   -1    0    0    0  501  0.00000000000E+00  0.00000000000E+00 -0.15608528441E+04  0.15608528441E+04  0.25500000920E-02 0.  1.
    10030    2    1    2    0    0  0.00000000000E+00  0.00000000000E+00  0.63023090898E+03  0.37519365972E+04  0.36986263979E+04 0.  0.
        5    1    3    3  502    0 -0.93541619195E+03  0.10001765475E+04  0.15758403218E+04  0.20877383428E+04  0.46999998093E+01 0. -1.
       -5    1    3    3    0  502  0.93541619195E+03 -0.10001765475E+04 -0.94560941281E+03  0.16641982544E+04  0.46999998093E+01 0.  1.
</event>
<event>
 5   0  0.1725865E-08  0.3698544E+04  0.7818609E-02  0.8068285E-01
       -2   -1    0    0    0  501  0.00000000000E+00  0.00000000000E+00  0.18795125386E+04  0.18795125386E+04  0.25500000920E-02 0.  1.
        2   -1    0    0  501    0  0.00000000000E+00  0.00000000000E+00 -0.18195179773E+04  0.18195179773E+04  0.25500000920E-02 0. -1.
    10030    2    1    2    0    0  0.00000000000E+00  0.00000000000E+00  0.59994561318E+02  0.36990305160E+04  0.36985439582E+04 0.  0.
        1    1    3    3  502    0 -0.10347925547E+04 -0.13471127962E+04 -0.70105601623E+03  0.18376583074E+04  0.50400001928E-02 0. -1.
       -1    1    3    3    0  502  0.10347925547E+04  0.13471127962E+04  0.76105057755E+03  0.18613722085E+04  0.50400001928E-02 0.  1.
</event>
<event>
 5   0  0.5714125E-09  0.3699790E+04  0.7818609E-02  0.8068008E-01
       -1   -1    0    0    0  501  0.00000000000E+00  0.00000000000E+00  0.25788254209E+04  0.25788254209E+04  0.50400001928E-02 0.  1.
        1   -1    0    0  501    0  0.00000000000E+00  0.00000000000E+00 -0.13270041323E+04  0.13270041323E+04  0.50400001928E-02 0. -1.
    10030    2    1    2    0    0  0.00000000000E+00  0.00000000000E+00  0.12518212886E+04  0.39058295531E+04  0.36997902589E+04 0.  0.
        5    1    3    3  502    0 -0.14993244244E+04  0.68184915296E+03  0.15149477836E+04  0.22378518437E+04  0.46999998093E+01 0.  1.
       -5    1    3    3    0  502  0.14993244244E+04 -0.68184915296E+03 -0.26312649501E+03  0.16679777095E+04  0.46999998093E+01 0. -1.
</event>
<event>
 5   0  0.5714125E-09  0.3699966E+04  0.7818609E-02  0.8067969E-01
       -1   -1    0    0    0  501  0.00000000000E+00  0.00000000000E+00  0.24294372482E+04  0.24294372482E+04  0.50400001928E-02 0. -1.
        1   -1    0    0  501    0  0.00000000000E+00  0.00000000000E+00 -0.14087364538E+04  0.14087364538E+04  0.50400001928E-02 0.  1.
    10030    2    1    2    0    0  0.00000000000E+00  0.00000000000E+00  0.10207007943E+04  0.38381737020E+04  0.36999658451E+04 0.  0.
        3    1    3    3  502    0  0.12454351274E+04  0.11587181121E+04 -0.24392816444E+03  0.17184985539E+04  0.10100000352E+00 0. -1.
       -3    1    3    3    0  502 -0.12454351274E+04 -0.11587181121E+04  0.12646289588E+04  0.21196751481E+04  0.10100000352E+00 0.  1.
</event>
<event>
 5   0  0.1740290E-08  0.3701500E+04  0.7818609E-02  0.8067630E-01
        2   -1    0    0  501    0  0.00000000000E+00  0.00000000000E+00  0.23382526384E+04  0.23382526384E+04  0.25500000920E-02 0. -1.
       -2   -1    0    0    0  501  0.00000000000E+00  0.00000000000E+00 -0.14648867994E+04  0.14648867994E+04  0.25500000920E-02 0.  1.
    10030    2    1    2    0    0  0.00000000000E+00  0.00000000000E+00  0.87336583902E+03  0.38031394379E+04  0.37014999250E+04 0.  0.
        5    1    3    3  502    0  0.15948532452E+04 -0.58483165305E+03  0.11914761513E+04  0.20749029966E+04  0.46999998093E+01 0. -1.
       -5    1    3    3    0  502 -0.15948532452E+04  0.58483165305E+03 -0.31811031232E+03  0.17282364413E+04  0.46999998093E+01 0.  1.
</event>
<event>
 5   0  0.5714125E-09  0.3698839E+04  0.7818609E-02  0.8068219E-01
        1   -1    0    0  501    0  0.00000000000E+00  0.00000000000E+00  0.18646171025E+04  0.18646171025E+04  0.50400001928E-02 0. -1.
       -1   -1    0    0    0  501  0.00000000000E+00  0.00000000000E+00 -0.18343456541E+04  0.18343456541E+04  0.50400001928E-02 0.  1.
    10030    2    1    2    0    0  0.00000000000E+00  0.00000000000E+00  0.30271448460E+02  0.36989627566E+04  0.36988388873E+04 0.  0.
        3    1    3    3  502    0  0.60626948162E+03 -0.17471619799E+04  0.48600614610E+00  0.18493614884E+04  0.10100000352E+00 0.  1.
       -3    1    3    3    0  502 -0.60626948162E+03  0.17471619799E+04  0.29785442314E+02  0.18496012682E+04  0.10100000352E+00 0. -1.
</event>
<event>
 5   0  0.1757996E-08  0.3700188E+04  0.7818609E-02  0.8067920E-01
        2   -1    0    0  501    0  0.00000000000E+00  0.00000000000E+00  0.27836509322E+04  0.27836509322E+04  0.25500000920E-02 0. -1.
       -2   -1    0    0    0  501  0.00000000000E+00  0.00000000000E+00 -0.12296250558E+04  0.12296250558E+04  0.25500000920E-02 0.  1.
    10030    2    1    2    0    0  0.00000000000E+00  0.00000000000E+00  0.15540258764E+04  0.40132759879E+04  0.37001875264E+04 0.  0.
        3    1    3    3  502    0  0.58252103798E+03 -0.80272676765E+03  0.24709379521E+04  0.26625618109E+04  0.10100000352E+00 0. -1.
       -3    1    3    3    0  502 -0.58252103798E+03  0.80272676765E+03 -0.91691207575E+03  0.13507141770E+04  0.10100000352E+00 0.  1.
</event>
<event>
 5   0  0.5714125E-09  0.3698912E+04  0.7818609E-02  0.8068203E-01
        1   -1    0    0  501    0  0.00000000000E+00  0.00000000000E+00  0.21400714215E+04  0.21400714215E+04  0.50400001928E-02 0. -1.
       -1   -1    0    0    0  501  0.00000000000E+00  0.00000000000E+00 -0.15983050632E+04  0.15983050632E+04  0.50400001928E-02 0.  1.
    10030    2    1    2    0    0  0.00000000000E+00  0.00000000000E+00  0.54176635827E+03  0.37383764848E+04  0.36989117257E+04 0.  0.
        2    1    3    3  502    0 -0.36385835585E+03 -0.15429812740E+04  0.12335704123E+04  0.20087010920E+04  0.25500000920E-02 0. -1.
       -2    1    3    3    0  502  0.36385835585E+03  0.15429812740E+04 -0.69180405401E+03  0.17296753927E+04  0.25500000920E-02 0.  1.
</event>
<event>
 5   0  0.1725865E-08  0.3701791E+04  0.7818609E-02  0.8067565E-01
        2   -1    0    0  501    0  0.00000000000E+00  0.00000000000E+00  0.30199074595E+04  0.30199074596E+04  0.25500000920E-02 0. -1.
       -2   -1    0    0    0  501  0.00000000000E+00  0.00000000000E+00 -0.11344100489E+04  0.11344100489E+04  0.25500000920E-02 0.  1.
    10030    2    1    2    0    0  0.00000000000E+00  0.00000000000E+00  0.18854974107E+04  0.41543175084E+04  0.37017905769E+04 0.  0.
        1    1    3    3  502    0  0.57555714934E+03  0.52732636349E+02  0.29160399611E+04  0.29727656850E+04  0.50400001928E-02 0. -1.
       -1    1    3    3    0  502 -0.57555714934E+03 -0.52732636349E+02 -0.10305425504E+04  0.11815518234E+04  0.50400001928E-02 0.  1.
</event>
<event>
 5   0  0.5714125E-09  0.3699306E+04  0.7818609E-02  0.8068116E-01
        1   -1    0    0  501    0  0.00000000000E+00  0.00000000000E+00  0.16117226945E+04  0.16117226945E+04  0.50400001928E-02 0. -1.
       -1   -1    0    0    0  501  0.00000000000E+00  0.00000000000E+00 -0.21227077774E+04  0.21227077774E+04  0.50400001928E-02 0.  1.
    10030    2    1    2    0    0  0.00000000000E+00  0.00000000000E+00 -0.51098508296E+03  0.37344304719E+04  0.36993060423E+04 0.  0.
        2    1    3    3  502    0 -0.64667421610E+03  0.17210252978E+04 -0.50834588061E+02  0.18392117259E+04  0.25500000920E-02 0.  1.
       -2    1    3    3    0  502  0.64667421610E+03 -0.17210252978E+04 -0.46015049490E+03  0.18952187460E+04  0.25500000920E-02 0. -1.
</event>
<event>
 5   0  0.1825308E-08  0.3691726E+04  0.7818609E-02  0.8069798E-01
       -2   -1    0    0    0  501  0.00000000000E+00  0.00000000000E+00  0.13419743954E+04  0.13419743954E+04  0.25500000920E-02 0.  1.
        2   -1    0    0  501    0  0.00000000000E+00  0.00000000000E+00 -0.25389526226E+04  0.25389526226E+04  0.25500000920E-02 0. -1.
    10030    2    1    2    0    0  0.00000000000E+00  0.00000000000E+00 -0.11969782272E+04  0.38809270179E+04  0.36917255643E+04 0.  0.
        4    1    3    3  502    0  0.11540416699E+04  0.22954204269E+03 -0.20935967371E+04  0.24015933536E+04  0.12699999809E+01 0. -1.
       -4    1    3    3    0  502 -0.11540416699E+04 -0.22954204269E+03  0.89661850993E+03  0.14793336644E+04  0.12699999809E+01 0.  1.
</event>
<event>
 5   0  0.5714125E-09  0.3686301E+04  0.7818609E-02  0.8071004E-01
       -1   -1    0    0    0  501  0.00000000000E+00  0.00000000000E+00  0.15010201625E+04  0.15010201625E+04  0.50400001928E-02 0.  1.
        1   -1    0    0  501    0  0.00000000000E+00  0.00000000000E+00 -0.22632636615E+04  0.22632636615E+04  0.50400001928E-02 0. -1.
    10030    2    1    2    0    0  0.00000000000E+00  0.00000000000E+00 -0.76224349897E+03  0.37642838240E+04  0.36863013382E+04 0.  0.
        4    1    3    3  502    0  0.62978808572E+03  0.15842557723E+04 -0.10964428849E+04  0.20269898859E+04  0.12699999809E+01 0. -1.
       -4    1    3    3    0  502 -0.62978808572E+03 -0.15842557723E+04  0.33419938595E+03  0.17372939381E+04  0.12699999809E+01 0.  1.
</event>
<event>
 5   0  0.5714125E-09  0.3700457E+04  0.7818609E-02  0.8067861E-01
        4   -1    0    0  501    0  0.00000000000E+00  0.00000000000E+00  0.10672014097E+04  0.10672021653E+04  0.12699999809E+01 0. -1.
       -4   -1    0    0    0  501  0.00000000000E+00  0.00000000000E+00 -0.32077758920E+04  0.32077761434E+04  0.12699999809E+01 0.  1.
    10030    2    1    2    0    0  0.00000000000E+00  0.00000000000E+00 -0.21405744823E+04  0.42749783087E+04  0.37004567861E+04 0.  0.
        3    1    3    3  502    0  0.48225179146E+03  0.15085374986E+04 -0.21754116632E+04  0.26908489534E+04  0.10100000352E+00 0.  1.
       -3    1    3    3    0  502 -0.48225179146E+03 -0.15085374986E+04  0.34837180928E+02  0.15841293554E+04  0.10100000352E+00 0. -1.
</event>
<event>
 5   0  0.5714125E-09  0.3699591E+04  0.7818609E-02  0.8068053E-01
        1   -1    0    0  501    0  0.00000000000E+00  0.00000000000E+00  0.14065354872E+04  0.14065354872E+04  0.50400001928E-02 0.  1.
       -1   -1    0    0    0  501  0.00000000000E+00  0.00000000000E+00 -0.24327453983E+04  0.24327453983E+04  0.50400001928E-02 0. -1.
    10030    2    1    2    0    0  0.00000000000E+00  0.00000000000E+00 -0.10262099112E+04  0.38392808855E+04  0.36995906444E+04 0.  0.
        5    1    3    3  502    0 -0.28195986091E+03 -0.87899262455E+03 -0.21766257586E+04  0.23642866112E+04  0.46999998093E+01 0. -1.
       -5    1    3    3    0  502  0.28195986091E+03  0.87899262455E+03  0.11504158474E+04  0.14749942743E+04  0.46999998093E+01 0.  1.
</event>
<event>
 5   0  0.5714125E-09  0.3701092E+04  0.7818609E-02  0.8067720E-01
        1   -1    0    0  501    0  0.00000000000E+00  0.00000000000E+00  0.14614855619E+04  0.14614855619E+04  0.50400001928E-02 0.  1.
       -1   -1    0    0    0  501  0.00000000000E+00  0.00000000000E+00 -0.23431773048E+04  0.23431773048E+04  0.50400001928E-02 0. -1.
    10030    2    1    2    0    0  0.00000000000E+00  0.00000000000E+00 -0.88169174289E+03  0.38046628667E+04  0.37010916227E+04 0.  0.
        2    1    3    3  502    0  0.13722926115E+04 -0.12366916953E+04 -0.32858155377E+03  0.18763153248E+04  0.25500000920E-02 0.  1.
       -2    1    3    3    0  502 -0.13722926115E+04  0.12366916953E+04 -0.55311018912E+03  0.19283475418E+04  0.25500000920E-02 0. -1.
</event>
<event>
 5   0  0.5714125E-09  0.3698601E+04  0.7818609E-02  0.8068272E-01
       -1   -1    0    0    0  501  0.00000000000E+00  0.00000000000E+00  0.14984763737E+04  0.14984763737E+04  0.50400001928E-02 0. -1.
        1   -1    0    0  501    0  0.00000000000E+00  0.00000000000E+00 -0.22822593936E+04  0.22822593936E+04  0.50400001928E-02 0.  1.
    10030    2    1    2    0    0  0.00000000000E+00  0.00000000000E+00 -0.78378301987E+03  0.37807357674E+04  0.36986006976E+04 0.  0.
        3    1    3    3  502    0 -0.86056680940E+03 -0.97309191193E+03  0.95355538110E+03  0.16114437556E+04  0.10100000352E+00 0. -1.
       -3    1    3    3    0  502  0.86056680940E+03  0.97309191193E+03 -0.17373384010E+04  0.21692920117E+04  0.10100000352E+00 0.  1.
</event>
<event>
 5   0  0.5714125E-09  0.3699842E+04  0.7818609E-02  0.8067997E-01
       -1   -1    0    0    0  501  0.00000000000E+00  0.00000000000E+00  0.15679975167E+04  0.15679975167E+04  0.50400001928E-02 0. -1.
        1   -1    0    0  501    0  0.00000000000E+00  0.00000000000E+00 -0.21825343497E+04  0.21825343497E+04  0.50400001928E-02 0.  1.
    10030    2    1    2    0    0  0.00000000000E+00  0.00000000000E+00 -0.61453683303E+03  0.37505318664E+04  0.36998423968E+04 0.  0.
        5    1    3    3  502    0 -0.78548732526E+03  0.14498603259E+04  0.54273076514E+03  0.17359908053E+04  0.46999998093E+01 0. -1.
       -5    1    3    3    0  502  0.78548732526E+03 -0.14498603259E+04 -0.11572675982E+04  0.20145410610E+04  0.46999998093E+01 0.  1.
</event>
<event>
 5   0  0.5714125E-09  0.3699838E+04  0.7818609E-02  0.8067998E-01
        1   -1    0    0  501    0  0.00000000000E+00  0.00000000000E+00  0.12019860589E+04  0.12019860589E+04  0.50400001928E-02 0. -1.
       -1   -1    0    0    0  501  0.00000000000E+00  0.00000000000E+00 -0.28471215050E+04  0.28471215050E+04  0.50400001928E-02 0.  1.
    10030    2    1    2    0    0  0.00000000000E+00  0.00000000000E+00 -0.16451354461E+04  0.40491075638E+04  0.36998380272E+04 0.  0.
        5    1    3    3  502    0 -0.76077226151E+03  0.77950274002E+03  0.81383829748E+03  0.13596888688E+04  0.46999998093E+01 0. -1.
       -5    1    3    3    0  502  0.76077226151E+03 -0.77950274002E+03 -0.24589737436E+04  0.26894186950E+04  0.46999998093E+01 0.  1.
</event>
<event>
 5   0  0.5714125E-09  0.3699927E+04  0.7818609E-02  0.8067978E-01
       -1   -1    0    0    0  501  0.00000000000E+00  0.00000000000E+00  0.27812596129E+04  0.27812596129E+04  0.50400001928E-02 0.  1.
        1   -1    0    0  501    0  0.00000000000E+00  0.00000000000E+00 -0.12305092933E+04  0.12305092933E+04  0.50400001928E-02 0. -1.
    10030    2    1    2    0    0  0.00000000000E+00  0.00000000000E+00  0.15507503196E+04  0.40117689062E+04  0.36999274592E+04 0.  0.
        5    1    3    3  502    0 -0.14381160103E+04 -0.36104369667E+03 -0.42412502323E+03  0.15422173437E+04  0.46999998093E+01 0. -1.
       -5    1    3    3    0  502  0.14381160103E+04  0.36104369667E+03  0.19748753428E+04  0.24695515625E+04  0.46999998093E+01 0.  1.
</event>
<event>
 5   0  0.1825308E-08  0.3698900E+04  0.7818609E-02  0.8068206E-01
        2   -1    0    0  501    0  0.00000000000E+00  0.00000000000E+00  0.26416183021E+04  0.26416183021E+04  0.25500000920E-02 0.  1.
       -2   -1    0    0    0  501  0.00000000000E+00  0.00000000000E+00 -0.12948373100E+04  0.12948373100E+04  0.25500000920E-02 0. -1.
    10030    2    1    2    0    0  0.00000000000E+00  0.00000000000E+00  0.13467809921E+04  0.39364556121E+04  0.36989003427E+04 0.  0.
        4    1    3    3  502    0 -0.10697166992E+04  0.66860211879E+03 -0.76592633872E+03  0.14757938132E+04  0.12699999809E+01 0. -1.
       -4    1    3    3    0  502  0.10697166992E+04 -0.66860211879E+03  0.21127073309E+04  0.24606617989E+04  0.12699999809E+01 0.  1.
</event>
<event>
 5   0  0.5714125E-09  0.3699988E+04  0.7818609E-02  0.8067964E-01
        1   -1    0    0  501    0  0.00000000000E+00  0.00000000000E+00  0.21236594603E+04  0.21236594603E+04  0.50400001928E-02 0.  1.
       -1   -1    0    0    0  501  0.00000000000E+00  0.00000000000E+00 -0.16115944627E+04  0.16115944627E+04  0.50400001928E-02 0. -1.
    10030    2    1    2    0    0  0.00000000000E+00  0.00000000000E+00  0.51206499756E+03  0.37352539230E+04  0.36999880145E+04 0.  0.
        4    1    3    3  502    0 -0.38408630993E+02 -0.51138710158E+03  0.20504682317E+04  0.21136256936E+04  0.12699999809E+01 0.  1.
       -4    1    3    3    0  502  0.38408630993E+02  0.51138710158E+03 -0.15384032341E+04  0.16216282294E+04  0.12699999809E+01 0. -1.
</event>
<event>
 5   0  0.1757996E-08  0.3700411E+04  0.7818609E-02  0.8067871E-01
       -2   -1    0    0    0  501  0.00000000000E+00  0.00000000000E+00  0.13921616643E+04  0.13921616643E+04  0.25500000920E-02 0.  1.
        2   -1    0    0  501    0  0.00000000000E+00  0.00000000000E+00 -0.24589537824E+04  0.24589537824E+04  0.25500000920E-02 0. -1.
    10030    2    1    2    0    0  0.00000000000E+00  0.00000000000E+00 -0.10667921181E+04  0.38511154467E+04  0.37004114313E+04 0.  0.
        3    1    3    3  502    0 -0.11239713556E+04  0.97001602927E+02 -0.20595920652E+04  0.23483271502E+04  0.10100000352E+00 0. -1.
       -3    1    3    3    0  502  0.11239713556E+04 -0.97001602927E+02  0.99279994704E+03  0.15027882965E+04  0.10100000352E+00 0.  1.
</event>
<event>
 5   0  0.1725865E-08  0.3700472E+04  0.7818609E-02  0.8067857E-01
        2   -1    0    0  501    0  0.00000000000E+00  0.00000000000E+00  0.24342668685E+04  0.24342668685E+04  0.25500000920E-02 0. -1.
       -2   -1    0    0    0  501  0.00000000000E+00  0.00000000000E+00 -0.14063265450E+04  0.14063265450E+04  0.25500000920E-02 0.  1.
    10030    2    1    2    0    0  0.00000000000E+00  0.00000000000E+00  0.10279403235E+04  0.38405934135E+04  0.37004724643E+04 0.  0.
        1    1    3    3  502    0 -0.39255845297E+03  0.96099768295E+02  0.23878960361E+04  0.24218556488E+04  0.50400001928E-02 0. -1.
       -1    1    3    3    0  502  0.39255845297E+03 -0.96099768295E+02 -0.13599557127E+04  0.14187377647E+04  0.50400001928E-02 0.  1.
</event>
<event>
 5   0  0.5714125E-09  0.3699545E+04  0.7818609E-02  0.8068063E-01
        1   -1    0    0  501    0  0.00000000000E+00  0.00000000000E+00  0.28104397743E+04  0.28104397743E+04  0.50400001928E-02 0.  1.
       -1   -1    0    0    0  501  0.00000000000E+00  0.00000000000E+00 -0.12174811911E+04  0.12174811911E+04  0.50400001928E-02 0. -1.
    10030    2    1    2    0    0  0.00000000000E+00  0.00000000000E+00  0.15929585832E+04  0.40279209653E+04  0.36995446010E+04 0.  0.
        4    1    3    3  502    0 -0.16164128515E+04 -0.58263711034E+03  0.50539186429E+02  0.17189567566E+04  0.12699999809E+01 0. -1.
       -4    1    3    3    0  502  0.16164128515E+04  0.58263711034E+03  0.15424193968E+04  0.23089642087E+04  0.12699999809E+01 0.  1.
</event>
<event>
 5   0  0.1725865E-08  0.3701919E+04  0.7818609E-02  0.8067537E-01
       -2   -1    0    0    0  501  0.00000000000E+00  0.00000000000E+00  0.13582510208E+04  0.13582510208E+04  0.25500000920E-02 0. -1.
        2   -1    0    0  501    0  0.00000000000E+00  0.00000000000E+00 -0.25223996287E+04  0.25223996287E+04  0.25500000920E-02 0.  1.
    10030    2    1    2    0    0  0.00000000000E+00  0.00000000000E+00 -0.11641486079E+04  0.38806506495E+04  0.37019194322E+04 0.  0.
        1    1    3    3  502    0  0.13318451997E+04  0.46898882606E+03  0.67249027573E+03  0.15639710118E+04  0.50400001928E-02 0. -1.
       -1    1    3    3    0  502 -0.13318451997E+04 -0.46898882606E+03 -0.18366388836E+04  0.23166796377E+04  0.50400001928E-02 0.  1.
</event>
<event>
 5   0  0.1757996E-08  0.3699944E+04  0.7818609E-02  0.8067974E-01
       -2   -1    0    0    0  501  0.00000000000E+00  0.00000000000E+00  0.22587738654E+04  0.22587738654E+04  0.25500000920E-02 0. -1.
        2   -1    0    0  501    0  0.00000000000E+00  0.00000000000E+00 -0.15151564843E+04  0.15151564843E+04  0.25500000920E-02 0.  1.
    10030    2    1    2    0    0  0.00000000000E+00  0.00000000000E+00  0.74361738108E+03  0.37739303498E+04  0.36999437125E+04 0.  0.
        3    1    3    3  502    0  0.11986140087E+04  0.13227092101E+04 -0.12387261795E+03  0.17892958481E+04  0.10100000352E+00 0. -1.
       -3    1    3    3    0  502 -0.11986140087E+04 -0.13227092101E+04  0.86748999903E+03  0.19846345016E+04  0.10100000352E+00 0.  1.
</event>
<event>
 5   0  0.5714125E-09  0.3697919E+04  0.7818609E-02  0.8068423E-01
        1   -1    0    0  501    0  0.00000000000E+00  0.00000000000E+00  0.21345943084E+04  0.21345943084E+04  0.50400001928E-02 0.  1.
       -1   -1    0    0    0  501  0.00000000000E+00  0.00000000000E+00 -0.16015463922E+04  0.16015463922E+04  0.50400001928E-02 0. -1.
    10030    2    1    2    0    0  0.00000000000E+00  0.00000000000E+00  0.53304791618E+03  0.37361407005E+04  0.36979193141E+04 0.  0.
        2    1    3    3  502    0 -0.41438378861E+02 -0.17755079218E+04  0.78614149195E+03  0.19422059532E+04  0.25500000920E-02 0. -1.
       -2    1    3    3    0  502  0.41438378861E+02  0.17755079218E+04 -0.25309357578E+03  0.17939347473E+04  0.25500000920E-02 0.  1.
</event>
<event>
 5   0  0.1757996E-08  0.3699883E+04  0.7818609E-02  0.8067988E-01
        2   -1    0    0  501    0  0.00000000000E+00  0.00000000000E+00  0.14574805119E+04  0.14574805119E+04  0.25500000920E-02 0.  1.
       -2   -1    0    0    0  501  0.00000000000E+00  0.00000000000E+00 -0.23480823825E+04  0.23480823825E+04  0.25500000920E-02 0. -1.
    10030    2    1    2    0    0  0.00000000000E+00  0.00000000000E+00 -0.89060187065E+03  0.38055628944E+04  0.36998834105E+04 0.  0.
        3    1    3    3  502    0  0.12575563106E+04  0.13045402889E+04 -0.61809607748E+02  0.18130343840E+04  0.10100000352E+00 0.  1.
       -3    1    3    3    0  502 -0.12575563106E+04 -0.13045402889E+04 -0.82879226290E+03  0.19925285104E+04  0.10100000352E+00 0. -1.
</event>
<event>
 5   0  0.5714125E-09  0.3700609E+04  0.7818609E-02  0.8067827E-01
        1   -1    0    0  501    0  0.00000000000E+00  0.00000000000E+00  0.16284296234E+04  0.16284296234E+04  0.50400001928E-02 0. -1.
       -1   -1    0    0    0  501  0.00000000000E+00  0.00000000000E+00 -0.21024096735E+04  0.21024096735E+04  0.50400001928E-02 0.  1.
    10030    2    1    2    0    0  0.00000000000E+00  0.00000000000E+00 -0.47398005011E+03  0.37308392969E+04  0.37006087029E+04 0.  0.
        4    1    3    3  502    0  0.11200900405E+04  0.35528182922E+03 -0.16779305550E+04  0.20484822278E+04  0.12699999809E+01 0.  1.
       -4    1    3    3    0  502 -0.11200900405E+04 -0.35528182922E+03  0.12039505049E+04  0.16823570692E+04  0.12699999809E+01 0. -1.
</event>
<event>
 5   0  0.5714125E-09  0.3699941E+04  0.7818609E-02  0.8067975E-01
       -1   -1    0    0    0  501  0.00000000000E+00  0.00000000000E+00  0.16659370046E+04  0.16659370046E+04  0.50400001928E-02 0.  1.
        1   -1    0    0  501    0  0.00000000000E+00  0.00000000000E+00 -0.20543342444E+04  0.20543342444E+04  0.50400001928E-02 0. -1.
    10030    2    1    2    0    0  0.00000000000E+00  0.00000000000E+00 -0.38839723981E+03  0.37202712491E+04  0.36999413172E+04 0.  0.
        2    1    3    3  502    0 -0.47222717131E+03  0.13239253219E+04 -0.14035603007E+04  0.19863932835E+04  0.25500000920E-02 0. -1.
       -2    1    3    3    0  502  0.47222717131E+03 -0.13239253219E+04  0.10151630609E+04  0.17338779655E+04  0.25500000920E-02 0.  1.
</event>
<event>
 5   0  0.5714125E-09  0.3701654E+04  0.7818609E-02  0.8067595E-01
        1   -1    0    0  501    0  0.00000000000E+00  0.00000000000E+00  0.21303757119E+04  0.21303757119E+04  0.50400001928E-02 0.  1.
       -1   -1    0    0    0  501  0.00000000000E+00  0.00000000000E+00 -0.16079608574E+04  0.16079608574E+04  0.50400001928E-02 0. -1.
    10030    2    1    2    0    0  0.00000000000E+00  0.00000000000E+00  0.52241485446E+03  0.37383365693E+04  0.37016540931E+04 0.  0.
        1    1    3    3  502    0 -0.11391734062E+04 -0.13244810665E+04 -0.35607351358E+03  0.17829061927E+04  0.50400001928E-02 0. -1.
       -1    1    3    3    0  502  0.11391734062E+04  0.13244810665E+04  0.87848836804E+03  0.19554303766E+04  0.50400001928E-02 0.  1.
</event>
<event>
 5   0  0.1725865E-08  0.3700227E+04  0.7818609E-02  0.8067911E-01
        2   -1    0    0  501    0  0.00000000000E+00  0.00000000000E+00  0.26822689668E+04  0.26822689668E+04  0.25500000920E-02 0. -1.
       -2   -1    0    0    0  501  0.00000000000E+00  0.00000000000E+00 -0.12761286129E+04  0.12761286129E+04  0.25500000920E-02 0.  1.
    10030    2    1    2    0    0  0.00000000000E+00  0.00000000000E+00  0.14061403538E+04  0.39583975797E+04  0.37002271152E+04 0.  0.
        1    1    3    3  502    0 -0.29029979697E+03  0.16707404829E+04 -0.88323946824E+02  0.16980720989E+04  0.50400001928E-02 0.  1.
       -1    1    3    3    0  502  0.29029979697E+03 -0.16707404829E+04  0.14944643006E+04  0.22603254808E+04  0.50400001928E-02 0. -1.
</event>
<event>
 5   0  0.5714125E-09  0.3698719E+04  0.7818609E-02  0.8068246E-01
       -1   -1    0    0    0  501  0.00000000000E+00  0.00000000000E+00  0.15621201599E+04  0.15621201599E+04  0.50400001928E-02 0. -1.
        1   -1    0    0  501    0  0.00000000000E+00  0.00000000000E+00 -0.21894159649E+04  0.21894159650E+04  0.50400001928E-02 0.  1.
    10030    2    1    2    0    0  0.00000000000E+00  0.00000000000E+00 -0.62729580510E+03  0.37515361248E+04  0.36987191389E+04 0.  0.
        1    1    3    3  502    0  0.24854561751E+02 -0.18218383323E+04 -0.63506124793E+03  0.19295117121E+04  0.50400001928E-02 0. -1.
       -1    1    3    3    0  502 -0.24854561751E+02  0.18218383323E+04  0.77654428390E+01  0.18220244127E+04  0.50400001928E-02 0.  1.
</event>
<event>
 5   0  0.5714125E-09  0.3694167E+04  0.7818609E-02  0.8069256E-01
        1   -1    0    0  501    0  0.00000000000E+00  0.00000000000E+00  0.12155362837E+04  0.12155362837E+04  0.50400001928E-02 0.  1.
       -1   -1    0    0    0  501  0.00000000000E+00  0.00000000000E+00 -0.28067586857E+04  0.28067586857E+04  0.50400001928E-02 0. -1.
    10030    2    1    2    0    0  0.00000000000E+00  0.00000000000E+00 -0.15912224021E+04  0.40222949694E+04  0.36941667650E+04 0.  0.
        4    1    3    3  502    0 -0.41481366432E+03  0.10701753378E+04  0.78012713220E+03  0.13877844159E+04  0.12699999809E+01 0.  1.
       -4    1    3    3    0  502  0.41481366432E+03 -0.10701753378E+04 -0.23713495342E+04  0.26345105535E+04  0.12699999809E+01 0. -1.
</event>
<event>
 5   0  0.1856107E-08  0.3697974E+04  0.7818609E-02  0.8068411E-01
        2   -1    0    0  501    0  0.00000000000E+00  0.00000000000E+00  0.24868348169E+04  0.24868348169E+04  0.25500000920E-02 0.  1.
       -2   -1    0    0    0  501  0.00000000000E+00  0.00000000000E+00 -0.13747405617E+04  0.13747405617E+04  0.25500000920E-02 0. -1.
    10030    2    1    2    0    0  0.00000000000E+00  0.00000000000E+00  0.11120942552E+04  0.38615753786E+04  0.36979738739E+04 0.  0.
        2    1    3    3  502    0 -0.34639558195E+03  0.10933415388E+04 -0.95841429005E+03  0.14946382743E+04  0.25500000920E-02 0. -1.
       -2    1    3    3    0  502  0.34639558195E+03 -0.10933415388E+04  0.20705085453E+04  0.23669371043E+04  0.25500000920E-02 0.  1.
</event>
<event>
 5   0  0.1856107E-08  0.3699655E+04  0.7818609E-02  0.8068038E-01
       -2   -1    0    0    0  501  0.00000000000E+00  0.00000000000E+00  0.29472640564E+04  0.29472640564E+04  0.25500000920E-02 0. -1.
        2   -1    0    0  501    0  0.00000000000E+00  0.00000000000E+00 -0.11610302273E+04  0.11610302273E+04  0.25500000920E-02 0.  1.
    10030    2    1    2    0    0  0.00000000000E+00  0.00000000000E+00  0.17862338292E+04  0.41082942837E+04  0.36996554744E+04 0.  0.
        2    1    3    3  502    0  0.26380748561E+03  0.13172819641E+04 -0.51896591833E+03  0.14401915799E+04  0.25500000920E-02 0.  1.
       -2    1    3    3    0  502 -0.26380748561E+03 -0.13172819641E+04  0.23051997475E+04  0.26681027038E+04  0.25500000920E-02 0. -1.
</event>
<event>
 5   0  0.1740290E-08  0.3701555E+04  0.7818609E-02  0.8067617E-01
       -2   -1    0    0    0  501  0.00000000000E+00  0.00000000000E+00  0.14728915006E+04  0.14728915006E+04  0.25500000920E-02 0.  1.
        2   -1    0    0  501    0  0.00000000000E+00  0.00000000000E+00 -0.23256145118E+04  0.23256145118E+04  0.25500000920E-02 0. -1.
    10030    2    1    2    0    0  0.00000000000E+00  0.00000000000E+00 -0.85272301117E+03  0.37985060123E+04  0.37015552666E+04 0.  0.
        5    1    3    3  502    0 -0.58925841424E+03 -0.11660967968E+04 -0.17715532990E+04  0.22012338357E+04  0.46999998093E+01 0. -1.
       -5    1    3    3    0  502  0.58925841424E+03  0.11660967968E+04  0.91883028783E+03  0.15972721766E+04  0.46999998093E+01 0.  1.
</event>
<event>
 5   0  0.1725865E-08  0.3698614E+04  0.7818609E-02  0.8068269E-01
        2   -1    0    0  501    0  0.00000000000E+00  0.00000000000E+00  0.25805786857E+04  0.25805786857E+04  0.25500000920E-02 0.  1.
       -2   -1    0    0    0  501  0.00000000000E+00  0.00000000000E+00 -0.13252593760E+04  0.13252593760E+04  0.25500000920E-02 0. -1.
    10030    2    1    2    0    0  0.00000000000E+00  0.00000000000E+00  0.12553193097E+04  0.39058380617E+04  0.36986138478E+04 0.  0.
        1    1    3    3  502    0 -0.10548189030E+03 -0.67943459329E+02  0.25760786360E+04  0.25791323894E+04  0.50400001928E-02 0.  1.
       -1    1    3    3    0  502  0.10548189030E+03  0.67943459329E+02 -0.13207593264E+04  0.13267056724E+04  0.50400001928E-02 0. -1.
</event>
<event>
 5   0  0.5714125E-09  0.3692137E+04  0.7818609E-02  0.8069707E-01
       -1   -1    0    0    0  501  0.00000000000E+00  0.00000000000E+00  0.21424793225E+04  0.21424793225E+04  0.50400001928E-02 0.  1.
        1   -1    0    0  501    0  0.00000000000E+00  0.00000000000E+00 -0.15906658411E+04  0.15906658411E+04  0.50400001928E-02 0. -1.
    10030    2    1    2    0    0  0.00000000000E+00  0.00000000000E+00  0.55181348142E+03  0.37331451637E+04  0.36921368738E+04 0.  0.
        3    1    3    3  502    0  0.10257134457E+04 -0.58757518260E+03 -0.11578115037E+04  0.16546480460E+04  0.10100000352E+00 0. -1.
       -3    1    3    3    0  502 -0.10257134457E+04  0.58757518260E+03  0.17096249851E+04  0.20784971176E+04  0.10100000352E+00 0.  1.
</event>
<event>
 5   0  0.1825308E-08  0.3698861E+04  0.7818609E-02  0.8068214E-01
       -2   -1    0    0    0  501  0.00000000000E+00  0.00000000000E+00  0.14935105123E+04  0.14935105123E+04  0.25500000920E-02 0. -1.
        2   -1    0    0  501    0  0.00000000000E+00  0.00000000000E+00 -0.22901701067E+04  0.22901701067E+04  0.25500000920E-02 0.  1.
    10030    2    1    2    0    0  0.00000000000E+00  0.00000000000E+00 -0.79665959445E+03  0.37836806190E+04  0.36988609757E+04 0.  0.
        4    1    3    3  502    0 -0.16956086825E+04 -0.18089904635E+03 -0.11306930550E+04  0.20460404851E+04  0.12699999809E+01 0.  1.
       -4    1    3    3    0  502  0.16956086825E+04  0.18089904635E+03  0.33403346058E+03  0.17376401339E+04  0.12699999809E+01 0. -1.
</event>
<event>
 5   0  0.1740290E-08  0.3698805E+04  0.7818609E-02  0.8068227E-01
       -2   -1    0    0    0  501  0.00000000000E+00  0.00000000000E+00  0.18512883374E+04  0.18512883374E+04  0.25500000920E-02 0. -1.
        2   -1    0    0  501    0  0.00000000000E+00  0.00000000000E+00 -0.18475188778E+04  0.18475188778E+04  0.25500000920E-02 0.  1.
    10030    2    1    2    0    0  0.00000000000E+00  0.00000000000E+00  0.37694595681E+01  0.36988072152E+04  0.36988052944E+04 0.  0.
        5    1    3    3  502    0 -0.81012596027E+03  0.81233598076E+02  0.16624171614E+04  0.18510958585E+04  0.46999998093E+01 0. -1.
       -5    1    3    3    0  502  0.81012596027E+03 -0.81233598076E+02 -0.16586477018E+04  0.18477113567E+04  0.46999998093E+01 0.  1.
</event>
<event>
 5   0  0.1757996E-08  0.3700050E+04  0.7818609E-02  0.8067951E-01
       -2   -1    0    0    0  501  0.00000000000E+00  0.00000000000E+00  0.18685991580E+04  0.18685991580E+04  0.25500000920E-02 0. -1.
        2   -1    0    0  501    0  0.00000000000E+00  0.00000000000E+00 -0.18316358608E+04  0.18316358608E+04  0.25500000920E-02 0.  1.
    10030    2    1    2    0    0  0.00000000000E+00  0.00000000000E+00  0.36963297195E+02  0.37002350189E+04  0.37000503928E+04 0.  0.
        3    1    3    3  502    0  0.80143897142E+03  0.15024626182E+04 -0.70466913612E+03  0.18428936339E+04  0.10100000352E+00 0.  1.
       -3    1    3    3    0  502 -0.80143897142E+03 -0.15024626182E+04  0.74163243332E+03  0.18573413850E+04  0.10100000352E+00 0. -1.
</event>
<event>
 5   0  0.5714125E-09  0.3711375E+04  0.7818609E-02  0.8065446E-01
        1   -1    0    0  501    0  0.00000000000E+00  0.00000000000E+00  0.18022820667E+04  0.18022820667E+04  0.50400001928E-02 0.  1.
       -1   -1    0    0    0  501  0.00000000000E+00  0.00000000000E+00 -0.19106754204E+04  0.19106754204E+04  0.50400001928E-02 0. -1.
    10030    2    1    2    0    0  0.00000000000E+00  0.00000000000E+00 -0.10839335368E+03  0.37129574871E+04  0.37113749718E+04 0.  0.
        1    1    3    3  502    0 -0.15258797872E+04 -0.57573697071E+03  0.83150215256E+03  0.18306223025E+04  0.50400001928E-02 0.  1.
       -1    1    3    3    0  502  0.15258797872E+04  0.57573697071E+03 -0.93989550624E+03  0.18823351846E+04  0.50400001928E-02 0. -1.
</event>
<event>
 5   0  0.5714125E-09  0.3699722E+04  0.7818609E-02  0.8068023E-01
       -1   -1    0    0    0  501  0.00000000000E+00  0.00000000000E+00  0.18497567876E+04  0.18497567876E+04  0.50400001928E-02 0.  1.
        1   -1    0    0  501    0  0.00000000000E+00  0.00000000000E+00 -0.18499655349E+04  0.18499655349E+04  0.50400001928E-02 0. -1.
    10030    2    1    2    0    0  0.00000000000E+00  0.00000000000E+00 -0.20874731497E+00  0.36997223226E+04  0.36997223167E+04 0.  0.
        2    1    3    3  502    0  0.60770578261E+03  0.73389763733E+03 -0.15856876269E+04  0.18499506237E+04  0.25500000920E-02 0. -1.
       -2    1    3    3    0  502 -0.60770578261E+03 -0.73389763733E+03  0.15854788796E+04  0.18497716988E+04  0.25500000920E-02 0.  1.
</event>
<event>
 5   0  0.5714125E-09  0.3701070E+04  0.7818609E-02  0.8067725E-01
       -1   -1    0    0    0  501  0.00000000000E+00  0.00000000000E+00  0.13369075084E+04  0.13369075084E+04  0.50400001928E-02 0. -1.
        1   -1    0    0  501    0  0.00000000000E+00  0.00000000000E+00 -0.25614927617E+04  0.25614927617E+04  0.50400001928E-02 0.  1.
    10030    2    1    2    0    0  0.00000000000E+00  0.00000000000E+00 -0.12245852533E+04  0.38984002701E+04  0.37010695243E+04 0.  0.
        2    1    3    3  502    0 -0.16031599906E+04  0.87356927927E+03 -0.93044615609E+03  0.20491401344E+04  0.25500000920E-02 0.  1.
       -2    1    3    3    0  502  0.16031599906E+04 -0.87356927927E+03 -0.29413909717E+03  0.18492601357E+04  0.25500000920E-02 0. -1.
</event>
<event>
 5   0  0.1856107E-08  0.3698624E+04  0.7818609E-02  0.8068267E-01
        2   -1    0    0  501    0  0.00000000000E+00  0.00000000000E+00  0.27763397819E+04  0.27763397819E+04  0.25500000920E-02 0.  1.
       -2   -1    0    0    0  501  0.00000000000E+00  0.00000000000E+00 -0.12318213106E+04  0.12318213106E+04  0.25500000920E-02 0. -1.
    10030    2    1    2    0    0  0.00000000000E+00  0.00000000000E+00  0.15445184713E+04  0.40081610926E+04  0.36986238030E+04 0.  0.
        2    1    3    3  502    0  0.63532383773E+03 -0.71624386852E+03 -0.94233978819E+03  0.13433711082E+04  0.25500000920E-02 0. -1.
       -2    1    3    3    0  502 -0.63532383773E+03  0.71624386852E+03  0.24868582595E+04  0.26647899844E+04  0.25500000920E-02 0.  1.
</event>
<event>
 5   0  0.1825308E-08  0.3700336E+04  0.7818609E-02  0.8067887E-01
        2   -1    0    0  501    0  0.00000000000E+00  0.00000000000E+00  0.26104730597E+04  0.26104730597E+04  0.25500000920E-02 0.  1.
       -2   -1    0    0    0  501  0.00000000000E+00  0.00000000000E+00 -0.13113034038E+04  0.13113034038E+04  0.25500000920E-02 0. -1.
    10030    2    1    2    0    0  0.00000000000E+00  0.00000000000E+00  0.12991696560E+04  0.39217764635E+04  0.37003363137E+04 0.  0.
        4    1    3    3  502    0  0.17748747384E+04 -0.51870981141E+03  0.58356424809E+03  0.19390175477E+04  0.12699999809E+01 0. -1.
       -4    1    3    3    0  502 -0.17748747384E+04  0.51870981141E+03  0.71560540787E+03  0.19827589158E+04  0.12699999809E+01 0.  1.
</event>
<event>
 5   0  0.1740290E-08  0.3699213E+04  0.7818609E-02  0.8068136E-01
        2   -1    0    0  501    0  0.00000000000E+00  0.00000000000E+00  0.22619433343E+04  0.22619433343E+04  0.25500000920E-02 0. -1.
       -2   -1    0    0    0  501  0.00000000000E+00  0.00000000000E+00 -0.15124361326E+04  0.15124361326E+04  0.25500000920E-02 0.  1.
    10030    2    1    2    0    0  0.00000000000E+00  0.00000000000E+00  0.74950720174E+03  0.37743794669E+04  0.36992133372E+04 0.  0.
        5    1    3    3  502    0 -0.40409563896E+03  0.18020553295E+04  0.27107165551E+03  0.18666008219E+04  0.46999998093E+01 0.  1.
       -5    1    3    3    0  502  0.40409563896E+03 -0.18020553295E+04  0.47843554623E+03  0.19077786449E+04  0.46999998093E+01 0. -1.
</event>
<event>
 5   0  0.5714125E-09  0.3713932E+04  0.7818609E-02  0.8064881E-01
        1   -1    0    0  501    0  0.00000000000E+00  0.00000000000E+00  0.26074598271E+04  0.26074598271E+04  0.50400001928E-02 0. -1.
       -1   -1    0    0    0  501  0.00000000000E+00  0.00000000000E+00 -0.13224836365E+04  0.13224836365E+04  0.50400001928E-02 0.  1.
    10030    2    1    2    0    0  0.00000000000E+00  0.00000000000E+00  0.12849761907E+04  0.39299434636E+04  0.37139321233E+04 0.  0.
        1    1    3    3  502    0 -0.63589472064E+03  0.27085590986E+03  0.24662757760E+04  0.25612967854E+04  0.50400001928E-02 0. -1.
       -1    1    3    3    0  502  0.63589472064E+03 -0.27085590986E+03 -0.11812995853E+04  0.13686466782E+04  0.50400001928E-02 0.  1.
</event>
<event>
 5   0  0.5714125E-09  0.3701222E+04  0.7818609E-02  0.8067691E-01
        1   -1    0    0  501    0  0.00000000000E+00  0.00000000000E+00  0.24607005941E+04  0.24607005941E+04  0.50400001928E-02 0.  1.
       -1   -1    0    0    0  501  0.00000000000E+00  0.00000000000E+00 -0.13917831861E+04  0.13917831861E+04  0.50400001928E-02 0. -1.
    10030    2    1    2    0    0  0.00000000000E+00  0.00000000000E+00  0.10689174080E+04  0.38524837802E+04  0.37012223456E+04 0.  0.
        4    1    3    3  502    0 -0.14386033023E+04  0.89555183537E+03  0.13086066943E+04  0.21410384501E+04  0.12699999809E+01 0. -1.
       -4    1    3    3    0  502  0.14386033023E+04 -0.89555183537E+03 -0.23968928633E+03  0.17114453302E+04  0.12699999809E+01 0.  1.
</event>
<event>
 5   0  0.1856107E-08  0.3699451E+04  0.7818609E-02  0.8068084E-01
       -2   -1    0    0    0  501  0.00000000000E+00  0.00000000000E+00  0.15550857340E+04  0.15550857340E+04  0.25500000920E-02 0.  1.
        2   -1    0    0  501    0  0.00000000000E+00  0.00000000000E+00 -0.22001896559E+04  0.22001896559E+04  0.25500000920E-02 0. -1.
    10030    2    1    2    0    0  0.00000000000E+00  0.00000000000E+00 -0.64510392195E+03  0.37552753899E+04  0.36994505246E+04 0.  0.
        2    1    3    3  502    0  0.40821283942E+03 -0.17837215438E+04 -0.59715826060E+03  0.19248112262E+04  0.25500000920E-02 0. -1.
       -2    1    3    3    0  502 -0.40821283942E+03  0.17837215438E+04 -0.47945661348E+02  0.18304641637E+04  0.25500000920E-02 0.  1.
</event>
<event>
 5   0  0.1725865E-08  0.3702497E+04  0.7818609E-02  0.8067409E-01
        2   -1    0    0  501    0  0.00000000000E+00  0.00000000000E+00  0.18460629528E+04  0.18460629528E+04  0.25500000920E-02 0. -1.
       -2   -1    0    0    0  501  0.00000000000E+00  0.00000000000E+00 -0.18564490944E+04  0.18564490944E+04  0.25500000920E-02 0.  1.
    10030    2    1    2    0    0  0.00000000000E+00  0.00000000000E+00 -0.10386141656E+02  0.37025120472E+04  0.37024974798E+04 0.  0.
        1    1    3    3  502    0 -0.93201011794E+03  0.67437367255E+03  0.14452260895E+04  0.18471873646E+04  0.50400001928E-02 0. -1.
       -1    1    3    3    0  502  0.93201011794E+03 -0.67437367255E+03 -0.14556122312E+04  0.18553246826E+04  0.50400001928E-02 0.  1.
</event>
<event>
 5   0  0.1725865E-08  0.3699921E+04  0.7818609E-02  0.8067979E-01
        2   -1    0    0  501    0  0.00000000000E+00  0.00000000000E+00  0.20962880587E+04  0.20962880587E+04  0.25500000920E-02 0. -1.
       -2   -1    0    0    0  501  0.00000000000E+00  0.00000000000E+00 -0.16325778001E+04  0.16325778001E+04  0.25500000920E-02 0.  1.
    10030    2    1    2    0    0  0.00000000000E+00  0.00000000000E+00  0.46371025859E+03  0.37288658587E+04  0.36999207273E+04 0.  0.
        1    1    3    3  502    0  0.17618971791E+04  0.38406131033E+03 -0.18437533881E+03  0.18126717920E+04  0.50400001928E-02 0.  1.
       -1    1    3    3    0  502 -0.17618971791E+04 -0.38406131033E+03  0.64808559739E+03  0.19161940667E+04  0.50400001928E-02 0. -1.
</event>
<event>
 5   0  0.5714125E-09  0.3699909E+04  0.7818609E-02  0.8067982E-01
        1   -1    0    0  501    0  0.00000000000E+00  0.00000000000E+00  0.21822055032E+04  0.21822055032E+04  0.50400001928E-02 0. -1.
       -1   -1    0    0    0  501  0.00000000000E+00  0.00000000000E+00 -0.15682900493E+04  0.15682900493E+04  0.50400001928E-02 0.  1.
    10030    2    1    2    0    0  0.00000000000E+00  0.00000000000E+00  0.61391545390E+03  0.37504955525E+04  0.36999087428E+04 0.  0.
        2    1    3    3  502    0  0.82176241719E+03  0.24560628452E+03 -0.13545733295E+04  0.16032731589E+04  0.25500000920E-02 0.  1.
       -2    1    3    3    0  502 -0.82176241719E+03 -0.24560628452E+03  0.19684887833E+04  0.21472223936E+04  0.25500000920E-02 0. -1.
</event>
<event>
 5   0  0.1740290E-08  0.3693517E+04  0.7818609E-02  0.8069400E-01
       -2   -1    0    0    0  501  0.00000000000E+00  0.00000000000E+00  0.16230712150E+04  0.16230712150E+04  0.25500000920E-02 0.  1.
        2   -1    0    0  501    0  0.00000000000E+00  0.00000000000E+00 -0.21012740542E+04  0.21012740542E+04  0.25500000920E-02 0. -1.
    10030    2    1    2    0    0  0.00000000000E+00  0.00000000000E+00 -0.47820283919E+03  0.37243452692E+04  0.36935172572E+04 0.  0.
        5    1    3    3  502    0 -0.92416499478E+03 -0.62537614636E+03  0.12446828234E+04  0.16716559702E+04  0.46999998093E+01 0.  1.
       -5    1    3    3    0  502  0.92416499478E+03  0.62537614636E+03 -0.17228856625E+04  0.20526892990E+04  0.46999998093E+01 0. -1.
</event>
<event>
 5   0  0.5714125E-09  0.3699524E+04  0.7818609E-02  0.8068067E-01
        1   -1    0    0  501    0  0.00000000000E+00  0.00000000000E+00  0.15316263202E+04  0.15316263202E+04  0.50400001928E-02 0. -1.
       -1   -1    0    0    0  501  0.00000000000E+00  0.00000000000E+00 -0.22339773832E+04  0.22339773832E+04  0.50400001928E-02 0.  1.
    10030    2    1    2    0    0  0.00000000000E+00  0.00000000000E+00 -0.70235106306E+03  0.37656037034E+04  0.36995235146E+04 0.  0.
        4    1    3    3  502    0 -0.94077530033E+03  0.85368598334E+03  0.10173770605E+04  0.16275428166E+04  0.12699999809E+01 0. -1.
       -4    1    3    3    0  502  0.94077530033E+03 -0.85368598334E+03 -0.17197281235E+04  0.21380608868E+04  0.12699999809E+01 0.  1.
</event>
<event>
 5   0  0.5714125E-09  0.3702799E+04  0.7818609E-02  0.8067342E-01
        1   -1    0    0  501    0  0.00000000000E+00  0.00000000000E+00  0.28673261625E+04  0.28673261625E+04  0.50400001928E-02 0. -1.
       -1   -1    0    0    0  501  0.00000000000E+00  0.00000000000E+00 -0.11954275212E+04  0.11954275212E+04  0.50400001928E-02 0.  1.
    10030    2    1    2    0    0  0.00000000000E+00  0.00000000000E+00  0.16718986413E+04  0.40627536837E+04  0.37027992692E+04 0.  0.
        1    1    3    3  502    0  0.17732273255E+04  0.49156968536E+03  0.10600188708E+04  0.21235856258E+04  0.50400001928E-02 0. -1.
       -1    1    3    3    0  502 -0.17732273255E+04 -0.49156968536E+03  0.61187977048E+03  0.19391680579E+04  0.50400001928E-02 0.  1.
</event>
<event>
 5   0  0.5714125E-09  0.3704328E+04  0.7818609E-02  0.8067003E-01
        1   -1    0    0  501    0  0.00000000000E+00  0.00000000000E+00  0.24473487248E+04  0.24473487248E+04  0.50400001928E-02 0. -1.
       -1   -1    0    0    0  501  0.00000000000E+00  0.00000000000E+00 -0.14017258102E+04  0.14017258103E+04  0.50400001928E-02 0.  1.
    10030    2    1    2    0    0  0.00000000000E+00  0.00000000000E+00  0.10456229146E+04  0.38490745351E+04  0.37043282113E+04 0.  0.
        1    1    3    3  502    0 -0.14050259345E+04 -0.11822494128E+04  0.27106283113E+03  0.18561483263E+04  0.50400001928E-02 0.  1.
       -1    1    3    3    0  502  0.14050259345E+04  0.11822494128E+04  0.77456008344E+03  0.19929262088E+04  0.50400001928E-02 0. -1.
</event>
<event>
 5   0  0.5714125E-09  0.3699882E+04  0.7818609E-02  0.8067988E-01
       -1   -1    0    0    0  501  0.00000000000E+00  0.00000000000E+00  0.18105251766E+04  0.18105251766E+04  0.50400001928E-02 0. -1.
        1   -1    0    0  501    0  0.00000000000E+00  0.00000000000E+00 -0.18902144249E+04  0.18902144249E+04  0.50400001928E-02 0.  1.
    10030    2    1    2    0    0  0.00000000000E+00  0.00000000000E+00 -0.79689248320E+02  0.37007396015E+04  0.36998815145E+04 0.  0.
        2    1    3    3  502    0  0.53706035537E+03 -0.15301298994E+04  0.85061432167E+03  0.18311952541E+04  0.25500000920E-02 0. -1.
       -2    1    3    3    0  502 -0.53706035537E+03  0.15301298994E+04 -0.93030356999E+03  0.18695443474E+04  0.25500000920E-02 0.  1.
</event>
<event>
 5   0  0.5714125E-09  0.3699268E+04  0.7818609E-02  0.8068124E-01
       -1   -1    0    0    0  501  0.00000000000E+00  0.00000000000E+00  0.12032643696E+04  0.12032643696E+04  0.50400001928E-02 0.  1.
        1   -1    0    0  501    0  0.00000000000E+00  0.00000000000E+00 -0.28432207405E+04  0.28432207405E+04  0.50400001928E-02 0. -1.
    10030    2    1    2    0    0  0.00000000000E+00  0.00000000000E+00 -0.16399563709E+04  0.40464851102E+04  0.36992681504E+04 0.  0.
        3    1    3    3  502    0 -0.60590301223E+03 -0.10106142077E+04 -0.23795211806E+04  0.26552929398E+04  0.10100000352E+00 0. -1.
       -3    1    3    3    0  502  0.60590301223E+03  0.10106142077E+04  0.73956480966E+03  0.13911921704E+04  0.10100000352E+00 0.  1.
</event>
<event>
 5   0  0.1757996E-08  0.3691297E+04  0.7818609E-02  0.8069893E-01
       -2   -1    0    0    0  501  0.00000000000E+00  0.00000000000E+00  0.14139043917E+04  0.14139043917E+04  0.25500000920E-02 0.  1.
        2   -1    0    0  501    0  0.00000000000E+00  0.00000000000E+00 -0.24092281381E+04  0.24092281381E+04  0.25500000920E-02 0. -1.
    10030    2    1    2    0    0  0.00000000000E+00  0.00000000000E+00 -0.99532374636E+03  0.38231325299E+04  0.36912969239E+04 0.  0.
        3    1    3    3  502    0 -0.75719542246E+03 -0.16468239325E+04 -0.85800187528E+03  0.20053780693E+04  0.10100000352E+00 0.  1.
       -3    1    3    3    0  502  0.75719542246E+03  0.16468239325E+04 -0.13732187107E+03  0.18177544606E+04  0.10100000352E+00 0. -1.
</event>
<event>
 5   0  0.5714125E-09  0.3699907E+04  0.7818609E-02  0.8067983E-01
        1   -1    0    0  501    0  0.00000000000E+00  0.00000000000E+00  0.11122149363E+04  0.11122149363E+04  0.50400001928E-02 0. -1.
       -1   -1    0    0    0  501  0.00000000000E+00  0.00000000000E+00 -0.30770374842E+04  0.30770374842E+04  0.50400001928E-02 0.  1.
    10030    2    1    2    0    0  0.00000000000E+00  0.00000000000E+00 -0.19648225480E+04  0.41892524205E+04  0.36999065121E+04 0.  0.
        3    1    3    3  502    0  0.14503156124E+03  0.88273080749E+03 -0.28158596324E+04  0.29545411338E+04  0.10100000352E+00 0.  1.
       -3    1    3    3    0  502 -0.14503156124E+03 -0.88273080749E+03  0.85103708440E+03  0.12347112867E+04  0.10100000352E+00 0. -1.
</event>
<event>
 5   0  0.1825308E-08  0.3700115E+04  0.7818609E-02  0.8067936E-01
        2   -1    0    0  501    0  0.00000000000E+00  0.00000000000E+00  0.21463493411E+04  0.21463493411E+04  0.25500000920E-02 0.  1.
       -2   -1    0    0    0  501  0.00000000000E+00  0.00000000000E+00 -0.15946669433E+04  0.15946669433E+04  0.25500000920E-02 0. -1.
    10030    2    1    2    0    0  0.00000000000E+00  0.00000000000E+00  0.55168239780E+03  0.37410162844E+04  0.37001147782E+04 0.  0.
        4    1    3    3  502    0 -0.97322051579E+03  0.31281791947E+02  0.18663080647E+04  0.21050520488E+04  0.12699999809E+01 0.  1.
       -4    1    3    3    0  502  0.97322051579E+03 -0.31281791947E+02 -0.13146256670E+04  0.16359642355E+04  0.12699999809E+01 0. -1.
</event>
<event>
 5   0  0.1757996E-08  0.3700720E+04  0.7818609E-02  0.8067802E-01
        2   -1    0    0  501    0  0.00000000000E+00  0.00000000000E+00  0.19700006897E+04  0.19700006897E+04  0.25500000920E-02 0. -1.
       -2   -1    0    0    0  501  0.00000000000E+00  0.00000000000E+00 -0.17379848879E+04  0.17379848879E+04  0.25500000920E-02 0.  1.
    10030    2    1    2    0    0  0.00000000000E+00  0.00000000000E+00  0.23201580179E+03  0.37079855776E+04  0.37007196207E+04 0.  0.
        3    1    3    3  502    0 -0.10003235324E+03 -0.97165218492E+03  0.16906267546E+04  0.19525197243E+04  0.10100000352E+00 0. -1.
       -3    1    3    3    0  502  0.10003235324E+03  0.97165218492E+03 -0.14586109528E+04  0.17554658533E+04  0.10100000352E+00 0.  1.
</event>
<event>
 5   0  0.1856107E-08  0.3700391E+04  0.7818609E-02  0.8067875E-01
        2   -1    0    0  501    0  0.00000000000E+00  0.00000000000E+00  0.28577021961E+04  0.28577021961E+04  0.25500000920E-02 0.  1.
       -2   -1    0    0    0  501  0.00000000000E+00  0.00000000000E+00 -0.11978935811E+04  0.11978935811E+04  0.25500000920E-02 0. -1.
    10030    2    1    2    0    0  0.00000000000E+00  0.00000000000E+00  0.16598086150E+04  0.40555957772E+04  0.37003908536E+04 0.  0.
        2    1    3    3  502    0 -0.80062571012E+03  0.69348017013E+03 -0.83272077419E+03  0.13473455985E+04  0.25500000920E-02 0. -1.
       -2    1    3    3    0  502  0.80062571012E+03 -0.69348017013E+03  0.24925293892E+04  0.27082501787E+04  0.25500000920E-02 0.  1.
</event>
<event>
 5   0  0.5714125E-09  0.3702612E+04  0.7818609E-02  0.8067383E-01
       -1   -1    0    0    0  501  0.00000000000E+00  0.00000000000E+00  0.27207361216E+04  0.27207361216E+04  0.50400001928E-02 0.  1.
        1   -1    0    0  501    0  0.00000000000E+00  0.00000000000E+00 -0.12597083609E+04  0.12597083609E+04  0.50400001928E-02 0. -1.
    10030    2    1    2    0    0  0.00000000000E+00  0.00000000000E+00  0.14610277606E+04  0.39804444825E+04  0.37026120727E+04 0.  0.
        5    1    3    3  502    0 -0.17141529632E+04  0.26454981247E+03  0.14263916183E+04  0.22456451463E+04  0.46999998093E+01 0. -1.
       -5    1    3    3    0  502  0.17141529632E+04 -0.26454981247E+03  0.34636142365E+02  0.17347993362E+04  0.46999998093E+01 0.  1.
</event>
<event>
 5   0  0.5714125E-09  0.3700378E+04  0.7818609E-02  0.8067878E-01
        1   -1    0    0  501    0  0.00000000000E+00  0.00000000000E+00  0.28534652145E+04  0.28534652145E+04  0.50400001928E-02 0. -1.
       -1   -1    0    0    0  501  0.00000000000E+00  0.00000000000E+00 -0.11996641998E+04  0.11996641999E+04  0.50400001928E-02 0.  1.
    10030    2    1    2    0    0  0.00000000000E+00  0.00000000000E+00  0.16538010147E+04  0.40531294144E+04  0.37003783933E+04 0.  0.
        1    1    3    3  502    0 -0.17125823448E+04  0.24314258569E+02  0.15933725982E+04  0.23393088098E+04  0.50400001928E-02 0. -1.
       -1    1    3    3    0  502  0.17125823448E+04 -0.24314258569E+02  0.60428416430E+02  0.17138206045E+04  0.50400001928E-02 0.  1.
</event>
<event>
 5   0  0.1725865E-08  0.3700354E+04  0.7818609E-02  0.8067883E-01
       -2   -1    0    0    0  501  0.00000000000E+00  0.00000000000E+00  0.25625315587E+04  0.25625315587E+04  0.25500000920E-02 0. -1.
        2   -1    0    0  501    0  0.00000000000E+00  0.00000000000E+00 -0.13358488263E+04  0.13358488263E+04  0.25500000920E-02 0.  1.
    10030    2    1    2    0    0  0.00000000000E+00  0.00000000000E+00  0.12266827324E+04  0.38983803850E+04  0.37003539155E+04 0.  0.
        1    1    3    3  502    0  0.90804303714E+03 -0.91144824409E+03  0.20141109145E+04  0.23899629359E+04  0.50400001928E-02 0. -1.
       -1    1    3    3    0  502 -0.90804303714E+03  0.91144824409E+03 -0.78742818206E+03  0.15084174491E+04  0.50400001928E-02 0.  1.
</event>
<event>
 5   0  0.1825308E-08  0.3696050E+04  0.7818609E-02  0.8068838E-01
        2   -1    0    0  501    0  0.00000000000E+00  0.00000000000E+00  0.24877130680E+04  0.24877130680E+04  0.25500000920E-02 0.  1.
       -2   -1    0    0    0  501  0.00000000000E+00  0.00000000000E+00 -0.13728255301E+04  0.13728255301E+04  0.25500000920E-02 0. -1.
    10030    2    1    2    0    0  0.00000000000E+00  0.00000000000E+00  0.11148875380E+04  0.38605385981E+04  0.36960497893E+04 0.  0.
        4    1    3    3  502    0 -0.18271693477E+04  0.22200346826E+03  0.73021695108E+03  0.19801645825E+04  0.12699999809E+01 0.  1.
       -4    1    3    3    0  502  0.18271693477E+04 -0.22200346826E+03  0.38467058687E+03  0.18803740156E+04  0.12699999809E+01 0. -1.
</event>
<event>
 5   0  0.1740290E-08  0.3697876E+04  0.7818609E-02  0.8068433E-01
        2   -1    0    0  501    0  0.00000000000E+00  0.00000000000E+00  0.16373508196E+04  0.16373508196E+04  0.25500000920E-02 0.  1.
       -2   -1    0    0    0  501  0.00000000000E+00  0.00000000000E+00 -0.20878670533E+04  0.20878670533E+04  0.25500000920E-02 0. -1.
    10030    2    1    2    0    0  0.00000000000E+00  0.00000000000E+00 -0.45051623368E+03  0.37252178730E+04  0.36978755150E+04 0.  0.
        5    1    3    3  502    0  0.15660028656E+03 -0.18006846696E+04 -0.61744351479E+03  0.19100386156E+04  0.46999998093E+01 0. -1.
       -5    1    3    3    0  502 -0.15660028656E+03  0.18006846696E+04  0.16692728111E+03  0.18151792574E+04  0.46999998093E+01 0.  1.
</event>
<event>
 5   0  0.1757996E-08  0.3699397E+04  0.7818609E-02  0.8068095E-01
       -2   -1    0    0    0  501  0.00000000000E+00  0.00000000000E+00  0.16531627076E+04  0.16531627076E+04  0.25500000920E-02 0.  1.
        2   -1    0    0  501    0  0.00000000000E+00  0.00000000000E+00 -0.20695993801E+04  0.20695993801E+04  0.25500000920E-02 0. -1.
    10030    2    1    2    0    0  0.00000000000E+00  0.00000000000E+00 -0.41643667249E+03  0.37227620877E+04  0.36993969860E+04 0.  0.
        3    1    3    3  502    0 -0.34043993704E+03  0.15712295749E+04  0.71228451856E+03  0.17584114915E+04  0.10100000352E+00 0.  1.
       -3    1    3    3    0  502  0.34043993704E+03 -0.15712295749E+04 -0.11287211910E+04  0.19643505963E+04  0.10100000352E+00 0. -1.
</event>
<event>
 5   0  0.1825308E-08  0.3701202E+04  0.7818609E-02  0.8067696E-01
       -2   -1    0    0    0  501  0.00000000000E+00  0.00000000000E+00  0.13352054444E+04  0.13352054444E+04  0.25500000920E-02 0.  1.
        2   -1    0    0  501    0  0.00000000000E+00  0.00000000000E+00 -0.25649412774E+04  0.25649412774E+04  0.25500000920E-02 0. -1.
    10030    2    1    2    0    0  0.00000000000E+00  0.00000000000E+00 -0.12297358330E+04  0.39001467218E+04  0.37012017281E+04 0.  0.
        4    1    3    3  502    0 -0.14891322145E+04 -0.14394122294E+03  0.53294177025E+03  0.15881632067E+04  0.12699999809E+01 0.  1.
       -4    1    3    3    0  502  0.14891322145E+04  0.14394122294E+03 -0.17626776033E+04  0.23119835150E+04  0.12699999809E+01 0. -1.
</event>
<event>
 5   0  0.5714125E-09  0.3699434E+04  0.7818609E-02  0.8068087E-01
        1   -1    0    0  501    0  0.00000000000E+00  0.00000000000E+00  0.10283265563E+04  0.10283265563E+04  0.50400001928E-02 0. -1.
       -1   -1    0    0    0  501  0.00000000000E+00  0.00000000000E+00 -0.33272047330E+04  0.33272047330E+04  0.50400001928E-02 0.  1.
    10030    2    1    2    0    0  0.00000000000E+00  0.00000000000E+00 -0.22988781766E+04  0.43555312893E+04  0.36994340028E+04 0.  0.
        5    1    3    3  502    0  0.91400329098E+03 -0.88452691293E+03 -0.27306176082E+04  0.30123221089E+04  0.46999998093E+01 0.  1.
       -5    1    3    3    0  502 -0.91400329098E+03  0.88452691293E+03  0.43173943154E+03  0.13432091804E+04  0.46999998093E+01 0. -1.
</event>
<event>
 5   0  0.5714125E-09  0.3699592E+04  0.7818609E-02  0.8068052E-01
        1   -1    0    0  501    0  0.00000000000E+00  0.00000000000E+00  0.22849663630E+04  0.22849663630E+04  0.50400001928E-02 0. -1.
       -1   -1    0    0    0  501  0.00000000000E+00  0.00000000000E+00 -0.14975032738E+04  0.14975032738E+04  0.50400001928E-02 0.  1.
    10030    2    1    2    0    0  0.00000000000E+00  0.00000000000E+00  0.78746308927E+03  0.37824696368E+04  0.36995916581E+04 0.  0.
        2    1    3    3  502    0  0.16373923499E+04 -0.85587140696E+03  0.30129014684E+03  0.18719896702E+04  0.25500000920E-02 0.  1.
       -2    1    3    3    0  502 -0.16373923499E+04  0.85587140696E+03  0.48617294243E+03  0.19104799666E+04  0.25500000920E-02 0. -1.
</event>
<event>
 5   0  0.1825308E-08  0.3699490E+04  0.7818609E-02  0.8068075E-01
       -2   -1    0    0    0  501  0.00000000000E+00  0.00000000000E+00  0.12818053485E+04  0.12818053485E+04  0.25500000920E-02 0. -1.
        2   -1    0    0  501    0  0.00000000000E+00  0.00000000000E+00 -0.26693265695E+04  0.26693265695E+04  0.25500000920E-02 0.  1.
    10030    2    1    2    0    0  0.00000000000E+00  0.00000000000E+00 -0.13875212210E+04  0.39511319180E+04  0.36994902750E+04 0.  0.
        4    1    3    3  502    0  0.15258219682E+04  0.10454588118E+04 -0.71612932981E+03  0.19834211948E+04  0.12699999809E+01 0. -1.
       -4    1    3    3    0  502 -0.15258219682E+04 -0.10454588118E+04 -0.67139189120E+03  0.19677107233E+04  0.12699999809E+01 0.  1.
</event>
<event>
 5   0  0.1757996E-08  0.3696372E+04  0.7818609E-02  0.8068766E-01
       -2   -1    0    0    0  501  0.00000000000E+00  0.00000000000E+00  0.16538330987E+04  0.16538330987E+04  0.25500000920E-02 0.  1.
        2   -1    0    0  501    0  0.00000000000E+00  0.00000000000E+00 -0.20653787545E+04  0.20653787545E+04  0.25500000920E-02 0. -1.
    10030    2    1    2    0    0  0.00000000000E+00  0.00000000000E+00 -0.41154565579E+03  0.37192118533E+04  0.36963721380E+04 0.  0.
        3    1    3    3  502    0 -0.60216421483E+03 -0.17093564750E+04  0.15880627594E+03  0.18192637917E+04  0.10100000352E+00 0. -1.
       -3    1    3    3    0  502  0.60216421483E+03  0.17093564750E+04 -0.57035193173E+03  0.18999480616E+04  0.10100000352E+00 0.  1.
</event>
<event>
 5   0  0.5714125E-09  0.3692510E+04  0.7818609E-02  0.8069624E-01
        3   -1    0    0  501    0  0.00000000000E+00  0.00000000000E+00  0.15615927651E+04  0.15615927684E+04  0.10100000352E+00 0.  1.
       -3   -1    0    0    0  501  0.00000000000E+00  0.00000000000E+00 -0.21828086407E+04  0.21828086431E+04  0.10100000352E+00 0. -1.
    10030    2    1    2    0    0  0.00000000000E+00  0.00000000000E+00 -0.62121587559E+03  0.37444014114E+04  0.36925103610E+04 0.  0.
        3    1    3    3  502    0 -0.17081423189E+04 -0.14490237472E+03 -0.10057420845E+04  0.19875271144E+04  0.10100000352E+00 0. -1.
       -3    1    3    3    0  502  0.17081423189E+04  0.14490237472E+03  0.38452620887E+03  0.17568742970E+04  0.10100000352E+00 0.  1.
</event>
<event>
 5   0  0.1856107E-08  0.3705498E+04  0.7818609E-02  0.8066744E-01
       -2   -1    0    0    0  501  0.00000000000E+00  0.00000000000E+00  0.18239120288E+04  0.18239120288E+04  0.25500000920E-02 0.  1.
        2   -1    0    0  501    0  0.00000000000E+00  0.00000000000E+00 -0.18820420967E+04  0.18820420967E+04  0.25500000920E-02 0. -1.
    10030    2    1    2    0    0  0.00000000000E+00  0.00000000000E+00 -0.58130067958E+02  0.37059541255E+04  0.37054981953E+04 0.  0.
        2    1    3    3  502    0 -0.11350312509E+04  0.14301080596E+04  0.28589309458E+03  0.18480367594E+04  0.25500000920E-02 0. -1.
       -2    1    3    3    0  502  0.11350312509E+04 -0.14301080596E+04 -0.34402316254E+03  0.18579173660E+04  0.25500000920E-02 0.  1.
</event>
<event>
 5   0  0.1825308E-08  0.3700825E+04  0.7818609E-02  0.8067779E-01
       -2   -1    0    0    0  501  0.00000000000E+00  0.00000000000E+00  0.13561084360E+04  0.13561084360E+04  0.25500000920E-02 0.  1.
        2   -1    0    0  501    0  0.00000000000E+00  0.00000000000E+00 -0.25248914813E+04  0.25248914813E+04  0.25500000920E-02 0. -1.
    10030    2    1    2    0    0  0.00000000000E+00  0.00000000000E+00 -0.11687830453E+04  0.38809999173E+04  0.37008251176E+04 0.  0.
        4    1    3    3  502    0 -0.11776249047E+04  0.13422125975E+04 -0.75276860877E+02  0.17871774651E+04  0.12699999809E+01 0.  1.
       -4    1    3    3    0  502  0.11776249047E+04 -0.13422125975E+04 -0.10935061844E+04  0.20938224522E+04  0.12699999809E+01 0. -1.
</event>
<event>
 5   0  0.5714125E-09  0.3698990E+04  0.7818609E-02  0.8068186E-01
        1   -1    0    0  501    0  0.00000000000E+00  0.00000000000E+00  0.20338022099E+04  0.20338022100E+04  0.50400001928E-02 0.  1.
       -1   -1    0    0    0  501  0.00000000000E+00  0.00000000000E+00 -0.16818899618E+04  0.16818899618E+04  0.50400001928E-02 0. -1.
    10030    2    1    2    0    0  0.00000000000E+00  0.00000000000E+00  0.35191224813E+03  0.37156921718E+04  0.36989898736E+04 0.  0.
        1    1    3    3  502    0  0.94888710187E+03 -0.35466460113E+03 -0.13784345420E+04  0.17106301464E+04  0.50400001928E-02 0. -1.
       -1    1    3    3    0  502 -0.94888710187E+03  0.35466460113E+03  0.17303467901E+04  0.20050620253E+04  0.50400001928E-02 0.  1.
</event>
<event>
 5   0  0.1856107E-08  0.3697987E+04  0.7818609E-02  0.8068408E-01
       -2   -1    0    0    0  501  0.00000000000E+00  0.00000000000E+00  0.34400060827E+04  0.34400060827E+04  0.25500000920E-02 0.  1.
        2   -1    0    0  501    0  0.00000000000E+00  0.00000000000E+00 -0.99382888123E+03  0.99382888124E+03  0.25500000920E-02 0. -1.
    10030    2    1    2    0    0  0.00000000000E+00  0.00000000000E+00  0.24461772015E+04  0.44338349639E+04  0.36979872345E+04 0.  0.
        2    1    3    3  502    0  0.33777723558E+03  0.71894782822E+03 -0.77882238959E+03  0.11124494394E+04  0.25500000920E-02 0. -1.
       -2    1    3    3    0  502 -0.33777723558E+03 -0.71894782822E+03  0.32249995911E+04  0.33213855246E+04  0.25500000920E-02 0.  1.
</event>
<event>
 5   0  0.5714125E-09  0.3695892E+04  0.7818609E-02  0.8068873E-01
        1   -1    0    0  501    0  0.00000000000E+00  0.00000000000E+00  0.23743813959E+04  0.23743813959E+04  0.50400001928E-02 0.  1.
       -1   -1    0    0    0  501  0.00000000000E+00  0.00000000000E+00 -0.14382291918E+04  0.14382291918E+04  0.50400001928E-02 0. -1.
    10030    2    1    2    0    0  0.00000000000E+00  0.00000000000E+00  0.93615220408E+03  0.38126105878E+04  0.36958921176E+04 0.  0.
        5    1    3    3  502    0  0.39977012689E+03  0.21751471044E+03 -0.13795056917E+04  0.14526482186E+04  0.46999998093E+01 0. -1.
       -5    1    3    3    0  502 -0.39977012689E+03 -0.21751471044E+03  0.23156578958E+04  0.23599623692E+04  0.46999998093E+01 0.  1.
</event>
<event>
 5   0  0.5714125E-09  0.3701073E+04  0.7818609E-02  0.8067724E-01
       -1   -1    0    0    0  501  0.00000000000E+00  0.00000000000E+00  0.15306862717E+04  0.15306862717E+04  0.50400001928E-02 0. -1.
        1   -1    0    0  501    0  0.00000000000E+00  0.00000000000E+00 -0.22372223932E+04  0.22372223932E+04  0.50400001928E-02 0.  1.
    10030    2    1    2    0    0  0.00000000000E+00  0.00000000000E+00 -0.70653612150E+03  0.37679086648E+04  0.37010731438E+04 0.  0.
        3    1    3    3  502    0 -0.96610126569E+03  0.14193396391E+04 -0.10561037154E+04  0.20157459499E+04  0.10100000352E+00 0.  1.
       -3    1    3    3    0  502  0.96610126569E+03 -0.14193396391E+04  0.34956759387E+03  0.17521627149E+04  0.10100000352E+00 0. -1.
</event>
<event>
 5   0  0.1740290E-08  0.3704717E+04  0.7818609E-02  0.8066917E-01
       -2   -1    0    0    0  501  0.00000000000E+00  0.00000000000E+00  0.13840682145E+04  0.13840682145E+04  0.25500000920E-02 0. -1.
        2   -1    0    0  501    0  0.00000000000E+00  0.00000000000E+00 -0.24790916955E+04  0.24790916955E+04  0.25500000920E-02 0.  1.
    10030    2    1    2    0    0  0.00000000000E+00  0.00000000000E+00 -0.10950234810E+04  0.38631599100E+04  0.37047170022E+04 0.  0.
        5    1    3    3  502    0  0.17964740856E+04 -0.19165141651E+03 -0.97385019359E+03  0.20524267819E+04  0.46999998093E+01 0. -1.
       -5    1    3    3    0  502 -0.17964740856E+04  0.19165141651E+03 -0.12117328740E+03  0.18107331281E+04  0.46999998093E+01 0.  1.
</event>
<event>
 5   0  0.5714125E-09  0.3701068E+04  0.7818609E-02  0.8067725E-01
        1   -1    0    0  501    0  0.00000000000E+00  0.00000000000E+00  0.27004899358E+04  0.27004899358E+04  0.50400001928E-02 0. -1.
       -1   -1    0    0    0  501  0.00000000000E+00  0.00000000000E+00 -0.12680941028E+04  0.12680941028E+04  0.50400001928E-02 0.  1.
    10030    2    1    2    0    0  0.00000000000E+00  0.00000000000E+00  0.14323958330E+04  0.39685840387E+04  0.37010676094E+04 0.  0.
        5    1    3    3  502    0 -0.14138125733E+03  0.11901438234E+04 -0.79568857835E+03  0.14386011900E+04  0.46999998093E+01 0.  1.
       -5    1    3    3    0  502  0.14138125733E+03 -0.11901438234E+04  0.22280844113E+04  0.25299828486E+04  0.46999998093E+01 0. -1.
</event>
<event>
 5   0  0.1757996E-08  0.3699553E+04  0.7818609E-02  0.8068061E-01
        2   -1    0    0  501    0  0.00000000000E+00  0.00000000000E+00  0.18699576525E+04  0.18699576525E+04  0.25500000920E-02 0. -1.
       -2   -1    0    0    0  501  0.00000000000E+00  0.00000000000E+00 -0.18298129438E+04  0.18298129438E+04  0.25500000920E-02 0.  1.
    10030    2    1    2    0    0  0.00000000000E+00  0.00000000000E+00  0.40144708723E+02  0.36997705963E+04  0.36995527929E+04 0.  0.
        3    1    3    3  502    0  0.11284972304E+04  0.88955740244E+03 -0.11448371288E+04  0.18372453383E+04  0.10100000352E+00 0.  1.
       -3    1    3    3    0  502 -0.11284972304E+04 -0.88955740244E+03  0.11849818375E+04  0.18625252580E+04  0.10100000352E+00 0. -1.
</event>
<event>
 5   0  0.5714125E-09  0.3700560E+04  0.7818609E-02  0.8067838E-01
       -1   -1    0    0    0  501  0.00000000000E+00  0.00000000000E+00  0.20355187579E+04  0.20355187579E+04  0.50400001928E-02 0.  1.
        1   -1    0    0  501    0  0.00000000000E+00  0.00000000000E+00 -0.16818985900E+04  0.16818985900E+04  0.50400001928E-02 0. -1.
    10030    2    1    2    0    0  0.00000000000E+00  0.00000000000E+00  0.35362016785E+03  0.37174173479E+04  0.37005600273E+04 0.  0.
        1    1    3    3  502    0 -0.13055634691E+03  0.84422273415E+03 -0.14719401154E+04  0.17018709375E+04  0.50400001928E-02 0. -1.
       -1    1    3    3    0  502  0.13055634691E+03 -0.84422273415E+03  0.18255602833E+04  0.20155464104E+04  0.50400001928E-02 0.  1.
</event>
<event>
 5   0  0.5714125E-09  0.3701052E+04  0.7818609E-02  0.8067729E-01
        1   -1    0    0  501    0  0.00000000000E+00  0.00000000000E+00  0.23195789443E+04  0.23195789443E+04  0.50400001928E-02 0. -1.
       -1   -1    0    0    0  501  0.00000000000E+00  0.00000000000E+00 -0.14763225414E+04  0.14763225414E+04  0.50400001928E-02 0.  1.
    10030    2    1    2    0    0  0.00000000000E+00  0.00000000000E+00  0.84325640296E+03  0.37959014857E+04  0.37010521109E+04 0.  0.
        5    1    3    3  502    0  0.19875247119E+03 -0.11913600322E+04 -0.10162942403E+04  0.15785174513E+04  0.46999998093E+01 0.  1.
       -5    1    3    3    0  502 -0.19875247119E+03  0.11913600322E+04  0.18595506433E+04  0.22173840344E+04  0.46999998093E+01 0. -1.
</event>
<event>
 5   0  0.1757996E-08  0.3701140E+04  0.7818609E-02  0.8067709E-01
       -2   -1    0    0    0  501  0.00000000000E+00  0.00000000000E+00  0.18055334987E+04  0.18055334987E+04  0.25500000920E-02 0. -1.
        2   -1    0    0  501    0  0.00000000000E+00  0.00000000000E+00 -0.18967301224E+04  0.18967301224E+04  0.25500000920E-02 0.  1.
    10030    2    1    2    0    0  0.00000000000E+00  0.00000000000E+00 -0.91196623646E+02  0.37022636211E+04  0.37011402427E+04 0.  0.
        3    1    3    3  502    0  0.48317983836E+03  0.75418166397E+03 -0.16654591559E+04  0.18910333019E+04  0.10100000352E+00 0.  1.
       -3    1    3    3    0  502 -0.48317983836E+03 -0.75418166397E+03  0.15742625323E+04  0.18112303192E+04  0.10100000352E+00 0. -1.
</event>
<event>
 5   0  0.1740290E-08  0.3701648E+04  0.7818609E-02  0.8067597E-01
        2   -1    0    0  501    0  0.00000000000E+00  0.00000000000E+00  0.20431675055E+04  0.20431675055E+04  0.25500000920E-02 0. -1.
       -2   -1    0    0    0  501  0.00000000000E+00  0.00000000000E+00 -0.16765881319E+04  0.16765881319E+04  0.25500000920E-02 0.  1.
    10030    2    1    2    0    0  0.00000000000E+00  0.00000000000E+00  0.36657937368E+03  0.37197556374E+04  0.37016484929E+04 0.  0.
        5    1    3    3  502    0  0.12073293176E+04 -0.79703744981E+02 -0.12241081583E+04  0.17211797237E+04  0.46999998093E+01 0. -1.
       -5    1    3    3    0  502 -0.12073293176E+04  0.79703744981E+02  0.15906875320E+04  0.19985759137E+04  0.46999998093E+01 0.  1.
</event>
<event>
 5   0  0.1740290E-08  0.3698712E+04  0.7818609E-02  0.8068247E-01
       -2   -1    0    0    0  501  0.00000000000E+00  0.00000000000E+00  0.15583603238E+04  0.15583603238E+04  0.25500000920E-02 0. -1.
        2   -1    0    0  501    0  0.00000000000E+00  0.00000000000E+00 -0.21946897446E+04  0.21946897446E+04  0.25500000920E-02 0.  1.
    10030    2    1    2    0    0  0.00000000000E+00  0.00000000000E+00 -0.63632942077E+03  0.37530500684E+04  0.36987118952E+04 0.  0.
        5    1    3    3  502    0 -0.25533239327E+02 -0.11233589955E+03 -0.21910393338E+04  0.21940708176E+04  0.46999998093E+01 0.  1.
       -5    1    3    3    0  502  0.25533239327E+02  0.11233589955E+03  0.15547099130E+04  0.15589792507E+04  0.46999998093E+01 0. -1.
</event>
<event>
 5   0  0.5714125E-09  0.3700123E+04  0.7818609E-02  0.8067935E-01
        1   -1    0    0  501    0  0.00000000000E+00  0.00000000000E+00  0.21944489562E+04  0.21944489562E+04  0.50400001928E-02 0. -1.
       -1   -1    0    0    0  501  0.00000000000E+00  0.00000000000E+00 -0.15597206623E+04  0.15597206623E+04  0.50400001928E-02 0.  1.
    10030    2    1    2    0    0  0.00000000000E+00  0.00000000000E+00  0.63472829391E+03  0.37541696186E+04  0.37001229058E+04 0.  0.
        4    1    3    3  502    0 -0.14065910641E+04 -0.11938681552E+04  0.17785600514E+03  0.18534977651E+04  0.12699999809E+01 0. -1.
       -4    1    3    3    0  502  0.14065910641E+04  0.11938681552E+04  0.45687228876E+03  0.19006718535E+04  0.12699999809E+01 0.  1.
</event>
<event>
 5   0  0.5714125E-09  0.3703925E+04  0.7818609E-02  0.8067092E-01
       -3   -1    0    0    0  501  0.00000000000E+00  0.00000000000E+00  0.17692785215E+04  0.17692785244E+04  0.10100000352E+00 0. -1.
        3   -1    0    0  501    0  0.00000000000E+00  0.00000000000E+00 -0.19385109547E+04  0.19385109573E+04  0.10100000352E+00 0.  1.
    10030    2    1    2    0    0  0.00000000000E+00  0.00000000000E+00 -0.16923243312E+03  0.37077894817E+04  0.37039253805E+04 0.  0.
        4    1    3    3  502    0 -0.42242686995E+03 -0.11869669112E+04 -0.14433934240E+04  0.19159126019E+04  0.12699999809E+01 0.  1.
       -4    1    3    3    0  502  0.42242686995E+03  0.11869669112E+04  0.12741609909E+04  0.17918768798E+04  0.12699999809E+01 0. -1.
</event>
<event>
 5   0  0.5714125E-09  0.3703333E+04  0.7818609E-02  0.8067224E-01
       -1   -1    0    0    0  501  0.00000000000E+00  0.00000000000E+00  0.18170279112E+04  0.18170279112E+04  0.50400001928E-02 0.  1.
        1   -1    0    0  501    0  0.00000000000E+00  0.00000000000E+00 -0.18869655963E+04  0.18869655963E+04  0.50400001928E-02 0. -1.
    10030    2    1    2    0    0  0.00000000000E+00  0.00000000000E+00 -0.69937685104E+02  0.37039935074E+04  0.37033331775E+04 0.  0.
        4    1    3    3  502    0 -0.10812716650E+04 -0.11338840674E+04  0.95203336714E+03  0.18333604765E+04  0.12699999809E+01 0.  1.
       -4    1    3    3    0  502  0.10812716650E+04  0.11338840674E+04 -0.10219710522E+04  0.18706330309E+04  0.12699999809E+01 0. -1.
</event>
<event>
 5   0  0.5714125E-09  0.3700273E+04  0.7818609E-02  0.8067901E-01
       -1   -1    0    0    0  501  0.00000000000E+00  0.00000000000E+00  0.16747989498E+04  0.16747989498E+04  0.50400001928E-02 0. -1.
        1   -1    0    0  501    0  0.00000000000E+00  0.00000000000E+00 -0.20438300539E+04  0.20438300539E+04  0.50400001928E-02 0.  1.
    10030    2    1    2    0    0  0.00000000000E+00  0.00000000000E+00 -0.36903110411E+03  0.37186290038E+04  0.37002726537E+04 0.  0.
        3    1    3    3  502    0  0.12471837830E+04  0.13542337103E+04 -0.33585149249E+00  0.18410367876E+04  0.10100000352E+00 0. -1.
       -3    1    3    3    0  502 -0.12471837830E+04 -0.13542337103E+04 -0.36869525261E+03  0.18775922161E+04  0.10100000352E+00 0.  1.
</event>
<event>
 5   0  0.5714125E-09  0.3712513E+04  0.7818609E-02  0.8065195E-01
       -1   -1    0    0    0  501  0.00000000000E+00  0.00000000000E+00  0.16328026910E+04  0.16328026910E+04  0.50400001928E-02 0. -1.
        1   -1    0    0  501    0  0.00000000000E+00  0.00000000000E+00 -0.21102902304E+04  0.21102902304E+04  0.50400001928E-02 0.  1.
    10030    2    1    2    0    0  0.00000000000E+00  0.00000000000E+00 -0.47748753940E+03  0.37430929213E+04  0.37125126623E+04 0.  0.
        4    1    3    3  502    0 -0.34368389860E+03 -0.29239173204E+03 -0.20541513890E+04  0.21031288807E+04  0.12699999809E+01 0.  1.
       -4    1    3    3    0  502  0.34368389860E+03  0.29239173204E+03  0.15766638496E+04  0.16399640406E+04  0.12699999809E+01 0. -1.
</event>
<event>
 5   0  0.1757996E-08  0.3699691E+04  0.7818609E-02  0.8068030E-01
       -2   -1    0    0    0  501  0.00000000000E+00  0.00000000000E+00  0.30268442902E+04  0.30268442902E+04  0.25500000920E-02 0.  1.
        2   -1    0    0  501    0  0.00000000000E+00  0.00000000000E+00 -0.11305265648E+04  0.11305265648E+04  0.25500000920E-02 0. -1.
    10030    2    1    2    0    0  0.00000000000E+00  0.00000000000E+00  0.18963177254E+04  0.41573708550E+04  0.36996907318E+04 0.  0.
        3    1    3    3  502    0 -0.20145516538E+03 -0.14415689560E+03  0.30081214470E+04  0.30183041670E+04  0.10100000352E+00 0.  1.
       -3    1    3    3    0  502  0.20145516538E+03  0.14415689560E+03 -0.11118037216E+04  0.11390666881E+04  0.10100000352E+00 0. -1.
</event>
<event>
 5   0  0.1740290E-08  0.3699570E+04  0.7818609E-02  0.8068057E-01
       -2   -1    0    0    0  501  0.00000000000E+00  0.00000000000E+00  0.16341214394E+04  0.16341214394E+04  0.25500000920E-02 0.  1.
        2   -1    0    0  501    0  0.00000000000E+00  0.00000000000E+00 -0.20939105899E+04  0.20939105899E+04  0.25500000920E-02 0. -1.
    10030    2    1    2    0    0  0.00000000000E+00  0.00000000000E+00 -0.45978915056E+03  0.37280320293E+04  0.36995698059E+04 0.  0.
        5    1    3    3  502    0  0.61705873047E+03  0.10824903821E+04 -0.16075758830E+04  0.20339295007E+04  0.46999998093E+01 0. -1.
       -5    1    3    3    0  502 -0.61705873047E+03 -0.10824903821E+04  0.11477867324E+04  0.16941025286E+04  0.46999998093E+01 0.  1.
</event>
<event>
 5   0  0.1740290E-08  0.3702855E+04  0.7818609E-02  0.8067329E-01
       -2   -1    0    0    0  501  0.00000000000E+00  0.00000000000E+00  0.13885783632E+04  0.13885783632E+04  0.25500000920E-02 0.  1.
        2   -1    0    0  501    0  0.00000000000E+00  0.00000000000E+00 -0.24685563573E+04  0.24685563573E+04  0.25500000920E-02 0. -1.
    10030    2    1    2    0    0  0.00000000000E+00  0.00000000000E+00 -0.10799779940E+04  0.38571347205E+04  0.37028550855E+04 0.  0.
        5    1    3    3  502    0  0.69609015489E+03 -0.15792478636E+04  0.15815706435E+03  0.17330900338E+04  0.46999998093E+01 0. -1.
       -5    1    3    3    0  502 -0.69609015489E+03  0.15792478636E+04 -0.12381350584E+04  0.21240446867E+04  0.46999998093E+01 0.  1.
</event>
<event>
 5   0  0.5714125E-09  0.3686740E+04  0.7818609E-02  0.8070907E-01
        1   -1    0    0  501    0  0.00000000000E+00  0.00000000000E+00  0.16659531831E+04  0.16659531831E+04  0.50400001928E-02 0.  1.
       -1   -1    0    0    0  501  0.00000000000E+00  0.00000000000E+00 -0.20396806471E+04  0.20396806471E+04  0.50400001928E-02 0. -1.
    10030    2    1    2    0    0  0.00000000000E+00  0.00000000000E+00 -0.37372746395E+03  0.37056338302E+04  0.36867397340E+04 0.  0.
        1    1    3    3  502    0  0.98265528059E+02  0.12861388828E+04 -0.15105041053E+04  0.19863111519E+04  0.50400001928E-02 0. -1.
       -1    1    3    3    0  502 -0.98265528059E+02 -0.12861388828E+04  0.11367766414E+04  0.17193226783E+04  0.50400001928E-02 0.  1.
</event>
<event>
 5   0  0.1725865E-08  0.3696256E+04  0.7818609E-02  0.8068792E-01
        2   -1    0    0  501    0  0.00000000000E+00  0.00000000000E+00  0.30669757224E+04  0.30669757224E+04  0.25500000920E-02 0. -1.
       -2   -1    0    0    0  501  0.00000000000E+00  0.00000000000E+00 -0.11136626678E+04  0.11136626678E+04  0.25500000920E-02 0.  1.
    10030    2    1    2    0    0  0.00000000000E+00  0.00000000000E+00  0.19533130546E+04  0.41806383902E+04  0.36962555999E+04 0.  0.
        1    1    3    3  502    0 -0.10105138808E+04 -0.84202241427E+03  0.24450308534E+04  0.27763854062E+04  0.50400001928E-02 0. -1.
       -1    1    3    3    0  502  0.10105138808E+04  0.84202241427E+03 -0.49171779879E+03  0.14042529840E+04  0.50400001928E-02 0.  1.
</event>
<event>
 5   0  0.1725865E-08  0.3699638E+04  0.7818609E-02  0.8068042E-01
       -2   -1    0    0    0  501  0.00000000000E+00  0.00000000000E+00  0.13693422963E+04  0.13693422963E+04  0.25500000920E-02 0. -1.
        2   -1    0    0  501    0  0.00000000000E+00  0.00000000000E+00 -0.24988857269E+04  0.24988857269E+04  0.25500000920E-02 0.  1.
    10030    2    1    2    0    0  0.00000000000E+00  0.00000000000E+00 -0.11295434306E+04  0.38682280232E+04  0.36996377765E+04 0.  0.
        1    1    3    3  502    0 -0.12785003579E+04 -0.59720160886E+03  0.68581713131E+03  0.15689353283E+04  0.50400001928E-02 0. -1.
       -1    1    3    3    0  502  0.12785003579E+04  0.59720160886E+03 -0.18153605619E+04  0.22992926949E+04  0.50400001928E-02 0.  1.
</event>
<event>
 5   0  0.5714125E-09  0.3700580E+04  0.7818609E-02  0.8067833E-01
        1   -1    0    0  501    0  0.00000000000E+00  0.00000000000E+00  0.26089042583E+04  0.26089042583E+04  0.50400001928E-02 0. -1.
       -1   -1    0    0    0  501  0.00000000000E+00  0.00000000000E+00 -0.13122646189E+04  0.13122646189E+04  0.50400001928E-02 0.  1.
    10030    2    1    2    0    0  0.00000000000E+00  0.00000000000E+00  0.12966396394E+04  0.39211688772E+04  0.37005798207E+04 0.  0.
        3    1    3    3  502    0  0.14448734399E+04  0.74501726537E+03  0.15846588485E+04  0.22702100474E+04  0.10100000352E+00 0. -1.
       -3    1    3    3    0  502 -0.14448734399E+04 -0.74501726537E+03 -0.28801920908E+03  0.16509588299E+04  0.10100000352E+00 0.  1.
</event>
<event>
 5   0  0.1825308E-08  0.3698032E+04  0.7818609E-02  0.8068398E-01
        2   -1    0    0  501    0  0.00000000000E+00  0.00000000000E+00  0.18724572071E+04  0.18724572071E+04  0.25500000920E-02 0.  1.
       -2   -1    0    0    0  501  0.00000000000E+00  0.00000000000E+00 -0.18258681805E+04  0.18258681805E+04  0.25500000920E-02 0. -1.
    10030    2    1    2    0    0  0.00000000000E+00  0.00000000000E+00  0.46589026667E+02  0.36983253876E+04  0.36980319273E+04 0.  0.
        4    1    3    3  502    0 -0.11718389396E+04  0.10092705894E+04  0.10367972539E+04  0.18619301226E+04  0.12699999809E+01 0.  1.
       -4    1    3    3    0  502  0.11718389396E+04 -0.10092705894E+04 -0.99020822719E+03  0.18363952650E+04  0.12699999809E+01 0. -1.
</event>
<event>
 5   0  0.5714125E-09  0.3701298E+04  0.7818609E-02  0.8067674E-01
       -1   -1    0    0    0  501  0.00000000000E+00  0.00000000000E+00  0.15776197986E+04  0.15776197986E+04  0.50400001928E-02 0.  1.
        1   -1    0    0  501    0  0.00000000000E+00  0.00000000000E+00 -0.21709291490E+04  0.21709291490E+04  0.50400001928E-02 0. -1.
    10030    2    1    2    0    0  0.00000000000E+00  0.00000000000E+00 -0.59330935041E+03  0.37485489476E+04  0.37012975059E+04 0.  0.
        2    1    3    3  502    0 -0.14047376261E+04 -0.93531938193E+03  0.47250817860E+03  0.17525336297E+04  0.25500000920E-02 0.  1.
       -2    1    3    3    0  502  0.14047376261E+04  0.93531938193E+03 -0.10658175290E+04  0.19960153179E+04  0.25500000920E-02 0. -1.
</event>
<event>
 5   0  0.1856107E-08  0.3700431E+04  0.7818609E-02  0.8067866E-01
        2   -1    0    0  501    0  0.00000000000E+00  0.00000000000E+00  0.21437489195E+04  0.21437489195E+04  0.25500000920E-02 0. -1.
       -2   -1    0    0    0  501  0.00000000000E+00  0.00000000000E+00 -0.15968744092E+04  0.15968744092E+04  0.25500000920E-02 0.  1.
    10030    2    1    2    0    0  0.00000000000E+00  0.00000000000E+00  0.54687451028E+03  0.37406233287E+04  0.37004312123E+04 0.  0.
        2    1    3    3  502    0  0.17265672201E+04  0.17748621718E+03  0.92130567008E+03  0.19650292264E+04  0.25500000920E-02 0. -1.
       -2    1    3    3    0  502 -0.17265672201E+04 -0.17748621718E+03 -0.37443115980E+03  0.17755941023E+04  0.25500000920E-02 0.  1.
</event>
<event>
 5   0  0.5714125E-09  0.3700589E+04  0.7818609E-02  0.8067831E-01
       -1   -1    0    0    0  501  0.00000000000E+00  0.00000000000E+00  0.11667545680E+04  0.11667545680E+04  0.50400001928E-02 0. -1.
        1   -1    0    0  501    0  0.00000000000E+00  0.00000000000E+00 -0.29342849843E+04  0.29342849843E+04  0.50400001928E-02 0.  1.
    10030    2    1    2    0    0  0.00000000000E+00  0.00000000000E+00 -0.17675304163E+04  0.41010395523E+04  0.37005893634E+04 0.  0.
        1    1    3    3  502    0  0.10954354989E+04 -0.14737056515E+04 -0.11359977177E+04  0.21592309034E+04  0.50400001928E-02 0.  1.
       -1    1    3    3    0  502 -0.10954354989E+04  0.14737056515E+04 -0.63153269860E+03  0.19418086489E+04  0.50400001928E-02 0. -1.
</event>
<event>
 5   0  0.1856107E-08  0.3699332E+04  0.7818609E-02  0.8068110E-01
        2   -1    0    0  501    0  0.00000000000E+00  0.00000000000E+00  0.14467405515E+04  0.14467405515E+04  0.25500000920E-02 0. -1.
       -2   -1    0    0    0  501  0.00000000000E+00  0.00000000000E+00 -0.23648079776E+04  0.23648079776E+04  0.25500000920E-02 0.  1.
    10030    2    1    2    0    0  0.00000000000E+00  0.00000000000E+00 -0.91806742617E+03  0.38115485291E+04  0.36993316140E+04 0.  0.
        2    1    3    3  502    0  0.10981656217E+04  0.14877360633E+04 -0.50438330589E+03  0.19166973798E+04  0.25500000920E-02 0. -1.
       -2    1    3    3    0  502 -0.10981656217E+04 -0.14877360633E+04 -0.41368412028E+03  0.18948511493E+04  0.25500000920E-02 0.  1.
</event>
<event>
 5   0  0.1740290E-08  0.3699726E+04  0.7818609E-02  0.8068023E-01
       -2   -1    0    0    0  501  0.00000000000E+00  0.00000000000E+00  0.12786826441E+04  0.12786826441E+04  0.25500000920E-02 0.  1.
        2   -1    0    0  501    0  0.00000000000E+00  0.00000000000E+00 -0.26761861342E+04  0.26761861342E+04  0.25500000920E-02 0. -1.
    10030    2    1    2    0    0  0.00000000000E+00  0.00000000000E+00 -0.13975034901E+04  0.39548687783E+04  0.36997258073E+04 0.  0.
        5    1    3    3  502    0  0.25463202951E+03  0.39057548273E+03 -0.26123394366E+04  0.26536250866E+04  0.46999998093E+01 0. -1.
       -5    1    3    3    0  502 -0.25463202951E+03 -0.39057548273E+03  0.12148359466E+04  0.13012436917E+04  0.46999998093E+01 0.  1.
</event>
<event>
 5   0  0.1740290E-08  0.3699194E+04  0.7818609E-02  0.8068140E-01
        2   -1    0    0  501    0  0.00000000000E+00  0.00000000000E+00  0.14807671689E+04  0.14807671689E+04  0.25500000920E-02 0.  1.
       -2   -1    0    0    0  501  0.00000000000E+00  0.00000000000E+00 -0.23102955544E+04  0.23102955544E+04  0.25500000920E-02 0. -1.
    10030    2    1    2    0    0  0.00000000000E+00  0.00000000000E+00 -0.82952838548E+03  0.37910627232E+04  0.36991944027E+04 0.  0.
        5    1    3    3  502    0 -0.15219276057E+04  0.89012382496E+02  0.65852735423E+03  0.16606827534E+04  0.46999998093E+01 0.  1.
       -5    1    3    3    0  502  0.15219276057E+04 -0.89012382496E+02 -0.14880557397E+04  0.21303799698E+04  0.46999998093E+01 0. -1.
</event>
<event>
 5   0  0.1740290E-08  0.3697297E+04  0.7818609E-02  0.8068561E-01
        2   -1    0    0  501    0  0.00000000000E+00  0.00000000000E+00  0.31956433130E+04  0.31956433130E+04  0.25500000920E-02 0.  1.
       -2   -1    0    0    0  501  0.00000000000E+00  0.00000000000E+00 -0.10694249998E+04  0.10694249998E+04  0.25500000920E-02 0. -1.
    10030    2    1    2    0    0  0.00000000000E+00  0.00000000000E+00  0.21262183132E+04  0.42650683128E+04  0.36972967690E+04 0.  0.
        5    1    3    3  502    0 -0.18066006375E+03  0.15266617077E+04  0.22474911649E+04  0.27229712916E+04  0.46999998093E+01 0.  1.
       -5    1    3    3    0  502  0.18066006375E+03 -0.15266617077E+04 -0.12127285176E+03  0.15420970212E+04  0.46999998093E+01 0. -1.
</event>
<event>
 5   0  0.5714125E-09  0.3699314E+04  0.7818609E-02  0.8068114E-01
       -1   -1    0    0    0  501  0.00000000000E+00  0.00000000000E+00  0.27180029910E+04  0.27180029910E+04  0.50400001928E-02 0.  1.
        1   -1    0    0  501    0  0.00000000000E+00  0.00000000000E+00 -0.12587299947E+04  0.12587299947E+04  0.50400001928E-02 0. -1.
    10030    2    1    2    0    0  0.00000000000E+00  0.00000000000E+00  0.14592729963E+04  0.39767329857E+04  0.36993144719E+04 0.  0.
        3    1    3    3  502    0 -0.90669117897E+02  0.18256194373E+04  0.42534607540E+03  0.18767062938E+04  0.10100000352E+00 0.  1.
       -3    1    3    3    0  502  0.90669117897E+02 -0.18256194373E+04  0.10339269209E+04  0.21000266919E+04  0.10100000352E+00 0. -1.
</event>
<event>
 5   0  0.5714125E-09  0.3701040E+04  0.7818609E-02  0.8067731E-01
        1   -1    0    0  501    0  0.00000000000E+00  0.00000000000E+00  0.22403915082E+04  0.22403915082E+04  0.50400001928E-02 0.  1.
       -1   -1    0    0    0  501  0.00000000000E+00  0.00000000000E+00 -0.15284940488E+04  0.15284940488E+04  0.50400001928E-02 0. -1.
    10030    2    1    2    0    0  0.00000000000E+00  0.00000000000E+00  0.71189745944E+03  0.37688855570E+04  0.37010404414E+04 0.  0.
        3    1    3    3  502    0  0.11592804462E+04  0.34053028843E+03  0.17832603085E+04  0.21540448854E+04  0.10100000352E+00 0.  1.
       -3    1    3    3    0  502 -0.11592804462E+04 -0.34053028843E+03 -0.10713628490E+04  0.16148406716E+04  0.10100000352E+00 0. -1.
</event>
<event>
 5   0  0.5714125E-09  0.3695779E+04  0.7818609E-02  0.8068898E-01
       -1   -1    0    0    0  501  0.00000000000E+00  0.00000000000E+00  0.12344428011E+04  0.12344428011E+04  0.50400001928E-02 0. -1.
        1   -1    0    0  501    0  0.00000000000E+00  0.00000000000E+00 -0.27661843407E+04  0.27661843408E+04  0.50400001928E-02 0.  1.
    10030    2    1    2    0    0  0.00000000000E+00  0.00000000000E+00 -0.15317415396E+04  0.40006271419E+04  0.36957794015E+04 0.  0.
        3    1    3    3  502    0  0.64050127054E+03  0.11092993308E+04 -0.22076134677E+04  0.25523213191E+04  0.10100000352E+00 0.  1.
       -3    1    3    3    0  502 -0.64050127054E+03 -0.11092993308E+04  0.67587192812E+03  0.14483058228E+04  0.10100000352E+00 0. -1.
</event>
<event>
 5   0  0.1725865E-08  0.3703879E+04  0.7818609E-02  0.8067103E-01
       -2   -1    0    0    0  501  0.00000000000E+00  0.00000000000E+00  0.19352062200E+04  0.19352062200E+04  0.25500000920E-02 0.  1.
        2   -1    0    0  501    0  0.00000000000E+00  0.00000000000E+00 -0.17722558082E+04  0.17722558082E+04  0.25500000920E-02 0. -1.
    10030    2    1    2    0    0  0.00000000000E+00  0.00000000000E+00  0.16295041183E+03  0.37074620281E+04  0.37038792979E+04 0.  0.
        1    1    3    3  502    0 -0.58231067967E+03 -0.55459462509E+03 -0.15883769201E+04  0.17803376551E+04  0.50400001928E-02 0. -1.
       -1    1    3    3    0  502  0.58231067967E+03  0.55459462509E+03  0.17513273319E+04  0.19271243731E+04  0.50400001928E-02 0.  1.
</event>
<event>
 5   0  0.5714125E-09  0.3700209E+04  0.7818609E-02  0.8067916E-01
        1   -1    0    0  501    0  0.00000000000E+00  0.00000000000E+00  0.24991048836E+04  0.24991048836E+04  0.50400001928E-02 0.  1.
       -1   -1    0    0    0  501  0.00000000000E+00  0.00000000000E+00 -0.13696449548E+04  0.13696449548E+04  0.50400001928E-02 0. -1.
    10030    2    1    2    0    0  0.00000000000E+00  0.00000000000E+00  0.11294599288E+04  0.38687498384E+04  0.37002088564E+04 0.  0.
        5    1    3    3  502    0 -0.13733987122E+03 -0.31819505294E+03  0.24648564947E+04  0.24891062576E+04  0.46999998093E+01 0.  1.
       -5    1    3    3    0  502  0.13733987122E+03  0.31819505294E+03 -0.13353965659E+04  0.13796435808E+04  0.46999998093E+01 0. -1.
</event>
<event>
 5   0  0.1725865E-08  0.3699615E+04  0.7818609E-02  0.8068047E-01
        2   -1    0    0  501    0  0.00000000000E+00  0.00000000000E+00  0.26422803966E+04  0.26422803966E+04  0.25500000920E-02 0. -1.
       -2   -1    0    0    0  501  0.00000000000E+00  0.00000000000E+00 -0.12950133870E+04  0.12950133870E+04  0.25500000920E-02 0.  1.
    10030    2    1    2    0    0  0.00000000000E+00  0.00000000000E+00  0.13472670096E+04  0.39372937836E+04  0.36996153778E+04 0.  0.
        1    1    3    3  502    0 -0.15876445937E+03 -0.51829641271E+03  0.25558571588E+04  0.26127080092E+04  0.50400001928E-02 0. -1.
       -1    1    3    3    0  502  0.15876445937E+03  0.51829641271E+03 -0.12085901492E+04  0.13245857744E+04  0.50400001928E-02 0.  1.
</event>
<event>
 5   0  0.1757996E-08  0.3693459E+04  0.7818609E-02  0.8069413E-01
       -2   -1    0    0    0  501  0.00000000000E+00  0.00000000000E+00  0.15863683501E+04  0.15863683501E+04  0.25500000920E-02 0. -1.
        2   -1    0    0  501    0  0.00000000000E+00  0.00000000000E+00 -0.21498224450E+04  0.21498224450E+04  0.25500000920E-02 0.  1.
    10030    2    1    2    0    0  0.00000000000E+00  0.00000000000E+00 -0.56345409496E+03  0.37361907951E+04  0.36934592376E+04 0.  0.
        3    1    3    3  502    0 -0.93543227011E+03 -0.18313292180E+02  0.13288750524E+04  0.16252008565E+04  0.10100000352E+00 0. -1.
       -3    1    3    3    0  502  0.93543227011E+03  0.18313292180E+02 -0.18923291474E+04  0.21109899386E+04  0.10100000352E+00 0.  1.
</event>
<event>
 5   0  0.1856107E-08  0.3700220E+04  0.7818609E-02  0.8067913E-01
       -2   -1    0    0    0  501  0.00000000000E+00  0.00000000000E+00  0.14230601113E+04  0.14230601113E+04  0.25500000920E-02 0.  1.
        2   -1    0    0  501    0  0.00000000000E+00  0.00000000000E+00 -0.24053149934E+04  0.24053149934E+04  0.25500000920E-02 0. -1.
    10030    2    1    2    0    0  0.00000000000E+00  0.00000000000E+00 -0.98225488216E+03  0.38283751047E+04  0.37002204379E+04 0.  0.
        2    1    3    3  502    0  0.57896883779E+02 -0.66550007160E+03  0.12939287741E+04  0.14561916313E+04  0.25500000920E-02 0.  1.
       -2    1    3    3    0  502 -0.57896883779E+02  0.66550007160E+03 -0.22761836563E+04  0.23721834734E+04  0.25500000920E-02 0. -1.
</event>
<event>
 5   0  0.5714125E-09  0.3696662E+04  0.7818609E-02  0.8068702E-01
       -1   -1    0    0    0  501  0.00000000000E+00  0.00000000000E+00  0.13370956700E+04  0.13370956700E+04  0.50400001928E-02 0.  1.
        1   -1    0    0  501    0  0.00000000000E+00  0.00000000000E+00 -0.25550363607E+04  0.25550363607E+04  0.50400001928E-02 0. -1.
    10030    2    1    2    0    0  0.00000000000E+00  0.00000000000E+00 -0.12179406906E+04  0.38921320307E+04  0.36966623079E+04 0.  0.
        2    1    3    3  502    0 -0.10045641832E+04 -0.11961944243E+03 -0.22376562634E+04  0.24557205790E+04  0.25500000920E-02 0. -1.
       -2    1    3    3    0  502  0.10045641832E+04  0.11961944243E+03  0.10197155727E+04  0.14364114517E+04  0.25500000920E-02 0.  1.
</event>
<event>
 5   0  0.1740290E-08  0.3701965E+04  0.7818609E-02  0.8067526E-01
       -2   -1    0    0    0  501  0.00000000000E+00  0.00000000000E+00  0.26141267416E+04  0.26141267416E+04  0.25500000920E-02 0. -1.
        2   -1    0    0  501    0  0.00000000000E+00  0.00000000000E+00 -0.13106239386E+04  0.13106239386E+04  0.25500000920E-02 0.  1.
    10030    2    1    2    0    0  0.00000000000E+00  0.00000000000E+00  0.13035028030E+04  0.39247506802E+04  0.37019654704E+04 0.  0.
        5    1    3    3  502    0  0.18099895762E+04 -0.26067415552E+03  0.34797374797E+03  0.18614835752E+04  0.46999998093E+01 0.  1.
       -5    1    3    3    0  502 -0.18099895762E+04  0.26067415552E+03  0.95552905505E+03  0.20632671050E+04  0.46999998093E+01 0. -1.
</event>
<event>
 5   0  0.1740290E-08  0.3705974E+04  0.7818609E-02  0.8066639E-01
       -2   -1    0    0    0  501  0.00000000000E+00  0.00000000000E+00  0.18542622028E+04  0.18542622028E+04  0.25500000920E-02 0. -1.
        2   -1    0    0  501    0  0.00000000000E+00  0.00000000000E+00 -0.18517124108E+04  0.18517124108E+04  0.25500000920E-02 0.  1.
    10030    2    1    2    0    0  0.00000000000E+00  0.00000000000E+00  0.25497919573E+01  0.37059746136E+04  0.37059737364E+04 0.  0.
        5    1    3    3  502    0 -0.47156784954E+03 -0.10833693138E+04  0.14286759964E+04  0.18539693901E+04  0.46999998093E+01 0. -1.
       -5    1    3    3    0  502  0.47156784954E+03  0.10833693138E+04 -0.14261262044E+04  0.18520052235E+04  0.46999998093E+01 0.  1.
</event>
<event>
 5   0  0.1725865E-08  0.3699486E+04  0.7818609E-02  0.8068076E-01
       -2   -1    0    0    0  501  0.00000000000E+00  0.00000000000E+00  0.25537951033E+04  0.25537951033E+04  0.25500000920E-02 0. -1.
        2   -1    0    0  501    0  0.00000000000E+00  0.00000000000E+00 -0.13397902395E+04  0.13397902395E+04  0.25500000920E-02 0.  1.
    10030    2    1    2    0    0  0.00000000000E+00  0.00000000000E+00  0.12140048637E+04  0.38935853428E+04  0.36994863174E+04 0.  0.
        1    1    3    3  502    0  0.42948841301E+03 -0.20364481850E+03 -0.12744174058E+04  0.13601732365E+04  0.50400001928E-02 0.  1.
       -1    1    3    3    0  502 -0.42948841301E+03  0.20364481850E+03  0.24884222695E+04  0.25334121063E+04  0.50400001928E-02 0. -1.
</event>
<event>
 5   0  0.1825308E-08  0.3700652E+04  0.7818609E-02  0.8067817E-01
        2   -1    0    0  501    0  0.00000000000E+00  0.00000000000E+00  0.26978967232E+04  0.26978967232E+04  0.25500000920E-02 0. -1.
       -2   -1    0    0    0  501  0.00000000000E+00  0.00000000000E+00 -0.12690277392E+04  0.12690277392E+04  0.25500000920E-02 0.  1.
    10030    2    1    2    0    0  0.00000000000E+00  0.00000000000E+00  0.14288689839E+04  0.39669244624E+04  0.37006517152E+04 0.  0.
        4    1    3    3  502    0 -0.16880251588E+04 -0.14467968245E+03  0.15118284393E+04  0.22706800721E+04  0.12699999809E+01 0. -1.
       -4    1    3    3    0  502  0.16880251588E+04  0.14467968245E+03 -0.82959455367E+02  0.16962443902E+04  0.12699999809E+01 0.  1.
</event>
<event>
 5   0  0.5714125E-09  0.3700404E+04  0.7818609E-02  0.8067872E-01
       -1   -1    0    0    0  501  0.00000000000E+00  0.00000000000E+00  0.14522150448E+04  0.14522150448E+04  0.50400001928E-02 0. -1.
        1   -1    0    0  501    0  0.00000000000E+00  0.00000000000E+00 -0.23572594514E+04  0.23572594514E+04  0.50400001928E-02 0.  1.
    10030    2    1    2    0    0  0.00000000000E+00  0.00000000000E+00 -0.90504440661E+03  0.38094744961E+04  0.37004041075E+04 0.  0.
        2    1    3    3  502    0  0.61600457381E+03 -0.13847078217E+04  0.64006598785E+03  0.16451631698E+04  0.25500000920E-02 0. -1.
       -2    1    3    3    0  502 -0.61600457381E+03  0.13847078217E+04 -0.15451103945E+04  0.21643113264E+04  0.25500000920E-02 0.  1.
</event>
<event>
 5   0  0.5714125E-09  0.3700446E+04  0.7818609E-02  0.8067863E-01
       -1   -1    0    0    0  501  0.00000000000E+00  0.00000000000E+00  0.19719969736E+04  0.19719969736E+04  0.50400001928E-02 0.  1.
        1   -1    0    0  501    0  0.00000000000E+00  0.00000000000E+00 -0.17359685715E+04  0.17359685715E+04  0.50400001928E-02 0. -1.
    10030    2    1    2    0    0  0.00000000000E+00  0.00000000000E+00  0.23602840213E+03  0.37079655451E+04  0.37004457944E+04 0.  0.
        2    1    3    3  502    0  0.39392399208E+03 -0.19903366561E+03  0.19184777885E+04  0.19685902409E+04  0.25500000920E-02 0.  1.
       -2    1    3    3    0  502 -0.39392399208E+03  0.19903366561E+03 -0.16824493863E+04  0.17393753043E+04  0.25500000920E-02 0. -1.
</event>
<event>
 5   0  0.1740290E-08  0.3699930E+04  0.7818609E-02  0.8067977E-01
       -2   -1    0    0    0  501  0.00000000000E+00  0.00000000000E+00  0.14974681624E+04  0.14974681624E+04  0.25500000920E-02 0. -1.
        2   -1    0    0  501    0  0.00000000000E+00  0.00000000000E+00 -0.22854377849E+04  0.22854377849E+04  0.25500000920E-02 0.  1.
    10030    2    1    2    0    0  0.00000000000E+00  0.00000000000E+00 -0.78796962251E+03  0.37829059472E+04  0.36999299020E+04 0.  0.
        5    1    3    3  502    0  0.30843376654E+02  0.16322729152E+04 -0.12836027288E+04  0.20767581079E+04  0.46999998093E+01 0.  1.
       -5    1    3    3    0  502 -0.30843376654E+02 -0.16322729152E+04  0.49563310625E+03  0.17061478393E+04  0.46999998093E+01 0. -1.
</event>
<event>
 5   0  0.1757996E-08  0.3700291E+04  0.7818609E-02  0.8067897E-01
       -2   -1    0    0    0  501  0.00000000000E+00  0.00000000000E+00  0.23297138477E+04  0.23297138477E+04  0.25500000920E-02 0. -1.
        2   -1    0    0  501    0  0.00000000000E+00  0.00000000000E+00 -0.14692953188E+04  0.14692953188E+04  0.25500000920E-02 0.  1.
    10030    2    1    2    0    0  0.00000000000E+00  0.00000000000E+00  0.86041852891E+03  0.37990091665E+04  0.37002906105E+04 0.  0.
        3    1    3    3  502    0  0.10315871613E+04  0.88207809811E+03  0.17210524697E+04  0.21918611855E+04  0.10100000352E+00 0. -1.
       -3    1    3    3    0  502 -0.10315871613E+04 -0.88207809811E+03 -0.86063394081E+03  0.16071479810E+04  0.10100000352E+00 0.  1.
</event>
<event>
 5   0  0.5714125E-09  0.3703102E+04  0.7818609E-02  0.8067275E-01
       -1   -1    0    0    0  501  0.00000000000E+00  0.00000000000E+00  0.20573007459E+04  0.20573007459E+04  0.50400001928E-02 0.  1.
        1   -1    0    0  501    0  0.00000000000E+00  0.00000000000E+00 -0.16663784565E+04  0.16663784565E+04  0.50400001928E-02 0. -1.
    10030    2    1    2    0    0  0.00000000000E+00  0.00000000000E+00  0.39092228937E+03  0.37236792024E+04  0.37031022895E+04 0.  0.
        2    1    3    3  502    0  0.99245621789E+02  0.11847007809E+04 -0.12318896243E+04  0.17119923131E+04  0.25500000920E-02 0. -1.
       -2    1    3    3    0  502 -0.99245621789E+02 -0.11847007809E+04  0.16228119136E+04  0.20116868893E+04  0.25500000920E-02 0.  1.
</event>
<event>
 5   0  0.1825308E-08  0.3701941E+04  0.7818609E-02  0.8067532E-01
        2   -1    0    0  501    0  0.00000000000E+00  0.00000000000E+00  0.25417501172E+04  0.25417501172E+04  0.25500000920E-02 0. -1.
       -2   -1    0    0    0  501  0.00000000000E+00  0.00000000000E+00 -0.13479261445E+04  0.13479261445E+04  0.25500000920E-02 0.  1.
    10030    2    1    2    0    0  0.00000000000E+00  0.00000000000E+00  0.11938239727E+04  0.38896762617E+04  0.37019408077E+04 0.  0.
        4    1    3    3  502    0 -0.15587262320E+04 -0.70124143040E+03  0.13433787121E+04  0.21739445685E+04  0.12699999809E+01 0. -1.
       -4    1    3    3    0  502  0.15587262320E+04  0.70124143040E+03 -0.14955473948E+03  0.17157316932E+04  0.12699999809E+01 0.  1.
</event>
<event>
 5   0  0.5714125E-09  0.3705561E+04  0.7818609E-02  0.8066731E-01
       -1   -1    0    0    0  501  0.00000000000E+00  0.00000000000E+00  0.17352942335E+04  0.17352942335E+04  0.50400001928E-02 0. -1.
        1   -1    0    0  501    0  0.00000000000E+00  0.00000000000E+00 -0.19782205948E+04  0.19782205948E+04  0.50400001928E-02 0.  1.
    10030    2    1    2    0    0  0.00000000000E+00  0.00000000000E+00 -0.24292636131E+03  0.37135148283E+04  0.37055605734E+04 0.  0.
        4    1    3    3  502    0  0.53543323040E+03 -0.17611803471E+04  0.89579033650E+02  0.18429517019E+04  0.12699999809E+01 0. -1.
       -4    1    3    3    0  502 -0.53543323040E+03  0.17611803471E+04 -0.33250539496E+03  0.18705631264E+04  0.12699999809E+01 0.  1.
</event>
<event>
 5   0  0.5714125E-09  0.3700611E+04  0.7818609E-02  0.8067827E-01
       -1   -1    0    0    0  501  0.00000000000E+00  0.00000000000E+00  0.16221822920E+04  0.16221822920E+04  0.50400001928E-02 0. -1.
        1   -1    0    0  501    0  0.00000000000E+00  0.00000000000E+00 -0.21105086705E+04  0.21105086705E+04  0.50400001928E-02 0.  1.
    10030    2    1    2    0    0  0.00000000000E+00  0.00000000000E+00 -0.48832637851E+03  0.37326909626E+04  0.37006106483E+04 0.  0.
        3    1    3    3  502    0  0.26562240120E+03 -0.53879335527E+03  0.15210870375E+04  0.16354079997E+04  0.10100000352E+00 0. -1.
       -3    1    3    3    0  502 -0.26562240120E+03  0.53879335527E+03 -0.20094134160E+04  0.20972829629E+04  0.10100000352E+00 0.  1.
</event>
<event>
 5   0  0.1725865E-08  0.3702479E+04  0.7818609E-02  0.8067413E-01
        2   -1    0    0  501    0  0.00000000000E+00  0.00000000000E+00  0.13254364536E+04  0.13254364536E+04  0.25500000920E-02 0. -1.
       -2   -1    0    0    0  501  0.00000000000E+00  0.00000000000E+00 -0.25856299276E+04  0.25856299276E+04  0.25500000920E-02 0.  1.
    10030    2    1    2    0    0  0.00000000000E+00  0.00000000000E+00 -0.12601934740E+04  0.39110663812E+04  0.37024792567E+04 0.  0.
        1    1    3    3  502    0 -0.14888382914E+04 -0.10790122244E+04 -0.40309157220E+03  0.18823893471E+04  0.50400001928E-02 0.  1.
       -1    1    3    3    0  502  0.14888382914E+04  0.10790122244E+04 -0.85710190182E+03  0.20286770341E+04  0.50400001928E-02 0. -1.
</event>
<event>
 5   0  0.5714125E-09  0.3700368E+04  0.7818609E-02  0.8067880E-01
       -1   -1    0    0    0  501  0.00000000000E+00  0.00000000000E+00  0.18947361416E+04  0.18947361416E+04  0.50400001928E-02 0. -1.
        1   -1    0    0  501    0  0.00000000000E+00  0.00000000000E+00 -0.18066796455E+04  0.18066796455E+04  0.50400001928E-02 0.  1.
    10030    2    1    2    0    0  0.00000000000E+00  0.00000000000E+00  0.88056496124E+02  0.37014157871E+04  0.37003682091E+04 0.  0.
        2    1    3    3  502    0  0.30246205249E+03 -0.11224782095E+04 -0.13957334636E+04  0.18164560346E+04  0.25500000920E-02 0.  1.
       -2    1    3    3    0  502 -0.30246205249E+03  0.11224782095E+04  0.14837899597E+04  0.18849597525E+04  0.25500000920E-02 0. -1.
</event>
<event>
 5   0  0.1725865E-08  0.3694437E+04  0.7818609E-02  0.8069196E-01
       -2   -1    0    0    0  501  0.00000000000E+00  0.00000000000E+00  0.26084134122E+04  0.26084134122E+04  0.25500000920E-02 0. -1.
        2   -1    0    0  501    0  0.00000000000E+00  0.00000000000E+00 -0.13081576852E+04  0.13081576852E+04  0.25500000920E-02 0.  1.
    10030    2    1    2    0    0  0.00000000000E+00  0.00000000000E+00  0.13002557270E+04  0.39165710975E+04  0.36944369268E+04 0.  0.
        1    1    3    3  502    0 -0.10851750401E+04  0.94623538130E+03 -0.57671389894E+03  0.15509884544E+04  0.50400001928E-02 0.  1.
       -1    1    3    3    0  502  0.10851750401E+04 -0.94623538130E+03  0.18769696259E+04  0.23655826431E+04  0.50400001928E-02 0. -1.
</event>
<event>
 5   0  0.1757996E-08  0.3700485E+04  0.7818609E-02  0.8067854E-01
       -2   -1    0    0    0  501  0.00000000000E+00  0.00000000000E+00  0.19949025988E+04  0.19949025988E+04  0.25500000920E-02 0.  1.
        2   -1    0    0  501    0  0.00000000000E+00  0.00000000000E+00 -0.17160726654E+04  0.17160726654E+04  0.25500000920E-02 0. -1.
    10030    2    1    2    0    0  0.00000000000E+00  0.00000000000E+00  0.27882993336E+03  0.37109752642E+04  0.37004852763E+04 0.  0.
        3    1    3    3  502    0 -0.83582682276E+03  0.97523757777E+03  0.14749947274E+04  0.19558385073E+04  0.10100000352E+00 0.  1.
       -3    1    3    3    0  502  0.83582682276E+03 -0.97523757777E+03 -0.11961647940E+04  0.17551367569E+04  0.10100000352E+00 0. -1.
</event>
<event>
 5   0  0.5714125E-09  0.3698532E+04  0.7818609E-02  0.8068287E-01
        1   -1    0    0  501    0  0.00000000000E+00  0.00000000000E+00  0.11232023004E+04  0.11232023004E+04  0.50400001928E-02 0. -1.
       -1   -1    0    0    0  501  0.00000000000E+00  0.00000000000E+00 -0.30446734032E+04  0.30446734032E+04  0.50400001928E-02 0.  1.
    10030    2    1    2    0    0  0.00000000000E+00  0.00000000000E+00 -0.19214711027E+04  0.41678757036E+04  0.36985316927E+04 0.  0.
        1    1    3    3  502    0 -0.64216394584E+03 -0.55284016590E+03  0.89155962404E+03  0.12299940429E+04  0.50400001928E-02 0. -1.
       -1    1    3    3    0  502  0.64216394584E+03  0.55284016590E+03 -0.28130307268E+04  0.29378816607E+04  0.50400001928E-02 0.  1.
</event>
<event>
 5   0  0.5714125E-09  0.3700883E+04  0.7818609E-02  0.8067766E-01
        1   -1    0    0  501    0  0.00000000000E+00  0.00000000000E+00  0.11967966099E+04  0.11967966099E+04  0.50400001928E-02 0.  1.
       -1   -1    0    0    0  501  0.00000000000E+00  0.00000000000E+00 -0.28610829334E+04  0.28610829334E+04  0.50400001928E-02 0. -1.
    10030    2    1    2    0    0  0.00000000000E+00  0.00000000000E+00 -0.16642863235E+04  0.40578795433E+04  0.37008833299E+04 0.  0.
        1    1    3    3  502    0  0.17143092080E+03 -0.16984070293E+04 -0.48990036500E+02  0.17077397406E+04  0.50400001928E-02 0.  1.
       -1    1    3    3    0  502 -0.17143092080E+03  0.16984070293E+04 -0.16152962870E+04  0.23501398027E+04  0.50400001928E-02 0. -1.
</event>
<event>
 5   0  0.1725865E-08  0.3697899E+04  0.7818609E-02  0.8068428E-01
       -2   -1    0    0    0  501  0.00000000000E+00  0.00000000000E+00  0.13706048319E+04  0.13706048319E+04  0.25500000920E-02 0.  1.
        2   -1    0    0  501    0  0.00000000000E+00  0.00000000000E+00 -0.24942382619E+04  0.24942382619E+04  0.25500000920E-02 0. -1.
    10030    2    1    2    0    0  0.00000000000E+00  0.00000000000E+00 -0.11236334299E+04  0.38648430938E+04  0.36978994111E+04 0.  0.
        1    1    3    3  502    0  0.15440147803E+03 -0.53783215045E+03 -0.24036205107E+04  0.24678927849E+04  0.50400001928E-02 0. -1.
       -1    1    3    3    0  502 -0.15440147803E+03  0.53783215045E+03  0.12799870808E+04  0.13969503089E+04  0.50400001928E-02 0.  1.
</event>
<event>
 5   0  0.5714125E-09  0.3700591E+04  0.7818609E-02  0.8067831E-01
        1   -1    0    0  501    0  0.00000000000E+00  0.00000000000E+00  0.24960312894E+04  0.24960312894E+04  0.50400001928E-02 0. -1.
       -1   -1    0    0    0  501  0.00000000000E+00  0.00000000000E+00 -0.13716149563E+04  0.13716149563E+04  0.50400001928E-02 0.  1.
    10030    2    1    2    0    0  0.00000000000E+00  0.00000000000E+00  0.11244163331E+04  0.38676462457E+04  0.37005912219E+04 0.  0.
        2    1    3    3  502    0  0.11200219413E+04 -0.95741908656E+03  0.17318781681E+04  0.22738738851E+04  0.25500000920E-02 0. -1.
       -2    1    3    3    0  502 -0.11200219413E+04  0.95741908656E+03 -0.60746183506E+03  0.15937723606E+04  0.25500000920E-02 0.  1.
</event>
<event>
 5   0  0.5714125E-09  0.3701553E+04  0.7818609E-02  0.8067618E-01
       -1   -1    0    0    0  501  0.00000000000E+00  0.00000000000E+00  0.11888848162E+04  0.11888848162E+04  0.50400001928E-02 0. -1.
        1   -1    0    0  501    0  0.00000000000E+00  0.00000000000E+00 -0.28811652500E+04  0.28811652500E+04  0.50400001928E-02 0.  1.
    10030    2    1    2    0    0  0.00000000000E+00  0.00000000000E+00 -0.16922804339E+04  0.40700500662E+04  0.37015529814E+04 0.  0.
        1    1    3    3  502    0  0.22177740195E+03  0.12498791089E+04  0.63478558424E+03  0.14192729621E+04  0.50400001928E-02 0. -1.
       -1    1    3    3    0  502 -0.22177740195E+03 -0.12498791089E+04 -0.23270660181E+04  0.26507771041E+04  0.50400001928E-02 0.  1.
</event>
<event>
 5   0  0.1757996E-08  0.3699841E+04  0.7818609E-02  0.8067997E-01
        2   -1    0    0  501    0  0.00000000000E+00  0.00000000000E+00  0.24446087453E+04  0.24446087453E+04  0.25500000920E-02 0. -1.
       -2   -1    0    0    0  501  0.00000000000E+00  0.00000000000E+00 -0.13998988972E+04  0.13998988972E+04  0.25500000920E-02 0.  1.
    10030    2    1    2    0    0  0.00000000000E+00  0.00000000000E+00  0.10447098481E+04  0.38445076426E+04  0.36998405840E+04 0.  0.
        3    1    3    3  502    0 -0.98991011042E+02  0.52564588565E+01 -0.13971370375E+04  0.14006494074E+04  0.10100000352E+00 0.  1.
       -3    1    3    3    0  502  0.98991011042E+02 -0.52564588565E+01  0.24418468856E+04  0.24438582352E+04  0.10100000352E+00 0. -1.
</event>
<event>
 5   0  0.5714125E-09  0.3699341E+04  0.7818609E-02  0.8068108E-01
        1   -1    0    0  501    0  0.00000000000E+00  0.00000000000E+00  0.12088240535E+04  0.12088240535E+04  0.50400001928E-02 0.  1.
       -1   -1    0    0    0  501  0.00000000000E+00  0.00000000000E+00 -0.28302562156E+04  0.28302562156E+04  0.50400001928E-02 0. -1.
    10030    2    1    2    0    0  0.00000000000E+00  0.00000000000E+00 -0.16214321622E+04  0.40390802691E+04  0.36993414500E+04 0.  0.
        4    1    3    3  502    0 -0.10782678644E+04 -0.33407501850E+03 -0.24105516534E+04  0.26617717017E+04  0.12699999809E+01 0. -1.
       -4    1    3    3    0  502  0.10782678644E+04  0.33407501850E+03  0.78911949127E+03  0.13773085674E+04  0.12699999809E+01 0.  1.
</event>
<event>
 5   0  0.5714125E-09  0.3699632E+04  0.7818609E-02  0.8068043E-01
       -1   -1    0    0    0  501  0.00000000000E+00  0.00000000000E+00  0.21944078214E+04  0.21944078214E+04  0.50400001928E-02 0.  1.
        1   -1    0    0  501    0  0.00000000000E+00  0.00000000000E+00 -0.15593357065E+04  0.15593357065E+04  0.50400001928E-02 0. -1.
    10030    2    1    2    0    0  0.00000000000E+00  0.00000000000E+00  0.63507211487E+03  0.37537435279E+04  0.36996315873E+04 0.  0.
        1    1    3    3  502    0  0.94633446086E+01 -0.12191689765E+04  0.17290544467E+04  0.21156776285E+04  0.50400001928E-02 0.  1.
       -1    1    3    3    0  502 -0.94633446086E+01  0.12191689765E+04 -0.10939823318E+04  0.16380658993E+04  0.50400001928E-02 0. -1.
</event>
<event>
 5   0  0.5714125E-09  0.3702939E+04  0.7818609E-02  0.8067311E-01
       -1   -1    0    0    0  501  0.00000000000E+00  0.00000000000E+00  0.13904367623E+04  0.13904367623E+04  0.50400001928E-02 0.  1.
        1   -1    0    0  501    0  0.00000000000E+00  0.00000000000E+00 -0.24653693874E+04  0.24653693874E+04  0.50400001928E-02 0. -1.
    10030    2    1    2    0    0  0.00000000000E+00  0.00000000000E+00 -0.10749326250E+04  0.38558061497E+04  0.37029394966E+04 0.  0.
        1    1    3    3  502    0 -0.33230326984E+03  0.37661409133E+03 -0.23930763350E+04  0.24452153242E+04  0.50400001928E-02 0. -1.
       -1    1    3    3    0  502  0.33230326984E+03 -0.37661409133E+03  0.13181437099E+04  0.14105908255E+04  0.50400001928E-02 0.  1.
</event>
<event>
 5   0  0.1856107E-08  0.3697291E+04  0.7818609E-02  0.8068562E-01
        2   -1    0    0  501    0  0.00000000000E+00  0.00000000000E+00  0.24793292248E+04  0.24793292248E+04  0.25500000920E-02 0. -1.
       -2   -1    0    0    0  501  0.00000000000E+00  0.00000000000E+00 -0.13783934242E+04  0.13783934242E+04  0.25500000920E-02 0.  1.
    10030    2    1    2    0    0  0.00000000000E+00  0.00000000000E+00  0.11009358006E+04  0.38577226490E+04  0.36972914951E+04 0.  0.
        2    1    3    3  502    0 -0.99249960312E+03  0.61444099835E+03 -0.94522500259E+03  0.15020131518E+04  0.25500000920E-02 0.  1.
       -2    1    3    3    0  502  0.99249960312E+03 -0.61444099835E+03  0.20461608032E+04  0.23557094972E+04  0.25500000920E-02 0. -1.
</event>
<event>
 5   0  0.1825308E-08  0.3700417E+04  0.7818609E-02  0.8067869E-01
       -2   -1    0    0    0  501  0.00000000000E+00  0.00000000000E+00  0.19308878673E+04  0.19308878673E+04  0.25500000920E-02 0.  1.
        2   -1    0    0  501    0  0.00000000000E+00  0.00000000000E+00 -0.17729006024E+04  0.17729006024E+04  0.25500000920E-02 0. -1.
    10030    2    1    2    0    0  0.00000000000E+00  0.00000000000E+00  0.15798726494E+03  0.37037884697E+04  0.37004174160E+04 0.  0.
        4    1    3    3  502    0 -0.11834487338E+03  0.16862682723E+04 -0.67386474681E+03  0.18197806201E+04  0.12699999809E+01 0. -1.
       -4    1    3    3    0  502  0.11834487338E+03 -0.16862682723E+04  0.83185201175E+03  0.18840078497E+04  0.12699999809E+01 0.  1.
</event>
<event>
 5   0  0.1757996E-08  0.3698093E+04  0.7818609E-02  0.8068385E-01
        2   -1    0    0  501    0  0.00000000000E+00  0.00000000000E+00  0.15891116659E+04  0.15891116659E+04  0.25500000920E-02 0.  1.
       -2   -1    0    0    0  501  0.00000000000E+00  0.00000000000E+00 -0.21514990629E+04  0.21514990629E+04  0.25500000920E-02 0. -1.
    10030    2    1    2    0    0  0.00000000000E+00  0.00000000000E+00 -0.56238739699E+03  0.37406107288E+04  0.36980926219E+04 0.  0.
        3    1    3    3  502    0 -0.15991056075E+04  0.62587179130E+03  0.41234096764E+03  0.17660349166E+04  0.10100000352E+00 0. -1.
       -3    1    3    3    0  502  0.15991056075E+04 -0.62587179130E+03 -0.97472836464E+03  0.19745758122E+04  0.10100000352E+00 0.  1.
</event>
<event>
 5   0  0.5714125E-09  0.3701735E+04  0.7818609E-02  0.8067578E-01
        1   -1    0    0  501    0  0.00000000000E+00  0.00000000000E+00  0.22521527067E+04  0.22521527067E+04  0.50400001928E-02 0. -1.
       -1   -1    0    0    0  501  0.00000000000E+00  0.00000000000E+00 -0.15210824014E+04  0.15210824014E+04  0.50400001928E-02 0.  1.
    10030    2    1    2    0    0  0.00000000000E+00  0.00000000000E+00  0.73107030527E+03  0.37732351081E+04  0.37017346460E+04 0.  0.
        3    1    3    3  502    0  0.15229256049E+04 -0.42258361007E+03 -0.61630980186E+03  0.16963835320E+04  0.10100000352E+00 0.  1.
       -3    1    3    3    0  502 -0.15229256049E+04  0.42258361007E+03  0.13473801071E+04  0.20768515760E+04  0.10100000352E+00 0. -1.
</event>
<event>
 5   0  0.1757996E-08  0.3700524E+04  0.7818609E-02  0.8067846E-01
        2   -1    0    0  501    0  0.00000000000E+00  0.00000000000E+00  0.22231395299E+04  0.22231395299E+04  0.25500000920E-02 0. -1.
       -2   -1    0    0    0  501  0.00000000000E+00  0.00000000000E+00 -0.15399254314E+04  0.15399254314E+04  0.25500000920E-02 0.  1.
    10030    2    1    2    0    0  0.00000000000E+00  0.00000000000E+00  0.68321409856E+03  0.37630649613E+04  0.37005238005E+04 0.  0.
        3    1    3    3  502    0  0.29375901267E+03  0.73154886516E+03 -0.13606041006E+04  0.15724826321E+04  0.10100000352E+00 0.  1.
       -3    1    3    3    0  502 -0.29375901267E+03 -0.73154886516E+03  0.20438181991E+04  0.21905823292E+04  0.10100000352E+00 0. -1.
</event>
<event>
 5   0  0.1856107E-08  0.3700782E+04  0.7818609E-02  0.8067788E-01
        2   -1    0    0  501    0  0.00000000000E+00  0.00000000000E+00  0.17330263253E+04  0.17330263253E+04  0.25500000920E-02 0.  1.
       -2   -1    0    0    0  501  0.00000000000E+00  0.00000000000E+00 -0.19757043860E+04  0.19757043860E+04  0.25500000920E-02 0. -1.
    10030    2    1    2    0    0  0.00000000000E+00  0.00000000000E+00 -0.24267806062E+03  0.37087307113E+04  0.37007824643E+04 0.  0.
        2    1    3    3  502    0 -0.17038417332E+04  0.72127263167E+03 -0.14662913440E+03  0.18560201950E+04  0.25500000920E-02 0. -1.
       -2    1    3    3    0  502  0.17038417332E+04 -0.72127263167E+03 -0.96048926215E+02  0.18527105163E+04  0.25500000920E-02 0.  1.
</event>
<event>
 5   0  0.5714125E-09  0.3699202E+04  0.7818609E-02  0.8068139E-01
       -1   -1    0    0    0  501  0.00000000000E+00  0.00000000000E+00  0.18193228401E+04  0.18193228402E+04  0.50400001928E-02 0.  1.
        1   -1    0    0  501    0  0.00000000000E+00  0.00000000000E+00 -0.18803829499E+04  0.18803829500E+04  0.50400001928E-02 0. -1.
    10030    2    1    2    0    0  0.00000000000E+00  0.00000000000E+00 -0.61060109801E+02  0.36997057901E+04  0.36992018864E+04 0.  0.
        3    1    3    3  502    0  0.18271198688E+04 -0.16380337735E+03 -0.26683555060E+03  0.18537528915E+04  0.10100000352E+00 0. -1.
       -3    1    3    3    0  502 -0.18271198688E+04  0.16380337735E+03  0.20577544080E+03  0.18459528986E+04  0.10100000352E+00 0.  1.
</event>
<event>
 5   0  0.1740290E-08  0.3702247E+04  0.7818609E-02  0.8067464E-01
        2   -1    0    0  501    0  0.00000000000E+00  0.00000000000E+00  0.23607467041E+04  0.23607467041E+04  0.25500000920E-02 0. -1.
       -2   -1    0    0    0  501  0.00000000000E+00  0.00000000000E+00 -0.14515148869E+04  0.14515148869E+04  0.25500000920E-02 0.  1.
    10030    2    1    2    0    0  0.00000000000E+00  0.00000000000E+00  0.90923181719E+03  0.38122615910E+04  0.37022474175E+04 0.  0.
        5    1    3    3  502    0  0.10792383980E+04  0.86375529728E+03 -0.81315089401E+03  0.16037659430E+04  0.46999998093E+01 0.  1.
       -5    1    3    3    0  502 -0.10792383980E+04 -0.86375529728E+03  0.17223827112E+04  0.22084956480E+04  0.46999998093E+01 0. -1.
</event>
<event>
 5   0  0.5714125E-09  0.3700919E+04  0.7818609E-02  0.8067758E-01
       -3   -1    0    0    0  501  0.00000000000E+00  0.00000000000E+00  0.19848689546E+04  0.19848689572E+04  0.10100000352E+00 0.  1.
        3   -1    0    0  501    0  0.00000000000E+00  0.00000000000E+00 -0.17251515142E+04  0.17251515172E+04  0.10100000352E+00 0. -1.
    10030    2    1    2    0    0  0.00000000000E+00  0.00000000000E+00  0.25971744038E+03  0.37100204743E+04  0.37009186388E+04 0.  0.
        1    1    3    3  502    0 -0.16928072955E+04 -0.68414791194E+03  0.43150536264E+03  0.18761268036E+04  0.50400001928E-02 0.  1.
       -1    1    3    3    0  502  0.16928072955E+04  0.68414791194E+03 -0.17178792227E+03  0.18338936707E+04  0.50400001928E-02 0. -1.
</event>
<event>
 5   0  0.1740290E-08  0.3699855E+04  0.7818609E-02  0.8067994E-01
       -2   -1    0    0    0  501  0.00000000000E+00  0.00000000000E+00  0.26691553540E+04  0.26691553540E+04  0.25500000920E-02 0. -1.
        2   -1    0    0  501    0  0.00000000000E+00  0.00000000000E+00 -0.12821405715E+04  0.12821405715E+04  0.25500000920E-02 0.  1.
    10030    2    1    2    0    0  0.00000000000E+00  0.00000000000E+00  0.13870147825E+04  0.39512959254E+04  0.36998553328E+04 0.  0.
        5    1    3    3  502    0  0.30438995555E+03 -0.10726075748E+04 -0.88297965637E+03  0.14222571561E+04  0.46999998093E+01 0.  1.
       -5    1    3    3    0  502 -0.30438995555E+03  0.10726075748E+04  0.22699944388E+04  0.25290387693E+04  0.46999998093E+01 0. -1.
</event>
<event>
 5   0  0.1725865E-08  0.3703576E+04  0.7818609E-02  0.8067170E-01
       -2   -1    0    0    0  501  0.00000000000E+00  0.00000000000E+00  0.17492285295E+04  0.17492285295E+04  0.25500000920E-02 0.  1.
        2   -1    0    0  501    0  0.00000000000E+00  0.00000000000E+00 -0.19603606706E+04  0.19603606706E+04  0.25500000920E-02 0. -1.
    10030    2    1    2    0    0  0.00000000000E+00  0.00000000000E+00 -0.21113214104E+03  0.37095892001E+04  0.37035760088E+04 0.  0.
        1    1    3    3  502    0  0.82031093519E+03  0.11787248069E+04 -0.12765735814E+04  0.19214427677E+04  0.50400001928E-02 0.  1.
       -1    1    3    3    0  502 -0.82031093519E+03 -0.11787248069E+04  0.10654414404E+04  0.17881464324E+04  0.50400001928E-02 0. -1.
</event>
<event>
 5   0  0.1825308E-08  0.3699116E+04  0.7818609E-02  0.8068158E-01
       -2   -1    0    0    0  501  0.00000000000E+00  0.00000000000E+00  0.14496640146E+04  0.14496640147E+04  0.25500000920E-02 0.  1.
        2   -1    0    0  501    0  0.00000000000E+00  0.00000000000E+00 -0.23597638733E+04  0.23597638733E+04  0.25500000920E-02 0. -1.
    10030    2    1    2    0    0  0.00000000000E+00  0.00000000000E+00 -0.91009985870E+03  0.38094278880E+04  0.36991159864E+04 0.  0.
        4    1    3    3  502    0  0.17514777324E+04 -0.13281431369E+03  0.14149060117E+03  0.17621960992E+04  0.12699999809E+01 0.  1.
       -4    1    3    3    0  502 -0.17514777324E+04  0.13281431369E+03 -0.10515904599E+04  0.20472317888E+04  0.12699999809E+01 0. -1.
</event>
<event>
 5   0  0.5714125E-09  0.3701621E+04  0.7818609E-02  0.8067603E-01
       -1   -1    0    0    0  501  0.00000000000E+00  0.00000000000E+00  0.15024759526E+04  0.15024759526E+04  0.50400001928E-02 0. -1.
        1   -1    0    0  501    0  0.00000000000E+00  0.00000000000E+00 -0.22799032756E+04  0.22799032756E+04  0.50400001928E-02 0.  1.
    10030    2    1    2    0    0  0.00000000000E+00  0.00000000000E+00 -0.77742732300E+03  0.37823792283E+04  0.37016211832E+04 0.  0.
        3    1    3    3  502    0  0.11936312999E+03  0.18255295268E+04 -0.67535876748E+03  0.19501064292E+04  0.10100000352E+00 0.  1.
       -3    1    3    3    0  502 -0.11936312999E+03 -0.18255295268E+04 -0.10206855553E+03  0.18322727991E+04  0.10100000352E+00 0. -1.
</event>
<event>
 5   0  0.5714125E-09  0.3701513E+04  0.7818609E-02  0.8067627E-01
       -1   -1    0    0    0  501  0.00000000000E+00  0.00000000000E+00  0.22712376371E+04  0.22712376371E+04  0.50400001928E-02 0.  1.
        1   -1    0    0  501    0  0.00000000000E+00  0.00000000000E+00 -0.15081199619E+04  0.15081199619E+04  0.50400001928E-02 0. -1.
    10030    2    1    2    0    0  0.00000000000E+00  0.00000000000E+00  0.76311767517E+03  0.37793575990E+04  0.37015125659E+04 0.  0.
        4    1    3    3  502    0  0.13224046372E+04  0.83456432535E+03 -0.62923338795E+03  0.16855823643E+04  0.12699999809E+01 0. -1.
       -4    1    3    3    0  502 -0.13224046372E+04 -0.83456432535E+03  0.13923510631E+04  0.20937752347E+04  0.12699999809E+01 0.  1.
</event>
<event>
 5   0  0.1725865E-08  0.3699472E+04  0.7818609E-02  0.8068079E-01
        2   -1    0    0  501    0  0.00000000000E+00  0.00000000000E+00  0.14427665869E+04  0.14427665869E+04  0.25500000920E-02 0.  1.
       -2   -1    0    0    0  501  0.00000000000E+00  0.00000000000E+00 -0.23715020948E+04  0.23715020948E+04  0.25500000920E-02 0. -1.
    10030    2    1    2    0    0  0.00000000000E+00  0.00000000000E+00 -0.92873550788E+03  0.38142686817E+04  0.36994723857E+04 0.  0.
        1    1    3    3  502    0 -0.13742485257E+04  0.44853181157E+03 -0.16542073542E+04  0.21968481439E+04  0.50400001928E-02 0. -1.
       -1    1    3    3    0  502  0.13742485257E+04 -0.44853181157E+03  0.72547184635E+03  0.16174205379E+04  0.50400001928E-02 0.  1.
</event>
<event>
 5   0  0.5714125E-09  0.3702282E+04  0.7818609E-02  0.8067456E-01
        1   -1    0    0  501    0  0.00000000000E+00  0.00000000000E+00  0.22520346104E+04  0.22520346104E+04  0.50400001928E-02 0. -1.
       -1   -1    0    0    0  501  0.00000000000E+00  0.00000000000E+00 -0.15216123478E+04  0.15216123478E+04  0.50400001928E-02 0.  1.
    10030    2    1    2    0    0  0.00000000000E+00  0.00000000000E+00  0.73042226262E+03  0.37736469583E+04  0.37022823614E+04 0.  0.
        1    1    3    3  502    0 -0.27047932277E+03  0.40094986253E+03  0.21864958613E+04  0.22393490142E+04  0.50400001928E-02 0. -1.
       -1    1    3    3    0  502  0.27047932277E+03 -0.40094986253E+03 -0.14560735986E+04  0.15342979440E+04  0.50400001928E-02 0.  1.
</event>
<event>
 5   0  0.1825308E-08  0.3700075E+04  0.7818609E-02  0.8067945E-01
       -2   -1    0    0    0  501  0.00000000000E+00  0.00000000000E+00  0.14109816846E+04  0.14109816846E+04  0.25500000920E-02 0.  1.
        2   -1    0    0  501    0  0.00000000000E+00  0.00000000000E+00 -0.24257147219E+04  0.24257147219E+04  0.25500000920E-02 0. -1.
    10030    2    1    2    0    0  0.00000000000E+00  0.00000000000E+00 -0.10147330372E+04  0.38366964065E+04  0.37000751586E+04 0.  0.
        4    1    3    3  502    0  0.69953422562E+03 -0.86404958161E+03 -0.20407198765E+04  0.23238909268E+04  0.12699999809E+01 0. -1.
       -4    1    3    3    0  502 -0.69953422562E+03  0.86404958161E+03  0.10259868393E+04  0.15128054797E+04  0.12699999809E+01 0.  1.
</event>
<event>
 5   0  0.1740290E-08  0.3699325E+04  0.7818609E-02  0.8068111E-01
        2   -1    0    0  501    0  0.00000000000E+00  0.00000000000E+00  0.23572603234E+04  0.23572603234E+04  0.25500000920E-02 0.  1.
       -2   -1    0    0    0  501  0.00000000000E+00  0.00000000000E+00 -0.14513676839E+04  0.14513676839E+04  0.25500000920E-02 0. -1.
    10030    2    1    2    0    0  0.00000000000E+00  0.00000000000E+00  0.90589263949E+03  0.38086280073E+04  0.36993250497E+04 0.  0.
        5    1    3    3  502    0  0.48347863358E+03  0.26305832660E+03  0.22709865337E+04  0.23367398654E+04  0.46999998093E+01 0.  1.
       -5    1    3    3    0  502 -0.48347863358E+03 -0.26305832660E+03 -0.13650938942E+04  0.14718881419E+04  0.46999998093E+01 0. -1.
</event>
<event>
 5   0  0.1740290E-08  0.3701673E+04  0.7818609E-02  0.8067591E-01
        2   -1    0    0  501    0  0.00000000000E+00  0.00000000000E+00  0.13830814493E+04  0.13830814493E+04  0.25500000920E-02 0. -1.
       -2   -1    0    0    0  501  0.00000000000E+00  0.00000000000E+00 -0.24767848687E+04  0.24767848687E+04  0.25500000920E-02 0.  1.
    10030    2    1    2    0    0  0.00000000000E+00  0.00000000000E+00 -0.10937034195E+04  0.38598663180E+04  0.37016727061E+04 0.  0.
        5    1    3    3  502    0 -0.85561392578E+03 -0.64759307418E+03  0.10256134950E+04  0.14843709479E+04  0.46999998093E+01 0. -1.
       -5    1    3    3    0  502  0.85561392578E+03  0.64759307418E+03 -0.21193169145E+04  0.23754953702E+04  0.46999998093E+01 0.  1.
</event>
<event>
 5   0  0.5714125E-09  0.3700094E+04  0.7818609E-02  0.8067941E-01
       -1   -1    0    0    0  501  0.00000000000E+00  0.00000000000E+00  0.13941793214E+04  0.13941793214E+04  0.50400001928E-02 0. -1.
        1   -1    0    0  501    0  0.00000000000E+00  0.00000000000E+00 -0.24549740929E+04  0.24549740929E+04  0.50400001928E-02 0.  1.
    10030    2    1    2    0    0  0.00000000000E+00  0.00000000000E+00 -0.10607947715E+04  0.38491534143E+04  0.37000941150E+04 0.  0.
        4    1    3    3  502    0  0.16137385411E+04 -0.80197681704E+03 -0.96601938419E+03  0.20446305186E+04  0.12699999809E+01 0.  1.
       -4    1    3    3    0  502 -0.16137385411E+04  0.80197681704E+03 -0.94775387284E+02  0.18045228957E+04  0.12699999809E+01 0. -1.
</event>
<event>
 5   0  0.5714125E-09  0.3698211E+04  0.7818609E-02  0.8068358E-01
        1   -1    0    0  501    0  0.00000000000E+00  0.00000000000E+00  0.25197950281E+04  0.25197950281E+04  0.50400001928E-02 0. -1.
       -1   -1    0    0    0  501  0.00000000000E+00  0.00000000000E+00 -0.13569321767E+04  0.13569321767E+04  0.50400001928E-02 0.  1.
    10030    2    1    2    0    0  0.00000000000E+00  0.00000000000E+00  0.11628628513E+04  0.38767272048E+04  0.36982108930E+04 0.  0.
        4    1    3    3  502    0 -0.94523341496E+03  0.90353973361E+03  0.19519586897E+04  0.23494668753E+04  0.12699999809E+01 0. -1.
       -4    1    3    3    0  502  0.94523341496E+03 -0.90353973361E+03 -0.78909583835E+03  0.15272603295E+04  0.12699999809E+01 0.  1.
</event>
<event>
 5   0  0.5714125E-09  0.3700405E+04  0.7818609E-02  0.8067872E-01
        1   -1    0    0  501    0  0.00000000000E+00  0.00000000000E+00  0.19047138891E+04  0.19047138891E+04  0.50400001928E-02 0. -1.
       -1   -1    0    0    0  501  0.00000000000E+00  0.00000000000E+00 -0.17972514242E+04  0.17972514242E+04  0.50400001928E-02 0.  1.
    10030    2    1    2    0    0  0.00000000000E+00  0.00000000000E+00  0.10746246486E+03  0.37019653133E+04  0.37004052481E+04 0.  0.
        1    1    3    3  502    0 -0.12092353886E+04 -0.11040726127E+04  0.91550207579E+03  0.18759985634E+04  0.50400001928E-02 0.  1.
       -1    1    3    3    0  502  0.12092353886E+04  0.11040726127E+04 -0.80803961093E+03  0.18259667500E+04  0.50400001928E-02 0. -1.
</event>
<event>
 5   0  0.1740290E-08  0.3698259E+04  0.7818609E-02  0.8068348E-01
        2   -1    0    0  501    0  0.00000000000E+00  0.00000000000E+00  0.19906197246E+04  0.19906197246E+04  0.25500000920E-02 0.  1.
       -2   -1    0    0    0  501  0.00000000000E+00  0.00000000000E+00 -0.17176966347E+04  0.17176966347E+04  0.25500000920E-02 0. -1.
    10030    2    1    2    0    0  0.00000000000E+00  0.00000000000E+00  0.27292308988E+03  0.37083163593E+04  0.36982594835E+04 0.  0.
        5    1    3    3  502    0 -0.12903738874E+04  0.11901305756E+04 -0.44631007173E+03  0.18112676021E+04  0.46999998093E+01 0. -1.
       -5    1    3    3    0  502  0.12903738874E+04 -0.11901305756E+04  0.71923316161E+03  0.18970487572E+04  0.46999998093E+01 0.  1.
</event>
<event>
 5   0  0.1725865E-08  0.3700697E+04  0.7818609E-02  0.8067807E-01
       -2   -1    0    0    0  501  0.00000000000E+00  0.00000000000E+00  0.27534626166E+04  0.27534626166E+04  0.25500000920E-02 0. -1.
        2   -1    0    0  501    0  0.00000000000E+00  0.00000000000E+00 -0.12434486003E+04  0.12434486003E+04  0.25500000920E-02 0.  1.
    10030    2    1    2    0    0  0.00000000000E+00  0.00000000000E+00  0.15100140163E+04  0.39969112169E+04  0.37006968191E+04 0.  0.
        1    1    3    3  502    0 -0.32932155764E+03 -0.10967336280E+04 -0.81477944309E+03  0.14053977657E+04  0.50400001928E-02 0.  1.
       -1    1    3    3    0  502  0.32932155764E+03  0.10967336280E+04  0.23247934594E+04  0.25915134512E+04  0.50400001928E-02 0. -1.
</event>
<event>
 5   0  0.1725865E-08  0.3700036E+04  0.7818609E-02  0.8067954E-01
        2   -1    0    0  501    0  0.00000000000E+00  0.00000000000E+00  0.13049243566E+04  0.13049243566E+04  0.25500000920E-02 0.  1.
       -2   -1    0    0    0  501  0.00000000000E+00  0.00000000000E+00 -0.26228086945E+04  0.26228086945E+04  0.25500000920E-02 0. -1.
    10030    2    1    2    0    0  0.00000000000E+00  0.00000000000E+00 -0.13178843379E+04  0.39277330511E+04  0.37000361880E+04 0.  0.
        1    1    3    3  502    0  0.18080056884E+04  0.23168820375E+03 -0.99463526418E+03  0.20765026611E+04  0.50400001928E-02 0. -1.
       -1    1    3    3    0  502 -0.18080056884E+04 -0.23168820375E+03 -0.32324907375E+03  0.18512303900E+04  0.50400001928E-02 0.  1.
</event>
<event>
 5   0  0.1725865E-08  0.3700174E+04  0.7818609E-02  0.8067923E-01
       -2   -1    0    0    0  501  0.00000000000E+00  0.00000000000E+00  0.18465825246E+04  0.18465825246E+04  0.25500000920E-02 0.  1.
        2   -1    0    0  501    0  0.00000000000E+00  0.00000000000E+00 -0.18535984159E+04  0.18535984159E+04  0.25500000920E-02 0. -1.
    10030    2    1    2    0    0  0.00000000000E+00  0.00000000000E+00 -0.70158912832E+01  0.37001809405E+04  0.37001742891E+04 0.  0.
        1    1    3    3  502    0 -0.10821967698E+03 -0.73931655799E+01  0.18433998887E+04  0.18465885592E+04  0.50400001928E-02 0.  1.
       -1    1    3    3    0  502  0.10821967698E+03  0.73931655799E+01 -0.18504157800E+04  0.18535923813E+04  0.50400001928E-02 0. -1.
</event>
<event>
 5   0  0.5714125E-09  0.3700015E+04  0.7818609E-02  0.8067959E-01
        1   -1    0    0  501    0  0.00000000000E+00  0.00000000000E+00  0.11145702911E+04  0.11145702911E+04  0.50400001928E-02 0. -1.
       -1   -1    0    0    0  501  0.00000000000E+00  0.00000000000E+00 -0.30707146379E+04  0.30707146379E+04  0.50400001928E-02 0.  1.
    10030    2    1    2    0    0  0.00000000000E+00  0.00000000000E+00 -0.19561443469E+04  0.41852849290E+04  0.37000147609E+04 0.  0.
        2    1    3    3  502    0  0.50999068056E+03 -0.94015522328E+03 -0.26855315311E+04  0.28906853760E+04  0.25500000920E-02 0.  1.
       -2    1    3    3    0  502 -0.50999068056E+03  0.94015522328E+03  0.72938718426E+03  0.12945995530E+04  0.25500000920E-02 0. -1.
</event>
<event>
 5   0  0.5714125E-09  0.3700295E+04  0.7818609E-02  0.8067896E-01
        1   -1    0    0  501    0  0.00000000000E+00  0.00000000000E+00  0.15054213286E+04  0.15054213287E+04  0.50400001928E-02 0.  1.
       -1   -1    0    0    0  501  0.00000000000E+00  0.00000000000E+00 -0.22738127536E+04  0.22738127536E+04  0.50400001928E-02 0. -1.
    10030    2    1    2    0    0  0.00000000000E+00  0.00000000000E+00 -0.76839142495E+03  0.37792340823E+04  0.37002952405E+04 0.  0.
        5    1    3    3  502    0  0.87491157533E+03  0.70508795641E+03 -0.18853833726E+04  0.21948375435E+04  0.46999998093E+01 0. -1.
       -5    1    3    3    0  502 -0.87491157533E+03 -0.70508795641E+03  0.11169919476E+04  0.15843965387E+04  0.46999998093E+01 0.  1.
</event>
<event>
 5   0  0.1740290E-08  0.3703411E+04  0.7818609E-02  0.8067206E-01
        2   -1    0    0  501    0  0.00000000000E+00  0.00000000000E+00  0.16262998366E+04  0.16262998366E+04  0.25500000920E-02 0. -1.
       -2   -1    0    0    0  501  0.00000000000E+00  0.00000000000E+00 -0.21083519528E+04  0.21083519528E+04  0.25500000920E-02 0.  1.
    10030    2    1    2    0    0  0.00000000000E+00  0.00000000000E+00 -0.48205211614E+03  0.37346517894E+04  0.37034105558E+04 0.  0.
        5    1    3    3  502    0 -0.14874292381E+04 -0.22956417106E+03 -0.13288496929E+04  0.20077372944E+04  0.46999998093E+01 0.  1.
       -5    1    3    3    0  502  0.14874292381E+04  0.22956417106E+03  0.84679757671E+03  0.17269144950E+04  0.46999998093E+01 0. -1.
</event>
<event>
 5   0  0.5714125E-09  0.3699136E+04  0.7818609E-02  0.8068153E-01
       -1   -1    0    0    0  501  0.00000000000E+00  0.00000000000E+00  0.18477761286E+04  0.18477761286E+04  0.50400001928E-02 0.  1.
        1   -1    0    0  501    0  0.00000000000E+00  0.00000000000E+00 -0.18513614101E+04  0.18513614101E+04  0.50400001928E-02 0. -1.
    10030    2    1    2    0    0  0.00000000000E+00  0.00000000000E+00 -0.35852814681E+01  0.36991375387E+04  0.36991358012E+04 0.  0.
        4    1    3    3  502    0 -0.13234710723E+04  0.63219149149E+03  0.11249989272E+04  0.18484766594E+04  0.12699999809E+01 0.  1.
       -4    1    3    3    0  502  0.13234710723E+04 -0.63219149149E+03 -0.11285842086E+04  0.18506608793E+04  0.12699999809E+01 0. -1.
</event>
<event>
 5   0  0.1856107E-08  0.3704987E+04  0.7818609E-02  0.8066857E-01
        2   -1    0    0  501    0  0.00000000000E+00  0.00000000000E+00  0.23399071579E+04  0.23399071579E+04  0.25500000920E-02 0. -1.
       -2   -1    0    0    0  501  0.00000000000E+00  0.00000000000E+00 -0.14666107500E+04  0.14666107500E+04  0.25500000920E-02 0.  1.
    10030    2    1    2    0    0  0.00000000000E+00  0.00000000000E+00  0.87329640797E+03  0.38065179079E+04  0.37049874449E+04 0.  0.
        2    1    3    3  502    0 -0.17338019868E+03  0.12671234522E+04 -0.94025313137E+03  0.15873684158E+04  0.25500000920E-02 0.  1.
       -2    1    3    3    0  502  0.17338019868E+03 -0.12671234522E+04  0.18135495393E+04  0.22191494921E+04  0.25500000920E-02 0. -1.
</event>
<event>
 5   0  0.5714125E-09  0.3700260E+04  0.7818609E-02  0.8067904E-01
        1   -1    0    0  501    0  0.00000000000E+00  0.00000000000E+00  0.26204620193E+04  0.26204620193E+04  0.50400001928E-02 0.  1.
       -1   -1    0    0    0  501  0.00000000000E+00  0.00000000000E+00 -0.13062508086E+04  0.13062508086E+04  0.50400001928E-02 0. -1.
    10030    2    1    2    0    0  0.00000000000E+00  0.00000000000E+00  0.13142112107E+04  0.39267128279E+04  0.37002597918E+04 0.  0.
        1    1    3    3  502    0 -0.16298347686E+04 -0.19032932928E+03 -0.24982806315E+03  0.16598194744E+04  0.50400001928E-02 0. -1.
       -1    1    3    3    0  502  0.16298347686E+04  0.19032932928E+03  0.15640392738E+04  0.22668933536E+04  0.50400001928E-02 0.  1.
</event>
<event>
 5   0  0.1757996E-08  0.3699957E+04  0.7818609E-02  0.8067971E-01
        2   -1    0    0  501    0  0.00000000000E+00  0.00000000000E+00  0.16083738080E+04  0.16083738080E+04  0.25500000920E-02 0. -1.
       -2   -1    0    0    0  501  0.00000000000E+00  0.00000000000E+00 -0.21278767737E+04  0.21278767737E+04  0.25500000920E-02 0.  1.
    10030    2    1    2    0    0  0.00000000000E+00  0.00000000000E+00 -0.51950296570E+03  0.37362505817E+04  0.36999574427E+04 0.  0.
        3    1    3    3  502    0  0.25224801781E+03  0.17559708225E+04 -0.78964504412E+03  0.19418037743E+04  0.10100000352E+00 0.  1.
       -3    1    3    3    0  502 -0.25224801781E+03 -0.17559708225E+04  0.27014207841E+03  0.17944468074E+04  0.10100000352E+00 0. -1.
</event>
<event>
 5   0  0.1740290E-08  0.3704996E+04  0.7818609E-02  0.8066856E-01
        2   -1    0    0  501    0  0.00000000000E+00  0.00000000000E+00  0.26564496121E+04  0.26564496121E+04  0.25500000920E-02 0.  1.
       -2   -1    0    0    0  501  0.00000000000E+00  0.00000000000E+00 -0.12918553704E+04  0.12918553704E+04  0.25500000920E-02 0. -1.
    10030    2    1    2    0    0  0.00000000000E+00  0.00000000000E+00  0.13645942417E+04  0.39483049825E+04  0.37049959231E+04 0.  0.
        5    1    3    3  502    0 -0.12056684150E+04  0.11858086073E+04 -0.12364029151E+03  0.16956082661E+04  0.46999998093E+01 0. -1.
       -5    1    3    3    0  502  0.12056684150E+04 -0.11858086073E+04  0.14882345332E+04  0.22526967164E+04  0.46999998093E+01 0.  1.
</event>
<event>
 5   0  0.5714125E-09  0.3700342E+04  0.7818609E-02  0.8067886E-01
        1   -1    0    0  501    0  0.00000000000E+00  0.00000000000E+00  0.14449176089E+04  0.14449176089E+04  0.50400001928E-02 0.  1.
       -1   -1    0    0    0  501  0.00000000000E+00  0.00000000000E+00 -0.23690848318E+04  0.23690848318E+04  0.50400001928E-02 0. -1.
    10030    2    1    2    0    0  0.00000000000E+00  0.00000000000E+00 -0.92416722291E+03  0.38140024407E+04  0.37003418168E+04 0.  0.
        1    1    3    3  502    0  0.10608487273E+04  0.15155531512E+04 -0.49179639240E+03  0.19142008954E+04  0.50400001928E-02 0. -1.
       -1    1    3    3    0  502 -0.10608487273E+04 -0.15155531512E+04 -0.43237083051E+03  0.18998015453E+04  0.50400001928E-02 0.  1.
</event>
<event>
 5   0  0.5714125E-09  0.3705689E+04  0.7818609E-02  0.8066702E-01
       -1   -1    0    0    0  501  0.00000000000E+00  0.00000000000E+00  0.20462681495E+04  0.20462681495E+04  0.50400001928E-02 0.  1.
        1   -1    0    0  501    0  0.00000000000E+00  0.00000000000E+00 -0.16777039692E+04  0.16777039692E+04  0.50400001928E-02 0. -1.
    10030    2    1    2    0    0  0.00000000000E+00  0.00000000000E+00  0.36856418028E+03  0.37239721187E+04  0.37056887061E+04 0.  0.
        4    1    3    3  502    0 -0.30360919142E+03 -0.17177912441E+04 -0.44333534920E+03  0.17998703132E+04  0.12699999809E+01 0. -1.
       -4    1    3    3    0  502  0.30360919142E+03  0.17177912441E+04  0.81189952949E+03  0.19241018056E+04  0.12699999809E+01 0.  1.
</event>
<event>
 5   0  0.5714125E-09  0.3703378E+04  0.7818609E-02  0.8067214E-01
        3   -1    0    0  501    0  0.00000000000E+00  0.00000000000E+00  0.26924851488E+04  0.26924851507E+04  0.10100000352E+00 0.  1.
       -3   -1    0    0    0  501  0.00000000000E+00  0.00000000000E+00 -0.12734523881E+04  0.12734523921E+04  0.10100000352E+00 0. -1.
    10030    2    1    2    0    0  0.00000000000E+00  0.00000000000E+00  0.14190327606E+04  0.39659375428E+04  0.37033777309E+04 0.  0.
        4    1    3    3  502    0 -0.47037764877E+02 -0.10892475166E+04  0.23123164992E+04  0.25564588612E+04  0.12699999809E+01 0.  1.
       -4    1    3    3    0  502  0.47037764877E+02  0.10892475166E+04 -0.89328373852E+03  0.14094786817E+04  0.12699999809E+01 0. -1.
</event>
<event>
 5   0  0.5714125E-09  0.3700165E+04  0.7818609E-02  0.8067925E-01
        1   -1    0    0  501    0  0.00000000000E+00  0.00000000000E+00  0.24293426418E+04  0.24293426418E+04  0.50400001928E-02 0. -1.
       -1   -1    0    0    0  501  0.00000000000E+00  0.00000000000E+00 -0.14089432564E+04  0.14089432564E+04  0.50400001928E-02 0.  1.
    10030    2    1    2    0    0  0.00000000000E+00  0.00000000000E+00  0.10203993855E+04  0.38382858982E+04  0.37001653653E+04 0.  0.
        5    1    3    3  502    0  0.89555109858E+03  0.83002048720E+03 -0.93158877054E+03  0.15358468370E+04  0.46999998093E+01 0.  1.
       -5    1    3    3    0  502 -0.89555109858E+03 -0.83002048720E+03  0.19519881560E+04  0.23024390612E+04  0.46999998093E+01 0. -1.
</event>
<event>
 5   0  0.1740290E-08  0.3700075E+04  0.7818609E-02  0.8067945E-01
        2   -1    0    0  501    0  0.00000000000E+00  0.00000000000E+00  0.24293799499E+04  0.24293799499E+04  0.25500000920E-02 0. -1.
       -2   -1    0    0    0  501  0.00000000000E+00  0.00000000000E+00 -0.14088530519E+04  0.14088530519E+04  0.25500000920E-02 0.  1.
    10030    2    1    2    0    0  0.00000000000E+00  0.00000000000E+00  0.10205268980E+04  0.38382330018E+04  0.37000753271E+04 0.  0.
        5    1    3    3  502    0  0.85011939184E+03 -0.23763488985E+03  0.21968390854E+04  0.23675509241E+04  0.46999998093E+01 0. -1.
       -5    1    3    3    0  502 -0.85011939184E+03  0.23763488985E+03 -0.11763121874E+04  0.14706820776E+04  0.46999998093E+01 0.  1.
</event>
<event>
 5   0  0.1740290E-08  0.3699292E+04  0.7818609E-02  0.8068119E-01
       -2   -1    0    0    0  501  0.00000000000E+00  0.00000000000E+00  0.24322644626E+04  0.24322644626E+04  0.25500000920E-02 0.  1.
        2   -1    0    0  501    0  0.00000000000E+00  0.00000000000E+00 -0.14065861739E+04  0.14065861740E+04  0.25500000920E-02 0. -1.
    10030    2    1    2    0    0  0.00000000000E+00  0.00000000000E+00  0.10256782886E+04  0.38388506365E+04  0.36992915886E+04 0.  0.
        5    1    3    3  502    0 -0.83231769064E+03 -0.35874271921E+03 -0.11603529487E+04  0.14723756763E+04  0.46999998093E+01 0. -1.
       -5    1    3    3    0  502  0.83231769064E+03  0.35874271921E+03  0.21860312373E+04  0.23664749602E+04  0.46999998093E+01 0.  1.
</event>
<event>
 5   0  0.1757996E-08  0.3702755E+04  0.7818609E-02  0.8067352E-01
        2   -1    0    0  501    0  0.00000000000E+00  0.00000000000E+00  0.25198404766E+04  0.25198404766E+04  0.25500000920E-02 0. -1.
       -2   -1    0    0    0  501  0.00000000000E+00  0.00000000000E+00 -0.13602442535E+04  0.13602442535E+04  0.25500000920E-02 0.  1.
    10030    2    1    2    0    0  0.00000000000E+00  0.00000000000E+00  0.11595962231E+04  0.38800847301E+04  0.37027549355E+04 0.  0.
        3    1    3    3  502    0 -0.13374582170E+04  0.35708223088E+03  0.18680211205E+04  0.23250387349E+04  0.10100000352E+00 0. -1.
       -3    1    3    3    0  502  0.13374582170E+04 -0.35708223088E+03 -0.70842489739E+03  0.15550459953E+04  0.10100000352E+00 0.  1.
</event>
<event>
 5   0  0.1740290E-08  0.3699745E+04  0.7818609E-02  0.8068018E-01
        2   -1    0    0  501    0  0.00000000000E+00  0.00000000000E+00  0.14299491905E+04  0.14299491905E+04  0.25500000920E-02 0.  1.
       -2   -1    0    0    0  501  0.00000000000E+00  0.00000000000E+00 -0.23931114474E+04  0.23931114474E+04  0.25500000920E-02 0. -1.
    10030    2    1    2    0    0  0.00000000000E+00  0.00000000000E+00 -0.96316225694E+03  0.38230606379E+04  0.36997447355E+04 0.  0.
        5    1    3    3  502    0  0.13353517895E+04 -0.10013673599E+04 -0.13057263149E+04  0.21191612233E+04  0.46999998093E+01 0. -1.
       -5    1    3    3    0  502 -0.13353517895E+04  0.10013673599E+04  0.34256405794E+03  0.17038994145E+04  0.46999998093E+01 0.  1.
</event>
<event>
 5   0  0.5714125E-09  0.3701581E+04  0.7818609E-02  0.8067612E-01
       -1   -1    0    0    0  501  0.00000000000E+00  0.00000000000E+00  0.19903217575E+04  0.19903217575E+04  0.50400001928E-02 0.  1.
        1   -1    0    0  501    0  0.00000000000E+00  0.00000000000E+00 -0.17210408101E+04  0.17210408101E+04  0.50400001928E-02 0. -1.
    10030    2    1    2    0    0  0.00000000000E+00  0.00000000000E+00  0.26928094746E+03  0.37113625676E+04  0.37015807271E+04 0.  0.
        2    1    3    3  502    0 -0.39287079059E+03 -0.10236629685E+04 -0.13603368600E+04  0.17472119803E+04  0.25500000920E-02 0. -1.
       -2    1    3    3    0  502  0.39287079059E+03  0.10236629685E+04  0.16296178075E+04  0.19641505873E+04  0.25500000920E-02 0.  1.
</event>
<event>
 5   0  0.1757996E-08  0.3699939E+04  0.7818609E-02  0.8067975E-01
        2   -1    0    0  501    0  0.00000000000E+00  0.00000000000E+00  0.26888588156E+04  0.26888588156E+04  0.25500000920E-02 0.  1.
       -2   -1    0    0    0  501  0.00000000000E+00  0.00000000000E+00 -0.12728027303E+04  0.12728027303E+04  0.25500000920E-02 0. -1.
    10030    2    1    2    0    0  0.00000000000E+00  0.00000000000E+00  0.14160560853E+04  0.39616615459E+04  0.36999388329E+04 0.  0.
        3    1    3    3  502    0  0.11440274677E+04 -0.13272889074E+04  0.72861506085E+02  0.17537968810E+04  0.10100000352E+00 0. -1.
       -3    1    3    3    0  502 -0.11440274677E+04  0.13272889074E+04  0.13431945793E+04  0.22078646649E+04  0.10100000352E+00 0.  1.
</event>
<event>
 5   0  0.1825308E-08  0.3701046E+04  0.7818609E-02  0.8067730E-01
        2   -1    0    0  501    0  0.00000000000E+00  0.00000000000E+00  0.26079610809E+04  0.26079610809E+04  0.25500000920E-02 0. -1.
       -2   -1    0    0    0  501  0.00000000000E+00  0.00000000000E+00 -0.13130698350E+04  0.13130698350E+04  0.25500000920E-02 0.  1.
    10030    2    1    2    0    0  0.00000000000E+00  0.00000000000E+00  0.12948912459E+04  0.39210309160E+04  0.37010458124E+04 0.  0.
        4    1    3    3  502    0  0.99831149043E+03  0.15541827694E+04  0.52983600066E+03  0.19216757565E+04  0.12699999809E+01 0.  1.
       -4    1    3    3    0  502 -0.99831149043E+03 -0.15541827694E+04  0.76505524525E+03  0.19993551595E+04  0.12699999809E+01 0. -1.
</event>
<event>
 5   0  0.1757996E-08  0.3700733E+04  0.7818609E-02  0.8067799E-01
        2   -1    0    0  501    0  0.00000000000E+00  0.00000000000E+00  0.25606044605E+04  0.25606044605E+04  0.25500000920E-02 0. -1.
       -2   -1    0    0    0  501  0.00000000000E+00  0.00000000000E+00 -0.13371282267E+04  0.13371282267E+04  0.25500000920E-02 0.  1.
    10030    2    1    2    0    0  0.00000000000E+00  0.00000000000E+00  0.12234762338E+04  0.38977326872E+04  0.37007331715E+04 0.  0.
        3    1    3    3  502    0  0.55396008659E+03 -0.12304927442E+04  0.19451789277E+04  0.23674258684E+04  0.10100000352E+00 0. -1.
       -3    1    3    3    0  502 -0.55396008659E+03  0.12304927442E+04 -0.72170269391E+03  0.15303068188E+04  0.10100000352E+00 0.  1.
</event>
<event>
 5   0  0.5714125E-09  0.3702131E+04  0.7818609E-02  0.8067490E-01
        1   -1    0    0  501    0  0.00000000000E+00  0.00000000000E+00  0.14319102899E+04  0.14319102899E+04  0.50400001928E-02 0.  1.
       -1   -1    0    0    0  501  0.00000000000E+00  0.00000000000E+00 -0.23929176377E+04  0.23929176377E+04  0.50400001928E-02 0. -1.
    10030    2    1    2    0    0  0.00000000000E+00  0.00000000000E+00 -0.96100734781E+03  0.38248279276E+04  0.37021309477E+04 0.  0.
        2    1    3    3  502    0 -0.11810291482E+04  0.99801142970E+03  0.57086095798E+03  0.16482532864E+04  0.25500000920E-02 0.  1.
       -2    1    3    3    0  502  0.11810291482E+04 -0.99801142970E+03 -0.15318683058E+04  0.21765746413E+04  0.25500000920E-02 0. -1.
</event>
<event>
 5   0  0.1856107E-08  0.3698629E+04  0.7818609E-02  0.8068266E-01
        2   -1    0    0  501    0  0.00000000000E+00  0.00000000000E+00  0.18277452720E+04  0.18277452720E+04  0.25500000920E-02 0. -1.
       -2   -1    0    0    0  501  0.00000000000E+00  0.00000000000E+00 -0.18711382635E+04  0.18711382635E+04  0.25500000920E-02 0.  1.
    10030    2    1    2    0    0  0.00000000000E+00  0.00000000000E+00 -0.43392991495E+02  0.36988835354E+04  0.36986289969E+04 0.  0.
        2    1    3    3  502    0 -0.83621543244E+03 -0.31457958260E+03 -0.16409890632E+04  0.18684382968E+04  0.25500000920E-02 0.  1.
       -2    1    3    3    0  502  0.83621543244E+03  0.31457958260E+03  0.15975960717E+04  0.18304452386E+04  0.25500000920E-02 0. -1.
</event>
<event>
 5   0  0.5714125E-09  0.3699073E+04  0.7818609E-02  0.8068167E-01
       -1   -1    0    0    0  501  0.00000000000E+00  0.00000000000E+00  0.19905299243E+04  0.19905299243E+04  0.50400001928E-02 0. -1.
        1   -1    0    0  501    0  0.00000000000E+00  0.00000000000E+00 -0.17185301362E+04  0.17185301362E+04  0.50400001928E-02 0.  1.
    10030    2    1    2    0    0  0.00000000000E+00  0.00000000000E+00  0.27199978812E+03  0.37090600605E+04  0.36990732147E+04 0.  0.
        4    1    3    3  502    0 -0.11084710523E+04  0.13189930777E+04  0.81037291646E+03  0.19039844247E+04  0.12699999809E+01 0. -1.
       -4    1    3    3    0  502  0.11084710523E+04 -0.13189930777E+04 -0.53837312834E+03  0.18050756358E+04  0.12699999809E+01 0.  1.
</event>
<event>
 5   0  0.5714125E-09  0.3699221E+04  0.7818609E-02  0.8068135E-01
        1   -1    0    0  501    0  0.00000000000E+00  0.00000000000E+00  0.13819061654E+04  0.13819061654E+04  0.50400001928E-02 0. -1.
       -1   -1    0    0    0  501  0.00000000000E+00  0.00000000000E+00 -0.24756084436E+04  0.24756084436E+04  0.50400001928E-02 0.  1.
    10030    2    1    2    0    0  0.00000000000E+00  0.00000000000E+00 -0.10937022782E+04  0.38575146090E+04  0.36992207673E+04 0.  0.
        4    1    3    3  502    0  0.77834264103E+01 -0.40811121903E+03  0.13343514636E+04  0.13953891178E+04  0.12699999809E+01 0. -1.
       -4    1    3    3    0  502 -0.77834264103E+01  0.40811121903E+03 -0.24280537417E+04  0.24621254912E+04  0.12699999809E+01 0.  1.
</event>
<event>
 5   0  0.1825308E-08  0.3706705E+04  0.7818609E-02  0.8066477E-01
        2   -1    0    0  501    0  0.00000000000E+00  0.00000000000E+00  0.21979780005E+04  0.21979780005E+04  0.25500000920E-02 0. -1.
       -2   -1    0    0    0  501  0.00000000000E+00  0.00000000000E+00 -0.15627618488E+04  0.15627618488E+04  0.25500000920E-02 0.  1.
    10030    2    1    2    0    0  0.00000000000E+00  0.00000000000E+00  0.63521615167E+03  0.37607398493E+04  0.37067053639E+04 0.  0.
        4    1    3    3  502    0  0.13194459957E+04  0.96733179391E+03 -0.56585884676E+03  0.17311459738E+04  0.12699999809E+01 0.  1.
       -4    1    3    3    0  502 -0.13194459957E+04 -0.96733179391E+03  0.12010749984E+04  0.20295938756E+04  0.12699999809E+01 0. -1.
</event>
<event>
 5   0  0.5714125E-09  0.3699288E+04  0.7818609E-02  0.8068120E-01
       -1   -1    0    0    0  501  0.00000000000E+00  0.00000000000E+00  0.18937788790E+04  0.18937788790E+04  0.50400001928E-02 0.  1.
        1   -1    0    0  501    0  0.00000000000E+00  0.00000000000E+00 -0.18065378727E+04  0.18065378727E+04  0.50400001928E-02 0. -1.
    10030    2    1    2    0    0  0.00000000000E+00  0.00000000000E+00  0.87241006343E+02  0.37003167517E+04  0.36992881842E+04 0.  0.
        3    1    3    3  502    0 -0.17303278828E+04  0.15101485066E+03  0.67967716131E+03  0.18651544496E+04  0.10100000352E+00 0.  1.
       -3    1    3    3    0  502  0.17303278828E+04 -0.15101485066E+03 -0.59243615497E+03  0.18351623021E+04  0.10100000352E+00 0. -1.
</event>
<event>
 5   0  0.5714125E-09  0.3701608E+04  0.7818609E-02  0.8067606E-01
       -1   -1    0    0    0  501  0.00000000000E+00  0.00000000000E+00  0.19502605380E+04  0.19502605380E+04  0.50400001928E-02 0.  1.
        1   -1    0    0  501    0  0.00000000000E+00  0.00000000000E+00 -0.17564195036E+04  0.17564195036E+04  0.50400001928E-02 0. -1.
    10030    2    1    2    0    0  0.00000000000E+00  0.00000000000E+00  0.19384103433E+03  0.37066800416E+04  0.37016081078E+04 0.  0.
        2    1    3    3  502    0  0.24527144081E+01 -0.18479201151E+03 -0.17471568862E+04  0.17569038927E+04  0.25500000920E-02 0. -1.
       -2    1    3    3    0  502 -0.24527144081E+01  0.18479201151E+03  0.19409979205E+04  0.19497761489E+04  0.25500000920E-02 0.  1.
</event>
<event>
 5   0  0.1725865E-08  0.3698772E+04  0.7818609E-02  0.8068234E-01
        2   -1    0    0  501    0  0.00000000000E+00  0.00000000000E+00  0.22268464317E+04  0.22268464317E+04  0.25500000920E-02 0. -1.
       -2   -1    0    0    0  501  0.00000000000E+00  0.00000000000E+00 -0.15359063854E+04  0.15359063854E+04  0.25500000920E-02 0.  1.
    10030    2    1    2    0    0  0.00000000000E+00  0.00000000000E+00  0.69094004622E+03  0.37627528171E+04  0.36987715008E+04 0.  0.
        1    1    3    3  502    0 -0.17223505872E+04 -0.48888613573E+03  0.81687152699E+03  0.19679380810E+04  0.50400001928E-02 0.  1.
       -1    1    3    3    0  502  0.17223505872E+04  0.48888613573E+03 -0.12593148078E+03  0.17948147361E+04  0.50400001928E-02 0. -1.
</event>
<event>
 5   0  0.1757996E-08  0.3702204E+04  0.7818609E-02  0.8067474E-01
       -2   -1    0    0    0  501  0.00000000000E+00  0.00000000000E+00  0.21392276137E+04  0.21392276137E+04  0.25500000920E-02 0.  1.
        2   -1    0    0  501    0  0.00000000000E+00  0.00000000000E+00 -0.16017826802E+04  0.16017826802E+04  0.25500000920E-02 0. -1.
    10030    2    1    2    0    0  0.00000000000E+00  0.00000000000E+00  0.53744493352E+03  0.37410102939E+04  0.37022035280E+04 0.  0.
        3    1    3    3  502    0 -0.79774148761E+03 -0.11198224773E+04 -0.98369816411E+03  0.16905785844E+04  0.10100000352E+00 0. -1.
       -3    1    3    3    0  502  0.79774148761E+03  0.11198224773E+04  0.15211430976E+04  0.20504317095E+04  0.10100000352E+00 0.  1.
</event>
<event>
 5   0  0.1825308E-08  0.3700779E+04  0.7818609E-02  0.8067789E-01
       -2   -1    0    0    0  501  0.00000000000E+00  0.00000000000E+00  0.14382873389E+04  0.14382873389E+04  0.25500000920E-02 0. -1.
        2   -1    0    0  501    0  0.00000000000E+00  0.00000000000E+00 -0.23805677878E+04  0.23805677878E+04  0.25500000920E-02 0.  1.
    10030    2    1    2    0    0  0.00000000000E+00  0.00000000000E+00 -0.94228044887E+03  0.38188551267E+04  0.37007785714E+04 0.  0.
        4    1    3    3  502    0  0.68261004552E+03  0.14066571515E+04 -0.14923090165E+04  0.21613950656E+04  0.12699999809E+01 0.  1.
       -4    1    3    3    0  502 -0.68261004552E+03 -0.14066571515E+04  0.55002856762E+03  0.16574600611E+04  0.12699999809E+01 0. -1.
</event>
<event>
 5   0  0.5714125E-09  0.3692781E+04  0.7818609E-02  0.8069563E-01
        1   -1    0    0  501    0  0.00000000000E+00  0.00000000000E+00  0.24656957746E+04  0.24656957746E+04  0.50400001928E-02 0. -1.
       -1   -1    0    0    0  501  0.00000000000E+00  0.00000000000E+00 -0.13826354131E+04  0.13826354132E+04  0.50400001928E-02 0.  1.
    10030    2    1    2    0    0  0.00000000000E+00  0.00000000000E+00  0.10830603614E+04  0.38483311877E+04  0.36927812261E+04 0.  0.
        1    1    3    3  502    0 -0.21849098457E+03 -0.16141919154E+04 -0.36446019099E+03  0.16691869521E+04  0.50400001928E-02 0.  1.
       -1    1    3    3    0  502  0.21849098457E+03  0.16141919154E+04  0.14475205524E+04  0.21791442357E+04  0.50400001928E-02 0. -1.
</event>
<event>
 5   0  0.1825308E-08  0.3700032E+04  0.7818609E-02  0.8067955E-01
        2   -1    0    0  501    0  0.00000000000E+00  0.00000000000E+00  0.15811863080E+04  0.15811863080E+04  0.25500000920E-02 0.  1.
       -2   -1    0    0    0  501  0.00000000000E+00  0.00000000000E+00 -0.21645519313E+04  0.21645519313E+04  0.25500000920E-02 0. -1.
    10030    2    1    2    0    0  0.00000000000E+00  0.00000000000E+00 -0.58336562331E+03  0.37457382393E+04  0.37000323657E+04 0.  0.
        4    1    3    3  502    0  0.10184494193E+04 -0.14676938999E+04  0.19508276986E+03  0.17970596827E+04  0.12699999809E+01 0.  1.
       -4    1    3    3    0  502 -0.10184494193E+04  0.14676938999E+04 -0.77844839317E+03  0.19486785566E+04  0.12699999809E+01 0. -1.
</event>
<event>
 5   0  0.5714125E-09  0.3700456E+04  0.7818609E-02  0.8067861E-01
        1   -1    0    0  501    0  0.00000000000E+00  0.00000000000E+00  0.23128933726E+04  0.23128933726E+04  0.50400001928E-02 0. -1.
       -1   -1    0    0    0  501  0.00000000000E+00  0.00000000000E+00 -0.14801128851E+04  0.14801128851E+04  0.50400001928E-02 0.  1.
    10030    2    1    2    0    0  0.00000000000E+00  0.00000000000E+00  0.83278048750E+03  0.37930062578E+04  0.37004558005E+04 0.  0.
        3    1    3    3  502    0  0.29016459413E+03 -0.13023129849E+04  0.17302957262E+04  0.21849800714E+04  0.10100000352E+00 0. -1.
       -3    1    3    3    0  502 -0.29016459413E+03  0.13023129849E+04 -0.89751523865E+03  0.16080261864E+04  0.10100000352E+00 0.  1.
</event>
<event>
 5   0  0.1757996E-08  0.3702014E+04  0.7818609E-02  0.8067516E-01
        2   -1    0    0  501    0  0.00000000000E+00  0.00000000000E+00  0.20484938460E+04  0.20484938460E+04  0.25500000920E-02 0.  1.
       -2   -1    0    0    0  501  0.00000000000E+00  0.00000000000E+00 -0.16725594789E+04  0.16725594789E+04  0.25500000920E-02 0. -1.
    10030    2    1    2    0    0  0.00000000000E+00  0.00000000000E+00  0.37593436712E+03  0.37210533249E+04  0.37020144784E+04 0.  0.
        3    1    3    3  502    0  0.65484425401E+03  0.31252295216E+03 -0.15236515286E+04  0.16876035030E+04  0.10100000352E+00 0. -1.
       -3    1    3    3    0  502 -0.65484425401E+03 -0.31252295216E+03  0.18995858957E+04  0.20334498219E+04  0.10100000352E+00 0.  1.
</event>
<event>
 5   0  0.1757996E-08  0.3702873E+04  0.7818609E-02  0.8067325E-01
       -2   -1    0    0    0  501  0.00000000000E+00  0.00000000000E+00  0.12475458981E+04  0.12475458981E+04  0.25500000920E-02 0. -1.
        2   -1    0    0  501    0  0.00000000000E+00  0.00000000000E+00 -0.27476486644E+04  0.27476486644E+04  0.25500000920E-02 0.  1.
    10030    2    1    2    0    0  0.00000000000E+00  0.00000000000E+00 -0.15001027663E+04  0.39951945625E+04  0.37028733820E+04 0.  0.
        3    1    3    3  502    0  0.37959558639E+03  0.74160285437E+03  0.10338814004E+04  0.13277719545E+04  0.10100000352E+00 0. -1.
       -3    1    3    3    0  502 -0.37959558639E+03 -0.74160285437E+03 -0.25339841667E+04  0.26674226081E+04  0.10100000352E+00 0.  1.
</event>
<event>
 5   0  0.5714125E-09  0.3702165E+04  0.7818609E-02  0.8067482E-01
       -1   -1    0    0    0  501  0.00000000000E+00  0.00000000000E+00  0.18144425273E+04  0.18144425273E+04  0.50400001928E-02 0. -1.
        1   -1    0    0  501    0  0.00000000000E+00  0.00000000000E+00 -0.18884620957E+04  0.18884620957E+04  0.50400001928E-02 0.  1.
    10030    2    1    2    0    0  0.00000000000E+00  0.00000000000E+00 -0.74019568352E+02  0.37029046230E+04  0.37021647384E+04 0.  0.
        4    1    3    3  502    0 -0.13256457004E+04 -0.82767289397E+03 -0.10292389816E+04  0.18712865725E+04  0.12699999809E+01 0. -1.
       -4    1    3    3    0  502  0.13256457004E+04  0.82767289397E+03  0.95521941329E+03  0.18316180504E+04  0.12699999809E+01 0.  1.
</event>
<event>
 5   0  0.5714125E-09  0.3698500E+04  0.7818609E-02  0.8068294E-01
        1   -1    0    0  501    0  0.00000000000E+00  0.00000000000E+00  0.27355766223E+04  0.27355766223E+04  0.50400001928E-02 0. -1.
       -1   -1    0    0    0  501  0.00000000000E+00  0.00000000000E+00 -0.12500929851E+04  0.12500929851E+04  0.50400001928E-02 0.  1.
    10030    2    1    2    0    0  0.00000000000E+00  0.00000000000E+00  0.14854836372E+04  0.39856696074E+04  0.36984997747E+04 0.  0.
        1    1    3    3  502    0 -0.56856610713E+03  0.15938251585E+04  0.15464215721E+04  0.22923712031E+04  0.50400001928E-02 0. -1.
       -1    1    3    3    0  502  0.56856610713E+03 -0.15938251585E+04 -0.60937934897E+02  0.16932984043E+04  0.50400001928E-02 0.  1.
</event>
<event>
 5   0  0.1725865E-08  0.3702876E+04  0.7818609E-02  0.8067325E-01
       -2   -1    0    0    0  501  0.00000000000E+00  0.00000000000E+00  0.17167959718E+04  0.17167959718E+04  0.25500000920E-02 0. -1.
        2   -1    0    0  501    0  0.00000000000E+00  0.00000000000E+00 -0.19966396238E+04  0.19966396238E+04  0.25500000920E-02 0.  1.
    10030    2    1    2    0    0  0.00000000000E+00  0.00000000000E+00 -0.27984365202E+03  0.37134355955E+04  0.37028761055E+04 0.  0.
        1    1    3    3  502    0  0.14219205174E+03  0.12691088512E+04 -0.14842545380E+04  0.19580264016E+04  0.50400001928E-02 0.  1.
       -1    1    3    3    0  502 -0.14219205174E+03 -0.12691088512E+04  0.12044108860E+04  0.17554091939E+04  0.50400001928E-02 0. -1.
</event>
<event>
 5   0  0.5714125E-09  0.3701452E+04  0.7818609E-02  0.8067640E-01
        1   -1    0    0  501    0  0.00000000000E+00  0.00000000000E+00  0.19194462883E+04  0.19194462884E+04  0.50400001928E-02 0. -1.
       -1   -1    0    0    0  501  0.00000000000E+00  0.00000000000E+00 -0.17844659702E+04  0.17844659702E+04  0.50400001928E-02 0.  1.
    10030    2    1    2    0    0  0.00000000000E+00  0.00000000000E+00  0.13498031819E+03  0.37039122585E+04  0.37014519222E+04 0.  0.
        4    1    3    3  502    0  0.71076720775E+03 -0.84250939302E+03  0.15551433536E+04  0.19061701299E+04  0.12699999809E+01 0. -1.
       -4    1    3    3    0  502 -0.71076720775E+03  0.84250939302E+03 -0.14201630354E+04  0.17977421286E+04  0.12699999809E+01 0.  1.
</event>
<event>
 5   0  0.1740290E-08  0.3698449E+04  0.7818609E-02  0.8068306E-01
       -2   -1    0    0    0  501  0.00000000000E+00  0.00000000000E+00  0.13741095956E+04  0.13741095956E+04  0.25500000920E-02 0.  1.
        2   -1    0    0  501    0  0.00000000000E+00  0.00000000000E+00 -0.24886161307E+04  0.24886161307E+04  0.25500000920E-02 0. -1.
    10030    2    1    2    0    0  0.00000000000E+00  0.00000000000E+00 -0.11145065352E+04  0.38627257263E+04  0.36984490290E+04 0.  0.
        5    1    3    3  502    0  0.86120351890E+02 -0.14926387746E+04  0.57930261650E+03  0.16034340766E+04  0.46999998093E+01 0.  1.
       -5    1    3    3    0  502 -0.86120351890E+02  0.14926387746E+04 -0.16938091517E+04  0.22592916498E+04  0.46999998093E+01 0. -1.
</event>
<event>
 5   0  0.5714125E-09  0.3699005E+04  0.7818609E-02  0.8068182E-01
        1   -1    0    0  501    0  0.00000000000E+00  0.00000000000E+00  0.21865053065E+04  0.21865053065E+04  0.50400001928E-02 0. -1.
       -1   -1    0    0    0  501  0.00000000000E+00  0.00000000000E+00 -0.15644415703E+04  0.15644415704E+04  0.50400001928E-02 0.  1.
    10030    2    1    2    0    0  0.00000000000E+00  0.00000000000E+00  0.62206373619E+03  0.37509468769E+04  0.36990051610E+04 0.  0.
        2    1    3    3  502    0 -0.11517331351E+04 -0.82965312452E+03 -0.89130148091E+03  0.16760763263E+04  0.25500000920E-02 0.  1.
       -2    1    3    3    0  502  0.11517331351E+04  0.82965312452E+03  0.15133652171E+04  0.20748705506E+04  0.25500000920E-02 0. -1.
</event>
<event>
 5   0  0.5714125E-09  0.3693527E+04  0.7818609E-02  0.8069398E-01
       -1   -1    0    0    0  501  0.00000000000E+00  0.00000000000E+00  0.14382352660E+04  0.14382352660E+04  0.50400001928E-02 0.  1.
        1   -1    0    0  501    0  0.00000000000E+00  0.00000000000E+00 -0.23713335676E+04  0.23713335676E+04  0.50400001928E-02 0. -1.
    10030    2    1    2    0    0  0.00000000000E+00  0.00000000000E+00 -0.93309830157E+03  0.38095688337E+04  0.36935270756E+04 0.  0.
        5    1    3    3  502    0 -0.83331272920E+03  0.12927798809E+04 -0.15208292638E+04  0.21630149478E+04  0.46999998093E+01 0. -1.
       -5    1    3    3    0  502  0.83331272920E+03 -0.12927798809E+04  0.58773096221E+03  0.16465538858E+04  0.46999998093E+01 0.  1.
</event>
<event>
 5   0  0.5714125E-09  0.3702682E+04  0.7818609E-02  0.8067368E-01
        1   -1    0    0  501    0  0.00000000000E+00  0.00000000000E+00  0.12534283692E+04  0.12534283692E+04  0.50400001928E-02 0.  1.
       -1   -1    0    0    0  501  0.00000000000E+00  0.00000000000E+00 -0.27344704919E+04  0.27344704919E+04  0.50400001928E-02 0. -1.
    10030    2    1    2    0    0  0.00000000000E+00  0.00000000000E+00 -0.14810421227E+04  0.39878988611E+04  0.37026816711E+04 0.  0.
        1    1    3    3  502    0 -0.83564396311E+03 -0.11631337655E+04 -0.20040391343E+04  0.24631999191E+04  0.50400001928E-02 0. -1.
       -1    1    3    3    0  502  0.83564396311E+03  0.11631337655E+04  0.52299701166E+03  0.15246989420E+04  0.50400001928E-02 0.  1.
</event>
<event>
 5   0  0.1740290E-08  0.3699861E+04  0.7818609E-02  0.8067993E-01
       -2   -1    0    0    0  501  0.00000000000E+00  0.00000000000E+00  0.24182196582E+04  0.24182196582E+04  0.25500000920E-02 0.  1.
        2   -1    0    0  501    0  0.00000000000E+00  0.00000000000E+00 -0.14151913085E+04  0.14151913085E+04  0.25500000920E-02 0. -1.
    10030    2    1    2    0    0  0.00000000000E+00  0.00000000000E+00  0.10030283497E+04  0.38334109666E+04  0.36998613175E+04 0.  0.
        5    1    3    3  502    0  0.67548515053E+03  0.33434174536E+02  0.22855326363E+04  0.23835015323E+04  0.46999998093E+01 0.  1.
       -5    1    3    3    0  502 -0.67548515053E+03 -0.33434174536E+02 -0.12825042866E+04  0.14499094344E+04  0.46999998093E+01 0. -1.
</event>
<event>
 5   0  0.5714125E-09  0.3699816E+04  0.7818609E-02  0.8068003E-01
       -1   -1    0    0    0  501  0.00000000000E+00  0.00000000000E+00  0.17098811925E+04  0.17098811925E+04  0.50400001928E-02 0. -1.
        1   -1    0    0  501    0  0.00000000000E+00  0.00000000000E+00 -0.20014019612E+04  0.20014019612E+04  0.50400001928E-02 0.  1.
    10030    2    1    2    0    0  0.00000000000E+00  0.00000000000E+00 -0.29152076875E+03  0.37112831537E+04  0.36998159803E+04 0.  0.
        2    1    3    3  502    0  0.17933855167E+04 -0.16159781653E+03 -0.57111959935E+03  0.18890534832E+04  0.25500000920E-02 0. -1.
       -2    1    3    3    0  502 -0.17933855167E+04  0.16159781653E+03  0.27959883060E+03  0.18222296705E+04  0.25500000920E-02 0.  1.
</event>
<event>
 5   0  0.5714125E-09  0.3699823E+04  0.7818609E-02  0.8068001E-01
       -1   -1    0    0    0  501  0.00000000000E+00  0.00000000000E+00  0.16680927998E+04  0.16680927998E+04  0.50400001928E-02 0.  1.
        1   -1    0    0  501    0  0.00000000000E+00  0.00000000000E+00 -0.20515482860E+04  0.20515482860E+04  0.50400001928E-02 0. -1.
    10030    2    1    2    0    0  0.00000000000E+00  0.00000000000E+00 -0.38345548624E+03  0.37196410858E+04  0.36998231981E+04 0.  0.
        3    1    3    3  502    0 -0.96460172049E+03  0.52828083339E+03  0.13037330520E+04  0.17056544196E+04  0.10100000352E+00 0.  1.
       -3    1    3    3    0  502  0.96460172049E+03 -0.52828083339E+03 -0.16871885382E+04  0.20139866662E+04  0.10100000352E+00 0. -1.
</event>
<event>
 5   0  0.1757996E-08  0.3699570E+04  0.7818609E-02  0.8068057E-01
       -2   -1    0    0    0  501  0.00000000000E+00  0.00000000000E+00  0.32936543420E+04  0.32936543420E+04  0.25500000920E-02 0. -1.
        2   -1    0    0  501    0  0.00000000000E+00  0.00000000000E+00 -0.10388778459E+04  0.10388778459E+04  0.25500000920E-02 0.  1.
    10030    2    1    2    0    0  0.00000000000E+00  0.00000000000E+00  0.22547764962E+04  0.43325321879E+04  0.36995699901E+04 0.  0.
        3    1    3    3  502    0 -0.33680734206E+03  0.12262678262E+04 -0.44577180590E+03  0.13475475800E+04  0.10100000352E+00 0.  1.
       -3    1    3    3    0  502  0.33680734206E+03 -0.12262678262E+04  0.27005483021E+04  0.29849846079E+04  0.10100000352E+00 0. -1.
</event>
<event>
 5   0  0.1740290E-08  0.3700177E+04  0.7818609E-02  0.8067923E-01
       -2   -1    0    0    0  501  0.00000000000E+00  0.00000000000E+00  0.13832352774E+04  0.13832352774E+04  0.25500000920E-02 0.  1.
        2   -1    0    0  501    0  0.00000000000E+00  0.00000000000E+00 -0.24745087678E+04  0.24745087678E+04  0.25500000920E-02 0. -1.
    10030    2    1    2    0    0  0.00000000000E+00  0.00000000000E+00 -0.10912734904E+04  0.38577440452E+04  0.37001771968E+04 0.  0.
        5    1    3    3  502    0  0.14542581633E+04 -0.19812191831E+03 -0.17199611029E+04  0.22610633307E+04  0.46999998093E+01 0.  1.
       -5    1    3    3    0  502 -0.14542581633E+04  0.19812191831E+03  0.62868761244E+03  0.15966807145E+04  0.46999998093E+01 0. -1.
</event>
<event>
 5   0  0.1725865E-08  0.3697588E+04  0.7818609E-02  0.8068497E-01
        2   -1    0    0  501    0  0.00000000000E+00  0.00000000000E+00  0.17360604911E+04  0.17360604911E+04  0.25500000920E-02 0.  1.
       -2   -1    0    0    0  501  0.00000000000E+00  0.00000000000E+00 -0.19688475689E+04  0.19688475689E+04  0.25500000920E-02 0. -1.
    10030    2    1    2    0    0  0.00000000000E+00  0.00000000000E+00 -0.23278707779E+03  0.37049080600E+04  0.36975875797E+04 0.  0.
        1    1    3    3  502    0  0.15857804728E+03 -0.61826659795E+03 -0.18549477114E+04  0.19616910040E+04  0.50400001928E-02 0. -1.
       -1    1    3    3    0  502 -0.15857804728E+03  0.61826659795E+03  0.16221606336E+04  0.17432170560E+04  0.50400001928E-02 0.  1.
</event>
<event>
 5   0  0.5714125E-09  0.3700879E+04  0.7818609E-02  0.8067767E-01
        1   -1    0    0  501    0  0.00000000000E+00  0.00000000000E+00  0.23195352546E+04  0.23195352546E+04  0.50400001928E-02 0. -1.
       -1   -1    0    0    0  501  0.00000000000E+00  0.00000000000E+00 -0.14762126095E+04  0.14762126095E+04  0.50400001928E-02 0.  1.
    10030    2    1    2    0    0  0.00000000000E+00  0.00000000000E+00  0.84332264507E+03  0.37957478641E+04  0.37008794582E+04 0.  0.
        4    1    3    3  502    0  0.14774782190E+04 -0.31491179146E+03  0.15177058016E+04  0.21413882966E+04  0.12699999809E+01 0. -1.
       -4    1    3    3    0  502 -0.14774782190E+04  0.31491179146E+03 -0.67438315652E+03  0.16543595675E+04  0.12699999809E+01 0.  1.
</event>
<event>
 5   0  0.5714125E-09  0.3694895E+04  0.7818609E-02  0.8069094E-01
        1   -1    0    0  501    0  0.00000000000E+00  0.00000000000E+00  0.17295776190E+04  0.17295776190E+04  0.50400001928E-02 0.  1.
       -1   -1    0    0    0  501  0.00000000000E+00  0.00000000000E+00 -0.19733497476E+04  0.19733497476E+04  0.50400001928E-02 0. -1.
    10030    2    1    2    0    0  0.00000000000E+00  0.00000000000E+00 -0.24377212861E+03  0.37029273666E+04  0.36948946171E+04 0.  0.
        5    1    3    3  502    0  0.80380080152E+03 -0.26082424487E+03 -0.17682949320E+04  0.19598505228E+04  0.46999998093E+01 0. -1.
       -5    1    3    3    0  502 -0.80380080152E+03  0.26082424487E+03  0.15245228034E+04  0.17430768438E+04  0.46999998093E+01 0.  1.
</event>
<event>
 5   0  0.5714125E-09  0.3701029E+04  0.7818609E-02  0.8067734E-01
        1   -1    0    0  501    0  0.00000000000E+00  0.00000000000E+00  0.24303698300E+04  0.24303698300E+04  0.50400001928E-02 0. -1.
       -1   -1    0    0    0  501  0.00000000000E+00  0.00000000000E+00 -0.14090051252E+04  0.14090051252E+04  0.50400001928E-02 0.  1.
    10030    2    1    2    0    0  0.00000000000E+00  0.00000000000E+00  0.10213647048E+04  0.38393749551E+04  0.37010288010E+04 0.  0.
        1    1    3    3  502    0  0.16911278539E+04 -0.64880741720E+02 -0.26581657850E+03  0.17131203643E+04  0.50400001928E-02 0.  1.
       -1    1    3    3    0  502 -0.16911278539E+04  0.64880741720E+02  0.12871812833E+04  0.21262545909E+04  0.50400001928E-02 0. -1.
</event>
<event>
 5   0  0.1856107E-08  0.3697940E+04  0.7818609E-02  0.8068419E-01
        2   -1    0    0  501    0  0.00000000000E+00  0.00000000000E+00  0.13307098776E+04  0.13307098776E+04  0.25500000920E-02 0.  1.
       -2   -1    0    0    0  501  0.00000000000E+00  0.00000000000E+00 -0.25690718823E+04  0.25690718823E+04  0.25500000920E-02 0. -1.
    10030    2    1    2    0    0  0.00000000000E+00  0.00000000000E+00 -0.12383620047E+04  0.38997817599E+04  0.36979396047E+04 0.  0.
        2    1    3    3  502    0  0.19951015190E+03  0.73540879720E+02  0.13177731968E+04  0.13348178751E+04  0.25500000920E-02 0.  1.
       -2    1    3    3    0  502 -0.19951015190E+03 -0.73540879720E+02 -0.25561352015E+04  0.25649638847E+04  0.25500000920E-02 0. -1.
</event>
<event>
 5   0  0.5714125E-09  0.3699869E+04  0.7818609E-02  0.8067991E-01
        1   -1    0    0  501    0  0.00000000000E+00  0.00000000000E+00  0.12130702825E+04  0.12130702825E+04  0.50400001928E-02 0.  1.
       -1   -1    0    0    0  501  0.00000000000E+00  0.00000000000E+00 -0.28211539093E+04  0.28211539093E+04  0.50400001928E-02 0. -1.
    10030    2    1    2    0    0  0.00000000000E+00  0.00000000000E+00 -0.16080836268E+04  0.40342241918E+04  0.36998691705E+04 0.  0.
        3    1    3    3  502    0 -0.17031251458E+04 -0.24305517957E+03 -0.62472861395E+02  0.17215150162E+04  0.10100000352E+00 0.  1.
       -3    1    3    3    0  502  0.17031251458E+04  0.24305517957E+03 -0.15456107654E+04  0.23127091756E+04  0.10100000352E+00 0. -1.
</event>
<event>
 5   0  0.5714125E-09  0.3701515E+04  0.7818609E-02  0.8067626E-01
        4   -1    0    0  501    0  0.00000000000E+00  0.00000000000E+00  0.18052125424E+04  0.18052129892E+04  0.12699999809E+01 0.  1.
       -4   -1    0    0    0  501  0.00000000000E+00  0.00000000000E+00 -0.18974509213E+04  0.18974513464E+04  0.12699999809E+01 0. -1.
    10030    2    1    2    0    0  0.00000000000E+00  0.00000000000E+00 -0.92238378906E+02  0.37026643355E+04  0.37015152658E+04 0.  0.
        4    1    3    3  502    0  0.16759901704E+04 -0.74268743753E+03 -0.30070658944E+03  0.18576742844E+04  0.12699999809E+01 0. -1.
       -4    1    3    3    0  502 -0.16759901704E+04  0.74268743753E+03  0.20846821053E+03  0.18449900511E+04  0.12699999809E+01 0.  1.
</event>
<event>
 5   0  0.5714125E-09  0.3699804E+04  0.7818609E-02  0.8068005E-01
       -1   -1    0    0    0  501  0.00000000000E+00  0.00000000000E+00  0.13434238198E+04  0.13434238198E+04  0.50400001928E-02 0.  1.
        1   -1    0    0  501    0  0.00000000000E+00  0.00000000000E+00 -0.25473245835E+04  0.25473245835E+04  0.50400001928E-02 0. -1.
    10030    2    1    2    0    0  0.00000000000E+00  0.00000000000E+00 -0.12039007637E+04  0.38907484033E+04  0.36998035204E+04 0.  0.
        4    1    3    3  502    0  0.34158535680E+03  0.11274806509E+04 -0.21018278007E+04  0.24094760615E+04  0.12699999809E+01 0. -1.
       -4    1    3    3    0  502 -0.34158535680E+03 -0.11274806509E+04  0.89792703703E+03  0.14812723419E+04  0.12699999809E+01 0.  1.
</event>
<event>
 5   0  0.1725865E-08  0.3698270E+04  0.7818609E-02  0.8068345E-01
        2   -1    0    0  501    0  0.00000000000E+00  0.00000000000E+00  0.21729922723E+04  0.21729922723E+04  0.25500000920E-02 0. -1.
       -2   -1    0    0    0  501  0.00000000000E+00  0.00000000000E+00 -0.15735444253E+04  0.15735444253E+04  0.25500000920E-02 0.  1.
    10030    2    1    2    0    0  0.00000000000E+00  0.00000000000E+00  0.59944784700E+03  0.37465366976E+04  0.36982697988E+04 0.  0.
        1    1    3    3  502    0 -0.43637730938E+03  0.12098878867E+04 -0.10461656131E+04  0.16579253133E+04  0.50400001928E-02 0. -1.
       -1    1    3    3    0  502  0.43637730938E+03 -0.12098878867E+04  0.16456134601E+04  0.20886113843E+04  0.50400001928E-02 0.  1.
</event>
<event>
 5   0  0.1757996E-08  0.3699280E+04  0.7818609E-02  0.8068121E-01
        2   -1    0    0  501    0  0.00000000000E+00  0.00000000000E+00  0.21172284674E+04  0.21172284674E+04  0.25500000920E-02 0. -1.
       -2   -1    0    0    0  501  0.00000000000E+00  0.00000000000E+00 -0.16158706888E+04  0.16158706888E+04  0.25500000920E-02 0.  1.
    10030    2    1    2    0    0  0.00000000000E+00  0.00000000000E+00  0.50135777866E+03  0.37330991562E+04  0.36992796174E+04 0.  0.
        3    1    3    3  502    0 -0.23647704002E+03  0.58356473998E+02  0.21009736589E+04  0.21150454355E+04  0.10100000352E+00 0. -1.
       -3    1    3    3    0  502  0.23647704002E+03 -0.58356473998E+02 -0.15996158803E+04  0.16180537207E+04  0.10100000352E+00 0.  1.
</event>
<event>
 5   0  0.5714125E-09  0.3704526E+04  0.7818609E-02  0.8066960E-01
       -1   -1    0    0    0  501  0.00000000000E+00  0.00000000000E+00  0.12544990893E+04  0.12544990893E+04  0.50400001928E-02 0. -1.
        1   -1    0    0  501    0  0.00000000000E+00  0.00000000000E+00 -0.27348585632E+04  0.27348585632E+04  0.50400001928E-02 0.  1.
    10030    2    1    2    0    0  0.00000000000E+00  0.00000000000E+00 -0.14803594739E+04  0.39893576526E+04  0.37045256522E+04 0.  0.
        2    1    3    3  502    0  0.11138801096E+04 -0.12182668033E+04  0.16464596356E+03  0.16589186828E+04  0.25500000920E-02 0. -1.
       -2    1    3    3    0  502 -0.11138801096E+04  0.12182668033E+04 -0.16450054374E+04  0.23304389698E+04  0.25500000920E-02 0.  1.
</event>
<event>
 5   0  0.5714125E-09  0.3702457E+04  0.7818609E-02  0.8067418E-01
        1   -1    0    0  501    0  0.00000000000E+00  0.00000000000E+00  0.30051652594E+04  0.30051652594E+04  0.50400001928E-02 0. -1.
       -1   -1    0    0    0  501  0.00000000000E+00  0.00000000000E+00 -0.11403856064E+04  0.11403856064E+04  0.50400001928E-02 0.  1.
    10030    2    1    2    0    0  0.00000000000E+00  0.00000000000E+00  0.18647796530E+04  0.41455508658E+04  0.37024571337E+04 0.  0.
        5    1    3    3  502    0 -0.35001827911E+03  0.57280449339E+03 -0.99930444634E+03  0.12038476855E+04  0.46999998093E+01 0.  1.
       -5    1    3    3    0  502  0.35001827911E+03 -0.57280449339E+03  0.28640840993E+04  0.29417031803E+04  0.46999998093E+01 0. -1.
</event>
<event>
 5   0  0.1740290E-08  0.3701076E+04  0.7818609E-02  0.8067723E-01
       -2   -1    0    0    0  501  0.00000000000E+00  0.00000000000E+00  0.18018109112E+04  0.18018109112E+04  0.25500000920E-02 0. -1.
        2   -1    0    0  501    0  0.00000000000E+00  0.00000000000E+00 -0.19005826706E+04  0.19005826706E+04  0.25500000920E-02 0.  1.
    10030    2    1    2    0    0  0.00000000000E+00  0.00000000000E+00 -0.98771759475E+02  0.37023935818E+04  0.37010758401E+04 0.  0.
        5    1    3    3  502    0  0.49324403836E+03  0.17559003772E+04  0.26376341225E+03  0.18428426530E+04  0.46999998093E+01 0. -1.
       -5    1    3    3    0  502 -0.49324403836E+03 -0.17559003772E+04 -0.36253517172E+03  0.18595509288E+04  0.46999998093E+01 0.  1.
</event>
<event>
 5   0  0.1725865E-08  0.3700876E+04  0.7818609E-02  0.8067768E-01
       -2   -1    0    0    0  501  0.00000000000E+00  0.00000000000E+00  0.23725646071E+04  0.23725646071E+04  0.25500000920E-02 0.  1.
        2   -1    0    0  501    0  0.00000000000E+00  0.00000000000E+00 -0.14432152120E+04  0.14432152120E+04  0.25500000920E-02 0. -1.
    10030    2    1    2    0    0  0.00000000000E+00  0.00000000000E+00  0.92934939517E+03  0.38157798191E+04  0.37008762921E+04 0.  0.
        1    1    3    3  502    0  0.88179265756E+02  0.70222529754E+03  0.22275024898E+04  0.23372341118E+04  0.50400001928E-02 0.  1.
       -1    1    3    3    0  502 -0.88179265756E+02 -0.70222529754E+03 -0.12981530946E+04  0.14785457073E+04  0.50400001928E-02 0. -1.
</event>
<event>
 5   0  0.5714125E-09  0.3703366E+04  0.7818609E-02  0.8067216E-01
       -3   -1    0    0    0  501  0.00000000000E+00  0.00000000000E+00  0.20365686499E+04  0.20365686524E+04  0.10100000352E+00 0. -1.
        3   -1    0    0  501    0  0.00000000000E+00  0.00000000000E+00 -0.16835821163E+04  0.16835821194E+04  0.10100000352E+00 0.  1.
    10030    2    1    2    0    0  0.00000000000E+00  0.00000000000E+00  0.35298653358E+03  0.37201507718E+04  0.37033663432E+04 0.  0.
        4    1    3    3  502    0  0.10916642872E+04  0.14956274457E+04  0.16662107284E+03  0.18591386627E+04  0.12699999809E+01 0.  1.
       -4    1    3    3    0  502 -0.10916642872E+04 -0.14956274457E+04  0.18636546074E+03  0.18610121091E+04  0.12699999809E+01 0. -1.
</event>
<event>
 5   0  0.5714125E-09  0.3705036E+04  0.7818609E-02  0.8066847E-01
        1   -1    0    0  501    0  0.00000000000E+00  0.00000000000E+00  0.17130228020E+04  0.17130228020E+04  0.50400001928E-02 0.  1.
       -1   -1    0    0    0  501  0.00000000000E+00  0.00000000000E+00 -0.20033721319E+04  0.20033721319E+04  0.50400001928E-02 0. -1.
    10030    2    1    2    0    0  0.00000000000E+00  0.00000000000E+00 -0.29034932991E+03  0.37163949339E+04  0.37050355695E+04 0.  0.
        4    1    3    3  502    0  0.25583449711E+03  0.17644040694E+04 -0.64995459393E+03  0.18976342105E+04  0.12699999809E+01 0.  1.
       -4    1    3    3    0  502 -0.25583449711E+03 -0.17644040694E+04  0.35960526403E+03  0.18187607233E+04  0.12699999809E+01 0. -1.
</event>
<event>
 5   0  0.1825308E-08  0.3699346E+04  0.7818609E-02  0.8068107E-01
       -2   -1    0    0    0  501  0.00000000000E+00  0.00000000000E+00  0.12908289472E+04  0.12908289472E+04  0.25500000920E-02 0.  1.
        2   -1    0    0  501    0  0.00000000000E+00  0.00000000000E+00 -0.26504596507E+04  0.26504596507E+04  0.25500000920E-02 0. -1.
    10030    2    1    2    0    0  0.00000000000E+00  0.00000000000E+00 -0.13596307035E+04  0.39412885979E+04  0.36993459101E+04 0.  0.
        4    1    3    3  502    0  0.80139954557E+03 -0.16155774426E+04 -0.11177416575E+04  0.21217162229E+04  0.12699999809E+01 0. -1.
       -4    1    3    3    0  502 -0.80139954557E+03  0.16155774426E+04 -0.24188904597E+03  0.18195723750E+04  0.12699999809E+01 0.  1.
</event>
<event>
 5   0  0.1725865E-08  0.3702402E+04  0.7818609E-02  0.8067430E-01
       -2   -1    0    0    0  501  0.00000000000E+00  0.00000000000E+00  0.18442572079E+04  0.18442572079E+04  0.25500000920E-02 0.  1.
        2   -1    0    0  501    0  0.00000000000E+00  0.00000000000E+00 -0.18581713594E+04  0.18581713594E+04  0.25500000920E-02 0. -1.
    10030    2    1    2    0    0  0.00000000000E+00  0.00000000000E+00 -0.13914151523E+02  0.37024285673E+04  0.37024024218E+04 0.  0.
        1    1    3    3  502    0 -0.13239836489E+04 -0.47255389643E+03  0.11975040173E+04  0.18466877806E+04  0.50400001928E-02 0.  1.
       -1    1    3    3    0  502  0.13239836489E+04  0.47255389643E+03 -0.12114181688E+04  0.18557407867E+04  0.50400001928E-02 0. -1.
</event>
<event>
 5   0  0.1740290E-08  0.3697650E+04  0.7818609E-02  0.8068483E-01
       -2   -1    0    0    0  501  0.00000000000E+00  0.00000000000E+00  0.21678148495E+04  0.21678148495E+04  0.25500000920E-02 0.  1.
        2   -1    0    0  501    0  0.00000000000E+00  0.00000000000E+00 -0.15767742127E+04  0.15767742127E+04  0.25500000920E-02 0. -1.
    10030    2    1    2    0    0  0.00000000000E+00  0.00000000000E+00  0.59104063673E+03  0.37445890622E+04  0.36976503634E+04 0.  0.
        5    1    3    3  502    0  0.21838811763E+03 -0.28784635578E+03  0.21317065286E+04  0.21621155632E+04  0.46999998093E+01 0.  1.
       -5    1    3    3    0  502 -0.21838811763E+03  0.28784635578E+03 -0.15406658919E+04  0.15824734990E+04  0.46999998093E+01 0. -1.
</event>
<event>
 5   0  0.1740290E-08  0.3699502E+04  0.7818609E-02  0.8068072E-01
        2   -1    0    0  501    0  0.00000000000E+00  0.00000000000E+00  0.22225415407E+04  0.22225415407E+04  0.25500000920E-02 0. -1.
       -2   -1    0    0    0  501  0.00000000000E+00  0.00000000000E+00 -0.15394896021E+04  0.15394896021E+04  0.25500000920E-02 0.  1.
    10030    2    1    2    0    0  0.00000000000E+00  0.00000000000E+00  0.68305193858E+03  0.37620311427E+04  0.36995024487E+04 0.  0.
        5    1    3    3  502    0  0.64677612727E+03 -0.15533773499E+04 -0.43974128667E+03  0.17391650408E+04  0.46999998093E+01 0.  1.
       -5    1    3    3    0  502 -0.64677612727E+03  0.15533773499E+04  0.11227932252E+04  0.20228661020E+04  0.46999998093E+01 0. -1.
</event>
<event>
 5   0  0.1740290E-08  0.3714232E+04  0.7818609E-02  0.8064815E-01
        2   -1    0    0  501    0  0.00000000000E+00  0.00000000000E+00  0.25983280337E+04  0.25983280337E+04  0.25500000920E-02 0.  1.
       -2   -1    0    0    0  501  0.00000000000E+00  0.00000000000E+00 -0.13273454743E+04  0.13273454743E+04  0.25500000920E-02 0. -1.
    10030    2    1    2    0    0  0.00000000000E+00  0.00000000000E+00  0.12709825594E+04  0.39256735079E+04  0.37142315254E+04 0.  0.
        5    1    3    3  502    0  0.11119687663E+04 -0.14873519051E+04  0.64913502725E+03  0.19672540763E+04  0.46999998093E+01 0.  1.
       -5    1    3    3    0  502 -0.11119687663E+04  0.14873519051E+04  0.62184753215E+03  0.19584194317E+04  0.46999998093E+01 0. -1.
</event>
<event>
 5   0  0.5714125E-09  0.3695379E+04  0.7818609E-02  0.8068987E-01
       -1   -1    0    0    0  501  0.00000000000E+00  0.00000000000E+00  0.16497256369E+04  0.16497256369E+04  0.50400001928E-02 0.  1.
        1   -1    0    0  501    0  0.00000000000E+00  0.00000000000E+00 -0.20694085559E+04  0.20694085559E+04  0.50400001928E-02 0. -1.
    10030    2    1    2    0    0  0.00000000000E+00  0.00000000000E+00 -0.41968291894E+03  0.37191341928E+04  0.36953789239E+04 0.  0.
        5    1    3    3  502    0 -0.39982976143E+03 -0.64573614639E+03 -0.19050371101E+04  0.20508601829E+04  0.46999998093E+01 0. -1.
       -5    1    3    3    0  502  0.39982976143E+03  0.64573614639E+03  0.14853541912E+04  0.16682740099E+04  0.46999998093E+01 0.  1.
</event>
<event>
 5   0  0.1725865E-08  0.3702011E+04  0.7818609E-02  0.8067516E-01
        2   -1    0    0  501    0  0.00000000000E+00  0.00000000000E+00  0.19177053692E+04  0.19177053692E+04  0.25500000920E-02 0.  1.
       -2   -1    0    0    0  501  0.00000000000E+00  0.00000000000E+00 -0.17866255714E+04  0.17866255714E+04  0.25500000920E-02 0. -1.
    10030    2    1    2    0    0  0.00000000000E+00  0.00000000000E+00  0.13107979783E+03  0.37043309406E+04  0.37020110486E+04 0.  0.
        1    1    3    3  502    0 -0.22450992585E+02  0.13363960276E+04 -0.12157948911E+04  0.18068247305E+04  0.50400001928E-02 0. -1.
       -1    1    3    3    0  502  0.22450992585E+02 -0.13363960276E+04  0.13468746889E+04  0.18975062101E+04  0.50400001928E-02 0.  1.
</event>
<event>
 5   0  0.5714125E-09  0.3699954E+04  0.7818609E-02  0.8067972E-01
       -1   -1    0    0    0  501  0.00000000000E+00  0.00000000000E+00  0.16634650775E+04  0.16634650775E+04  0.50400001928E-02 0.  1.
        1   -1    0    0  501    0  0.00000000000E+00  0.00000000000E+00 -0.20574011314E+04  0.20574011314E+04  0.50400001928E-02 0. -1.
    10030    2    1    2    0    0  0.00000000000E+00  0.00000000000E+00 -0.39393605396E+03  0.37208662089E+04  0.36999540173E+04 0.  0.
        2    1    3    3  502    0  0.36416748230E+03 -0.18046113260E+04 -0.13798679759E+02  0.18410405744E+04  0.25500000920E-02 0.  1.
       -2    1    3    3    0  502 -0.36416748230E+03  0.18046113260E+04 -0.38013737420E+03  0.18798256345E+04  0.25500000920E-02 0. -1.
</event>
<event>
 5   0  0.5714125E-09  0.3698134E+04  0.7818609E-02  0.8068375E-01
       -1   -1    0    0    0  501  0.00000000000E+00  0.00000000000E+00  0.20207603159E+04  0.20207603159E+04  0.50400001928E-02 0. -1.
        1   -1    0    0  501    0  0.00000000000E+00  0.00000000000E+00 -0.16919619506E+04  0.16919619506E+04  0.50400001928E-02 0.  1.
    10030    2    1    2    0    0  0.00000000000E+00  0.00000000000E+00  0.32879836530E+03  0.37127222666E+04  0.36981344302E+04 0.  0.
        2    1    3    3  502    0  0.11845666450E+04 -0.44094852121E+02  0.15891190558E+04  0.19825342030E+04  0.25500000920E-02 0. -1.
       -2    1    3    3    0  502 -0.11845666450E+04  0.44094852121E+02 -0.12603206905E+04  0.17301880636E+04  0.25500000920E-02 0.  1.
</event>
<event>
 5   0  0.5714125E-09  0.3703220E+04  0.7818609E-02  0.8067249E-01
       -1   -1    0    0    0  501  0.00000000000E+00  0.00000000000E+00  0.13510195733E+04  0.13510195733E+04  0.50400001928E-02 0.  1.
        1   -1    0    0  501    0  0.00000000000E+00  0.00000000000E+00 -0.25376828445E+04  0.25376828445E+04  0.50400001928E-02 0. -1.
    10030    2    1    2    0    0  0.00000000000E+00  0.00000000000E+00 -0.11866632712E+04  0.38887024178E+04  0.37032197849E+04 0.  0.
        3    1    3    3  502    0  0.13970502478E+04  0.72309944611E+03  0.43223126024E+03  0.16313939059E+04  0.10100000352E+00 0. -1.
       -3    1    3    3    0  502 -0.13970502478E+04 -0.72309944611E+03 -0.16188945314E+04  0.22573085119E+04  0.10100000352E+00 0.  1.
</event>
<event>
 5   0  0.1725865E-08  0.3700102E+04  0.7818609E-02  0.8067939E-01
       -2   -1    0    0    0  501  0.00000000000E+00  0.00000000000E+00  0.12769756054E+04  0.12769756054E+04  0.25500000920E-02 0.  1.
        2   -1    0    0  501    0  0.00000000000E+00  0.00000000000E+00 -0.26803088712E+04  0.26803088712E+04  0.25500000920E-02 0. -1.
    10030    2    1    2    0    0  0.00000000000E+00  0.00000000000E+00 -0.14033332658E+04  0.39572844766E+04  0.37001021842E+04 0.  0.
        1    1    3    3  502    0  0.47342781239E+03 -0.30048206511E+03  0.11839031940E+04  0.13099809685E+04  0.50400001928E-02 0.  1.
       -1    1    3    3    0  502 -0.47342781239E+03  0.30048206511E+03 -0.25872364598E+04  0.26473035081E+04  0.50400001928E-02 0. -1.
</event>
<event>
 5   0  0.5714125E-09  0.3699231E+04  0.7818609E-02  0.8068132E-01
        1   -1    0    0  501    0  0.00000000000E+00  0.00000000000E+00  0.24924890192E+04  0.24924890193E+04  0.50400001928E-02 0. -1.
       -1   -1    0    0    0  501  0.00000000000E+00  0.00000000000E+00 -0.13725545008E+04  0.13725545008E+04  0.50400001928E-02 0.  1.
    10030    2    1    2    0    0  0.00000000000E+00  0.00000000000E+00  0.11199345184E+04  0.38650435201E+04  0.36992307425E+04 0.  0.
        4    1    3    3  502    0 -0.37034739636E+03 -0.16020184263E+03 -0.13260054656E+04  0.13860425433E+04  0.12699999809E+01 0.  1.
       -4    1    3    3    0  502  0.37034739636E+03  0.16020184263E+03  0.24459399840E+04  0.24790009767E+04  0.12699999809E+01 0. -1.
</event>
<event>
 5   0  0.5714125E-09  0.3700432E+04  0.7818609E-02  0.8067866E-01
        1   -1    0    0  501    0  0.00000000000E+00  0.00000000000E+00  0.14564309947E+04  0.14564309947E+04  0.50400001928E-02 0.  1.
       -1   -1    0    0    0  501  0.00000000000E+00  0.00000000000E+00 -0.23504717723E+04  0.23504717723E+04  0.50400001928E-02 0. -1.
    10030    2    1    2    0    0  0.00000000000E+00  0.00000000000E+00 -0.89404077757E+03  0.38069027670E+04  0.37004323755E+04 0.  0.
        4    1    3    3  502    0  0.83061483577E+02 -0.14440111050E+04 -0.16340075769E+04  0.21822121015E+04  0.12699999809E+01 0.  1.
       -4    1    3    3    0  502 -0.83061483577E+02  0.14440111050E+04  0.73996679937E+03  0.16246906655E+04  0.12699999809E+01 0. -1.
</event>
<event>
 5   0  0.5714125E-09  0.3700198E+04  0.7818609E-02  0.8067918E-01
        1   -1    0    0  501    0  0.00000000000E+00  0.00000000000E+00  0.16366547412E+04  0.16366547412E+04  0.50400001928E-02 0. -1.
       -1   -1    0    0    0  501  0.00000000000E+00  0.00000000000E+00 -0.20913792190E+04  0.20913792190E+04  0.50400001928E-02 0.  1.
    10030    2    1    2    0    0  0.00000000000E+00  0.00000000000E+00 -0.45472447774E+03  0.37280339602E+04  0.37001976782E+04 0.  0.
        5    1    3    3  502    0 -0.93693795855E+03  0.14699594820E+04 -0.85187205632E+03  0.19401911522E+04  0.46999998093E+01 0.  1.
       -5    1    3    3    0  502  0.93693795855E+03 -0.14699594820E+04  0.39714757859E+03  0.17878428080E+04  0.46999998093E+01 0. -1.
</event>
<event>
 5   0  0.1856107E-08  0.3698772E+04  0.7818609E-02  0.8068234E-01
       -2   -1    0    0    0  501  0.00000000000E+00  0.00000000000E+00  0.19858695303E+04  0.19858695303E+04  0.25500000920E-02 0. -1.
        2   -1    0    0  501    0  0.00000000000E+00  0.00000000000E+00 -0.17222822790E+04  0.17222822790E+04  0.25500000920E-02 0.  1.
    10030    2    1    2    0    0  0.00000000000E+00  0.00000000000E+00  0.26358725131E+03  0.37081518094E+04  0.36987716342E+04 0.  0.
        2    1    3    3  502    0 -0.17319855097E+03  0.99085065147E+03  0.16876459291E+04  0.19646708461E+04  0.25500000920E-02 0. -1.
       -2    1    3    3    0  502  0.17319855097E+03 -0.99085065147E+03 -0.14240586778E+04  0.17434809633E+04  0.25500000920E-02 0.  1.
</event>
<event>
 5   0  0.1825308E-08  0.3697377E+04  0.7818609E-02  0.8068543E-01
       -2   -1    0    0    0  501  0.00000000000E+00  0.00000000000E+00  0.14204806101E+04  0.14204806101E+04  0.25500000920E-02 0.  1.
        2   -1    0    0  501    0  0.00000000000E+00  0.00000000000E+00 -0.24059807596E+04  0.24059807596E+04  0.25500000920E-02 0. -1.
    10030    2    1    2    0    0  0.00000000000E+00  0.00000000000E+00 -0.98550014951E+03  0.38264613697E+04  0.36973769173E+04 0.  0.
        4    1    3    3  502    0  0.11549075289E+04 -0.78444994943E+03 -0.17468633930E+04  0.22362259390E+04  0.12699999809E+01 0. -1.
       -4    1    3    3    0  502 -0.11549075289E+04  0.78444994943E+03  0.76136324347E+03  0.15902354307E+04  0.12699999809E+01 0.  1.
</event>
<event>
 5   0  0.1740290E-08  0.3696266E+04  0.7818609E-02  0.8068790E-01
        2   -1    0    0  501    0  0.00000000000E+00  0.00000000000E+00  0.24464112248E+04  0.24464112248E+04  0.25500000920E-02 0.  1.
       -2   -1    0    0    0  501  0.00000000000E+00  0.00000000000E+00 -0.13961659300E+04  0.13961659300E+04  0.25500000920E-02 0. -1.
    10030    2    1    2    0    0  0.00000000000E+00  0.00000000000E+00  0.10502452948E+04  0.38425771548E+04  0.36962662257E+04 0.  0.
        5    1    3    3  502    0  0.11256188332E+04  0.47682284326E+03 -0.91581505251E+03  0.15274544451E+04  0.46999998093E+01 0. -1.
       -5    1    3    3    0  502 -0.11256188332E+04 -0.47682284326E+03  0.19660603473E+04  0.23151227096E+04  0.46999998093E+01 0.  1.
</event>
<event>
 5   0  0.1757996E-08  0.3701547E+04  0.7818609E-02  0.8067619E-01
       -2   -1    0    0    0  501  0.00000000000E+00  0.00000000000E+00  0.15293618238E+04  0.15293618238E+04  0.25500000920E-02 0.  1.
        2   -1    0    0  501    0  0.00000000000E+00  0.00000000000E+00 -0.22397330533E+04  0.22397330533E+04  0.25500000920E-02 0. -1.
    10030    2    1    2    0    0  0.00000000000E+00  0.00000000000E+00 -0.71037122952E+03  0.37690948771E+04  0.37015468266E+04 0.  0.
        3    1    3    3  502    0  0.14905774203E+04 -0.41730513673E+03 -0.13882928342E+04  0.20792598747E+04  0.10100000352E+00 0. -1.
       -3    1    3    3    0  502 -0.14905774203E+04  0.41730513673E+03  0.67792160467E+03  0.16898350024E+04  0.10100000352E+00 0.  1.
</event>
<event>
 5   0  0.1740290E-08  0.3703024E+04  0.7818609E-02  0.8067292E-01
       -2   -1    0    0    0  501  0.00000000000E+00  0.00000000000E+00  0.19981099047E+04  0.19981099047E+04  0.25500000920E-02 0.  1.
        2   -1    0    0  501    0  0.00000000000E+00  0.00000000000E+00 -0.17156694489E+04  0.17156694489E+04  0.25500000920E-02 0. -1.
    10030    2    1    2    0    0  0.00000000000E+00  0.00000000000E+00  0.28244045584E+03  0.37137793536E+04  0.37030236937E+04 0.  0.
        5    1    3    3  502    0 -0.37923876715E-01  0.56873706355E+03  0.19083290095E+04  0.19912818854E+04  0.46999998093E+01 0.  1.
       -5    1    3    3    0  502  0.37923876715E-01 -0.56873706355E+03 -0.16258885536E+04  0.17224974681E+04  0.46999998093E+01 0. -1.
</event>
<event>
 5   0  0.1856107E-08  0.3700818E+04  0.7818609E-02  0.8067780E-01
        2   -1    0    0  501    0  0.00000000000E+00  0.00000000000E+00  0.17938016154E+04  0.17938016154E+04  0.25500000920E-02 0. -1.
       -2   -1    0    0    0  501  0.00000000000E+00  0.00000000000E+00 -0.19088032549E+04  0.19088032549E+04  0.25500000920E-02 0.  1.
    10030    2    1    2    0    0  0.00000000000E+00  0.00000000000E+00 -0.11500163953E+03  0.37026048702E+04  0.37008184835E+04 0.  0.
        2    1    3    3  502    0 -0.33299288018E+02 -0.10760408575E+04  0.14482311595E+04  0.18045349154E+04  0.25500000920E-02 0. -1.
       -2    1    3    3    0  502  0.33299288018E+02  0.10760408575E+04 -0.15632327990E+04  0.18980699548E+04  0.25500000920E-02 0.  1.
</event>
<event>
 5   0  0.5714125E-09  0.3701419E+04  0.7818609E-02  0.8067647E-01
        1   -1    0    0  501    0  0.00000000000E+00  0.00000000000E+00  0.22794938333E+04  0.22794938333E+04  0.50400001928E-02 0. -1.
       -1   -1    0    0    0  501  0.00000000000E+00  0.00000000000E+00 -0.15025816986E+04  0.15025816986E+04  0.50400001928E-02 0.  1.
    10030    2    1    2    0    0  0.00000000000E+00  0.00000000000E+00  0.77691213472E+03  0.37820755320E+04  0.37014190339E+04 0.  0.
        1    1    3    3  502    0 -0.85129880277E+03 -0.11933946512E+04  0.15427744556E+04  0.21281572935E+04  0.50400001928E-02 0. -1.
       -1    1    3    3    0  502  0.85129880277E+03  0.11933946512E+04 -0.76586232083E+03  0.16539182385E+04  0.50400001928E-02 0.  1.
</event>
<event>
 5   0  0.5714125E-09  0.3699544E+04  0.7818609E-02  0.8068063E-01
        1   -1    0    0  501    0  0.00000000000E+00  0.00000000000E+00  0.20787232437E+04  0.20787232437E+04  0.50400001928E-02 0. -1.
       -1   -1    0    0    0  501  0.00000000000E+00  0.00000000000E+00 -0.16460378528E+04  0.16460378528E+04  0.50400001928E-02 0.  1.
    10030    2    1    2    0    0  0.00000000000E+00  0.00000000000E+00  0.43268539091E+03  0.37247610966E+04  0.36995443745E+04 0.  0.
        4    1    3    3  502    0  0.91248727275E+03 -0.12188628353E+04 -0.84124372127E+03  0.17395264429E+04  0.12699999809E+01 0.  1.
       -4    1    3    3    0  502 -0.91248727275E+03  0.12188628353E+04  0.12739291122E+04  0.19852346536E+04  0.12699999809E+01 0. -1.
</event>
<event>
 5   0  0.1825308E-08  0.3699052E+04  0.7818609E-02  0.8068172E-01
        2   -1    0    0  501    0  0.00000000000E+00  0.00000000000E+00  0.19065482818E+04  0.19065482818E+04  0.25500000920E-02 0.  1.
       -2   -1    0    0    0  501  0.00000000000E+00  0.00000000000E+00 -0.17942095550E+04  0.17942095550E+04  0.25500000920E-02 0. -1.
    10030    2    1    2    0    0  0.00000000000E+00  0.00000000000E+00  0.11233872683E+03  0.37007578369E+04  0.36990523891E+04 0.  0.
        4    1    3    3  502    0 -0.26479907762E+03 -0.16179401635E+03  0.18803173446E+04  0.19057520260E+04  0.12699999809E+01 0.  1.
       -4    1    3    3    0  502  0.26479907762E+03  0.16179401635E+03 -0.17679786178E+04  0.17950058109E+04  0.12699999809E+01 0. -1.
</event>
<event>
 5   0  0.1825308E-08  0.3698859E+04  0.7818609E-02  0.8068215E-01
        2   -1    0    0  501    0  0.00000000000E+00  0.00000000000E+00  0.15717541126E+04  0.15717541126E+04  0.25500000920E-02 0. -1.
       -2   -1    0    0    0  501  0.00000000000E+00  0.00000000000E+00 -0.21761604326E+04  0.21761604326E+04  0.25500000920E-02 0.  1.
    10030    2    1    2    0    0  0.00000000000E+00  0.00000000000E+00 -0.60440631992E+03  0.37479145452E+04  0.36988588022E+04 0.  0.
        4    1    3    3  502    0  0.17821545182E+01 -0.10121037977E+04 -0.18706437498E+04  0.21268913760E+04  0.12699999809E+01 0.  1.
       -4    1    3    3    0  502 -0.17821545182E+01  0.10121037977E+04  0.12662374299E+04  0.16210231692E+04  0.12699999809E+01 0. -1.
</event>
<event>
 5   0  0.5714125E-09  0.3702196E+04  0.7818609E-02  0.8067475E-01
        1   -1    0    0  501    0  0.00000000000E+00  0.00000000000E+00  0.15287772793E+04  0.15287772793E+04  0.50400001928E-02 0. -1.
       -1   -1    0    0    0  501  0.00000000000E+00  0.00000000000E+00 -0.22413748368E+04  0.22413748368E+04  0.50400001928E-02 0.  1.
    10030    2    1    2    0    0  0.00000000000E+00  0.00000000000E+00 -0.71259755749E+03  0.37701521161E+04  0.37021955242E+04 0.  0.
        2    1    3    3  502    0  0.89947266105E+03  0.12063104374E+04 -0.14542010468E+04  0.20925908878E+04  0.25500000920E-02 0.  1.
       -2    1    3    3    0  502 -0.89947266105E+03 -0.12063104374E+04  0.74160348928E+03  0.16775612283E+04  0.25500000920E-02 0. -1.
</event>
<event>
 5   0  0.5714125E-09  0.3702315E+04  0.7818609E-02  0.8067449E-01
       -1   -1    0    0    0  501  0.00000000000E+00  0.00000000000E+00  0.20436682856E+04  0.20436682856E+04  0.50400001928E-02 0. -1.
        1   -1    0    0  501    0  0.00000000000E+00  0.00000000000E+00 -0.16767813489E+04  0.16767813489E+04  0.50400001928E-02 0.  1.
    10030    2    1    2    0    0  0.00000000000E+00  0.00000000000E+00  0.36688693673E+03  0.37204496345E+04  0.37023154185E+04 0.  0.
        2    1    3    3  502    0 -0.64344467463E+03 -0.15706663650E+04 -0.55893819379E+03  0.17870158880E+04  0.25500000920E-02 0.  1.
       -2    1    3    3    0  502  0.64344467463E+03  0.15706663650E+04  0.92582513052E+03  0.19334337465E+04  0.25500000920E-02 0. -1.
</event>
<event>
 5   0  0.1856107E-08  0.3702060E+04  0.7818609E-02  0.8067506E-01
        2   -1    0    0  501    0  0.00000000000E+00  0.00000000000E+00  0.15948708579E+04  0.15948708579E+04  0.25500000920E-02 0. -1.
       -2   -1    0    0    0  501  0.00000000000E+00  0.00000000000E+00 -0.21483314387E+04  0.21483314387E+04  0.25500000920E-02 0.  1.
    10030    2    1    2    0    0  0.00000000000E+00  0.00000000000E+00 -0.55346058082E+03  0.37432022965E+04  0.37020595374E+04 0.  0.
        2    1    3    3  502    0 -0.10192791633E+04  0.14410600296E+04  0.28689376897E+03  0.17882650968E+04  0.25500000920E-02 0.  1.
       -2    1    3    3    0  502  0.10192791633E+04 -0.14410600296E+04 -0.84035434979E+03  0.19549371997E+04  0.25500000920E-02 0. -1.
</event>
<event>
 5   0  0.1757996E-08  0.3703143E+04  0.7818609E-02  0.8067266E-01
        2   -1    0    0  501    0  0.00000000000E+00  0.00000000000E+00  0.29262052472E+04  0.29262052472E+04  0.25500000920E-02 0. -1.
       -2   -1    0    0    0  501  0.00000000000E+00  0.00000000000E+00 -0.11715912014E+04  0.11715912014E+04  0.25500000920E-02 0.  1.
    10030    2    1    2    0    0  0.00000000000E+00  0.00000000000E+00  0.17546140458E+04  0.40977964487E+04  0.37031426228E+04 0.  0.
        3    1    3    3  502    0  0.89927564041E+02 -0.16213972300E+04 -0.10704542687E+03  0.16274134932E+04  0.10100000352E+00 0.  1.
       -3    1    3    3    0  502 -0.89927564041E+02  0.16213972300E+04  0.18616594727E+04  0.24703829555E+04  0.10100000352E+00 0. -1.
</event>
<event>
 5   0  0.1856107E-08  0.3700970E+04  0.7818609E-02  0.8067747E-01
       -2   -1    0    0    0  501  0.00000000000E+00  0.00000000000E+00  0.26072264168E+04  0.26072264168E+04  0.25500000920E-02 0.  1.
        2   -1    0    0  501    0  0.00000000000E+00  0.00000000000E+00 -0.13133860721E+04  0.13133860721E+04  0.25500000920E-02 0. -1.
    10030    2    1    2    0    0  0.00000000000E+00  0.00000000000E+00  0.12938403448E+04  0.39206124889E+04  0.37009700688E+04 0.  0.
        2    1    3    3  502    0 -0.32867222480E+03 -0.15574645673E+04 -0.35278800173E+03  0.16303928005E+04  0.25500000920E-02 0. -1.
       -2    1    3    3    0  502  0.32867222480E+03  0.15574645673E+04  0.16466283465E+04  0.22902196884E+04  0.25500000920E-02 0.  1.
</event>
<event>
 5   0  0.1725865E-08  0.3700458E+04  0.7818609E-02  0.8067860E-01
       -2   -1    0    0    0  501  0.00000000000E+00  0.00000000000E+00  0.11457675639E+04  0.11457675639E+04  0.25500000920E-02 0.  1.
        2   -1    0    0  501    0  0.00000000000E+00  0.00000000000E+00 -0.29878203063E+04  0.29878203063E+04  0.25500000920E-02 0. -1.
    10030    2    1    2    0    0  0.00000000000E+00  0.00000000000E+00 -0.18420527424E+04  0.41335878702E+04  0.37004581304E+04 0.  0.
        1    1    3    3  502    0  0.24361675038E+03  0.46177833515E+03 -0.29038280999E+04  0.29503908191E+04  0.50400001928E-02 0. -1.
       -1    1    3    3    0  502 -0.24361675038E+03 -0.46177833515E+03  0.10617753575E+04  0.11831970511E+04  0.50400001928E-02 0.  1.
</event>
<event>
 5   0  0.5714125E-09  0.3684979E+04  0.7818609E-02  0.8071299E-01
        1   -1    0    0  501    0  0.00000000000E+00  0.00000000000E+00  0.23123865788E+04  0.23123865788E+04  0.50400001928E-02 0. -1.
       -1   -1    0    0    0  501  0.00000000000E+00  0.00000000000E+00 -0.14680796548E+04  0.14680796548E+04  0.50400001928E-02 0.  1.
    10030    2    1    2    0    0  0.00000000000E+00  0.00000000000E+00  0.84430692401E+03  0.37804662336E+04  0.36849790721E+04 0.  0.
        5    1    3    3  502    0 -0.11858082981E+03 -0.16457700443E+03  0.23008899809E+04  0.23098189968E+04  0.46999998093E+01 0. -1.
       -5    1    3    3    0  502  0.11858082981E+03  0.16457700443E+03 -0.14565830569E+04  0.14706472369E+04  0.46999998093E+01 0.  1.
</event>
<event>
 5   0  0.1740290E-08  0.3697259E+04  0.7818609E-02  0.8068570E-01
        2   -1    0    0  501    0  0.00000000000E+00  0.00000000000E+00  0.20924814566E+04  0.20924814566E+04  0.25500000920E-02 0. -1.
       -2   -1    0    0    0  501  0.00000000000E+00  0.00000000000E+00 -0.16331949911E+04  0.16331949911E+04  0.25500000920E-02 0.  1.
    10030    2    1    2    0    0  0.00000000000E+00  0.00000000000E+00  0.45928646548E+03  0.37256764478E+04  0.36972585704E+04 0.  0.
        5    1    3    3  502    0  0.78071864568E+03 -0.16319462908E+04  0.61287921820E+03  0.19100820207E+04  0.46999998093E+01 0.  1.
       -5    1    3    3    0  502 -0.78071864568E+03  0.16319462908E+04 -0.15359275272E+03  0.18155944270E+04  0.46999998093E+01 0. -1.
</event>
<event>
 5   0  0.1825308E-08  0.3700541E+04  0.7818609E-02  0.8067842E-01
        2   -1    0    0  501    0  0.00000000000E+00  0.00000000000E+00  0.22776957488E+04  0.22776957488E+04  0.25500000920E-02 0.  1.
       -2   -1    0    0    0  501  0.00000000000E+00  0.00000000000E+00 -0.15030545602E+04  0.15030545602E+04  0.25500000920E-02 0. -1.
    10030    2    1    2    0    0  0.00000000000E+00  0.00000000000E+00  0.77464118863E+03  0.37807503091E+04  0.37005410318E+04 0.  0.
        4    1    3    3  502    0  0.11255991192E+04 -0.41452476827E+03  0.18266482922E+04  0.21852802468E+04  0.12699999809E+01 0.  1.
       -4    1    3    3    0  502 -0.11255991192E+04  0.41452476827E+03 -0.10520071036E+04  0.15954700623E+04  0.12699999809E+01 0. -1.
</event>
<event>
 5   0  0.1856107E-08  0.3701740E+04  0.7818609E-02  0.8067576E-01
        2   -1    0    0  501    0  0.00000000000E+00  0.00000000000E+00  0.25008641901E+04  0.25008641901E+04  0.25500000920E-02 0.  1.
       -2   -1    0    0    0  501  0.00000000000E+00  0.00000000000E+00 -0.13698146493E+04  0.13698146493E+04  0.25500000920E-02 0. -1.
    10030    2    1    2    0    0  0.00000000000E+00  0.00000000000E+00  0.11310495408E+04  0.38706788395E+04  0.37017403494E+04 0.  0.
        2    1    3    3  502    0 -0.15173807348E+04  0.21981909748E+03 -0.51859300071E+03  0.16185497924E+04  0.25500000920E-02 0. -1.
       -2    1    3    3    0  502  0.15173807348E+04 -0.21981909748E+03  0.16496425415E+04  0.22521290471E+04  0.25500000920E-02 0.  1.
</event>
<event>
 5   0  0.5714125E-09  0.3700557E+04  0.7818609E-02  0.8067838E-01
        1   -1    0    0  501    0  0.00000000000E+00  0.00000000000E+00  0.20837949250E+04  0.20837949250E+04  0.50400001928E-02 0.  1.
       -1   -1    0    0    0  501  0.00000000000E+00  0.00000000000E+00 -0.16429308798E+04  0.16429308798E+04  0.50400001928E-02 0. -1.
    10030    2    1    2    0    0  0.00000000000E+00  0.00000000000E+00  0.44086404515E+03  0.37267258048E+04  0.37005572713E+04 0.  0.
        5    1    3    3  502    0 -0.88712529542E+03  0.21774634002E+03 -0.14000158825E+04  0.16716672275E+04  0.46999998093E+01 0. -1.
       -5    1    3    3    0  502  0.88712529542E+03 -0.21774634002E+03  0.18408799276E+04  0.20550585773E+04  0.46999998093E+01 0.  1.
</event>
<event>
 5   0  0.5714125E-09  0.3698329E+04  0.7818609E-02  0.8068332E-01
        1   -1    0    0  501    0  0.00000000000E+00  0.00000000000E+00  0.20880034563E+04  0.20880034563E+04  0.50400001928E-02 0. -1.
       -1   -1    0    0    0  501  0.00000000000E+00  0.00000000000E+00 -0.16376452271E+04  0.16376452271E+04  0.50400001928E-02 0.  1.
    10030    2    1    2    0    0  0.00000000000E+00  0.00000000000E+00  0.45035822920E+03  0.37256486834E+04  0.36983287547E+04 0.  0.
        5    1    3    3  502    0  0.38431856409E+03  0.17080597586E+04  0.82473772160E+03  0.19352992784E+04  0.46999998093E+01 0. -1.
       -5    1    3    3    0  502 -0.38431856409E+03 -0.17080597586E+04 -0.37437949240E+03  0.17903494050E+04  0.46999998093E+01 0.  1.
</event>
<event>
 5   0  0.1725865E-08  0.3700416E+04  0.7818609E-02  0.8067870E-01
        2   -1    0    0  501    0  0.00000000000E+00  0.00000000000E+00  0.20567450916E+04  0.20567450916E+04  0.25500000920E-02 0. -1.
       -2   -1    0    0    0  501  0.00000000000E+00  0.00000000000E+00 -0.16644108829E+04  0.16644108829E+04  0.25500000920E-02 0.  1.
    10030    2    1    2    0    0  0.00000000000E+00  0.00000000000E+00  0.39233420874E+03  0.37211559745E+04  0.37004156057E+04 0.  0.
        1    1    3    3  502    0  0.13618467589E+04 -0.75825088230E+03  0.11985982698E+04  0.19662677355E+04  0.50400001928E-02 0. -1.
       -1    1    3    3    0  502 -0.13618467589E+04  0.75825088230E+03 -0.80626406103E+03  0.17548882390E+04  0.50400001928E-02 0.  1.
</event>
<event>
 5   0  0.1740290E-08  0.3701781E+04  0.7818609E-02  0.8067567E-01
       -2   -1    0    0    0  501  0.00000000000E+00  0.00000000000E+00  0.15068881927E+04  0.15068881927E+04  0.25500000920E-02 0.  1.
        2   -1    0    0  501    0  0.00000000000E+00  0.00000000000E+00 -0.22734238476E+04  0.22734238476E+04  0.25500000920E-02 0. -1.
    10030    2    1    2    0    0  0.00000000000E+00  0.00000000000E+00 -0.76653565488E+03  0.37803120403E+04  0.37017809514E+04 0.  0.
        5    1    3    3  502    0  0.24032066360E+03  0.93623545270E+03 -0.19951966619E+04  0.22170075900E+04  0.46999998093E+01 0. -1.
       -5    1    3    3    0  502 -0.24032066360E+03 -0.93623545270E+03  0.12286610070E+04  0.15633044503E+04  0.46999998093E+01 0.  1.
</event>
<event>
 5   0  0.1740290E-08  0.3700596E+04  0.7818609E-02  0.8067830E-01
       -2   -1    0    0    0  501  0.00000000000E+00  0.00000000000E+00  0.20730809183E+04  0.20730809183E+04  0.25500000920E-02 0. -1.
        2   -1    0    0  501    0  0.00000000000E+00  0.00000000000E+00 -0.16514562813E+04  0.16514562813E+04  0.25500000920E-02 0.  1.
    10030    2    1    2    0    0  0.00000000000E+00  0.00000000000E+00  0.42162463699E+03  0.37245371996E+04  0.37005959003E+04 0.  0.
        5    1    3    3  502    0 -0.39911922034E+02  0.10412655402E+04 -0.13280508788E+04  0.16880663830E+04  0.46999998093E+01 0.  1.
       -5    1    3    3    0  502  0.39911922034E+02 -0.10412655402E+04  0.17496755158E+04  0.20364708167E+04  0.46999998093E+01 0. -1.
</event>
<event>
 5   0  0.5714125E-09  0.3699895E+04  0.7818609E-02  0.8067985E-01
        1   -1    0    0  501    0  0.00000000000E+00  0.00000000000E+00  0.17371407492E+04  0.17371407492E+04  0.50400001928E-02 0.  1.
       -1   -1    0    0    0  501  0.00000000000E+00  0.00000000000E+00 -0.19700802208E+04  0.19700802208E+04  0.50400001928E-02 0. -1.
    10030    2    1    2    0    0  0.00000000000E+00  0.00000000000E+00 -0.23293947168E+03  0.37072209700E+04  0.36998954746E+04 0.  0.
        4    1    3    3  502    0  0.75626399411E+03  0.24845390580E+03 -0.17896983350E+04  0.19587461079E+04  0.12699999809E+01 0. -1.
       -4    1    3    3    0  502 -0.75626399411E+03 -0.24845390580E+03  0.15567588633E+04  0.17484748621E+04  0.12699999809E+01 0.  1.
</event>
<event>
 5   0  0.5714125E-09  0.3683913E+04  0.7818609E-02  0.8071536E-01
        1   -1    0    0  501    0  0.00000000000E+00  0.00000000000E+00  0.24336902100E+04  0.24336902101E+04  0.50400001928E-02 0. -1.
       -1   -1    0    0    0  501  0.00000000000E+00  0.00000000000E+00 -0.13940981777E+04  0.13940981778E+04  0.50400001928E-02 0.  1.
    10030    2    1    2    0    0  0.00000000000E+00  0.00000000000E+00  0.10395920323E+04  0.38277883878E+04  0.36839126412E+04 0.  0.
        4    1    3    3  502    0  0.17279201539E+04  0.53167287801E+03  0.88630033810E+03  0.20134333884E+04  0.12699999809E+01 0. -1.
       -4    1    3    3    0  502 -0.17279201539E+04 -0.53167287801E+03  0.15329169420E+03  0.18143549994E+04  0.12699999809E+01 0.  1.
</event>
<event>
 5   0  0.5714125E-09  0.3695242E+04  0.7818609E-02  0.8069017E-01
        1   -1    0    0  501    0  0.00000000000E+00  0.00000000000E+00  0.16122445165E+04  0.16122445165E+04  0.50400001928E-02 0. -1.
       -1   -1    0    0    0  501  0.00000000000E+00  0.00000000000E+00 -0.21173605514E+04  0.21173605514E+04  0.50400001928E-02 0.  1.
    10030    2    1    2    0    0  0.00000000000E+00  0.00000000000E+00 -0.50511603491E+03  0.37296050679E+04  0.36952417720E+04 0.  0.
        2    1    3    3  502    0  0.16653646763E+04  0.77578764772E+03 -0.45038315621E+03  0.18915948210E+04  0.25500000920E-02 0. -1.
       -2    1    3    3    0  502 -0.16653646763E+04 -0.77578764772E+03 -0.54732878700E+02  0.18380102469E+04  0.25500000920E-02 0.  1.
</event>
<event>
 5   0  0.1725865E-08  0.3699893E+04  0.7818609E-02  0.8067985E-01
       -2   -1    0    0    0  501  0.00000000000E+00  0.00000000000E+00  0.13110928087E+04  0.13110928087E+04  0.25500000920E-02 0. -1.
        2   -1    0    0  501    0  0.00000000000E+00  0.00000000000E+00 -0.26102673483E+04  0.26102673483E+04  0.25500000920E-02 0.  1.
    10030    2    1    2    0    0  0.00000000000E+00  0.00000000000E+00 -0.12991745396E+04  0.39213601571E+04  0.36998933764E+04 0.  0.
        1    1    3    3  502    0  0.17803232869E+04 -0.41838088880E+03 -0.35413748817E+03  0.18627954623E+04  0.50400001928E-02 0.  1.
       -1    1    3    3    0  502 -0.17803232869E+04  0.41838088880E+03 -0.94503705145E+03  0.20585646947E+04  0.50400001928E-02 0. -1.
</event>
<event>
 5   0  0.1740290E-08  0.3700688E+04  0.7818609E-02  0.8067809E-01
       -2   -1    0    0    0  501  0.00000000000E+00  0.00000000000E+00  0.30232678838E+04  0.30232678838E+04  0.25500000920E-02 0.  1.
        2   -1    0    0  501    0  0.00000000000E+00  0.00000000000E+00 -0.11324740579E+04  0.11324740579E+04  0.25500000920E-02 0. -1.
    10030    2    1    2    0    0  0.00000000000E+00  0.00000000000E+00  0.18907938260E+04  0.41557419417E+04  0.37006877461E+04 0.  0.
        5    1    3    3  502    0 -0.11615324514E+04 -0.79337903712E+03 -0.40456481103E+03  0.14636607218E+04  0.46999998093E+01 0. -1.
       -5    1    3    3    0  502  0.11615324514E+04  0.79337903712E+03  0.22953586370E+04  0.26920812199E+04  0.46999998093E+01 0.  1.
</event>
<event>
 5   0  0.1757996E-08  0.3698859E+04  0.7818609E-02  0.8068215E-01
       -2   -1    0    0    0  501  0.00000000000E+00  0.00000000000E+00  0.24804175409E+04  0.24804175409E+04  0.25500000920E-02 0. -1.
        2   -1    0    0  501    0  0.00000000000E+00  0.00000000000E+00 -0.13789570924E+04  0.13789570924E+04  0.25500000920E-02 0.  1.
    10030    2    1    2    0    0  0.00000000000E+00  0.00000000000E+00  0.11014604485E+04  0.38593746333E+04  0.36988589376E+04 0.  0.
        3    1    3    3  502    0  0.16031752600E+03 -0.17879772289E+04  0.10148069973E+04  0.20621342178E+04  0.10100000352E+00 0.  1.
       -3    1    3    3    0  502 -0.16031752600E+03  0.17879772289E+04  0.86653451288E+02  0.17972404155E+04  0.10100000352E+00 0. -1.
</event>
<event>
 5   0  0.5714125E-09  0.3703639E+04  0.7818609E-02  0.8067156E-01
       -1   -1    0    0    0  501  0.00000000000E+00  0.00000000000E+00  0.23475401670E+04  0.23475401670E+04  0.50400001928E-02 0. -1.
        1   -1    0    0  501    0  0.00000000000E+00  0.00000000000E+00 -0.14607778363E+04  0.14607778363E+04  0.50400001928E-02 0.  1.
    10030    2    1    2    0    0  0.00000000000E+00  0.00000000000E+00  0.88676233073E+03  0.38083180034E+04  0.37036385601E+04 0.  0.
        4    1    3    3  502    0  0.51499808403E+03 -0.59303322095E+03  0.21677775371E+04  0.23056826518E+04  0.12699999809E+01 0. -1.
       -4    1    3    3    0  502 -0.51499808403E+03  0.59303322095E+03 -0.12810152064E+04  0.15026353515E+04  0.12699999809E+01 0.  1.
</event>
<event>
 5   0  0.1725865E-08  0.3699886E+04  0.7818609E-02  0.8067987E-01
        2   -1    0    0  501    0  0.00000000000E+00  0.00000000000E+00  0.20334908947E+04  0.20334908947E+04  0.25500000920E-02 0.  1.
       -2   -1    0    0    0  501  0.00000000000E+00  0.00000000000E+00 -0.16829626078E+04  0.16829626078E+04  0.25500000920E-02 0. -1.
    10030    2    1    2    0    0  0.00000000000E+00  0.00000000000E+00  0.35052828689E+03  0.37164535026E+04  0.36998860195E+04 0.  0.
        1    1    3    3  502    0  0.88068816942E+03 -0.16664616024E+03 -0.14502859557E+04  0.17049081934E+04  0.50400001928E-02 0. -1.
       -1    1    3    3    0  502 -0.88068816942E+03  0.16664616024E+03  0.18008142426E+04  0.20115453092E+04  0.50400001928E-02 0.  1.
</event>
<event>
 5   0  0.5714125E-09  0.3699702E+04  0.7818609E-02  0.8068028E-01
        1   -1    0    0  501    0  0.00000000000E+00  0.00000000000E+00  0.26855522581E+04  0.26855522581E+04  0.50400001928E-02 0.  1.
       -1   -1    0    0    0  501  0.00000000000E+00  0.00000000000E+00 -0.12742069273E+04  0.12742069273E+04  0.50400001928E-02 0. -1.
    10030    2    1    2    0    0  0.00000000000E+00  0.00000000000E+00  0.14113453308E+04  0.39597591854E+04  0.36997023074E+04 0.  0.
        4    1    3    3  502    0  0.14015344849E+04 -0.11266322366E+04  0.24117540499E+03  0.18143225452E+04  0.12699999809E+01 0. -1.
       -4    1    3    3    0  502 -0.14015344849E+04  0.11266322366E+04  0.11701699258E+04  0.21454366402E+04  0.12699999809E+01 0.  1.
</event>
<event>
 5   0  0.1757996E-08  0.3701210E+04  0.7818609E-02  0.8067694E-01
       -2   -1    0    0    0  501  0.00000000000E+00  0.00000000000E+00  0.14261406067E+04  0.14261406067E+04  0.25500000920E-02 0.  1.
        2   -1    0    0  501    0  0.00000000000E+00  0.00000000000E+00 -0.24014028644E+04  0.24014028644E+04  0.25500000920E-02 0. -1.
    10030    2    1    2    0    0  0.00000000000E+00  0.00000000000E+00 -0.97526225766E+03  0.38275434710E+04  0.37012096065E+04 0.  0.
        3    1    3    3  502    0 -0.60340177476E+03 -0.17452788244E+04 -0.61278367400E+03  0.19456607407E+04  0.10100000352E+00 0.  1.
       -3    1    3    3    0  502  0.60340177476E+03  0.17452788244E+04 -0.36247858366E+03  0.18818827303E+04  0.10100000352E+00 0. -1.
</event>
<event>
 5   0  0.1825308E-08  0.3700483E+04  0.7818609E-02  0.8067855E-01
        2   -1    0    0  501    0  0.00000000000E+00  0.00000000000E+00  0.20441645460E+04  0.20441645460E+04  0.25500000920E-02 0.  1.
       -2   -1    0    0    0  501  0.00000000000E+00  0.00000000000E+00 -0.16747153177E+04  0.16747153177E+04  0.25500000920E-02 0. -1.
    10030    2    1    2    0    0  0.00000000000E+00  0.00000000000E+00  0.36944922831E+03  0.37188798637E+04  0.37004830372E+04 0.  0.
        4    1    3    3  502    0 -0.72911638704E+03  0.68950688029E+03  0.17469176440E+04  0.20146347837E+04  0.12699999809E+01 0.  1.
       -4    1    3    3    0  502  0.72911638704E+03 -0.68950688029E+03 -0.13774684157E+04  0.17042450801E+04  0.12699999809E+01 0. -1.
</event>
<event>
 5   0  0.5714125E-09  0.3700479E+04  0.7818609E-02  0.8067856E-01
        1   -1    0    0  501    0  0.00000000000E+00  0.00000000000E+00  0.20491692612E+04  0.20491692612E+04  0.50400001928E-02 0. -1.
       -1   -1    0    0    0  501  0.00000000000E+00  0.00000000000E+00 -0.16706214553E+04  0.16706214553E+04  0.50400001928E-02 0.  1.
    10030    2    1    2    0    0  0.00000000000E+00  0.00000000000E+00  0.37854780595E+03  0.37197907165E+04  0.37004789600E+04 0.  0.
        1    1    3    3  502    0  0.13293983651E+04 -0.36607483711E+03  0.14294365341E+04  0.19861016099E+04  0.50400001928E-02 0. -1.
       -1    1    3    3    0  502 -0.13293983651E+04  0.36607483711E+03 -0.10508887282E+04  0.17336891067E+04  0.50400001928E-02 0.  1.
</event>
<event>
 5   0  0.1725865E-08  0.3700945E+04  0.7818609E-02  0.8067752E-01
       -2   -1    0    0    0  501  0.00000000000E+00  0.00000000000E+00  0.28957652708E+04  0.28957652708E+04  0.25500000920E-02 0. -1.
        2   -1    0    0  501    0  0.00000000000E+00  0.00000000000E+00 -0.11825022961E+04  0.11825022961E+04  0.25500000920E-02 0.  1.
    10030    2    1    2    0    0  0.00000000000E+00  0.00000000000E+00  0.17132629747E+04  0.40782675669E+04  0.37009453288E+04 0.  0.
        1    1    3    3  502    0  0.83131322473E+03 -0.16375964915E+04  0.60669181155E+03  0.19341351816E+04  0.50400001928E-02 0.  1.
       -1    1    3    3    0  502 -0.83131322473E+03  0.16375964915E+04  0.11065711631E+04  0.21441323853E+04  0.50400001928E-02 0. -1.
</event>
<event>
 5   0  0.5714125E-09  0.3700321E+04  0.7818609E-02  0.8067891E-01
       -1   -1    0    0    0  501  0.00000000000E+00  0.00000000000E+00  0.22241777456E+04  0.22241777456E+04  0.50400001928E-02 0.  1.
        1   -1    0    0  501    0  0.00000000000E+00  0.00000000000E+00 -0.15390380289E+04  0.15390380289E+04  0.50400001928E-02 0. -1.
    10030    2    1    2    0    0  0.00000000000E+00  0.00000000000E+00  0.68513971669E+03  0.37632157745E+04  0.37003211393E+04 0.  0.
        5    1    3    3  502    0 -0.12194466326E+04  0.11961239719E+04  0.10655034270E+04  0.20132268350E+04  0.46999998093E+01 0.  1.
       -5    1    3    3    0  502  0.12194466326E+04 -0.11961239719E+04 -0.38036371032E+03  0.17499889395E+04  0.46999998093E+01 0. -1.
</event>
<event>
 5   0  0.5714125E-09  0.3686570E+04  0.7818609E-02  0.8070945E-01
       -1   -1    0    0    0  501  0.00000000000E+00  0.00000000000E+00  0.15439373912E+04  0.15439373912E+04  0.50400001928E-02 0.  1.
        1   -1    0    0  501    0  0.00000000000E+00  0.00000000000E+00 -0.22006724092E+04  0.22006724092E+04  0.50400001928E-02 0. -1.
    10030    2    1    2    0    0  0.00000000000E+00  0.00000000000E+00 -0.65673501794E+03  0.37446098004E+04  0.36865704487E+04 0.  0.
        5    1    3    3  502    0  0.11076994567E+04  0.64607313146E+03  0.10165894987E+04  0.16364244182E+04  0.46999998093E+01 0.  1.
       -5    1    3    3    0  502 -0.11076994567E+04 -0.64607313146E+03 -0.16733245167E+04  0.21081853822E+04  0.46999998093E+01 0. -1.
</event>
<event>
 5   0  0.5714125E-09  0.3699764E+04  0.7818609E-02  0.8068014E-01
       -1   -1    0    0    0  501  0.00000000000E+00  0.00000000000E+00  0.18207062028E+04  0.18207062028E+04  0.50400001928E-02 0.  1.
        1   -1    0    0  501    0  0.00000000000E+00  0.00000000000E+00 -0.18795254950E+04  0.18795254950E+04  0.50400001928E-02 0. -1.
    10030    2    1    2    0    0  0.00000000000E+00  0.00000000000E+00 -0.58819292219E+02  0.37002316979E+04  0.36997641693E+04 0.  0.
        4    1    3    3  502    0  0.14600191371E+04 -0.11307491340E+04 -0.13810930130E+03  0.18518437507E+04  0.12699999809E+01 0.  1.
       -4    1    3    3    0  502 -0.14600191371E+04  0.11307491340E+04  0.79290009080E+02  0.18483879472E+04  0.12699999809E+01 0. -1.
</event>
<event>
 5   0  0.5714125E-09  0.3696683E+04  0.7818609E-02  0.8068697E-01
       -1   -1    0    0    0  501  0.00000000000E+00  0.00000000000E+00  0.14713940871E+04  0.14713940871E+04  0.50400001928E-02 0. -1.
        1   -1    0    0  501    0  0.00000000000E+00  0.00000000000E+00 -0.23218567839E+04  0.23218567839E+04  0.50400001928E-02 0.  1.
    10030    2    1    2    0    0  0.00000000000E+00  0.00000000000E+00 -0.85046269680E+03  0.37932508711E+04  0.36966830230E+04 0.  0.
        3    1    3    3  502    0 -0.49278987197E+03 -0.13369389514E+04 -0.16333221202E+04  0.21674844350E+04  0.10100000352E+00 0.  1.
       -3    1    3    3    0  502  0.49278987197E+03  0.13369389514E+04  0.78285942339E+03  0.16257664361E+04  0.10100000352E+00 0. -1.
</event>
<event>
 5   0  0.5714125E-09  0.3699415E+04  0.7818609E-02  0.8068092E-01
        1   -1    0    0  501    0  0.00000000000E+00  0.00000000000E+00  0.20619852796E+04  0.20619852796E+04  0.50400001928E-02 0.  1.
       -1   -1    0    0    0  501  0.00000000000E+00  0.00000000000E+00 -0.16592831627E+04  0.16592831627E+04  0.50400001928E-02 0. -1.
    10030    2    1    2    0    0  0.00000000000E+00  0.00000000000E+00  0.40270211692E+03  0.37212684423E+04  0.36994147949E+04 0.  0.
        3    1    3    3  502    0 -0.33735571466E+03  0.14196573003E+03 -0.16224935471E+04  0.16632644009E+04  0.10100000352E+00 0. -1.
       -3    1    3    3    0  502  0.33735571466E+03 -0.14196573003E+03  0.20251956640E+04  0.20580040414E+04  0.10100000352E+00 0.  1.
</event>
<event>
 5   0  0.5714125E-09  0.3700472E+04  0.7818609E-02  0.8067857E-01
       -1   -1    0    0    0  501  0.00000000000E+00  0.00000000000E+00  0.14918368337E+04  0.14918368337E+04  0.50400001928E-02 0.  1.
        1   -1    0    0  501    0  0.00000000000E+00  0.00000000000E+00 -0.22947372796E+04  0.22947372797E+04  0.50400001928E-02 0. -1.
    10030    2    1    2    0    0  0.00000000000E+00  0.00000000000E+00 -0.80290044596E+03  0.37865741134E+04  0.37004721847E+04 0.  0.
        4    1    3    3  502    0  0.13992015742E+03 -0.41083240964E+03 -0.22419136964E+04  0.22835366330E+04  0.12699999809E+01 0. -1.
       -4    1    3    3    0  502 -0.13992015742E+03  0.41083240964E+03  0.14390132505E+04  0.15030374803E+04  0.12699999809E+01 0.  1.
</event>
<event>
 5   0  0.5714125E-09  0.3696970E+04  0.7818609E-02  0.8068634E-01
        1   -1    0    0  501    0  0.00000000000E+00  0.00000000000E+00  0.22664875231E+04  0.22664875232E+04  0.50400001928E-02 0. -1.
       -1   -1    0    0    0  501  0.00000000000E+00  0.00000000000E+00 -0.15075736397E+04  0.15075736397E+04  0.50400001928E-02 0.  1.
    10030    2    1    2    0    0  0.00000000000E+00  0.00000000000E+00  0.75891388342E+03  0.37740611629E+04  0.36969700268E+04 0.  0.
        3    1    3    3  502    0 -0.85589418135E+03 -0.15435779270E+03 -0.12856645032E+04  0.15521966380E+04  0.10100000352E+00 0.  1.
       -3    1    3    3    0  502  0.85589418135E+03  0.15435779270E+03  0.20445783866E+04  0.22218645249E+04  0.10100000352E+00 0. -1.
</event>
<event>
 5   0  0.5714125E-09  0.3699191E+04  0.7818609E-02  0.8068141E-01
       -1   -1    0    0    0  501  0.00000000000E+00  0.00000000000E+00  0.31500941161E+04  0.31500941161E+04  0.50400001928E-02 0.  1.
        1   -1    0    0  501    0  0.00000000000E+00  0.00000000000E+00 -0.10860006141E+04  0.10860006141E+04  0.50400001928E-02 0. -1.
    10030    2    1    2    0    0  0.00000000000E+00  0.00000000000E+00  0.20640935020E+04  0.42360947303E+04  0.36991913412E+04 0.  0.
        1    1    3    3  502    0 -0.14158497878E+04  0.55376633111E+03 -0.17427973886E+03  0.15302487375E+04  0.50400001928E-02 0. -1.
       -1    1    3    3    0  502  0.14158497878E+04 -0.55376633111E+03  0.22383732409E+04  0.27058459928E+04  0.50400001928E-02 0.  1.
</event>
<event>
 5   0  0.5714125E-09  0.3696622E+04  0.7818609E-02  0.8068711E-01
        1   -1    0    0  501    0  0.00000000000E+00  0.00000000000E+00  0.16417589170E+04  0.16417589170E+04  0.50400001928E-02 0.  1.
       -1   -1    0    0    0  501  0.00000000000E+00  0.00000000000E+00 -0.20808495175E+04  0.20808495175E+04  0.50400001928E-02 0. -1.
    10030    2    1    2    0    0  0.00000000000E+00  0.00000000000E+00 -0.43909060051E+03  0.37226084345E+04  0.36966218364E+04 0.  0.
        5    1    3    3  502    0 -0.82512348760E+02 -0.16389842053E+04  0.63681716330E+03  0.17602942091E+04  0.46999998093E+01 0. -1.
       -5    1    3    3    0  502  0.82512348760E+02  0.16389842053E+04 -0.10759077638E+04  0.19623142254E+04  0.46999998093E+01 0.  1.
</event>
<event>
 5   0  0.1757996E-08  0.3695990E+04  0.7818609E-02  0.8068851E-01
        2   -1    0    0  501    0  0.00000000000E+00  0.00000000000E+00  0.26917532785E+04  0.26917532785E+04  0.25500000920E-02 0. -1.
       -2   -1    0    0    0  501  0.00000000000E+00  0.00000000000E+00 -0.12687212802E+04  0.12687212802E+04  0.25500000920E-02 0.  1.
    10030    2    1    2    0    0  0.00000000000E+00  0.00000000000E+00  0.14230319983E+04  0.39604745588E+04  0.36959895376E+04 0.  0.
        3    1    3    3  502    0  0.25579997136E+03 -0.41719965484E+03  0.26210574145E+04  0.26663516568E+04  0.10100000352E+00 0. -1.
       -3    1    3    3    0  502 -0.25579997136E+03  0.41719965484E+03 -0.11980254162E+04  0.12941229020E+04  0.10100000352E+00 0.  1.
</event>
<event>
 5   0  0.1856107E-08  0.3696019E+04  0.7818609E-02  0.8068845E-01
        2   -1    0    0  501    0  0.00000000000E+00  0.00000000000E+00  0.19541327805E+04  0.19541327805E+04  0.25500000920E-02 0. -1.
       -2   -1    0    0    0  501  0.00000000000E+00  0.00000000000E+00 -0.17476496987E+04  0.17476496987E+04  0.25500000920E-02 0.  1.
    10030    2    1    2    0    0  0.00000000000E+00  0.00000000000E+00  0.20648308183E+03  0.37017824792E+04  0.36960192451E+04 0.  0.
        2    1    3    3  502    0  0.84554222315E+03 -0.38319111247E+03 -0.14971745465E+04  0.17616210440E+04  0.25500000920E-02 0.  1.
       -2    1    3    3    0  502 -0.84554222315E+03  0.38319111247E+03  0.17036576284E+04  0.19401614352E+04  0.25500000920E-02 0. -1.
</event>
<event>
 5   0  0.5714125E-09  0.3700083E+04  0.7818609E-02  0.8067943E-01
        1   -1    0    0  501    0  0.00000000000E+00  0.00000000000E+00  0.18168598162E+04  0.18168598162E+04  0.50400001928E-02 0.  1.
       -1   -1    0    0    0  501  0.00000000000E+00  0.00000000000E+00 -0.18838296802E+04  0.18838296802E+04  0.50400001928E-02 0. -1.
    10030    2    1    2    0    0  0.00000000000E+00  0.00000000000E+00 -0.66969864000E+02  0.37006894964E+04  0.37000834837E+04 0.  0.
        5    1    3    3  502    0  0.85659167121E+03  0.55440887434E+03  0.15099832519E+04  0.18224132359E+04  0.46999998093E+01 0.  1.
       -5    1    3    3    0  502 -0.85659167121E+03 -0.55440887434E+03 -0.15769531159E+04  0.18782762606E+04  0.46999998093E+01 0. -1.
</event>
<event>
 5   0  0.1757996E-08  0.3697542E+04  0.7818609E-02  0.8068507E-01
       -2   -1    0    0    0  501  0.00000000000E+00  0.00000000000E+00  0.17280191487E+04  0.17280191487E+04  0.25500000920E-02 0.  1.
        2   -1    0    0  501    0  0.00000000000E+00  0.00000000000E+00 -0.19779612645E+04  0.19779612645E+04  0.25500000920E-02 0. -1.
    10030    2    1    2    0    0  0.00000000000E+00  0.00000000000E+00 -0.24994211579E+03  0.37059804132E+04  0.36975423949E+04 0.  0.
        3    1    3    3  502    0  0.27227462888E+03  0.13105801158E+04  0.11531650333E+04  0.17667889850E+04  0.10100000352E+00 0.  1.
       -3    1    3    3    0  502 -0.27227462888E+03 -0.13105801158E+04 -0.14031071490E+04  0.19391914282E+04  0.10100000352E+00 0. -1.
</event>
<event>
 5   0  0.1725865E-08  0.3700984E+04  0.7818609E-02  0.8067744E-01
       -2   -1    0    0    0  501  0.00000000000E+00  0.00000000000E+00  0.11026566765E+04  0.11026566765E+04  0.25500000920E-02 0.  1.
        2   -1    0    0  501    0  0.00000000000E+00  0.00000000000E+00 -0.31055177799E+04  0.31055177799E+04  0.25500000920E-02 0. -1.
    10030    2    1    2    0    0  0.00000000000E+00  0.00000000000E+00 -0.20028611033E+04  0.42081744564E+04  0.37009836066E+04 0.  0.
        1    1    3    3  502    0  0.13757989050E+04 -0.12246245265E+03 -0.24016555130E+04  0.27705178004E+04  0.50400001928E-02 0. -1.
       -1    1    3    3    0  502 -0.13757989050E+04  0.12246245265E+03  0.39879440971E+03  0.14376566560E+04  0.50400001928E-02 0.  1.
</event>
<event>
 5   0  0.1825308E-08  0.3699555E+04  0.7818609E-02  0.8068060E-01
       -2   -1    0    0    0  501  0.00000000000E+00  0.00000000000E+00  0.16124952412E+04  0.16124952412E+04  0.25500000920E-02 0.  1.
        2   -1    0    0  501    0  0.00000000000E+00  0.00000000000E+00 -0.21219767490E+04  0.21219767490E+04  0.25500000920E-02 0. -1.
    10030    2    1    2    0    0  0.00000000000E+00  0.00000000000E+00 -0.50948150782E+03  0.37344719902E+04  0.36995553299E+04 0.  0.
        4    1    3    3  502    0 -0.43507867610E+03 -0.13266615065E+04 -0.14795979112E+04  0.20343391554E+04  0.12699999809E+01 0. -1.
       -4    1    3    3    0  502  0.43507867610E+03  0.13266615065E+04  0.97011640342E+03  0.17001328349E+04  0.12699999809E+01 0.  1.
</event>
<event>
 5   0  0.1856107E-08  0.3699357E+04  0.7818609E-02  0.8068104E-01
        2   -1    0    0  501    0  0.00000000000E+00  0.00000000000E+00  0.15566794526E+04  0.15566794526E+04  0.25500000920E-02 0. -1.
       -2   -1    0    0    0  501  0.00000000000E+00  0.00000000000E+00 -0.21978255033E+04  0.21978255033E+04  0.25500000920E-02 0.  1.
    10030    2    1    2    0    0  0.00000000000E+00  0.00000000000E+00 -0.64114605067E+03  0.37545049559E+04  0.36993565935E+04 0.  0.
        2    1    3    3  502    0 -0.14425025268E+04  0.15971488763E+03 -0.14843969587E+04  0.20759953555E+04  0.25500000920E-02 0.  1.
       -2    1    3    3    0  502  0.14425025268E+04 -0.15971488763E+03  0.84325090800E+03  0.16785096005E+04  0.25500000920E-02 0. -1.
</event>
<event>
 5   0  0.5714125E-09  0.3700153E+04  0.7818609E-02  0.8067928E-01
        1   -1    0    0  501    0  0.00000000000E+00  0.00000000000E+00  0.11875148979E+04  0.11875148979E+04  0.50400001928E-02 0.  1.
       -1   -1    0    0    0  501  0.00000000000E+00  0.00000000000E+00 -0.28823076294E+04  0.28823076294E+04  0.50400001928E-02 0. -1.
    10030    2    1    2    0    0  0.00000000000E+00  0.00000000000E+00 -0.16947927315E+04  0.40698225273E+04  0.37001531051E+04 0.  0.
        5    1    3    3  502    0 -0.16600396044E+04 -0.20324112140E+03  0.22658696882E+02  0.16725949744E+04  0.46999998093E+01 0.  1.
       -5    1    3    3    0  502  0.16600396044E+04  0.20324112140E+03 -0.17174514284E+04  0.23972275529E+04  0.46999998093E+01 0. -1.
</event>
<event>
 5   0  0.1856107E-08  0.3698281E+04  0.7818609E-02  0.8068343E-01
        2   -1    0    0  501    0  0.00000000000E+00  0.00000000000E+00  0.11926248036E+04  0.11926248036E+04  0.25500000920E-02 0.  1.
       -2   -1    0    0    0  501  0.00000000000E+00  0.00000000000E+00 -0.28670542320E+04  0.28670542320E+04  0.25500000920E-02 0. -1.
    10030    2    1    2    0    0  0.00000000000E+00  0.00000000000E+00 -0.16744294284E+04  0.40596790356E+04  0.36982806764E+04 0.  0.
        2    1    3    3  502    0  0.12064873621E+03  0.13839921925E+04  0.50242256421E+03  0.14773012352E+04  0.25500000920E-02 0.  1.
       -2    1    3    3    0  502 -0.12064873621E+03 -0.13839921925E+04 -0.21768519926E+04  0.25823778004E+04  0.25500000920E-02 0. -1.
</event>
<event>
 5   0  0.5714125E-09  0.3699954E+04  0.7818609E-02  0.8067972E-01
       -1   -1    0    0    0  501  0.00000000000E+00  0.00000000000E+00  0.14420802683E+04  0.14420802683E+04  0.50400001928E-02 0.  1.
        1   -1    0    0  501    0  0.00000000000E+00  0.00000000000E+00 -0.23732480722E+04  0.23732480722E+04  0.50400001928E-02 0. -1.
    10030    2    1    2    0    0  0.00000000000E+00  0.00000000000E+00 -0.93116780393E+03  0.38153283405E+04  0.36999536304E+04 0.  0.
        5    1    3    3  502    0 -0.94866772971E+02 -0.12529725023E+04  0.93449204025E+03  0.15659620875E+04  0.46999998093E+01 0.  1.
       -5    1    3    3    0  502  0.94866772971E+02  0.12529725023E+04 -0.18656598442E+04  0.22493662530E+04  0.46999998093E+01 0. -1.
</event>
<event>
 5   0  0.5714125E-09  0.3692567E+04  0.7818609E-02  0.8069611E-01
        1   -1    0    0  501    0  0.00000000000E+00  0.00000000000E+00  0.20199142642E+04  0.20199142642E+04  0.50400001928E-02 0.  1.
       -1   -1    0    0    0  501  0.00000000000E+00  0.00000000000E+00 -0.16875779806E+04  0.16875779806E+04  0.50400001928E-02 0. -1.
    10030    2    1    2    0    0  0.00000000000E+00  0.00000000000E+00  0.33233628364E+03  0.37074922448E+04  0.36925670393E+04 0.  0.
        4    1    3    3  502    0 -0.17464390258E+03  0.14626126887E+04  0.12837822391E+04  0.19539280489E+04  0.12699999809E+01 0.  1.
       -4    1    3    3    0  502  0.17464390258E+03 -0.14626126887E+04 -0.95144595551E+03  0.17535641959E+04  0.12699999809E+01 0. -1.
</event>
<event>
 5   0  0.5714125E-09  0.3700318E+04  0.7818609E-02  0.8067891E-01
       -1   -1    0    0    0  501  0.00000000000E+00  0.00000000000E+00  0.15936496765E+04  0.15936496765E+04  0.50400001928E-02 0.  1.
        1   -1    0    0  501    0  0.00000000000E+00  0.00000000000E+00 -0.21479558263E+04  0.21479558263E+04  0.50400001928E-02 0. -1.
    10030    2    1    2    0    0  0.00000000000E+00  0.00000000000E+00 -0.55430614984E+03  0.37416055028E+04  0.37003184229E+04 0.  0.
        2    1    3    3  502    0 -0.98432431970E+03 -0.11435558963E+04  0.80552944848E+03  0.17104070120E+04  0.25500000920E-02 0.  1.
       -2    1    3    3    0  502  0.98432431970E+03  0.11435558963E+04 -0.13598355983E+04  0.20311984908E+04  0.25500000920E-02 0. -1.
</event>
<event>
 5   0  0.5714125E-09  0.3700433E+04  0.7818609E-02  0.8067866E-01
        1   -1    0    0  501    0  0.00000000000E+00  0.00000000000E+00  0.12348282588E+04  0.12348282588E+04  0.50400001928E-02 0.  1.
       -1   -1    0    0    0  501  0.00000000000E+00  0.00000000000E+00 -0.27722898551E+04  0.27722898551E+04  0.50400001928E-02 0. -1.
    10030    2    1    2    0    0  0.00000000000E+00  0.00000000000E+00 -0.15374615963E+04  0.40071181140E+04  0.37004334096E+04 0.  0.
        4    1    3    3  502    0 -0.94903348145E+03  0.73902448310E+03 -0.22911196621E+04  0.25876732124E+04  0.12699999809E+01 0. -1.
       -4    1    3    3    0  502  0.94903348145E+03 -0.73902448310E+03  0.75365806575E+03  0.14194449015E+04  0.12699999809E+01 0.  1.
</event>
<event>
 5   0  0.1725865E-08  0.3699696E+04  0.7818609E-02  0.8068029E-01
       -2   -1    0    0    0  501  0.00000000000E+00  0.00000000000E+00  0.14567767670E+04  0.14567767670E+04  0.25500000920E-02 0.  1.
        2   -1    0    0  501    0  0.00000000000E+00  0.00000000000E+00 -0.23489787717E+04  0.23489787717E+04  0.25500000920E-02 0. -1.
    10030    2    1    2    0    0  0.00000000000E+00  0.00000000000E+00 -0.89220200472E+03  0.38057555387E+04  0.36996960420E+04 0.  0.
        1    1    3    3  502    0 -0.15661309820E+04  0.94952739470E+03 -0.71349345851E+03  0.19655638991E+04  0.50400001928E-02 0. -1.
       -1    1    3    3    0  502  0.15661309820E+04 -0.94952739470E+03 -0.17870854621E+03  0.18401916396E+04  0.50400001928E-02 0.  1.
</event>
<event>
 5   0  0.1825308E-08  0.3699800E+04  0.7818609E-02  0.8068006E-01
        2   -1    0    0  501    0  0.00000000000E+00  0.00000000000E+00  0.16356873977E+04  0.16356873977E+04  0.25500000920E-02 0.  1.
       -2   -1    0    0    0  501  0.00000000000E+00  0.00000000000E+00 -0.20921665110E+04  0.20921665110E+04  0.25500000920E-02 0. -1.
    10030    2    1    2    0    0  0.00000000000E+00  0.00000000000E+00 -0.45647911338E+03  0.37278539087E+04  0.36998002086E+04 0.  0.
        4    1    3    3  502    0  0.10884676452E+03 -0.16722487760E+04 -0.10176759023E+04  0.19605941554E+04  0.12699999809E+01 0. -1.
       -4    1    3    3    0  502 -0.10884676452E+03  0.16722487760E+04  0.56119678887E+03  0.17672597534E+04  0.12699999809E+01 0.  1.
</event>
<event>
 5   0  0.5714125E-09  0.3709473E+04  0.7818609E-02  0.8065866E-01
        1   -1    0    0  501    0  0.00000000000E+00  0.00000000000E+00  0.18906339118E+04  0.18906339118E+04  0.50400001928E-02 0. -1.
       -1   -1    0    0    0  501  0.00000000000E+00  0.00000000000E+00 -0.18195210848E+04  0.18195210848E+04  0.50400001928E-02 0.  1.
    10030    2    1    2    0    0  0.00000000000E+00  0.00000000000E+00  0.71112826974E+02  0.37101549966E+04  0.37094734214E+04 0.  0.
        3    1    3    3  502    0  0.32924788502E+03  0.14678233118E+04 -0.10496032171E+04  0.18342781600E+04  0.10100000352E+00 0.  1.
       -3    1    3    3    0  502 -0.32924788502E+03 -0.14678233118E+04  0.11207160441E+04  0.18758768366E+04  0.10100000352E+00 0. -1.
</event>
<event>
 5   0  0.1757996E-08  0.3702057E+04  0.7818609E-02  0.8067506E-01
        2   -1    0    0  501    0  0.00000000000E+00  0.00000000000E+00  0.22077048396E+04  0.22077048396E+04  0.25500000920E-02 0. -1.
       -2   -1    0    0    0  501  0.00000000000E+00  0.00000000000E+00 -0.15519764381E+04  0.15519764381E+04  0.25500000920E-02 0.  1.
    10030    2    1    2    0    0  0.00000000000E+00  0.00000000000E+00  0.65572840158E+03  0.37596812777E+04  0.37020566680E+04 0.  0.
        3    1    3    3  502    0  0.25486582362E+03  0.21043423490E+03  0.21774950980E+04  0.22024359394E+04  0.10100000352E+00 0. -1.
       -3    1    3    3    0  502 -0.25486582362E+03 -0.21043423490E+03 -0.15217666964E+04  0.15572453383E+04  0.10100000352E+00 0.  1.
</event>
<event>
 5   0  0.5714125E-09  0.3696339E+04  0.7818609E-02  0.8068774E-01
        1   -1    0    0  501    0  0.00000000000E+00  0.00000000000E+00  0.17312632503E+04  0.17312632503E+04  0.50400001928E-02 0.  1.
       -1   -1    0    0    0  501  0.00000000000E+00  0.00000000000E+00 -0.19729701792E+04  0.19729701792E+04  0.50400001928E-02 0. -1.
    10030    2    1    2    0    0  0.00000000000E+00  0.00000000000E+00 -0.24170692888E+03  0.37042334295E+04  0.36963391431E+04 0.  0.
        3    1    3    3  502    0  0.69205856441E+03  0.10578605871E+04 -0.14719601136E+04  0.19402785018E+04  0.10100000352E+00 0. -1.
       -3    1    3    3    0  502 -0.69205856441E+03 -0.10578605871E+04  0.12302531847E+04  0.17639549277E+04  0.10100000352E+00 0.  1.
</event>
<event>
 5   0  0.5714125E-09  0.3699645E+04  0.7818609E-02  0.8068041E-01
        1   -1    0    0  501    0  0.00000000000E+00  0.00000000000E+00  0.14340827274E+04  0.14340827274E+04  0.50400001928E-02 0.  1.
       -1   -1    0    0    0  501  0.00000000000E+00  0.00000000000E+00 -0.23860847082E+04  0.23860847082E+04  0.50400001928E-02 0. -1.
    10030    2    1    2    0    0  0.00000000000E+00  0.00000000000E+00 -0.95200198076E+03  0.38201674356E+04  0.36996447755E+04 0.  0.
        2    1    3    3  502    0  0.72169477791E+03 -0.16673185241E+04 -0.83525530509E+03  0.19996114217E+04  0.25500000920E-02 0. -1.
       -2    1    3    3    0  502 -0.72169477791E+03  0.16673185241E+04 -0.11674667568E+03  0.18205560139E+04  0.25500000920E-02 0.  1.
</event>
<event>
 5   0  0.1856107E-08  0.3695563E+04  0.7818609E-02  0.8068946E-01
        2   -1    0    0  501    0  0.00000000000E+00  0.00000000000E+00  0.12721928538E+04  0.12721928538E+04  0.25500000920E-02 0.  1.
       -2   -1    0    0    0  501  0.00000000000E+00  0.00000000000E+00 -0.26837880591E+04  0.26837880591E+04  0.25500000920E-02 0. -1.
    10030    2    1    2    0    0  0.00000000000E+00  0.00000000000E+00 -0.14115952053E+04  0.39559809129E+04  0.36955627392E+04 0.  0.
        2    1    3    3  502    0  0.82223275020E+03 -0.81166854240E+03  0.83783903821E+03  0.14271814083E+04  0.25500000920E-02 0.  1.
       -2    1    3    3    0  502 -0.82223275020E+03  0.81166854240E+03 -0.22494342435E+04  0.25287995046E+04  0.25500000920E-02 0. -1.
</event>
<event>
 5   0  0.5714125E-09  0.3700789E+04  0.7818609E-02  0.8067787E-01
       -3   -1    0    0    0  501  0.00000000000E+00  0.00000000000E+00  0.99626278288E+03  0.99626278800E+03  0.10100000352E+00 0. -1.
        3   -1    0    0  501    0  0.00000000000E+00  0.00000000000E+00 -0.34368032617E+04  0.34368032632E+04  0.10100000352E+00 0.  1.
    10030    2    1    2    0    0  0.00000000000E+00  0.00000000000E+00 -0.24405404788E+04  0.44330660512E+04  0.37007886707E+04 0.  0.
        2    1    3    3  502    0 -0.10439185163E+03 -0.15750595895E+04 -0.23768506684E+04  0.28532664560E+04  0.25500000920E-02 0.  1.
       -2    1    3    3    0  502  0.10439185163E+03  0.15750595895E+04 -0.63689810430E+02  0.15797995952E+04  0.25500000920E-02 0. -1.
</event>
<event>
 5   0  0.5714125E-09  0.3700529E+04  0.7818609E-02  0.8067845E-01
        1   -1    0    0  501    0  0.00000000000E+00  0.00000000000E+00  0.17577510538E+04  0.17577510538E+04  0.50400001928E-02 0.  1.
       -1   -1    0    0    0  501  0.00000000000E+00  0.00000000000E+00 -0.19476471474E+04  0.19476471474E+04  0.50400001928E-02 0. -1.
    10030    2    1    2    0    0  0.00000000000E+00  0.00000000000E+00 -0.18989609367E+03  0.37053982012E+04  0.37005290572E+04 0.  0.
        1    1    3    3  502    0 -0.11806144069E+04  0.90160817545E+03  0.10095587183E+04  0.17960947875E+04  0.50400001928E-02 0.  1.
       -1    1    3    3    0  502  0.11806144069E+04 -0.90160817545E+03 -0.11994548119E+04  0.19093034138E+04  0.50400001928E-02 0. -1.
</event>
<event>
 5   0  0.1825308E-08  0.3699029E+04  0.7818609E-02  0.8068177E-01
        2   -1    0    0  501    0  0.00000000000E+00  0.00000000000E+00  0.23901481846E+04  0.23901481846E+04  0.25500000920E-02 0. -1.
       -2   -1    0    0    0  501  0.00000000000E+00  0.00000000000E+00 -0.14311684704E+04  0.14311684704E+04  0.25500000920E-02 0.  1.
    10030    2    1    2    0    0  0.00000000000E+00  0.00000000000E+00  0.95897971419E+03  0.38213166549E+04  0.36990294518E+04 0.  0.
        4    1    3    3  502    0 -0.18601546306E+02  0.17357593925E+04  0.11389478523E+04  0.20761528145E+04  0.12699999809E+01 0.  1.
       -4    1    3    3    0  502  0.18601546306E+02 -0.17357593925E+04 -0.17996813814E+03  0.17451638404E+04  0.12699999809E+01 0. -1.
</event>
<event>
 5   0  0.5714125E-09  0.3699078E+04  0.7818609E-02  0.8068166E-01
        1   -1    0    0  501    0  0.00000000000E+00  0.00000000000E+00  0.16933288151E+04  0.16933288151E+04  0.50400001928E-02 0. -1.
       -1   -1    0    0    0  501  0.00000000000E+00  0.00000000000E+00 -0.20201592405E+04  0.20201592405E+04  0.50400001928E-02 0.  1.
    10030    2    1    2    0    0  0.00000000000E+00  0.00000000000E+00 -0.32683042544E+03  0.37134880556E+04  0.36990776435E+04 0.  0.
        1    1    3    3  502    0 -0.49022799824E+03  0.11607264957E+04  0.11958107342E+04  0.17371162310E+04  0.50400001928E-02 0. -1.
       -1    1    3    3    0  502  0.49022799824E+03 -0.11607264957E+04 -0.15226411596E+04  0.19763718246E+04  0.50400001928E-02 0.  1.
</event>
<event>
 5   0  0.1825308E-08  0.3697406E+04  0.7818609E-02  0.8068537E-01
        2   -1    0    0  501    0  0.00000000000E+00  0.00000000000E+00  0.29322247265E+04  0.29322247265E+04  0.25500000920E-02 0. -1.
       -2   -1    0    0    0  501  0.00000000000E+00  0.00000000000E+00 -0.11655661505E+04  0.11655661506E+04  0.25500000920E-02 0.  1.
    10030    2    1    2    0    0  0.00000000000E+00  0.00000000000E+00  0.17666585760E+04  0.40977908771E+04  0.36974055158E+04 0.  0.
        4    1    3    3  502    0  0.48951476207E+03 -0.17588260424E+04  0.12056992990E+04  0.21878770903E+04  0.12699999809E+01 0. -1.
       -4    1    3    3    0  502 -0.48951476207E+03  0.17588260424E+04  0.56095927693E+03  0.19099137868E+04  0.12699999809E+01 0.  1.
</event>
<event>
 5   0  0.1740290E-08  0.3703196E+04  0.7818609E-02  0.8067254E-01
       -2   -1    0    0    0  501  0.00000000000E+00  0.00000000000E+00  0.18529413692E+04  0.18529413692E+04  0.25500000920E-02 0.  1.
        2   -1    0    0  501    0  0.00000000000E+00  0.00000000000E+00 -0.18502553936E+04  0.18502553936E+04  0.25500000920E-02 0. -1.
    10030    2    1    2    0    0  0.00000000000E+00  0.00000000000E+00  0.26859756115E+01  0.37031967628E+04  0.37031957887E+04 0.  0.
        5    1    3    3  502    0  0.71749860075E+03  0.10777571551E+04  0.13249852607E+04  0.18525584359E+04  0.46999998093E+01 0.  1.
       -5    1    3    3    0  502 -0.71749860075E+03 -0.10777571551E+04 -0.13222992851E+04  0.18506383269E+04  0.46999998093E+01 0. -1.
</event>
<event>
 5   0  0.5714125E-09  0.3700741E+04  0.7818609E-02  0.8067798E-01
        1   -1    0    0  501    0  0.00000000000E+00  0.00000000000E+00  0.10782572080E+04  0.10782572080E+04  0.50400001928E-02 0.  1.
       -1   -1    0    0    0  501  0.00000000000E+00  0.00000000000E+00 -0.31753744261E+04  0.31753744261E+04  0.50400001928E-02 0. -1.
    10030    2    1    2    0    0  0.00000000000E+00  0.00000000000E+00 -0.20971172182E+04  0.42536316341E+04  0.37007406626E+04 0.  0.
        4    1    3    3  502    0 -0.27371214641E+03 -0.18019448779E+04 -0.14155486972E+04  0.23077485585E+04  0.12699999809E+01 0. -1.
       -4    1    3    3    0  502  0.27371214641E+03  0.18019448779E+04 -0.68156852093E+03  0.19458830756E+04  0.12699999809E+01 0.  1.
</event>
<event>
 5   0  0.1740290E-08  0.3700030E+04  0.7818609E-02  0.8067955E-01
        2   -1    0    0  501    0  0.00000000000E+00  0.00000000000E+00  0.27942496959E+04  0.27942496959E+04  0.25500000920E-02 0. -1.
       -2   -1    0    0    0  501  0.00000000000E+00  0.00000000000E+00 -0.12248569359E+04  0.12248569359E+04  0.25500000920E-02 0.  1.
    10030    2    1    2    0    0  0.00000000000E+00  0.00000000000E+00  0.15693927600E+04  0.40191066319E+04  0.37000303354E+04 0.  0.
        5    1    3    3  502    0 -0.12726136247E+03 -0.49778209877E+03 -0.11457966112E+04  0.12557286476E+04  0.46999998093E+01 0.  1.
       -5    1    3    3    0  502  0.12726136247E+03  0.49778209877E+03  0.27151893712E+04  0.27633779842E+04  0.46999998093E+01 0. -1.
</event>
<event>
 5   0  0.5714125E-09  0.3699899E+04  0.7818609E-02  0.8067984E-01
       -1   -1    0    0    0  501  0.00000000000E+00  0.00000000000E+00  0.31648083232E+04  0.31648083233E+04  0.50400001928E-02 0. -1.
        1   -1    0    0  501    0  0.00000000000E+00  0.00000000000E+00 -0.10813650080E+04  0.10813650080E+04  0.50400001928E-02 0.  1.
    10030    2    1    2    0    0  0.00000000000E+00  0.00000000000E+00  0.20834433152E+04  0.42461733313E+04  0.36998989056E+04 0.  0.
        2    1    3    3  502    0  0.52285982781E+03 -0.15553432259E+04  0.20221618460E+04  0.26041531218E+04  0.25500000920E-02 0. -1.
       -2    1    3    3    0  502 -0.52285982781E+03  0.15553432259E+04  0.61281469199E+02  0.16420202095E+04  0.25500000920E-02 0.  1.
</event>
<event>
 5   0  0.1856107E-08  0.3701573E+04  0.7818609E-02  0.8067613E-01
        2   -1    0    0  501    0  0.00000000000E+00  0.00000000000E+00  0.25470264696E+04  0.25470264696E+04  0.25500000920E-02 0.  1.
       -2   -1    0    0    0  501  0.00000000000E+00  0.00000000000E+00 -0.13448665271E+04  0.13448665271E+04  0.25500000920E-02 0. -1.
    10030    2    1    2    0    0  0.00000000000E+00  0.00000000000E+00  0.12021599425E+04  0.38918929967E+04  0.37015729859E+04 0.  0.
        2    1    3    3  502    0  0.16148421295E+04 -0.44435024647E+03 -0.22697162726E+03  0.16901711050E+04  0.25500000920E-02 0. -1.
       -2    1    3    3    0  502 -0.16148421295E+04  0.44435024647E+03  0.14291315698E+04  0.22017218917E+04  0.25500000920E-02 0.  1.
</event>
<event>
 5   0  0.5714125E-09  0.3706795E+04  0.7818609E-02  0.8066458E-01
       -1   -1    0    0    0  501  0.00000000000E+00  0.00000000000E+00  0.15123975503E+04  0.15123975503E+04  0.50400001928E-02 0.  1.
        1   -1    0    0  501    0  0.00000000000E+00  0.00000000000E+00 -0.22712825883E+04  0.22712825883E+04  0.50400001928E-02 0. -1.
    10030    2    1    2    0    0  0.00000000000E+00  0.00000000000E+00 -0.75888503799E+03  0.37836801387E+04  0.37067949621E+04 0.  0.
        5    1    3    3  502    0  0.10926041650E+04  0.46016912838E+03 -0.18336038371E+04  0.21834982504E+04  0.46999998093E+01 0. -1.
       -5    1    3    3    0  502 -0.10926041650E+04 -0.46016912838E+03  0.10747187991E+04  0.16001818882E+04  0.46999998093E+01 0.  1.
</event>
</LesHouchesEvents>
